Membrane in water
40347
    1TMC1    C1    1   2.857   0.921  11.623 -0.4477 -0.0061 -0.4506
    1TMC1    C2    2   2.766   0.988  11.690 -0.2418 -0.0855  0.2602
    1TMC1    C3    3   2.753   1.122  11.677  0.0654  0.3724 -0.4727
    1TMC1    C4    4   2.953   0.984  11.553 -0.7518 -0.0780 -0.9175
    1TMC1    C5    5   2.938   1.121  11.545  0.1316 -0.4955  0.2582
    1TMC1    C6    6   2.834   1.194  11.601 -0.5794  0.4211  0.2962
    1TMC1     C    7   2.876   0.787  11.669 -0.2526  0.4869  0.1627
    1TMC1     O    8   2.773   0.737  11.710  0.2135 -0.3602 -0.1463
    1TMC1     H    9   2.712   0.934  11.767  0.9754 -1.2046  0.3360
    1TMC1    H1   10   3.033   0.930  11.504 -0.2709 -0.0339 -0.1813
    1TMC1    H2   11   2.800   1.296  11.587  3.6871  1.7036 -0.9625
    1TMC1    C7   12   3.033   1.208  11.485 -0.0446 -0.2718 -0.5764
    1TMC1    C8   13   2.650   1.187  11.749 -0.0977 -0.3930 -0.2348
    1TMC1    O1   14   3.006   1.319  11.452 -0.4210  0.6089 -0.6142
    1TMC1    O2   15   2.646   1.307  11.780  0.3963 -0.3978  0.2821
    1TMC1    O3   16   3.160   1.148  11.492  0.3308  0.3593 -0.3715
    1TMC1    H3   17   3.172   1.071  11.551 -0.3967 -1.3086 -2.4254
    1TMC1    O5   18   2.543   1.112  11.746 -0.1777 -0.1398  0.7878
    1TMC1    H5   19   2.558   1.032  11.691 -1.7903  0.6500 -0.7818
    2MPD2     C   20   3.121   0.349  11.735  0.9671  0.9058 -0.6066
    2MPD2    C1   21   2.992   0.387  11.776  0.1169 -0.7440 -0.6334
    2MPD2    C2   22   2.973   0.526  11.772 -0.0795  0.0854  0.3592
    2MPD2    C3   23   3.052   0.617  11.705 -0.1115  0.1807 -0.2464
    2MPD2    C4   24   3.181   0.578  11.674  0.0803 -0.1275 -0.6370
    2MPD2    C5   25   3.209   0.448  11.700 -0.0901  0.0555  0.3247
    2MPD2     H   26   2.879   0.564  11.811 -1.2618 -3.4145  0.9000
    2MPD2    H1   27   3.253   0.646  11.630 -0.7658  0.5063 -1.0527
    2MPD2    H2   28   3.157   0.247  11.739  1.0293  0.9777  0.9674
    2MPD2    H3   29   3.311   0.416  11.686 -0.1240 -0.1188  0.4829
    2MPD2     N   30   3.005   0.746  11.673  0.0837  0.0096  0.3834
    2MPD2    H5   31   3.075   0.818  11.658 -2.3618  2.1956 -0.4972
    2MPD2    N1   32   2.899   0.303  11.838 -0.4339  0.2890  0.4308
    2MPD2    H7   33   2.811   0.348  11.861 -2.4742 -2.6593 -1.6429
    3TMC1    C1   34   2.751   0.946  10.774  0.1217  0.1806  0.5117
    3TMC1    C2   35   2.826   0.836  10.778  0.1432 -0.2528 -0.3980
    3TMC1    C3   36   2.920   0.810  10.683 -0.1836  0.1881 -0.1407
    3TMC1    C4   37   2.771   1.033  10.671  0.4653 -1.1657  0.1434
    3TMC1    C5   38   2.869   0.999  10.580  0.1020  0.0323  0.6224
    3TMC1    C6   39   2.952   0.893  10.585 -0.1277 -0.1082 -0.2422
    3TMC1     C   40   2.633   0.951  10.849 -0.0471  0.4823  0.5502
    3TMC1     O   41   2.591   0.841  10.889  0.5327  0.0320  0.2726
    3TMC1     H   42   2.807   0.768  10.860  2.2359  0.3161  0.5719
    3TMC1    H1   43   2.721   1.129  10.660  0.8687 -0.8809  0.8002
    3TMC1    H2   44   3.038   0.878  10.521  0.8537 -0.9923  1.2777
    3TMC1    C7   45   2.844   1.063  10.449  1.0125 -0.3889 -0.2656
    3TMC1    C8   46   2.991   0.682  10.695 -0.1439  0.2381  0.3152
    3TMC1    O1   47   2.826   1.185  10.439  0.2411 -0.0194 -0.5171
    3TMC1    O2   48   3.027   0.633  10.806 -0.1642  0.1132 -0.3351
    3TMC1    O3   49   2.886   0.993  10.342  0.2333  0.4210  0.4259
    3TMC1    H3   50   2.874   0.899  10.367 -0.6920  1.3050  3.2325
    3TMC1    O5   51   2.999   0.635  10.575  0.5310 -0.0104 -0.5070
    3TMC1    H5   52   2.954   0.679  10.500 -0.9906  1.3913  1.2379
    4MPD2     C   53   2.261   1.188  11.096 -0.4197  0.2482  0.0571
    4MPD2    C1   54   2.345   1.290  11.069  1.2168  0.4350 -0.0279
    4MPD2    C2   55   2.457   1.255  10.990 -0.1537  0.6392 -0.1882
    4MPD2    C3   56   2.482   1.119  10.951  0.2362 -0.8844  0.1419
    4MPD2    C4   57   2.389   1.024  10.986  0.1932  0.7513  0.1313
    4MPD2    C5   58   2.274   1.062  11.045  0.0573 -0.0276  0.2655
    4MPD2     H   59   2.539   1.324  10.982 -0.3898  0.8453 -0.8811
    4MPD2    H1   60   2.394   0.922  10.949  0.6046  0.8607 -0.1189
    4MPD2    H2   61   2.160   1.204  11.132 -0.3831 -0.7874  0.6251
    4MPD2    H3   62   2.197   0.988  11.065 -1.2441  0.8953 -1.3626
    4MPD2     N   63   2.596   1.082  10.876  0.2245 -0.0538 -0.6916
    4MPD2    H5   64   2.666   1.153  10.860  0.6347  0.1995  2.1308
    4MPD2    N1   65   2.338   1.411  11.136 -0.5127  0.5029 -0.4262
    4MPD2    H7   66   2.424   1.465  11.143 -0.3704 -0.2139  3.2198
    5TCq1    O1   67   3.770   2.628  11.912 -0.0009 -0.3837 -0.6608
    5TCq1    C1   68   3.747   2.732  11.989 -0.0748 -0.6576 -0.4041
    5TCq1    O2   69   3.819   2.753  12.085 -0.0517 -0.0141  0.3581
    5TCq1    C2   70   3.622   2.798  11.949  0.2387 -0.6174 -0.3419
    5TCq1    C3   71   3.541   2.857  12.045  0.4151  0.1092 -0.0467
    5TCq1    C4   72   3.447   2.944  12.006  0.0226  0.9197  0.0315
    5TCq1    C5   73   3.426   2.971  11.873  0.1011 -0.5405 -0.3474
    5TCq1    C6   74   3.512   2.919  11.779  0.0174  0.4152  0.1017
    5TCq1    C7   75   3.610   2.827  11.812  0.7963 -0.7994  0.7111
    5TCq1    C8   76   3.459   2.887  11.643  1.0761  0.5430 -0.1108
    5TCq1    O4   77   3.494   2.778  11.607  0.2226 -0.3510 -0.2844
    5TCq1    C9   78   3.359   2.988  12.117 -0.5650  0.3598  0.2498
    5TCq1    O5   79   3.260   3.058  12.084  0.3052 -0.3979  0.0552
    5TCq1    O6   80   3.396   2.972  12.237 -0.2649 -0.3745 -0.1665
    5TCq1    H1   81   3.702   2.616  11.842  0.7654 -2.9764 -0.9901
    5TCq1    H2   82   3.546   2.831  12.150  0.0804  0.1630 -0.0176
    5TCq1    H3   83   3.347   3.041  11.849 -0.0689 -0.5894  0.0618
    5TCq1    H4   84   3.684   2.790  11.743 -0.6231  0.1175 -1.3163
    6MPD2     C   85   3.240   3.087  11.419  0.0657  0.2360 -0.5863
    6MPD2    C1   86   3.323   2.976  11.457 -1.3026  0.5651 -0.0706
    6MPD2    C2   87   3.325   2.859  11.382 -0.3500 -0.3911 -0.9509
    6MPD2    C3   88   3.245   2.850  11.268  0.7668 -0.3824  0.1723
    6MPD2    C4   89   3.170   2.960  11.224 -0.2861 -0.0977 -0.3643
    6MPD2    C5   90   3.164   3.065  11.302 -0.0274  0.1054  0.0157
    6MPD2     H   91   3.391   2.776  11.404  0.7112  1.2722  2.1158
    6MPD2    H1   92   3.111   2.961  11.133 -1.1214 -1.8646  0.1593
    6MPD2    H2   93   3.236   3.180  11.474  0.0851  0.1556 -0.4508
    6MPD2    H3   94   3.101   3.146  11.268 -0.2156  1.2111  3.0058
    6MPD2     N   95   3.269   2.737  11.183 -0.0781 -0.6531 -0.8269
    6MPD2    H5   96   3.341   2.670  11.206 -0.6065 -1.2545 -0.9015
    6MPD2    N1   97   3.386   2.988  11.587 -0.5448 -0.2457 -0.2453
    6MPD2    H7   98   3.381   3.080  11.630  0.7312 -0.8293  1.1643
    7TCq1    O1   99   0.921   2.434  13.646 -0.2981 -0.0991 -0.2447
    7TCq1    C1  100   0.808   2.505  13.638  0.9704 -0.4282  0.3506
    7TCq1    O2  101   0.794   2.627  13.616 -0.4452  0.2148 -0.0778
    7TCq1    C2  102   0.701   2.421  13.573 -0.0055 -0.9232  0.2019
    7TCq1    C3  103   0.609   2.494  13.500 -0.9942 -0.3766  0.1839
    7TCq1    C4  104   0.523   2.411  13.423  0.1026 -0.4107  0.4148
    7TCq1    C5  105   0.528   2.272  13.425  0.5864  0.2693 -0.1453
    7TCq1    C6  106   0.599   2.208  13.521 -0.1654 -0.0199  0.6684
    7TCq1    C7  107   0.692   2.285  13.593 -0.4418 -0.2575 -0.5420
    7TCq1    C8  108   0.635   2.066  13.518  0.6741  0.4348  0.2173
    7TCq1    O4  109   0.737   2.024  13.574  0.5310 -0.3648 -0.1520
    7TCq1    C9  110   0.422   2.466  13.335  0.2959 -0.2852  0.2364
    7TCq1    O5  111   0.385   2.580  13.364  0.1037 -0.2978 -0.3416
    7TCq1    O6  112   0.360   2.387  13.258  0.1303 -0.5046 -0.0781
    7TCq1    H1  113   0.908   2.339  13.668 -0.5738  0.0016  0.0366
    7TCq1    H2  114   0.624   2.598  13.476  1.4651 -0.7561  0.1254
    7TCq1    H3  115   0.438   2.225  13.386  1.4081 -0.6623 -0.8832
    7TCq1    H4  116   0.739   2.238  13.678 -0.8213 -0.7153 -0.5880
    8MPD2     C  117   0.537   1.590  13.381 -0.3118 -0.7994  0.0454
    8MPD2    C1  118   0.620   1.633  13.478  0.6744 -0.2147  0.1209
    8MPD2    C2  119   0.641   1.771  13.490  0.3084 -0.6526  0.2034
    8MPD2    C3  120   0.564   1.859  13.411 -0.2858 -0.6199 -0.3298
    8MPD2    C4  121   0.486   1.810  13.311 -0.3533  0.2436 -0.2881
    8MPD2    C5  122   0.480   1.673  13.291 -0.1835 -0.9828  0.7340
    8MPD2     H  123   0.709   1.812  13.565 -1.0171  0.3818  0.8371
    8MPD2    H1  124   0.427   1.879  13.251  2.4023  4.1276  1.5099
    8MPD2    H2  125   0.523   1.483  13.369  0.6234 -0.6874 -1.9673
    8MPD2    H3  126   0.421   1.620  13.217 -0.6245 -1.4102  1.3848
    8MPD2     N  127   0.556   1.999  13.432 -1.1269  0.0418 -0.4326
    8MPD2    H5  128   0.508   2.055  13.363 -0.4693 -1.1047 -1.8105
    8MPD2    N1  129   0.679   1.533  13.565 -0.0334  0.2656  0.2794
    8MPD2    H7  130   0.655   1.436  13.547 -0.4119  0.6636 -1.3707
    9TMC1    C1  131   3.077   1.889  11.379 -0.4616 -0.4412 -0.0653
    9TMC1    C2  132   3.110   2.010  11.326  0.2560 -0.3272  0.2402
    9TMC1    C3  133   3.026   2.120  11.344 -0.0026 -0.1028 -0.0184
    9TMC1    C4  134   2.956   1.867  11.435 -0.0549 -0.6463 -0.2621
    9TMC1    C5  135   2.870   1.971  11.428 -0.0882 -0.0543  0.5256
    9TMC1    C6  136   2.902   2.099  11.384  0.1507  0.0956  0.5670
    9TMC1     C  137   3.189   1.793  11.393 -0.2659  0.1232 -0.5106
    9TMC1     O  138   3.284   1.813  11.321 -0.1976  0.2271 -0.2848
    9TMC1     H  139   3.211   2.026  11.289  0.2074 -1.3161 -0.3423
    9TMC1    H1  140   2.917   1.772  11.469 -0.0048  0.2778  2.3862
    9TMC1    H2  141   2.846   2.190  11.404 -1.2696 -0.5830 -0.3322
    9TMC1    C7  142   2.783   1.971  11.539 -0.0162  0.3790  0.0208
    9TMC1    C8  143   3.074   2.252  11.303 -0.0648  0.0065 -0.2047
    9TMC1    O1  144   2.839   1.930  11.638  0.7421 -0.3393  0.2940
    9TMC1    O2  145   3.003   2.348  11.276  0.6502 -0.4099 -0.4578
    9TMC1    O3  146   2.690   2.068  11.536 -0.2964  0.2525  0.3011
    9TMC1    H3  147   2.656   2.085  11.446  0.5358 -2.8677 -0.5908
    9TMC1    O5  148   3.203   2.251  11.300  0.2841  0.1824  0.4824
    9TMC1    H5  149   3.246   2.192  11.365  0.9998 -0.1524 -0.3029
   10MPD2     C  150   3.393   1.586  11.459 -0.1389 -0.1031 -0.5345
   10MPD2    C1  151   3.267   1.597  11.522  0.1983 -1.0016  0.3095
   10MPD2    C2  152   3.232   1.504  11.617 -0.8083 -0.0496 -0.0581
   10MPD2    C3  153   3.316   1.395  11.639 -0.1566 -0.1328 -0.1458
   10MPD2    C4  154   3.429   1.379  11.575 -0.0130 -0.1197  0.9934
   10MPD2    C5  155   3.474   1.479  11.485 -0.0139 -0.4327  0.0998
   10MPD2     H  156   3.138   1.516  11.670 -0.1159 -0.0034  1.1817
   10MPD2    H1  157   3.498   1.299  11.597 -0.5504 -0.7416  0.4168
   10MPD2    H2  158   3.427   1.647  11.376  0.3210  0.7108  0.2523
   10MPD2    H3  159   3.573   1.466  11.444 -0.0149  0.3044 -0.1328
   10MPD2     N  160   3.288   1.301  11.742  0.1778 -0.7354  0.0514
   10MPD2    H5  161   3.363   1.240  11.772  0.8748  0.2096  0.2266
   10MPD2    N1  162   3.170   1.705  11.497 -0.1181 -0.4220 -0.0220
   10MPD2    H7  163   3.080   1.697  11.544 -1.0516  0.2318 -1.7209
   11TCq1    O1  164   3.846   0.893  14.449  0.4666 -0.0619  0.2512
   11TCq1    C1  165   3.740   0.838  14.388 -0.2004 -0.2899  0.2534
   11TCq1    O2  166   3.722   0.727  14.346  0.2512  0.3675 -0.0772
   11TCq1    C2  167   3.639   0.935  14.397  0.3725  0.1641  0.2460
   11TCq1    C3  168   3.619   0.999  14.515  0.4585  0.1028 -0.1529
   11TCq1    C4  169   3.498   1.050  14.545 -0.1743 -0.1348 -0.1536
   11TCq1    C5  170   3.389   1.035  14.464  0.0622 -0.1418  0.4059
   11TCq1    C6  171   3.415   0.962  14.349  0.7394 -1.0066 -0.0633
   11TCq1    C7  172   3.537   0.915  14.314  0.7675  0.2650 -0.3536
   11TCq1    C8  173   3.310   0.955  14.252  0.2734 -0.4017 -0.0574
   11TCq1    O4  174   3.218   1.040  14.262 -0.5857 -0.0444  0.5237
   11TCq1    C9  175   3.484   1.130  14.665 -0.6470 -0.2769 -0.0581
   11TCq1    O5  176   3.593   1.166  14.720 -0.0918  0.2461  0.4394
   11TCq1    O6  177   3.368   1.151  14.707 -0.4766  1.1766  0.2802
   11TCq1    H1  178   3.849   0.991  14.461  0.9977 -0.0834  0.3099
   11TCq1    H2  179   3.700   1.030  14.580  2.8330 -2.0693 -2.1066
   11TCq1    H3  180   3.291   1.074  14.490 -0.0979 -0.8553  0.8910
   11TCq1    H4  181   3.568   0.860  14.225  0.8640  2.7903 -1.8751
   12MPD2     C  182   3.126   0.864  14.021 -0.1281 -0.5990  0.5508
   12MPD2    C1  183   3.232   0.795  14.073 -0.1027 -0.3492 -0.6769
   12MPD2    C2  184   3.265   0.672  14.021 -0.7481 -0.5600 -0.5120
   12MPD2    C3  185   3.191   0.620  13.910  0.0060  0.3341 -0.3624
   12MPD2    C4  186   3.088   0.689  13.857  0.6365  0.2693  0.5290
   12MPD2    C5  187   3.050   0.809  13.917  0.3474  0.8632 -0.0404
   12MPD2     H  188   3.347   0.620  14.069 -1.4220 -0.6742  0.5095
   12MPD2    H1  189   3.030   0.654  13.772 -2.3844  2.1981  1.7809
   12MPD2    H2  190   3.096   0.959  14.064 -1.5083 -0.1967 -1.2859
   12MPD2    H3  191   2.958   0.860  13.890 -1.0863 -2.3967 -1.3347
   12MPD2     N  192   3.215   0.491  13.851  0.7589 -0.3193 -0.0530
   12MPD2    H5  193   3.140   0.461  13.789  0.5176 -4.6179  2.3617
   12MPD2    N1  194   3.311   0.835  14.187 -0.5475  0.0385 -0.5825
   12MPD2    H7  195   3.381   0.768  14.216  0.7612  1.4687 -0.4139
   13TCq1    O1  196   2.723   0.208  10.197 -0.1285 -0.9251 -0.0980
   13TCq1    C1  197   2.605   0.214  10.263 -0.5791 -0.5545 -0.3992
   13TCq1    O2  198   2.501   0.162  10.225  0.5618 -0.3913  0.1655
   13TCq1    C2  199   2.621   0.344  10.325  0.4283 -0.5257  0.3978
   13TCq1    C3  200   2.703   0.439  10.264  0.1027 -0.1436  0.1487
   13TCq1    C4  201   2.729   0.549  10.338 -0.4087 -0.1459 -0.1798
   13TCq1    C5  202   2.687   0.551  10.468  0.1018 -0.0473 -0.8914
   13TCq1    C6  203   2.611   0.455  10.523 -0.6171  0.4500  0.5509
   13TCq1    C7  204   2.566   0.351  10.449 -0.4488  0.3580 -0.7126
   13TCq1    C8  205   2.573   0.459  10.662 -0.2762  0.8486 -0.3376
   13TCq1    O4  206   2.638   0.535  10.733 -0.2436  0.3365 -0.1737
   13TCq1    C9  207   2.816   0.649  10.285 -0.6470  0.2820 -0.3544
   13TCq1    O5  208   2.837   0.644  10.158  0.5900 -0.3351 -0.1990
   13TCq1    O6  209   2.870   0.727  10.371  0.8082 -0.1927 -0.4113
   13TCq1    H1  210   2.792   0.225  10.265 -0.0798  2.5168 -1.0272
   13TCq1    H2  211   2.744   0.436  10.164 -1.0263 -0.2327 -0.3091
   13TCq1    H3  212   2.719   0.639  10.522 -0.7095  1.2387 -2.5340
   13TCq1    H4  213   2.528   0.259  10.492 -0.3251  0.8568  0.4949
   14MPD2     C  214   2.250   0.333  10.776 -0.0448 -0.5857 -0.7518
   14MPD2    C1  215   2.377   0.382  10.789  0.0572  0.4176 -0.3633
   14MPD2    C2  216   2.422   0.417  10.911  0.1465  0.5278  0.1804
   14MPD2    C3  217   2.336   0.408  11.022 -0.8891  0.4768  0.2698
   14MPD2    C4  218   2.210   0.348  11.010  0.6044 -0.3611  0.0523
   14MPD2    C5  219   2.163   0.312  10.883  0.9870  0.3835 -1.0825
   14MPD2     H  220   2.521   0.451  10.935  0.5120 -0.7816  0.5346
   14MPD2    H1  221   2.141   0.338  11.092  0.8557 -2.5437 -0.0092
   14MPD2    H2  222   2.204   0.319  10.679 -1.9365 -0.0653  0.0604
   14MPD2    H3  223   2.076   0.249  10.870  0.3749  1.6792 -3.2843
   14MPD2     N  224   2.388   0.459  11.143 -0.3560  0.1609  0.0117
   14MPD2    H5  225   2.472   0.516  11.142  0.0939 -0.4695  0.8373
   14MPD2    N1  226   2.448   0.394  10.672  0.3982 -0.0375 -0.0918
   14MPD2    H7  227   2.401   0.379  10.584 -1.9657  0.2065  1.1282
   15TCq1    O1  228   0.001   0.334   1.545 -0.1758 -0.4863 -0.3536
   15TCq1    C1  229   0.070   0.428   1.476 -0.4777  0.7300 -0.5140
   15TCq1    O2  230   0.068   0.546   1.509 -0.4113  0.0224 -0.3208
   15TCq1    C2  231   0.013   0.393   1.351  0.4123 -0.1315  0.4282
   15TCq1    C3  232   4.645   0.465   1.308 -0.4556 -0.4519  0.3541
   15TCq1    C4  233   4.575   0.406   1.203  0.0368 -0.2410  0.6534
   15TCq1    C5  234   4.608   0.288   1.146  0.0680  0.1147  0.1326
   15TCq1    C6  235   4.731   0.230   1.177  0.2767  0.0335 -0.1207
   15TCq1    C7  236   0.065   0.285   1.288  0.2514  0.3026 -0.0569
   15TCq1    C8  237   0.041   0.103   1.117 -0.3396 -0.0613 -0.4575
   15TCq1    O4  238   0.153   0.061   1.150 -0.3347  0.1149 -0.2724
   15TCq1    C9  239   4.447   0.470   1.170  0.8460  0.5886 -0.2617
   15TCq1    O5  240   4.425   0.471   1.048 -0.6926  0.3343  0.6009
   15TCq1    O6  241   4.382   0.529   1.266 -0.3554  0.1684 -0.1277
   15TCq1    H1  242   4.720   0.255   1.491 -1.2943 -1.3780  1.2958
   15TCq1    H2  243   4.597   0.537   1.373 -0.3786  0.5460 -0.6840
   15TCq1    H3  244   4.542   0.245   1.070  3.4804  0.7419 -3.1952
   15TCq1    H4  245   0.150   0.228   1.323 -1.2172 -1.3033  0.8799
   16MPD2     C  246   4.549   4.647   0.900 -0.0746  0.3220  0.3505
   16MPD2    C1  247   4.660   4.667   0.982 -0.6604 -0.3536 -0.3095
   16MPD2    C2  248   0.014   4.567   1.017 -0.3946  0.2567 -0.1745
   16MPD2    C3  249   4.725   4.438   0.961 -0.0788  0.4022 -0.7532
   16MPD2    C4  250   4.609   4.414   0.886 -0.4740 -0.7789  0.3247
   16MPD2    C5  251   4.524   4.515   0.864 -1.2406  0.1594  0.8880
   16MPD2     H  252   0.109   4.581   1.068  0.0184  0.8963 -1.1412
   16MPD2    H1  253   4.586   4.315   0.851 -0.7827 -0.8216  0.6481
   16MPD2    H2  254   4.485   4.726   0.862 -1.5532 -0.4902  1.1420
   16MPD2    H3  255   4.438   4.504   0.799 -0.1883  0.6676 -0.5877
   16MPD2     N  256   0.084   4.343   0.984 -0.0351  0.4530 -0.0095
   16MPD2    H5  257   0.157   4.365   1.051 -0.0525  0.8968 -0.1329
   16MPD2    N1  258   4.683   0.061   1.028 -0.2406 -0.2792  0.4233
   16MPD2    H7  259   4.603   0.116   0.998 -0.2648 -1.1730 -1.1970
   17TMC1    C1  260   2.573   0.110  10.991  0.4868 -0.1395 -0.3125
   17TMC1    C2  261   2.679   0.132  10.903 -0.3303  0.2893 -0.3161
   17TMC1    C3  262   2.663   0.097  10.774 -0.7953  0.0116 -1.0372
   17TMC1    C4  263   2.459   0.043  10.955  0.4054  0.5552 -0.9873
   17TMC1    C5  264   2.450   0.006  10.820 -0.5772  0.0658  0.1805
   17TMC1    C6  265   2.550   0.031  10.734  0.2479 -0.6454 -0.2351
   17TMC1     C  266   2.601   0.155  11.127  0.1916 -1.1148 -0.4166
   17TMC1     O  267   2.537   0.099  11.216  0.0524 -0.2835  0.4032
   17TMC1     H  268   2.777   0.170  10.927 -1.8821  3.4012  1.1278
   17TMC1    H1  269   2.384   0.030  11.032  3.0768 -0.0834  1.5065
   17TMC1    H2  270   2.551   4.727  10.634  0.2141  0.3518 -0.6397
   17TMC1    C7  271   2.334   4.678  10.771  0.1010 -0.4353 -0.5522
   17TMC1    C8  272   2.771   0.112  10.678 -0.4228 -0.7454 -0.4715
   17TMC1    O1  273   2.305   4.679  10.651  0.0597  0.6903  0.0071
   17TMC1    O2  274   2.768   0.064  10.566  0.2138  0.0474  0.9773
   17TMC1    O3  275   2.254   4.658  10.876  0.5863 -0.2807 -0.0396
   17TMC1    H3  276   2.300   4.621  10.954  0.7821  0.2730  0.1021
   17TMC1    O5  277   2.815   0.235  10.701  0.5762  0.4448  0.2053
   17TMC1    H5  278   2.805   0.273  10.790 -1.0672  2.4951 -0.8646
   18MPD2     C  279   2.699   0.291  11.380 -0.2605  0.3613 -0.2398
   18MPD2    C1  280   2.710   0.343  11.251 -0.5817  0.4270 -0.2186
   18MPD2    C2  281   2.767   0.469  11.236  1.1052  0.0355 -0.0780
   18MPD2    C3  282   2.825   0.536  11.346 -0.2764  0.0382 -0.1448
   18MPD2    C4  283   2.825   0.479  11.465  0.2605  0.5009 -0.0713
   18MPD2    C5  284   2.758   0.362  11.484  0.8484 -0.2129 -0.0155
   18MPD2     H  285   2.771   0.515  11.138  1.2691  0.4360  0.1182
   18MPD2    H1  286   2.869   0.529  11.550  0.3807 -1.8192  1.2294
   18MPD2    H2  287   2.655   0.196  11.405  1.7661 -1.4381 -3.5765
   18MPD2    H3  288   2.758   0.313  11.580 -1.6812 -2.0432 -0.9501
   18MPD2     N  289   2.914   0.648  11.323  0.2004 -0.8060  0.2105
   18MPD2    H5  290   2.994   0.650  11.385 -0.3285  1.2414  0.8070
   18MPD2    N1  291   2.673   0.272  11.132  1.0307 -0.8740 -0.0869
   18MPD2    H7  292   2.686   0.320  11.043 -4.1565  2.5815  1.0144
   19TMC2    C1  293   0.113   0.721  13.860  0.7691  0.0445  0.6806
   19TMC2    C2  294   0.045   0.842  13.861  0.5641 -0.6187  0.4282
   19TMC2    C3  295   4.647   0.830  13.848  0.7594  0.1698 -0.6242
   19TMC2    C4  296   0.057   0.606  13.811 -0.7994  0.0194  0.2171
   19TMC2    C5  297   4.659   0.606  13.794 -0.0880  0.1784 -0.3449
   19TMC2    C6  298   4.581   0.713  13.829 -0.3140 -0.0518  0.2970
   19TMC2     C  299   0.255   0.729  13.849 -0.6254 -0.7583  0.6950
   19TMC2     O  300   0.301   0.819  13.779 -0.6196 -0.0199  0.5464
   19TMC2     H  301   0.095   0.936  13.881  3.3223 -1.6941 -1.3258
   19TMC2    H1  302   0.122   0.520  13.795  0.2565  0.7235  0.7371
   19TMC2    H2  303   4.473   0.712  13.837 -0.1798  1.6556  2.4422
   19TMC2    C7  304   4.601   0.477  13.759  0.0826  0.3225  0.5478
   19TMC2    C8  305   4.567   0.944  13.890 -0.0227 -0.2071 -0.5911
   19TMC2    O1  306   4.676   0.382  13.785 -0.1873 -0.0266  0.0684
   19TMC2    O2  307   4.452   0.933  13.937  0.1245 -0.1506 -0.3944
   19TMC2    O5  308   4.600   1.032  13.787  0.1437  0.2424 -0.0947
   19TMC2    H5  309   4.667   0.987  13.732  0.2016 -1.5378  1.4548
   20MPD2     C  310   0.556   0.681  13.836 -0.5503  0.1428 -0.2011
   20MPD2    C1  311   0.472   0.600  13.906 -0.3772 -0.0142 -0.0793
   20MPD2    C2  312   0.532   0.505  13.988  0.5153 -0.1026 -0.2969
   20MPD2    C3  313   0.665   0.490  14.007 -0.7367  0.1361  0.2640
   20MPD2    C4  314   0.744   0.582  13.943  0.0400 -0.0331  0.1471
   20MPD2    C5  315   0.689   0.670  13.854  0.3761  0.0272  0.3634
   20MPD2     H  316   0.462   0.443  14.044  0.8386 -0.7300 -0.5941
   20MPD2    H1  317   0.850   0.580  13.969 -0.1593  1.6598  1.0767
   20MPD2    H2  318   0.525   0.755  13.764  1.0379  0.1838 -0.8173
   20MPD2    H3  319   0.757   0.745  13.815  1.3570 -1.3847 -0.6480
   20MPD2     N  320   0.715   0.410  14.108  0.6774 -0.0141  0.7608
   20MPD2    H5  321   0.816   0.422  14.108  0.5694  0.8932  0.2526
   20MPD2    N1  322   0.326   0.616  13.900 -0.7706  0.3031  0.5451
   20MPD2    H7  323   0.283   0.540  13.952  0.4063 -0.5141  0.3208
   21TMC2    C1  324   2.645   0.718  14.816  0.2411  0.0860  0.6583
   21TMC2    C2  325   2.582   0.623  14.742 -0.1755 -0.4898  0.2219
   21TMC2    C3  326   2.450   0.599  14.764  0.3643  0.2219  0.4793
   21TMC2    C4  327   2.580   0.777  14.915 -0.2877  0.3202  0.3847
   21TMC2    C5  328   2.445   0.752  14.933 -0.1847  0.0867  0.2869
   21TMC2    C6  329   2.375   0.670  14.853 -0.4256  0.4052  0.3750
   21TMC2     C  330   2.786   0.722  14.814  0.1843  0.2829  0.6207
   21TMC2     O  331   2.849   0.712  14.712 -0.1082 -0.0745 -0.3051
   21TMC2     H  332   2.636   0.571  14.664 -0.2161 -0.3425  0.0950
   21TMC2    H1  333   2.619   0.860  14.972 -0.1549  1.6155 -1.5943
   21TMC2    H2  334   2.270   0.655  14.876 -0.4747 -1.3612 -1.0023
   21TMC2    C7  335   2.376   0.865  14.992  0.0340 -0.4260  0.3251
   21TMC2    C8  336   2.398   0.487  14.690  0.5635 -0.6032 -0.0900
   21TMC2    O1  337   2.434   0.919  15.088  0.3266 -0.7930 -0.7674
   21TMC2    O2  338   2.468   0.387  14.699  0.0436  0.0458 -0.3673
   21TMC2    O5  339   2.259   0.488  14.688  0.0988 -0.2975 -0.3572
   21TMC2    H5  340   2.223   0.579  14.685  2.1831  0.5823  1.8215
   22MPD2     C  341   3.182   0.928  15.057 -0.0433  0.0072  0.7908
   22MPD2    C1  342   3.179   0.859  14.936 -0.4582  0.1408  0.5979
   22MPD2    C2  343   3.059   0.806  14.900 -0.2051  0.7039  0.5462
   22MPD2    C3  344   2.952   0.803  14.980 -0.1313 -0.1840  0.8690
   22MPD2    C4  345   2.957   0.851  15.104  0.1423  0.0963  0.1108
   22MPD2    C5  346   3.071   0.925  15.146 -0.2130  0.5962  0.5084
   22MPD2     H  347   3.066   0.759  14.802 -1.1174  0.9564  0.3537
   22MPD2    H1  348   2.866   0.846  15.164  1.1895  1.8456  1.8460
   22MPD2    H2  349   3.272   0.980  15.085  0.6878 -0.8492  0.0636
   22MPD2    H3  350   3.067   0.974  15.243  0.8204  1.4525  0.1230
   22MPD2     N  351   2.826   0.747  14.948  0.3545  0.8841 -0.1390
   22MPD2    H5  352   2.749   0.736  15.012 -0.0634 -1.2273 -1.0048
   22MPD2    N1  353   3.289   0.843  14.848 -0.5610 -0.5203  0.1171
   22MPD2    H7  354   3.267   0.821  14.751  0.0272  1.4213 -0.4787
   23TMC2    C1  355   3.469   2.211  14.969 -0.3359  0.6945 -0.4889
   23TMC2    C2  356   3.411   2.329  14.946  0.6107  0.0346  0.3014
   23TMC2    C3  357   3.284   2.329  14.894  0.0861 -0.0614 -0.0348
   23TMC2    C4  358   3.410   2.094  14.946  0.5848  0.2334  0.4986
   23TMC2    C5  359   3.281   2.091  14.906  0.2263  0.4645 -0.8402
   23TMC2    C6  360   3.219   2.208  14.871  0.3250 -0.8091  1.2941
   23TMC2     C  361   3.609   2.206  15.026 -0.9178  0.5414  0.2420
   23TMC2     O  362   3.645   2.102  15.080 -0.6910 -0.6594 -0.1099
   23TMC2     H  363   3.456   2.419  14.987 -0.1455 -0.6531  2.6586
   23TMC2    H1  364   3.464   2.003  14.969  1.0006 -0.0778 -1.6547
   23TMC2    H2  365   3.114   2.220  14.848  0.5725 -1.6962 -0.3470
   23TMC2    C7  366   3.216   1.956  14.901  0.4831 -0.1216 -0.0182
   23TMC2    C8  367   3.235   2.442  14.824 -1.1204 -0.3647 -1.0809
   23TMC2    O1  368   3.275   1.858  14.932 -0.2335 -0.2392  0.5875
   23TMC2    O2  369   3.122   2.445  14.778 -0.5085 -0.0343 -0.0316
   23TMC2    O5  370   3.340   2.509  14.772 -0.1983  0.2193 -0.2987
   23TMC2    H5  371   3.427   2.476  14.801 -1.8621 -1.3392  2.9057
   24MPD2     C  372   4.082   2.390  15.139  0.1862 -0.1810 -0.1245
   24MPD2    C1  373   4.018   2.272  15.180  0.6919 -0.1900 -0.5590
   24MPD2    C2  374   3.893   2.243  15.133 -0.0421  0.0749  0.1673
   24MPD2    C3  375   3.820   2.335  15.054  0.4717 -0.2462 -0.3609
   24MPD2    C4  376   3.887   2.451  15.016  0.2023 -0.1775  0.1010
   24MPD2    C5  377   4.012   2.480  15.065 -0.1397  0.7824  1.2170
   24MPD2     H  378   3.852   2.146  15.158  0.4310 -0.2784 -0.4431
   24MPD2    H1  379   3.838   2.525  14.954  1.6141  0.8242  0.1572
   24MPD2    H2  380   4.178   2.418  15.182  0.7196  1.7593 -2.6243
   24MPD2    H3  381   4.053   2.578  15.041 -0.3755  0.9630  1.5426
   24MPD2     N  382   3.690   2.314  14.988  0.8102  0.1556 -0.0419
   24MPD2    H5  383   3.662   2.390  14.927 -1.3411 -0.5654  0.0530
   24MPD2    N1  384   4.084   2.175  15.259  0.5566 -0.5993 -0.2473
   24MPD2    H7  385   4.034   2.087  15.272 -0.4936  0.3232  1.7884
   25TMC2    C1  386   2.454   4.471  11.286 -0.2201 -0.1134 -1.0456
   25TMC2    C2  387   2.576   4.525  11.260  0.9068  0.0371 -0.6309
   25TMC2    C3  388   2.644   4.554  11.372 -0.3393  0.6086  0.6108
   25TMC2    C4  389   2.403   4.456  11.413  0.0820 -0.6532  0.2241
   25TMC2    C5  390   2.474   4.486  11.524  0.1649 -0.0231 -0.4644
   25TMC2    C6  391   2.594   4.544  11.505  0.6175 -0.0737  0.1115
   25TMC2     C  392   2.359   4.451  11.176  0.1727  0.0906 -0.2888
   25TMC2     O  393   2.380   4.511  11.070  0.2378  0.1854 -0.5401
   25TMC2     H  394   2.616   4.551  11.162 -0.1475 -1.6141 -1.5091
   25TMC2    H1  395   2.306   4.410  11.423 -0.6474  1.1420  1.4713
   25TMC2    H2  396   2.645   4.582  11.594 -1.5900  1.7568  0.6106
   25TMC2    C7  397   2.414   4.470  11.649 -0.1383  0.3046 -0.3863
   25TMC2    C8  398   2.778   4.598  11.362  0.1214 -0.4121 -0.0680
   25TMC2    O1  399   2.328   4.389  11.667  0.7075  0.0925  0.5652
   25TMC2    O2  400   2.819   4.652  11.466  0.0050  0.5342  0.2887
   25TMC2    O5  401   2.842   4.488  11.304  0.0211 -0.1628 -0.2470
   25TMC2    H5  402   2.774   4.426  11.272  0.0139 -0.4168  0.2590
   26MPD2     C  403   1.962   4.216  10.950 -0.6935  0.2224  0.4692
   26MPD2    C1  404   2.017   4.138  11.044 -0.6966  0.1179  0.2824
   26MPD2    C2  405   2.122   4.187  11.123  0.1356 -0.1995  0.5877
   26MPD2    C3  406   2.179   4.307  11.098  0.2119 -0.9455 -0.6656
   26MPD2    C4  407   2.121   4.386  10.999  0.0241 -0.3502  1.4183
   26MPD2    C5  408   2.011   4.345  10.936 -0.2171 -0.8679 -0.0061
   26MPD2     H  409   2.162   4.125  11.203  0.9322 -0.0860  0.2761
   26MPD2    H1  410   2.160   4.486  10.987  0.7327 -0.8048 -0.0028
   26MPD2    H2  411   1.885   4.178  10.884  0.7924  2.0416 -2.3181
   26MPD2    H3  412   1.962   4.409  10.863  0.3519 -1.5570 -0.9837
   26MPD2     N  413   2.283   4.343  11.188  0.8013  0.4161 -0.0469
   26MPD2    H5  414   2.309   4.270  11.255 -0.3720 -0.0958 -0.1530
   26MPD2    N1  415   1.949   4.018  11.067  0.3412  0.9131  0.4712
   26MPD2    H7  416   1.854   4.011  11.030 -0.2948 -0.1027  2.2532
   27TMC2    C1  417   1.244   2.351  12.268  0.0985 -0.5083 -0.6600
   27TMC2    C2  418   1.332   2.460  12.270  0.7938  0.5305  0.4922
   27TMC2    C3  419   1.457   2.436  12.322  0.2332 -0.7976  0.7760
   27TMC2    C4  420   1.288   2.232  12.322 -0.2326  0.4844 -0.2331
   27TMC2    C5  421   1.410   2.222  12.386 -0.0249 -0.5420  0.5132
   27TMC2    C6  422   1.499   2.323  12.384 -0.2429  0.5963 -0.4719
   27TMC2     C  423   1.104   2.381  12.237  0.4938 -0.4607 -0.0909
   27TMC2     O  424   1.066   2.495  12.215  0.6544 -0.0883  0.6746
   27TMC2     H  425   1.294   2.558  12.243 -0.2621  0.6748  2.5115
   27TMC2    H1  426   1.236   2.137  12.325  1.2172 -0.2714  1.4079
   27TMC2    H2  427   1.595   2.303  12.430 -2.2409 -1.2130  2.9293
   27TMC2    C7  428   1.439   2.089  12.449 -0.4551 -0.0129 -1.0710
   27TMC2    C8  429   1.548   2.559  12.333 -1.1476  0.1010  0.6041
   27TMC2    O1  430   1.340   2.022  12.480  0.1493 -0.5555  0.1170
   27TMC2    O2  431   1.505   2.669  12.301  0.1621 -0.2603 -0.5808
   27TMC2    O5  432   1.677   2.518  12.313  0.5547  0.4753  0.2080
   27TMC2    H5  433   1.696   2.423  12.331 -2.2927 -0.1133  0.0232
   28MPD2     C  434   0.620   2.210  12.265  0.6777  0.0289  0.2648
   28MPD2    C1  435   0.707   2.105  12.310  0.0924  0.6951  1.2904
   28MPD2    C2  436   0.838   2.132  12.321 -0.1758  0.1363 -0.9850
   28MPD2    C3  437   0.887   2.253  12.268 -0.3137 -0.5526 -0.1047
   28MPD2    C4  438   0.808   2.350  12.220 -0.2552  1.0179 -0.1851
   28MPD2    C5  439   0.669   2.329  12.216  0.5950  0.4060  0.0674
   28MPD2     H  440   0.901   2.052  12.358  1.0836  0.1664 -3.0091
   28MPD2    H1  441   0.842   2.441  12.172  2.6950 -0.9661 -1.8812
   28MPD2    H2  442   0.513   2.193  12.261  1.0654 -2.4659  0.2991
   28MPD2    H3  443   0.592   2.394  12.175  1.4007  1.8491  0.8682
   28MPD2     N  444   1.027   2.265  12.265  0.4427  0.1197 -0.6102
   28MPD2    H5  445   1.081   2.190  12.308  1.7253  1.1107 -0.4796
   28MPD2    N1  446   0.645   1.987  12.366 -0.5918 -0.4674 -0.2160
   28MPD2    H7  447   0.543   1.994  12.371 -0.4512 -0.1820  2.1523
   29TMC2    C1  448   1.405   3.982  14.429  0.9544 -0.3591  0.2225
   29TMC2    C2  449   1.365   3.985  14.561  0.1022 -0.5136 -0.4889
   29TMC2    C3  450   1.407   4.086  14.642 -0.0476 -0.3346 -0.5404
   29TMC2    C4  451   1.511   4.062  14.393 -0.5457  0.2062 -0.5654
   29TMC2    C5  452   1.542   4.168  14.475  0.0321  0.0784 -0.0233
   29TMC2    C6  453   1.485   4.189  14.597 -0.9490 -0.1654  0.5160
   29TMC2     C  454   1.383   3.862  14.350 -0.3740 -0.5516  0.9763
   29TMC2     O  455   1.476   3.817  14.284  0.3326 -0.8273  0.2332
   29TMC2     H  456   1.292   3.915  14.599  0.1303 -0.0884  0.3704
   29TMC2    H1  457   1.555   4.048  14.294 -0.1715  0.4907 -0.4377
   29TMC2    H2  458   1.496   4.285  14.645 -0.9672  1.5087 -2.8138
   29TMC2    C7  459   1.657   4.238  14.431  0.3228  0.5873 -0.1717
   29TMC2    C8  460   1.353   4.081  14.774  0.1278  0.3130 -0.3332
   29TMC2    O1  461   1.666   4.262  14.311  0.3314  1.1722 -0.5086
   29TMC2    O2  462   1.247   4.031  14.800 -0.3403  0.1167  0.1589
   29TMC2    O5  463   1.450   4.091  14.864 -0.4379  0.0338  0.3327
   29TMC2    H5  464   1.538   4.118  14.829 -1.1084  1.3677 -0.3110
   30MPD2     C  465   1.066   3.477  14.229 -0.2281  0.1069 -0.2012
   30MPD2    C1  466   1.197   3.472  14.259 -0.2366 -0.5142 -0.1750
   30MPD2    C2  467   1.265   3.593  14.278 -0.3054 -0.5865  1.2504
   30MPD2    C3  468   1.193   3.711  14.303 -0.1783  0.0119  0.1173
   30MPD2    C4  469   1.057   3.698  14.289  0.2485 -0.6758 -1.4640
   30MPD2    C5  470   0.990   3.589  14.241  0.0726 -0.4094 -0.0308
   30MPD2     H  471   1.373   3.607  14.282 -0.4402  0.7256  0.2350
   30MPD2    H1  472   0.993   3.778  14.325  0.6783 -1.7394  1.6535
   30MPD2    H2  473   1.016   3.388  14.193  0.9436 -0.1172 -1.2619
   30MPD2    H3  474   0.882   3.589  14.233 -0.0103 -1.4058  1.1250
   30MPD2     N  475   1.250   3.829  14.355  0.4999 -0.3846  0.0523
   30MPD2    H5  476   1.180   3.889  14.397 -0.2428 -1.7284  0.7220
   30MPD2    N1  477   1.275   3.355  14.235 -0.2157  0.1430 -0.4236
   30MPD2    H7  478   1.376   3.357  14.243 -0.1707  0.4368 -1.0661
   31TMC2    C1  479   3.308   2.726  15.641 -0.6046  0.0704  0.6396
   31TMC2    C2  480   3.178   2.745  15.601  0.5435 -0.0075 -0.0223
   31TMC2    C3  481   3.088   2.664  15.665 -0.0302 -0.7036 -0.7792
   31TMC2    C4  482   3.337   2.651  15.754  0.0078 -0.4054 -0.0450
   31TMC2    C5  483   3.236   2.580  15.815 -0.5048  0.4588 -0.0226
   31TMC2    C6  484   3.111   2.579  15.767  0.4505 -0.0659 -0.1459
   31TMC2     C  485   3.419   2.786  15.559  0.6612 -0.1522 -0.3267
   31TMC2     O  486   3.383   2.863  15.473  0.2287  0.2372  0.3372
   31TMC2     H  487   3.147   2.822  15.532  0.8379 -0.5061 -0.7109
   31TMC2    H1  488   3.435   2.629  15.795 -0.1345 -1.1064 -0.0916
   31TMC2    H2  489   3.036   2.503  15.789  0.0164  0.1020 -1.0845
   31TMC2    C7  490   3.275   2.507  15.938  0.3199  0.2271 -0.3035
   31TMC2    C8  491   2.954   2.667  15.612  0.4892  0.0056  0.5565
   31TMC2    O1  492   3.398   2.490  15.956 -0.4132  0.1272 -0.3181
   31TMC2    O2  493   2.936   2.698  15.497  0.3129  0.4637  0.3650
   31TMC2    O5  494   2.871   2.689  15.714  0.3828  0.5945  0.0398
   31TMC2    H5  495   2.912   2.705  15.802  1.1963 -0.2101 -0.1963
   32MPD2     C  496   3.926   2.806  15.415  0.0523 -0.0456  0.2503
   32MPD2    C1  497   3.812   2.849  15.349  0.3425  0.6843  0.6795
   32MPD2    C2  498   3.683   2.839  15.406 -0.2082  0.3009 -0.2882
   32MPD2    C3  499   3.674   2.768  15.533 -0.0433  0.2024  0.2166
   32MPD2    C4  500   3.787   2.717  15.588 -0.1581  0.3151 -0.1771
   32MPD2    C5  501   3.911   2.736  15.528  0.3233 -0.2684 -0.2330
   32MPD2     H  502   3.593   2.869  15.354 -0.1796 -0.3078 -0.6761
   32MPD2    H1  503   3.774   2.639  15.662  1.1682  0.9451  0.7193
   32MPD2    H2  504   4.029   2.821  15.383 -0.6251  1.0124 -1.4683
   32MPD2    H3  505   3.999   2.703  15.581  0.0116 -1.3990 -0.4004
   32MPD2     N  506   3.546   2.735  15.592 -0.3700  0.5724 -0.1954
   32MPD2    H5  507   3.551   2.660  15.661  0.6938  0.9858  0.1762
   32MPD2    N1  508   3.835   2.901  15.222  0.5927  0.5518 -0.2846
   32MPD2    H7  509   3.933   2.903  15.196  0.5456 -2.2254 -0.7168
   33TMC2    C1  510   3.433   1.057  10.272 -0.2633 -0.3995 -0.2309
   33TMC2    C2  511   3.376   1.142  10.172  0.0713 -0.2476  0.0652
   33TMC2    C3  512   3.447   1.141  10.061  0.4992  1.1383  0.2823
   33TMC2    C4  513   3.549   0.981  10.258 -0.2045  0.7498 -0.2452
   33TMC2    C5  514   3.617   0.997  10.143 -0.3405 -0.5779  0.0396
   33TMC2    C6  515   3.566   1.070  10.039 -0.5623 -0.0361 -0.0090
   33TMC2     C  516   3.369   1.054  10.400 -0.2197  0.9044  0.0531
   33TMC2     O  517   3.410   0.969  10.482  0.2556  0.2119  0.6618
   33TMC2     H  518   3.293   1.211  10.185 -0.1328 -0.5818  0.5459
   33TMC2    H1  519   3.580   0.920  10.342  0.0252 -0.1194 -0.9571
   33TMC2    H2  520   3.616   1.081   9.943  2.2264  0.4277  1.5065
   33TMC2    C7  521   3.761   0.954  10.136  0.0934  0.1270 -0.8548
   33TMC2    C8  522   3.400   1.247   9.964  0.5487  0.3104 -0.6071
   33TMC2    O1  523   3.843   1.034  10.094 -0.1672 -0.4843  0.1216
   33TMC2    O2  524   3.284   1.274   9.938  0.1059 -0.1937  0.3165
   33TMC2    O5  525   3.504   1.268   9.875  0.2126  0.1365 -0.4646
   33TMC2    H5  526   3.587   1.251   9.925  0.3950  1.7084 -0.2511
   34MPD2     C  527   3.064   1.222  10.773 -0.3788  0.2038 -0.2523
   34MPD2    C1  528   3.138   1.110  10.776 -0.0770  0.1643  0.0384
   34MPD2    C2  529   3.212   1.082  10.660 -0.4177 -0.6147  0.0885
   34MPD2    C3  530   3.215   1.169  10.553  0.0521  0.1459  0.4208
   34MPD2    C4  531   3.143   1.287  10.553  0.6666  0.6950  0.1353
   34MPD2    C5  532   3.077   1.314  10.669 -0.2112 -0.0963  0.4408
   34MPD2     H  533   3.281   0.998  10.657  0.7546  0.3768 -0.3466
   34MPD2    H1  534   3.147   1.365  10.479  0.9132  1.2064  0.6855
   34MPD2    H2  535   3.012   1.252  10.863  0.5381 -2.8244  1.2835
   34MPD2    H3  536   3.037   1.415  10.673 -2.7353 -1.0800  0.1674
   34MPD2     N  537   3.285   1.159  10.431 -0.1842  0.2185  0.5815
   34MPD2    H5  538   3.272   1.242  10.374  0.9224 -0.2269 -0.3160
   34MPD2    N1  539   3.132   1.025  10.890  0.0922 -0.5159  0.0790
   34MPD2    H7  540   3.056   1.040  10.955 -0.6347 -2.8951 -0.1984
   35TMC2    C1  541   4.235   1.552  11.575  0.2204 -0.2607 -0.2204
   35TMC2    C2  542   4.132   1.645  11.552 -0.4777 -0.4356 -0.0106
   35TMC2    C3  543   4.008   1.600  11.526  0.2915  0.1576  0.2707
   35TMC2    C4  544   4.215   1.416  11.571 -0.0830  0.1112  0.1843
   35TMC2    C5  545   4.084   1.377  11.554  0.2597  0.2724  0.5012
   35TMC2    C6  546   3.985   1.468  11.542 -0.2425 -0.1103 -0.0821
   35TMC2     C  547   4.368   1.613  11.553  0.3077 -0.3791  0.4484
   35TMC2     O  548   4.378   1.730  11.516 -0.8733 -0.3984 -0.0897
   35TMC2     H  549   4.153   1.751  11.558  1.9250 -0.8748 -0.3303
   35TMC2    H1  550   4.297   1.344  11.578  0.3424  0.3580 -2.2315
   35TMC2    H2  551   3.886   1.440  11.507 -0.1807  0.2475 -0.5380
   35TMC2    C7  552   4.055   1.237  11.550 -0.1254  0.5661 -0.2237
   35TMC2    C8  553   3.886   1.684  11.534  0.5827  0.5989  0.1773
   35TMC2    O1  554   4.145   1.159  11.562  0.0137  0.0280  0.6886
   35TMC2    O2  555   3.775   1.636  11.532  0.1100  0.0483 -0.7248
   35TMC2    O5  556   3.907   1.808  11.592  0.3711  0.1098 -0.3486
   35TMC2    H5  557   4.001   1.830  11.613  0.4394 -0.8685  0.3974
   36MPD2     C  558   0.136   1.620  11.605  0.0568  0.1052  0.7301
   36MPD2    C1  559   0.090   1.528  11.694  0.8702  0.3071 -0.0690
   36MPD2    C2  560   4.691   1.496  11.698 -0.3104  0.8766  0.3724
   36MPD2    C3  561   4.602   1.566  11.611 -0.0480  0.5138  0.0212
   36MPD2    C4  562   4.656   1.659  11.527  0.3482 -1.0611  0.5073
   36MPD2    C5  563   0.050   1.689  11.529  0.3234 -0.2798  0.1897
   36MPD2     H  564   4.663   1.422  11.772 -0.4619  0.3897 -0.1830
   36MPD2    H1  565   4.594   1.711  11.454  0.6984  0.0439  0.9926
   36MPD2    H2  566   0.242   1.637  11.594 -0.0787 -0.9207 -2.0789
   36MPD2    H3  567   0.082   1.763  11.457  0.8600 -0.3983  0.3036
   36MPD2     N  568   4.465   1.532  11.608 -0.7945  0.1805  0.2116
   36MPD2    H5  569   4.434   1.453  11.663 -0.4062 -1.0781 -1.3706
   36MPD2    N1  570   0.186   1.490  11.787 -0.7202  0.0451  0.1444
   36MPD2    H7  571   0.278   1.533  11.779 -0.7482  0.0986  0.1060
   37TMC2    C1  572   2.456   1.881  12.077 -0.0484  0.2651  1.0505
   37TMC2    C2  573   2.409   1.866  11.949 -0.4616  0.1032  0.0061
   37TMC2    C3  574   2.498   1.849  11.856 -0.3706  0.0665 -0.2099
   37TMC2    C4  575   2.589   1.883  12.101  0.6411 -0.4157  0.3914
   37TMC2    C5  576   2.673   1.862  11.996 -0.3758 -0.1262 -0.3386
   37TMC2    C6  577   2.633   1.835  11.873 -0.1321 -0.4547 -0.2516
   37TMC2     C  578   2.371   1.884  12.190  0.1428 -0.0253 -0.0733
   37TMC2     O  579   2.260   1.919  12.161 -0.3799 -0.0033 -0.3605
   37TMC2     H  580   2.303   1.870  11.930 -0.1540 -0.9066 -1.9413
   37TMC2    H1  581   2.639   1.904  12.195  2.2661 -1.5580 -0.2219
   37TMC2    H2  582   2.701   1.819  11.789  2.6119  2.7134  1.3909
   37TMC2    C7  583   2.814   1.858  12.029 -0.4077 -0.1178  0.2652
   37TMC2    C8  584   2.454   1.854  11.719  0.5129 -0.5478  0.6693
   37TMC2    O1  585   2.841   1.867  12.146 -0.3497  0.5740  0.5353
   37TMC2    O2  586   2.357   1.923  11.686  0.5336  0.1196  0.5981
   37TMC2    O5  587   2.506   1.748  11.655  0.5553  0.0384  0.3603
   37TMC2    H5  588   2.570   1.694  11.705 -1.1032  0.6656  3.1423
   38MPD2     C  589   2.249   1.828  12.688  0.0408 -0.6079  0.0014
   38MPD2    C1  590   2.380   1.789  12.662 -1.2940 -0.2924  0.0163
   38MPD2    C2  591   2.432   1.778  12.537  0.6111  0.2412 -0.3444
   38MPD2    C3  592   2.363   1.831  12.429 -0.2487 -0.1509  0.6363
   38MPD2    C4  593   2.235   1.879  12.449 -0.0666  0.2921  0.4903
   38MPD2    C5  594   2.177   1.867  12.576 -0.3922 -0.1510 -0.3607
   38MPD2     H  595   2.536   1.751  12.526  0.6299 -0.0138  0.4203
   38MPD2    H1  596   2.174   1.922  12.371  0.3141 -0.5231 -0.2546
   38MPD2    H2  597   2.201   1.828  12.785 -1.0669  0.9221 -0.5447
   38MPD2    H3  598   2.088   1.928  12.566 -0.5560 -0.9622 -3.8861
   38MPD2     N  599   2.428   1.839  12.311  0.0989  0.1650 -0.2523
   38MPD2    H5  600   2.519   1.796  12.299 -1.1116 -2.3913 -0.5005
   38MPD2    N1  601   2.470   1.745  12.767  0.2790 -0.5061  0.1402
   38MPD2    H7  602   2.563   1.709  12.746  0.7967 -0.3873  2.1616
   39TMC2    C1  603   0.900   3.785   1.633 -0.2839 -0.1953 -0.3446
   39TMC2    C2  604   1.026   3.730   1.649 -0.0444 -0.3346 -0.2278
   39TMC2    C3  605   1.120   3.804   1.721  0.4390  0.5135 -0.2544
   39TMC2    C4  606   0.865   3.902   1.683  0.1640  0.6398 -0.3683
   39TMC2    C5  607   0.963   3.969   1.751 -0.7616  0.0247 -0.1920
   39TMC2    C6  608   1.091   3.924   1.779 -0.1818 -0.0200  0.1051
   39TMC2     C  609   0.796   3.721   1.555 -0.0673 -0.4902  0.2698
   39TMC2     O  610   0.690   3.780   1.543  0.3996  0.8971  0.3567
   39TMC2     H  611   1.067   3.651   1.586 -1.3052 -0.3047 -1.0757
   39TMC2    H1  612   0.767   3.948   1.678 -1.3253 -2.4033  0.5979
   39TMC2    H2  613   1.165   3.981   1.835 -0.0836 -1.7003  1.6774
   39TMC2    C7  614   0.939   4.110   1.760 -0.1569 -0.1933  0.9922
   39TMC2    C8  615   1.239   3.736   1.766  0.7576 -0.0065  0.5770
   39TMC2    O1  616   0.829   4.146   1.789 -0.1841 -0.0698 -0.4140
   39TMC2    O2  617   1.236   3.610   1.757 -0.5714 -0.2367 -0.7916
   39TMC2    O5  618   1.343   3.814   1.731  0.4111 -0.3211  0.1435
   39TMC2    H5  619   1.328   3.911   1.739 -0.1675 -0.5230  1.5158
   40MPD2     C  620   0.804   3.400   1.366 -0.6879  0.4342  0.4862
   40MPD2    C1  621   0.751   3.521   1.416  0.0926  0.0988 -0.1977
   40MPD2    C2  622   0.629   3.550   1.371  0.8382  0.1712  0.1676
   40MPD2    C3  623   0.552   3.470   1.288  0.1898  0.0156 -0.4554
   40MPD2    C4  624   0.608   3.352   1.245 -0.1687  0.4214 -0.5317
   40MPD2    C5  625   0.737   3.320   1.277 -0.6724  0.3928 -0.7305
   40MPD2     H  626   0.596   3.651   1.395 -1.8666 -0.5148 -0.6325
   40MPD2    H1  627   0.575   3.295   1.159 -0.7507  0.2575 -0.1998
   40MPD2    H2  628   0.905   3.373   1.395 -0.7210 -0.9806 -0.7254
   40MPD2    H3  629   0.783   3.230   1.237 -0.0904  0.8455 -1.0855
   40MPD2     N  630   0.417   3.500   1.246  0.5628 -0.0101 -0.0465
   40MPD2    H5  631   0.367   3.425   1.200 -1.0480 -0.0015  1.6805
   40MPD2    N1  632   0.830   3.603   1.508  0.0758 -0.1152 -0.0943
   40MPD2    H7  633   0.926   3.572   1.525  0.0460 -1.1049 -1.7115
   41TMC2    C1  634   4.532   1.942  13.530  0.0854  0.1231 -0.0305
   41TMC2    C2  635   4.629   2.015  13.591 -0.0156  0.4989 -0.0965
   41TMC2    C3  636   4.657   2.137  13.539  0.4318 -0.5009 -0.0359
   41TMC2    C4  637   4.488   1.982  13.401  0.3964 -0.5187 -0.1217
   41TMC2    C5  638   4.526   2.105  13.346 -0.7790  0.5767 -0.2022
   41TMC2    C6  639   4.604   2.185  13.419 -0.7349 -0.0303 -0.0213
   41TMC2     C  640   4.435   1.865  13.605  0.1078  0.3183 -0.3744
   41TMC2     O  641   4.342   1.818  13.538  0.0137  0.2062 -0.4579
   41TMC2     H  642   4.664   2.002  13.693 -2.0683 -0.7853  0.4428
   41TMC2    H1  643   4.424   1.912  13.349 -1.0280  0.1316  0.7632
   41TMC2    H2  644   4.636   2.282  13.382  1.1146  0.0266  1.7195
   41TMC2    C7  645   4.497   2.148  13.209 -0.4028 -0.4493  0.0965
   41TMC2    C8  646   0.014   2.228  13.607 -0.1039 -0.3848 -0.3902
   41TMC2    O1  647   4.497   2.266  13.187 -0.2032 -0.0998  0.4576
   41TMC2    O2  648   0.051   2.221  13.730  0.5280 -0.4145  0.1798
   41TMC2    O5  649   0.100   2.264  13.513  0.0378 -0.0578 -0.1719
   41TMC2    H5  650   0.071   2.281  13.421  1.3808 -0.2396 -0.6267
   42MPD2     C  651   4.260   1.841  13.835 -1.1377  0.1069 -0.5429
   42MPD2    C1  652   4.398   1.848  13.853  0.6570 -0.0705  0.0694
   42MPD2    C2  653   4.457   1.850  13.981 -0.3301 -0.1330  1.0478
   42MPD2    C3  654   4.378   1.825  14.090  0.5868 -0.8523  0.0502
   42MPD2    C4  655   4.246   1.810  14.068  0.1814  0.0282 -0.0774
   42MPD2    C5  656   4.190   1.817  13.947  0.9538  0.1371 -0.3657
   42MPD2     H  657   4.563   1.871  13.986  0.0195 -1.6526  0.0783
   42MPD2    H1  658   4.190   1.788  14.158 -0.3343 -2.5403 -1.0114
   42MPD2    H2  659   4.209   1.865  13.743 -1.0032 -0.1582 -0.6871
   42MPD2    H3  660   4.084   1.800  13.935  1.2493 -2.2239  0.4357
   42MPD2     N  661   4.432   1.793  14.220  0.2594  0.4588  0.1775
   42MPD2    H5  662   4.361   1.771  14.290 -0.9929 -1.0669 -1.5666
   42MPD2    N1  663   4.480   1.861  13.740  0.5888 -0.0955  0.4902
   42MPD2    H7  664   4.577   1.878  13.766  0.6062  1.9519 -0.8953
   43TMC2    C1  665   1.163   0.052   0.884  0.0148  1.0891  0.8083
   43TMC2    C2  666   1.075   0.149   0.916 -0.3832 -0.1163  0.0355
   43TMC2    C3  667   1.093   0.224   1.027 -0.0336 -0.1767 -0.6307
   43TMC2    C4  668   1.261   0.019   0.968  0.2881 -0.4195  0.3592
   43TMC2    C5  669   1.277   0.091   1.083 -0.0181 -0.2858 -0.5559
   43TMC2    C6  670   1.192   0.195   1.114 -0.2303  0.1363  0.2738
   43TMC2     C  671   1.170   4.719   0.757 -0.4026  0.5850 -0.8764
   43TMC2     O  672   1.218   4.605   0.761 -0.1460  0.0080  0.3590
   43TMC2     H  673   0.988   0.166   0.854 -0.9084 -2.7370  0.0597
   43TMC2    H1  674   1.322   4.669   0.944  0.9966 -0.0092  0.6661
   43TMC2    H2  675   1.193   0.243   1.211  2.6648 -2.1103  1.3926
   43TMC2    C7  676   1.407   0.088   1.141 -0.2095  0.3724 -0.7708
   43TMC2    C8  677   1.009   0.342   1.059 -0.8529 -0.2707  0.3064
   43TMC2    O1  678   1.485   4.736   1.093 -0.1585 -0.4255  0.0439
   43TMC2    O2  679   1.051   0.435   1.125 -0.0792 -0.3858 -0.5711
   43TMC2    O5  680   0.883   0.299   1.045 -0.6427 -0.0253  0.0210
   43TMC2    H5  681   0.869   0.206   1.017  0.2731 -0.1831  0.0768
   44MPD2     C  682   1.106   4.665   0.243  0.3855  0.8503  0.1332
   44MPD2    C1  683   1.184   4.598   0.339  0.2914 -0.2970 -1.4345
   44MPD2    C2  684   1.186   4.640   0.470 -0.0052  0.5729  0.8282
   44MPD2    C3  685   1.117   0.013   0.516 -0.2556 -0.1129 -0.4165
   44MPD2    C4  686   1.046   0.081   0.420  0.2973  0.7616  0.0000
   44MPD2    C5  687   1.038   0.042   0.283  0.0451 -0.3476 -0.9070
   44MPD2     H  688   1.246   4.583   0.541  1.4723  0.5218 -0.4516
   44MPD2    H1  689   0.992   0.173   0.439 -0.5538 -0.3282  2.7587
   44MPD2    H2  690   1.098   4.637   0.139  0.4720  0.2794  0.2800
   44MPD2    H3  691   0.975   0.098   0.215  1.8409 -1.6277 -3.6366
   44MPD2     N  692   1.111   0.050   0.652  0.3403 -0.3279 -0.1587
   44MPD2    H5  693   1.078   0.142   0.678 -2.0596 -0.9261 -1.0957
   44MPD2    N1  694   1.259   4.479   0.313 -0.1530 -0.6887 -0.3583
   44MPD2    H7  695   1.313   4.446   0.392 -0.6130  0.5425  0.4677
   45TMC2    C1  696   2.207   1.791   9.866  0.2935 -0.0594  0.1410
   45TMC2    C2  697   2.328   1.733   9.824 -0.0613 -0.0302  0.1860
   45TMC2    C3  698   2.432   1.811   9.788  0.2146 -0.0502 -0.3294
   45TMC2    C4  699   2.191   1.921   9.876  0.1418 -0.1808 -0.3898
   45TMC2    C5  700   2.301   2.002   9.843 -0.0248 -0.1388  0.0486
   45TMC2    C6  701   2.420   1.945   9.792 -0.7878  0.6195  0.5072
   45TMC2     C  702   2.094   1.695   9.849 -0.3124 -0.1741 -0.5011
   45TMC2     O  703   2.118   1.593   9.786  0.4090 -0.0375  0.1802
   45TMC2     H  704   2.346   1.627   9.832  1.9715  0.4477  2.0641
   45TMC2    H1  705   2.105   1.964   9.927 -0.0534 -0.0463 -0.8205
   45TMC2    H2  706   2.502   2.014   9.776 -0.7270  0.6088  0.7634
   45TMC2    C7  707   2.295   2.130   9.903 -0.3925 -0.4887 -0.3691
   45TMC2    C8  708   2.512   1.761   9.680  0.3002  0.1670 -0.2832
   45TMC2    O1  709   2.228   2.145  10.006  1.1546  0.0300 -0.5547
   45TMC2    O2  710   2.521   1.830   9.578  0.4150  0.1020 -0.7298
   45TMC2    O5  711   2.548   1.631   9.699 -0.0697 -0.2621 -0.3055
   45TMC2    H5  712   2.536   1.605   9.793 -2.5232  1.0528 -0.2450
   46MPD2     C  713   1.817   1.577   9.810  0.7108  0.0534 -0.4094
   46MPD2    C1  714   1.838   1.700   9.869  0.4901 -0.5116 -0.1498
   46MPD2    C2  715   1.734   1.785   9.897 -0.5385  0.8190 -0.4542
   46MPD2    C3  716   1.607   1.747   9.865 -0.5199  0.0424 -0.0936
   46MPD2    C4  717   1.591   1.631   9.798  0.4925 -0.4305 -0.3156
   46MPD2    C5  718   1.688   1.540   9.771  0.7928 -0.3879  0.1792
   46MPD2     H  719   1.755   1.877   9.950 -0.0610  0.4381  0.0206
   46MPD2    H1  720   1.491   1.593   9.778  1.4678 -3.0805 -0.0644
   46MPD2    H2  721   1.901   1.512   9.789  1.5958  1.1366 -0.2427
   46MPD2    H3  722   1.674   1.448   9.716  0.6193 -0.0832 -0.2887
   46MPD2     N  723   1.507   1.839   9.902  0.2509 -0.2012  0.2813
   46MPD2    H5  724   1.537   1.930   9.936  0.9537 -0.3772  0.1369
   46MPD2    N1  725   1.970   1.751   9.884 -0.7920  0.0565 -0.7272
   46MPD2    H7  726   1.983   1.843   9.925  2.7332  0.0016 -1.7345
   47TMC2    C1  727   4.008   2.478   9.521 -1.0452  0.8475  0.2099
   47TMC2    C2  728   4.024   2.346   9.489 -0.6066 -0.2494 -0.2049
   47TMC2    C3  729   3.904   2.285   9.450  0.3066  0.2638 -0.7683
   47TMC2    C4  730   3.886   2.553   9.516  0.3450 -0.4064 -0.2433
   47TMC2    C5  731   3.773   2.486   9.473  0.0188 -0.3988 -1.2656
   47TMC2    C6  732   3.784   2.346   9.457  0.2493 -0.2205 -0.0648
   47TMC2     C  733   4.121   2.550   9.585 -0.3037  0.6248  0.3152
   47TMC2     O  734   4.110   2.670   9.599  0.0466  0.1891 -0.3050
   47TMC2     H  735   4.121   2.297   9.487 -1.3707 -1.6523 -1.8196
   47TMC2    H1  736   3.888   2.660   9.533 -0.8428 -0.3921 -0.2075
   47TMC2    H2  737   3.697   2.282   9.455  1.6601 -2.1176 -1.1524
   47TMC2    C7  738   3.640   2.536   9.491  0.3165  0.9085  0.6759
   47TMC2    C8  739   3.894   2.144   9.490  0.4241 -0.6829  0.1568
   47TMC2    O1  740   3.553   2.451   9.521 -0.0343  0.3824 -0.2605
   47TMC2    O2  741   3.800   2.080   9.544  0.8800  0.3389 -0.4341
   47TMC2    O5  742   4.008   2.100   9.431  0.2365  0.0387  0.1538
   47TMC2    H5  743   4.029   2.162   9.357  1.8779 -0.5277  0.1441
   48MPD2     C  744   4.347   2.637   9.767  0.3527 -0.4841  0.4365
   48MPD2    C1  745   4.313   2.505   9.733  0.1274 -0.4640  0.0909
   48MPD2    C2  746   4.380   2.402   9.797 -1.0411 -0.0339  0.1886
   48MPD2    C3  747   4.474   2.426   9.892  0.0047  0.5129 -0.5311
   48MPD2    C4  748   4.517   2.558   9.914  0.3405 -0.4268 -0.5733
   48MPD2    C5  749   4.454   2.660   9.850  0.0226 -0.4782  0.4699
   48MPD2     H  750   4.354   2.300   9.771 -1.6276  0.3069 -0.5467
   48MPD2    H1  751   4.606   2.576   9.973 -1.2246  0.2059  1.5785
   48MPD2    H2  752   4.288   2.720   9.730 -0.6183 -1.2386  0.2870
   48MPD2    H3  753   4.478   2.760   9.884  0.6028 -0.4656  0.0139
   48MPD2     N  754   4.537   2.313   9.946  0.0009 -0.2703 -0.5828
   48MPD2    H5  755   4.514   2.224   9.903 -0.1253 -1.8856  2.8339
   48MPD2    N1  756   4.206   2.469   9.648 -0.2430  0.8657  0.3189
   48MPD2    H7  757   4.184   2.370   9.649  1.6348  0.4614  1.3647
   49TMC2    C1  758   1.637   4.421  11.022  0.3506  0.8149 -0.2389
   49TMC2    C2  759   1.592   4.518  10.939 -0.0319  0.5279 -0.1384
   49TMC2    C3  760   1.476   4.492  10.877  0.1621 -0.2534  0.4991
   49TMC2    C4  761   1.585   4.295  11.025  0.2171 -0.6141 -0.1621
   49TMC2    C5  762   1.477   4.273  10.947  0.2164  0.0782  0.1945
   49TMC2    C6  763   1.417   4.371  10.876  0.2053 -1.1083 -0.4352
   49TMC2     C  764   1.715   4.471  11.139  0.1713  0.0675 -0.7375
   49TMC2     O  765   1.726   4.590  11.160  0.1945  0.2464  0.0036
   49TMC2     H  766   1.630   4.619  10.927  0.6544  0.3050  0.1863
   49TMC2    H1  767   1.635   4.208  11.066 -1.3380 -0.3854  2.2083
   49TMC2    H2  768   1.312   4.364  10.848  0.8631 -0.8142 -2.9259
   49TMC2    C7  769   1.413   4.147  10.950 -0.4833  1.0647 -0.1852
   49TMC2    C8  770   1.421   4.598  10.794  0.0747  0.1839  0.2442
   49TMC2    O1  771   1.439   4.087  11.053  0.3202  0.6681 -0.0516
   49TMC2    O2  772   1.437   4.718  10.808 -0.4112  0.2820 -0.4837
   49TMC2    O5  773   1.364   4.535  10.692 -0.6577  0.5008  0.4032
   49TMC2    H5  774   1.381   4.439  10.684 -0.5451  0.5805 -0.2943
   50MPD2     C  775   1.908   4.249  11.363  0.1600 -0.2015 -0.2171
   50MPD2    C1  776   1.861   4.370  11.317 -0.4967  0.2519 -0.1227
   50MPD2    C2  777   1.894   4.487  11.383 -0.1954 -0.3348  0.3663
   50MPD2    C3  778   1.976   4.477  11.494 -0.5636  0.6303  0.3576
   50MPD2    C4  779   2.019   4.355  11.541  0.5257 -0.0264  0.4271
   50MPD2    C5  780   1.988   4.238  11.475 -0.4290  0.2895 -0.1099
   50MPD2     H  781   1.862   4.582  11.342  0.6514 -0.2489 -0.0817
   50MPD2    H1  782   2.073   4.360  11.635  1.9820 -2.2332 -0.2965
   50MPD2    H2  783   1.883   4.157  11.310 -2.3513  0.3225  0.0471
   50MPD2    H3  784   2.029   4.145  11.514 -4.3139 -0.9642  0.9945
   50MPD2     N  785   2.022   4.588  11.569 -0.2147 -0.3073 -0.0204
   50MPD2    H5  786   2.087   4.571  11.646 -0.1961 -1.0570 -0.2050
   50MPD2    N1  787   1.775   4.360  11.204 -0.5353 -0.1994 -0.2327
   50MPD2    H7  788   1.746   4.266  11.181 -0.5292 -0.1779 -0.3262
   51TMC2    C1  789   2.425   3.870   1.022  0.4815  0.5940 -1.1683
   51TMC2    C2  790   2.346   3.855   0.913 -0.2614  0.9854  0.4867
   51TMC2    C3  791   2.329   3.957   0.830  0.5175  0.3179 -0.0307
   51TMC2    C4  792   2.515   3.968   1.032  0.2042  0.2834 -0.3779
   51TMC2    C5  793   2.504   4.072   0.944 -0.0053  0.0582  0.4446
   51TMC2    C6  794   2.409   4.070   0.846  0.5402 -0.1671 -0.1989
   51TMC2     C  795   2.439   3.752   1.114 -0.4459  0.0861 -0.0721
   51TMC2     O  796   2.437   3.647   1.058  0.4258  0.5347  0.0641
   51TMC2     H  797   2.276   3.773   0.897  1.1299 -0.1754  0.2655
   51TMC2    H1  798   2.585   3.972   1.114  0.7966  1.1207 -0.9352
   51TMC2    H2  799   2.420   4.139   0.763 -1.3511  0.7704  0.3371
   51TMC2    C7  800   2.585   4.194   0.967  0.3157  0.6702  0.8121
   51TMC2    C8  801   2.254   3.934   0.711 -0.5185  0.1711 -0.1755
   51TMC2    O1  802   2.682   4.187   1.042  0.7507  0.8901  0.0086
   51TMC2    O2  803   2.234   3.820   0.667  0.4425 -0.6474 -0.1703
   51TMC2    O5  804   2.243   4.047   0.640 -0.3942  0.2040  0.0269
   51TMC2    H5  805   2.264   4.126   0.694 -2.8839  1.9297 -1.5721
   52MPD2     C  806   2.523   3.538   1.570 -0.8841 -0.1382  0.5402
   52MPD2    C1  807   2.539   3.486   1.436  0.2782 -0.0164  0.2184
   52MPD2    C2  808   2.514   3.570   1.333 -0.0291  0.4492 -0.0343
   52MPD2    C3  809   2.470   3.697   1.353 -0.3654 -0.4421  0.0610
   52MPD2    C4  810   2.451   3.742   1.483  0.1552 -0.7232  0.4297
   52MPD2    C5  811   2.485   3.663   1.588  0.7752  0.3435  0.0780
   52MPD2     H  812   2.517   3.529   1.233  0.3624 -0.8006  0.4975
   52MPD2    H1  813   2.418   3.845   1.495 -0.3608 -0.8278 -0.0601
   52MPD2    H2  814   2.567   3.494   1.659 -0.4716  0.4730  0.6418
   52MPD2    H3  815   2.480   3.700   1.690  1.3124 -0.6960  0.4818
   52MPD2     N  816   2.453   3.789   1.245 -1.4220  0.2172  0.0368
   52MPD2    H5  817   2.439   3.887   1.266 -1.3327 -0.1458  1.7868
   52MPD2    N1  818   2.572   3.355   1.409 -0.5481 -0.2263  0.3454
   52MPD2    H7  819   2.583   3.332   1.311  1.9963 -1.6716  0.9780
   53TMC2    C1  820   3.471   2.022  12.312 -0.3305  0.0764 -0.1061
   53TMC2    C2  821   3.584   1.977  12.363 -1.0536  0.6843 -0.5152
   53TMC2    C3  822   3.593   1.950  12.499 -0.0816  0.2989 -0.5096
   53TMC2    C4  823   3.364   2.043  12.389 -0.0398  0.0232  0.1299
   53TMC2    C5  824   3.373   2.022  12.523  0.0600 -0.0224 -0.1748
   53TMC2    C6  825   3.485   1.971  12.586  0.9347 -0.6914  0.6469
   53TMC2     C  826   3.440   1.974  12.182 -0.4301 -0.0575 -0.3361
   53TMC2     O  827   3.532   1.943  12.106 -0.6313  0.2481 -0.0861
   53TMC2     H  828   3.660   1.949  12.291 -2.8427 -2.6484 -1.1029
   53TMC2    H1  829   3.269   2.079  12.350 -0.1827 -0.4421  0.0382
   53TMC2    H2  830   3.487   1.947  12.692 -0.4947  0.2242  0.8733
   53TMC2    C7  831   3.252   1.988  12.589  0.5074  0.6897  0.2865
   53TMC2    C8  832   3.715   1.894  12.555  0.0613  0.7523  0.5867
   53TMC2    O1  833   3.170   1.933  12.514 -0.4202  0.3223 -0.3663
   53TMC2    O2  834   3.728   1.893  12.678  0.3808  0.2957 -0.1537
   53TMC2    O5  835   3.776   1.813  12.471  0.1587 -0.2050 -0.0311
   53TMC2    H5  836   3.734   1.794  12.384  0.6918 -1.3205 -0.0468
   54MPD2     C  837   3.309   1.936  11.908 -0.2334 -0.3505  0.8235
   54MPD2    C1  838   3.240   1.951  12.029  0.3361 -0.1448  0.1147
   54MPD2    C2  839   3.104   1.925  12.038  0.2164  0.4261  0.3264
   54MPD2    C3  840   3.030   1.898  11.921  0.2026  0.4597 -0.1249
   54MPD2    C4  841   3.101   1.886  11.802  0.6134  0.4447  0.0799
   54MPD2    C5  842   3.236   1.911  11.794 -0.3805  0.7209 -0.4210
   54MPD2     H  843   3.053   1.952  12.129  3.1280  1.9991  1.5145
   54MPD2    H1  844   3.038   1.862  11.717 -0.9815  2.2764  0.7593
   54MPD2    H2  845   3.417   1.943  11.908 -0.2241 -0.4768 -0.0079
   54MPD2    H3  846   3.281   1.894  11.697 -0.5568 -0.7407 -0.2531
   54MPD2     N  847   2.891   1.873  11.917 -0.1540  0.2195 -0.0097
   54MPD2    H5  848   2.866   1.879  11.819  0.1063  1.4272  0.0033
   54MPD2    N1  849   3.306   1.958  12.156  0.0424  0.0795  0.0048
   54MPD2    H7  850   3.245   1.960  12.237 -1.6222  1.0948 -1.2908
   55TMC2    C1  851   3.957   4.570  17.711 -0.2045 -0.3136  0.2119
   55TMC2    C2  852   4.048   4.593  17.611  0.0996  0.2754 -0.4428
   55TMC2    C3  853   4.151   4.503  17.599 -0.5560  0.5256 -0.4058
   55TMC2    C4  854   3.952   4.445   0.027 -0.3073 -0.1544  0.6482
   55TMC2    C5  855   4.054   4.358   0.011  0.9044  0.7022 -0.2311
   55TMC2    C6  856   4.151   4.386  17.662  0.2152  0.4319  0.5847
   55TMC2     C  857   3.848   4.667  17.728 -0.7661  0.9510 -0.8681
   55TMC2     O  858   3.766   4.638   0.068 -0.0809 -0.5040 -0.0948
   55TMC2     H  859   4.067   4.695  17.579 -1.0715  0.5936 -0.1633
   55TMC2    H1  860   3.859   4.423   0.079 -1.2329  0.1382 -0.8895
   55TMC2    H2  861   4.231   4.315  17.647 -0.2477  0.3738 -1.6052
   55TMC2    C7  862   4.079   4.254   0.100  0.0111  0.2192 -1.0301
   55TMC2    C8  863   4.281   4.567  17.604 -0.0812 -0.2370  0.6040
   55TMC2    O1  864   4.174   4.179   0.077  0.3077  0.3388  0.1588
   55TMC2    O2  865   4.377   4.531  17.667  0.4409 -0.1711 -0.0160
   55TMC2    O5  866   4.286   4.648  17.499  0.0386 -0.2577  0.7334
   55TMC2    H5  867   4.210   4.638  17.438  0.4278  0.5667  0.1021
   56MPD2     C  868   3.784   0.235  17.523  0.7977 -0.2130  0.0835
   56MPD2    C1  869   3.766   0.149  17.628  0.8200  0.6760  0.0371
   56MPD2    C2  870   3.667   0.180  17.718 -0.2625  0.5281  0.4058
   56MPD2    C3  871   3.578   0.286  17.698  0.1441 -0.3507  0.0694
   56MPD2    C4  872   3.593   0.369  17.585 -0.1317 -0.0255 -0.1207
   56MPD2    C5  873   3.700   0.347  17.504 -0.2316  0.0419 -0.2018
   56MPD2     H  874   3.647   0.112   0.056  1.5662 -0.3873  0.0844
   56MPD2    H1  875   3.521   0.443  17.553 -0.4247 -1.1867 -2.1004
   56MPD2    H2  876   3.859   0.223  17.446  0.9382 -0.1368  0.2088
   56MPD2    H3  877   3.728   0.417  17.425  0.5620 -0.5478 -0.4408
   56MPD2     N  878   3.474   0.305   0.046 -0.0745 -0.3319 -0.2300
   56MPD2    H5  879   3.466   0.248   0.130  1.1416  0.1946  0.2484
   56MPD2    N1  880   3.844   0.032  17.636 -0.6004  0.0534 -0.3842
   56MPD2    H7  881   3.910   0.020  17.560 -0.0118 -1.1368  0.3171
   57TMC2    C1  882   2.364   0.620  13.813 -0.1331  0.3698  0.0108
   57TMC2    C2  883   2.242   0.682  13.788 -0.0041 -0.2572  0.5421
   57TMC2    C3  884   2.180   0.663  13.668 -0.3161  0.6863  0.8179
   57TMC2    C4  885   2.406   0.528  13.724 -0.3747 -0.2721  0.8588
   57TMC2    C5  886   2.343   0.519  13.605  0.3293 -0.0785  0.2012
   57TMC2    C6  887   2.227   0.582  13.570  0.4716 -0.1058 -0.1561
   57TMC2     C  888   2.434   0.661  13.935  0.7440  0.4516  0.1619
   57TMC2     O  889   2.382   0.753  14.000 -0.3025  0.1415 -0.4019
   57TMC2     H  890   2.209   0.766  13.849  1.4009  0.8630 -0.2400
   57TMC2    H1  891   2.500   0.475  13.729 -0.5461 -0.6438  0.2004
   57TMC2    H2  892   2.176   0.561  13.476 -0.0966 -3.1447  0.8351
   57TMC2    C7  893   2.397   0.419  13.512  0.3385  0.4297  0.0992
   57TMC2    C8  894   2.079   0.759  13.624  0.1894 -0.8860 -0.2341
   57TMC2    O1  895   2.515   0.390  13.515  0.3410 -0.1693  0.0654
   57TMC2    O2  896   2.039   0.769  13.507  0.6768  0.0912  0.0922
   57TMC2    O5  897   2.001   0.796  13.726 -0.1284  0.5463 -0.4824
   57TMC2    H5  898   1.996   0.751  13.813  0.2730  0.1297 -0.6798
   58MPD2     C  899   2.848   0.704  14.234 -0.2416  0.4506 -0.4816
   58MPD2    C1  900   2.715   0.751  14.244  0.1761 -0.7056  0.5239
   58MPD2    C2  901   2.625   0.722  14.155  0.0692  0.3457 -0.2667
   58MPD2    C3  902   2.654   0.636  14.050  0.6139 -0.2902  0.4159
   58MPD2    C4  903   2.781   0.586  14.037 -0.4652  0.0534 -0.0676
   58MPD2    C5  904   2.878   0.620  14.124  0.1199 -0.4689 -0.3687
   58MPD2     H  905   2.521   0.742  14.179  0.0140  0.5613 -0.6799
   58MPD2    H1  906   2.813   0.528  13.951 -0.5570  1.4826 -1.0536
   58MPD2    H2  907   2.927   0.730  14.304  0.3629  0.3942 -1.1418
   58MPD2    H3  908   2.978   0.578  14.121  0.5423  0.5748 -0.8419
   58MPD2     N  909   2.564   0.608  13.946  0.1766 -0.1197 -0.0313
   58MPD2    H5  910   2.592   0.546  13.871  0.1379 -1.1374  0.7947
   58MPD2    N1  911   2.678   0.804  14.374 -0.5756 -0.0340 -0.0437
   58MPD2    H7  912   2.580   0.806  14.400 -0.1092  0.0848  1.7317
   59TMC2    C1  913   0.687   0.856  12.974  0.9709 -0.2522  0.3364
   59TMC2    C2  914   0.713   0.737  13.042 -0.1274  0.2056 -0.3072
   59TMC2    C3  915   0.667   0.629  12.976  0.1164  0.2872 -0.1189
   59TMC2    C4  916   0.617   0.858  12.857  0.1246 -0.3203  0.4332
   59TMC2    C5  917   0.574   0.743  12.806  0.1767 -0.0866  0.2019
   59TMC2    C6  918   0.597   0.620  12.859  0.2377 -0.1930  0.3037
   59TMC2     C  919   0.747   0.983  13.024  0.6173 -0.0981  0.1257
   59TMC2     O  920   0.707   1.083  12.969  0.0021  0.2925 -0.0855
   59TMC2     H  921   0.780   0.729  13.126 -0.8815 -3.3439 -0.0652
   59TMC2    H1  922   0.590   0.959  12.826  2.5499  0.7536  1.7983
   59TMC2    H2  923   0.582   0.529  12.803 -0.7148 -0.7902  1.5192
   59TMC2    C7  924   0.464   0.736  12.709 -1.0304  0.1080 -0.8876
   59TMC2    C8  925   0.706   0.507  13.036 -0.4459  0.3403 -0.0816
   59TMC2    O1  926   0.392   0.641  12.717  0.2742 -0.2003  0.5080
   59TMC2    O2  927   0.812   0.491  13.089  0.0932  0.1399 -0.2381
   59TMC2    O5  928   0.583   0.476  13.087  0.1438 -0.3075  0.3549
   59TMC2    H5  929   0.517   0.536  13.049  0.3236 -2.1432 -2.8777
   60MPD2     C  930   0.951   1.191  13.114 -0.6065 -0.2689  0.0770
   60MPD2    C1  931   0.940   1.064  13.164 -0.1524  0.0821  0.5421
   60MPD2    C2  932   1.022   1.025  13.264 -0.3038  0.4946 -0.5253
   60MPD2    C3  933   1.120   1.113  13.299  0.0307  0.5049  0.2618
   60MPD2    C4  934   1.146   1.234  13.240 -0.4652  0.4994  0.1829
   60MPD2    C5  935   1.053   1.277  13.145 -0.3122 -0.1478 -0.3166
   60MPD2     H  936   1.016   0.929  13.316  1.3691  0.1110 -1.0385
   60MPD2    H1  937   1.233   1.291  13.270  0.4730  0.0434 -1.6584
   60MPD2    H2  938   0.891   1.235  13.035 -0.5790 -1.1224 -0.4154
   60MPD2    H3  939   1.059   1.375  13.099  0.4118 -1.2218 -2.4966
   60MPD2     N  940   1.215   1.091  13.407  0.6948 -0.1023  0.3075
   60MPD2    H5  941   1.290   1.158  13.413 -1.9500  2.8364  0.6473
   60MPD2    N1  942   0.847   0.970  13.120  0.2590  0.1349 -0.0857
   60MPD2    H7  943   0.867   0.877  13.156  0.2208  1.4428  3.3075
   61TMC2    C1  944   4.432   2.742  15.484 -0.1249 -0.1880 -0.0276
   61TMC2    C2  945   4.338   2.825  15.533  0.1285  0.3170 -0.3037
   61TMC2    C3  946   4.366   2.916  15.631 -0.5563  1.0236 -1.1960
   61TMC2    C4  947   4.555   2.733  15.547 -0.3080  0.3511 -0.7029
   61TMC2    C5  948   4.583   2.828  15.643 -0.2006  0.1149 -0.2197
   61TMC2    C6  949   4.486   2.917  15.694  0.2075  0.2979  0.2731
   61TMC2     C  950   4.413   2.695  15.351  0.2200 -0.0024 -0.1371
   61TMC2     O  951   4.302   2.699  15.296 -0.4606 -0.6056  0.0672
   61TMC2     H  952   4.241   2.838  15.486 -1.2124 -1.7857  1.8763
   61TMC2    H1  953   4.635   2.667  15.515 -0.5590  0.0359 -0.6716
   61TMC2    H2  954   4.512   2.986  15.774  1.0576  0.2121  0.0701
   61TMC2    C7  955   4.719   2.876  15.644 -0.3012 -0.0304  0.6386
   61TMC2    C8  956   4.268   3.013  15.661 -0.0458 -0.2127 -0.0414
   61TMC2    O1  957   0.051   2.843  15.546  0.2146 -0.6409 -0.4762
   61TMC2    O2  958   4.174   3.043  15.588 -0.5839 -0.1892 -0.3356
   61TMC2    O5  959   4.303   3.072  15.777  0.5983  0.6659  0.3180
   61TMC2    H5  960   4.363   3.015  15.828  0.7112 -0.2439 -0.8334
   62MPD2     C  961   4.444   2.604  15.072  0.2231  0.3021 -0.7779
   62MPD2    C1  962   4.543   2.635  15.158  0.1061  0.4549 -0.2488
   62MPD2    C2  963   4.678   2.638  15.109 -0.7221  0.4937 -0.0039
   62MPD2    C3  964   4.705   2.608  14.982 -0.3746  0.9585  0.1589
   62MPD2    C4  965   4.612   2.548  14.905  0.5007  0.0289 -0.2377
   62MPD2    C5  966   4.482   2.554  14.946  0.4936  0.2782  0.0909
   62MPD2     H  967   0.026   2.675  15.165 -2.6643  1.0265  2.5984
   62MPD2    H1  968   4.633   2.518  14.803  4.7999  2.4733 -0.0659
   62MPD2    H2  969   4.338   2.609  15.091 -0.2090 -1.3010 -2.8377
   62MPD2    H3  970   4.405   2.523  14.877 -1.5917  2.3400  1.4937
   62MPD2     N  971   0.101   2.615  14.930 -0.4876  0.3337 -0.0539
   62MPD2    H5  972   0.106   2.571  14.838  2.2543 -0.1369  0.3345
   62MPD2    N1  973   4.531   2.684  15.284  0.2598  0.2086 -0.1772
   62MPD2    H7  974   4.616   2.697  15.339  0.2422  1.9564 -0.5543
   63TMC2    C1  975   4.663   2.515  10.971  0.5429 -0.5337  0.0954
   63TMC2    C2  976   0.013   2.619  11.005  0.3628  0.1154  0.7175
   63TMC2    C3  977   0.037   2.714  10.911 -0.3401 -0.1105  0.5078
   63TMC2    C4  978   4.608   2.509  10.849  0.3795  0.3730 -0.0960
   63TMC2    C5  979   4.640   2.611  10.760  0.3572  0.1002  0.7791
   63TMC2    C6  980   4.732   2.707  10.786  0.4497  0.3478 -0.3872
   63TMC2     C  981   4.609   2.445  11.080  0.6388 -0.7094  0.0282
   63TMC2     O  982   4.648   2.472  11.193  0.2175 -0.4031 -0.0200
   63TMC2     H  983   0.059   2.624  11.103  1.4432  1.2313  0.1441
   63TMC2    H1  984   4.521   2.448  10.826  0.6641 -0.2801  0.5681
   63TMC2    H2  985   0.003   2.800  10.732  1.6711  0.9894  0.8845
   63TMC2    C7  986   4.591   2.593  10.624  0.2903 -0.6899 -0.4241
   63TMC2    C8  987   0.102   2.836  10.955 -0.3684 -0.3859 -0.4262
   63TMC2    O1  988   4.517   2.498  10.601  0.4711 -0.6557  0.2373
   63TMC2    O2  989   0.079   2.949  10.906 -0.0131 -0.2737  0.4190
   63TMC2    O5  990   0.156   2.831  11.077 -0.1532 -0.7524 -0.3079
   63TMC2    H5  991   0.172   2.739  11.109  1.9125 -0.4348 -0.4442
   64MPD2     C  992   4.240   2.186  11.307 -0.5103  0.4314 -0.2709
   64MPD2    C1  993   4.287   2.115  11.199 -0.5476 -1.2437  0.0155
   64MPD2    C2  994   4.372   2.174  11.102  0.5931 -0.3039 -0.5466
   64MPD2    C3  995   4.428   2.293  11.135  0.1506  0.2456 -0.1504
   64MPD2    C4  996   4.382   2.365  11.242 -0.7240 -0.3505  0.2101
   64MPD2    C5  997   4.276   2.320  11.316  0.5212  0.0861 -0.3010
   64MPD2     H  998   4.388   2.125  11.007  0.1489  0.5238 -1.0497
   64MPD2    H1  999   4.418   2.467  11.252 -2.8669  0.4112  0.1841
   64MPD2    H2 1000   4.171   2.154  11.385 -0.2161 -2.0378 -1.0471
   64MPD2    H3 1001   4.235   2.389  11.389  1.4024  1.6559 -1.2871
   64MPD2     N 1002   4.521   2.346  11.048 -0.2401 -0.6632  0.1624
   64MPD2    H5 1003   4.506   2.313  10.953  0.5325 -1.9506  0.4964
   64MPD2    N1 1004   4.254   1.981  11.182 -0.4963  0.1776 -0.2807
   64MPD2    H7 1005   4.301   1.945  11.098 -1.0717 -0.9540 -0.1205
   65TMC2    C1 1006   0.717   2.042  15.690 -0.7147  0.2657 -0.3255
   65TMC2    C2 1007   0.815   2.048  15.590  0.0775  0.1505  0.9031
   65TMC2    C3 1008   0.853   2.168  15.544  0.1105 -0.7348 -0.3040
   65TMC2    C4 1009   0.657   2.148  15.746 -0.7571 -0.1392 -0.0220
   65TMC2    C5 1010   0.681   2.270  15.680  0.1479  0.7034  0.3388
   65TMC2    C6 1011   0.782   2.281  15.587  0.0179 -0.1919  0.1882
   65TMC2     C 1012   0.663   1.916  15.740  0.5157  0.2114  0.2768
   65TMC2     O 1013   0.601   1.913  15.847  0.3238 -0.9102  0.1610
   65TMC2     H 1014   0.864   1.961  15.549 -0.0257  1.4029 -1.9024
   65TMC2    H1 1015   0.579   2.130  15.819  0.3229 -2.5716  0.5433
   65TMC2    H2 1016   0.814   2.377  15.547  1.1580 -0.6526  0.0001
   65TMC2    C7 1017   0.609   2.391  15.711  0.5720 -0.1494 -0.3691
   65TMC2    C8 1018   0.931   2.171  15.421 -0.2285  0.6446  0.4485
   65TMC2    O1 1019   0.598   2.483  15.630  0.2116  0.0879 -0.3260
   65TMC2    O2 1020   0.942   2.084  15.337  0.1237 -0.1505 -0.6207
   65TMC2    O5 1021   1.019   2.274  15.435 -0.0912  0.3430 -0.3772
   65TMC2    H5 1022   1.006   2.343  15.504 -1.8228  0.7668 -1.1252
   66MPD2     C 1023   0.555   1.642  15.758 -0.4667 -0.5246  0.4822
   66MPD2    C1 1024   0.643   1.685  15.657 -0.5170 -0.2772  0.4714
   66MPD2    C2 1025   0.692   1.596  15.568 -0.8766 -0.6231  0.6534
   66MPD2    C3 1026   0.672   1.460  15.580 -0.2591  0.0336 -0.3706
   66MPD2    C4 1027   0.590   1.413  15.686 -0.2768  0.1951  0.0024
   66MPD2    C5 1028   0.537   1.507  15.775  0.7690 -0.6950 -0.5145
   66MPD2     H 1029   0.751   1.640  15.488 -0.4237 -1.0169  0.7697
   66MPD2    H1 1030   0.567   1.308  15.694  1.9942 -0.3917 -1.2018
   66MPD2    H2 1031   0.510   1.703  15.835  0.4206  0.6127  0.0926
   66MPD2    H3 1032   0.477   1.470  15.857  1.3980 -0.7963 -0.1003
   66MPD2     N 1033   0.723   1.363  15.489  0.5422  1.1308 -0.2568
   66MPD2    H5 1034   0.697   1.266  15.505 -0.5174  1.6110  0.8975
   66MPD2    N1 1035   0.681   1.817  15.643 -0.3643 -0.1144 -0.2477
   66MPD2    H7 1036   0.718   1.846  15.553  0.4044  0.3195  0.2056
   67TMC2    C1 1037   1.103   1.227  14.407 -1.2760 -0.2441 -0.3714
   67TMC2    C2 1038   1.119   1.362  14.392  0.5957 -0.0302  0.0781
   67TMC2    C3 1039   1.145   1.441  14.496 -0.3131 -0.3232 -0.1033
   67TMC2    C4 1040   1.125   1.164  14.525  0.2559  0.2912 -0.0413
   67TMC2    C5 1041   1.137   1.248  14.634  0.4800  0.6450  0.5320
   67TMC2    C6 1042   1.139   1.385  14.618 -0.2481  0.2544 -0.7266
   67TMC2     C 1043   1.021   1.165  14.310  0.2780 -0.7817  0.2633
   67TMC2     O 1044   1.026   1.046  14.300  0.0032 -0.1006  0.1165
   67TMC2     H 1045   1.119   1.414  14.297 -0.5126  0.6770  0.4665
   67TMC2    H1 1046   1.108   1.058  14.544 -0.6790  0.6944  1.3774
   67TMC2    H2 1047   1.140   1.445  14.709 -1.7532 -0.7579 -0.0299
   67TMC2    C7 1048   1.209   1.196  14.751  0.4747 -0.0109  0.0348
   67TMC2    C8 1049   1.126   1.587  14.489 -0.2255  0.0706 -0.7759
   67TMC2    O1 1050   1.267   1.089  14.740 -0.2815  0.1690 -0.3305
   67TMC2    O2 1051   1.055   1.636  14.404  0.3108  0.4620 -0.0504
   67TMC2    O5 1052   1.218   1.640  14.568  0.5548  0.3030 -0.0775
   67TMC2    H5 1053   1.284   1.576  14.604  0.9978 -0.0478 -1.5215
   68MPD2     C 1054   0.798   1.109  14.106 -0.6042  0.1099  0.1743
   68MPD2    C1 1055   0.838   1.236  14.147  0.0945 -0.4816 -0.7416
   68MPD2    C2 1056   0.769   1.346  14.103  0.3320 -0.4255  0.7428
   68MPD2    C3 1057   0.656   1.331  14.021 -0.1541  0.5273  0.5423
   68MPD2    C4 1058   0.613   1.204  13.977  0.5861 -0.1838 -0.1713
   68MPD2    C5 1059   0.690   1.097  14.017  0.0547 -0.0324 -0.0446
   68MPD2     H 1060   0.812   1.442  14.129 -0.1420 -0.0571  0.1821
   68MPD2    H1 1061   0.519   1.185  13.927  1.1174 -0.2952 -1.1397
   68MPD2    H2 1062   0.846   1.020  14.144 -1.4961 -0.6474 -0.4838
   68MPD2    H3 1063   0.649   1.002  13.984  0.2596  0.0249 -0.4659
   68MPD2     N 1064   0.588   1.439  13.966 -0.5145  0.4077 -0.6265
   68MPD2    H5 1065   0.512   1.418  13.902 -0.6081 -2.3890  0.3868
   68MPD2    N1 1066   0.949   1.254  14.228  0.5606  0.5709 -0.8123
   68MPD2    H7 1067   0.968   1.352  14.240 -0.0304  0.5420  0.3735
   69TMC2    C1 1068   2.780   2.437  12.612 -1.1595  1.1664 -1.1067
   69TMC2    C2 1069   2.707   2.499  12.523  0.5181 -0.0930  0.3425
   69TMC2    C3 1070   2.749   2.481  12.388 -0.0527  0.0630 -0.7410
   69TMC2    C4 1071   2.896   2.366  12.580  0.1336  0.9976  0.6086
   69TMC2    C5 1072   2.932   2.349  12.452 -0.5796 -0.6202  0.0742
   69TMC2    C6 1073   2.854   2.405  12.347  0.2531 -0.2991 -0.2581
   69TMC2     C 1074   2.732   2.426  12.748  0.3712 -0.4931 -0.0471
   69TMC2     O 1075   2.809   2.369  12.829 -0.6893  0.8291 -0.1182
   69TMC2     H 1076   2.613   2.552  12.533 -0.9899 -2.7183  0.2308
   69TMC2    H1 1077   2.957   2.324  12.658  1.4592 -0.7439 -1.3918
   69TMC2    H2 1078   2.889   2.395  12.245  0.2620  1.4653 -0.4195
   69TMC2    C7 1079   3.065   2.315  12.411 -0.5210  0.0794  0.6165
   69TMC2    C8 1080   2.667   2.549  12.287 -0.0661 -0.3342  0.2148
   69TMC2    O1 1081   3.080   2.256  12.307  0.6093  0.1341 -0.2134
   69TMC2    O2 1082   2.542   2.550  12.299 -0.0879  0.2884  0.2083
   69TMC2    O5 1083   2.741   2.595  12.186 -0.7218 -0.0146  0.7118
   69TMC2    H5 1084   2.838   2.602  12.199 -0.5822  2.3430 -1.4512
   70MPD2     C 1085   2.375   2.462  12.866  0.1782 -0.0551 -0.3050
   70MPD2    C1 1086   2.508   2.423  12.865  0.0561 -0.2609  0.6516
   70MPD2    C2 1087   2.546   2.331  12.969  0.1675  0.1098  0.1553
   70MPD2    C3 1088   2.458   2.282  13.062  0.4316 -0.0610  0.5820
   70MPD2    C4 1089   2.327   2.332  13.055  0.5097  0.2771 -0.1423
   70MPD2    C5 1090   2.285   2.419  12.956  0.4489 -0.3811  0.1698
   70MPD2     H 1091   2.645   2.290  12.974  0.7823  1.4254 -1.0963
   70MPD2    H1 1092   2.256   2.300  13.131 -0.0533  0.5526 -0.5574
   70MPD2    H2 1093   2.340   2.533  12.792  1.4260 -0.3005 -1.1308
   70MPD2    H3 1094   2.181   2.450  12.951  0.7646  0.8349  1.1341
   70MPD2     N 1095   2.489   2.178  13.149 -0.2588  0.2486 -0.4643
   70MPD2    H5 1096   2.408   2.123  13.179  0.2574 -0.6420 -0.6973
   70MPD2    N1 1097   2.597   2.462  12.758 -0.2250  0.4323 -0.4277
   70MPD2    H7 1098   2.553   2.522  12.689 -1.5420 -0.7480 -0.6146
   71TMC2    C1 1099   4.243   2.986   1.506  0.3397  0.5667 -0.6264
   71TMC2    C2 1100   4.279   3.030   1.633  0.1622  0.7132 -0.0071
   71TMC2    C3 1101   4.178   3.035   1.725 -1.0133 -0.2390  0.1380
   71TMC2    C4 1102   4.119   2.976   1.466 -0.0378 -0.5462  0.3231
   71TMC2    C5 1103   4.017   2.973   1.564 -0.0398 -0.5987  0.2708
   71TMC2    C6 1104   4.045   3.010   1.693  0.2832  0.4568  0.1043
   71TMC2     C 1105   4.354   2.992   1.403  0.1562  0.0439 -0.0882
   71TMC2     O 1106   4.324   2.974   1.287  0.2221  0.1921  0.4301
   71TMC2     H 1107   4.372   3.085   1.646 -0.3047  1.6869 -0.7601
   71TMC2    H1 1108   4.105   2.952   1.361  1.7435  1.8515 -0.4516
   71TMC2    H2 1109   3.965   3.026   1.764 -0.7783  0.1827 -1.0208
   71TMC2    C7 1110   3.880   2.973   1.527 -0.1529 -0.0514  0.3267
   71TMC2    C8 1111   4.218   3.093   1.850 -0.1156 -0.3709 -0.1233
   71TMC2    O1 1112   3.801   2.952   1.622  0.3989 -0.3012 -0.1898
   71TMC2    O2 1113   4.304   3.181   1.843 -0.1401 -0.0761 -0.6314
   71TMC2    O5 1114   4.122   3.087   1.953  0.0228  0.3160 -0.2196
   71TMC2    H5 1115   4.095   2.994   1.967  1.2503  0.0296  0.2933
   72MPD2     C 1116   0.100   2.984   1.251  0.3897 -0.3042  0.2733
   72MPD2    C1 1117   4.725   3.014   1.173 -0.0123 -0.1239  0.4527
   72MPD2    C2 1118   4.598   3.019   1.237 -0.0303  0.5383  1.1262
   72MPD2    C3 1119   4.595   2.996   1.378  0.2121  0.4622  0.9459
   72MPD2    C4 1120   4.708   2.961   1.448 -0.1885  0.4247 -0.6476
   72MPD2    C5 1121   0.090   2.953   1.384 -0.4312 -0.1468  0.3926
   72MPD2     H 1122   4.515   3.054   1.177  1.2286  1.6392  0.0387
   72MPD2    H1 1123   4.694   2.925   1.549  0.4492  2.0941  0.0238
   72MPD2    H2 1124   0.199   2.981   1.207  1.0373 -0.7345  1.7662
   72MPD2    H3 1125   0.173   2.917   1.443  3.1610  3.5251 -2.3270
   72MPD2     N 1126   4.480   2.984   1.454 -0.4960  0.7294  0.4286
   72MPD2    H5 1127   4.487   2.965   1.553  1.2699 -1.8021 -0.2007
   72MPD2    N1 1128   4.725   3.043   1.038  0.5265  0.3244  0.2472
   72MPD2    H7 1129   4.634   3.070   1.002  0.5588 -0.6466 -0.5611
   73TMC2    C1 1130   0.145   4.380  13.771 -0.2500 -0.7808  0.1917
   73TMC2    C2 1131   0.088   4.358  13.650  0.1190  0.7807 -0.3241
   73TMC2    C3 1132   0.086   4.228  13.607 -0.6255  0.8643 -1.1356
   73TMC2    C4 1133   0.182   4.272  13.851 -0.5681  0.8900 -0.6752
   73TMC2    C5 1134   0.201   4.159  13.783 -0.7569  0.6062  0.9213
   73TMC2    C6 1135   0.142   4.124  13.669 -0.7482 -0.2469  0.3786
   73TMC2     C 1136   0.225   4.497  13.794 -0.5991 -0.0264 -0.1924
   73TMC2     O 1137   0.339   4.460  13.817 -0.0846 -0.1760  0.0673
   73TMC2     H 1138   0.052   4.439  13.587 -1.0138 -0.7119 -1.5892
   73TMC2    H1 1139   0.217   4.277  13.954  0.4609  1.6019 -1.0632
   73TMC2    H2 1140   0.176   4.032  13.624 -3.0094 -0.2605 -1.2717
   73TMC2    C7 1141   0.331   4.102  13.812 -0.2904 -0.3478 -0.2732
   73TMC2    C8 1142   0.016   4.209  13.478  0.4862  0.2782  0.4081
   73TMC2    O1 1143   0.349   3.986  13.783  0.2200 -0.1657  0.1826
   73TMC2    O2 1144   4.650   4.272  13.448 -0.1180 -0.0212  0.4313
   73TMC2    O5 1145   0.128   4.217  13.405 -0.3713  0.0848 -0.9022
   73TMC2    H5 1146   0.206   4.204  13.463 -0.6569  0.5413 -0.4235
   74MPD2     C 1147   0.380   0.255  13.793 -0.0745 -1.0050  1.0235
   74MPD2    C1 1148   0.430   0.140  13.842 -0.4167  0.1118 -1.0764
   74MPD2    C2 1149   0.361   0.019  13.830  0.4806  0.5251  0.0496
   74MPD2    C3 1150   0.243   0.011  13.764 -0.3398 -0.2921 -0.3950
   74MPD2    C4 1151   0.191   0.130  13.723  0.2019 -0.2441 -0.6221
   74MPD2    C5 1152   0.254   0.250  13.735 -1.3175 -0.8913 -0.7767
   74MPD2     H 1153   0.414   4.665  13.859  0.7321  0.8165  0.4959
   74MPD2    H1 1154   0.097   0.133  13.668 -0.0440 -0.0600 -0.1913
   74MPD2    H2 1155   0.433   0.350  13.799 -0.9133 -0.3329 -2.6716
   74MPD2    H3 1156   0.201   0.336  13.695  1.4356  1.9305  1.6920
   74MPD2     N 1157   0.171   4.622  13.748  0.5540  0.3295  0.8285
   74MPD2    H5 1158   0.076   4.628  13.715  0.3121  1.1970  1.7160
   74MPD2    N1 1159   0.563   0.146  13.889  0.0573  0.5004 -0.6630
   74MPD2    H7 1160   0.605   0.234  13.862  0.2226  0.5231 -0.3304
   75TMC2    C1 1161   0.546   1.680  13.944 -0.0799  0.4635 -0.4674
   75TMC2    C2 1162   0.568   1.808  13.999  0.1257 -0.0468 -0.1105
   75TMC2    C3 1163   0.508   1.905  13.928  0.3450  0.1377  0.0298
   75TMC2    C4 1164   0.467   1.651  13.831 -0.0733 -0.2231  0.1472
   75TMC2    C5 1165   0.415   1.758  13.767  0.0700  0.7814  0.5034
   75TMC2    C6 1166   0.437   1.885  13.819  0.4455 -0.3556 -0.2291
   75TMC2     C 1167   0.601   1.568  14.023 -0.2745  0.8525 -0.7326
   75TMC2     O 1168   0.648   1.593  14.132 -0.1339 -0.0975 -0.3326
   75TMC2     H 1169   0.620   1.823  14.092 -2.4634  1.4193  1.1000
   75TMC2    H1 1170   0.431   1.551  13.809 -2.1474  0.9809 -2.0013
   75TMC2    H2 1171   0.389   1.969  13.770 -2.0913 -1.5627  0.1488
   75TMC2    C7 1172   0.324   1.727  13.659  0.4663  0.1110 -0.3992
   75TMC2    C8 1173   0.528   2.043  13.960  0.4356 -0.7950  0.0275
   75TMC2    O1 1174   0.266   1.621  13.669 -0.2158 -0.3960 -0.3212
   75TMC2    O2 1175   0.447   2.105  14.027 -0.1906  1.0913  0.5224
   75TMC2    O5 1176   0.663   2.042  13.983 -0.3861 -0.1811  0.3515
   75TMC2    H5 1177   0.707   1.975  13.926  1.4567  1.2478  0.0829
   76TMC2    C1 1178   3.906   1.340  11.907  0.6249  0.0669 -0.0532
   76TMC2    C2 1179   3.797   1.283  11.852  0.8358  0.4258  0.4458
   76TMC2    C3 1180   3.750   1.169  11.909  1.1600 -0.6447  0.2715
   76TMC2    C4 1181   3.972   1.288  12.013  0.5441  0.0149 -0.3611
   76TMC2    C5 1182   3.914   1.175  12.071  0.2339  1.1106 -0.1972
   76TMC2    C6 1183   3.807   1.115  12.023  0.0560  0.0936 -0.8345
   76TMC2     C 1184   3.918   1.486  11.881  0.4381  0.2910 -0.1597
   76TMC2     O 1185   3.833   1.546  11.821  1.2852 -0.4550  0.3755
   76TMC2     H 1186   3.755   1.323  11.761  1.7320  2.3883  0.9028
   76TMC2    H1 1187   4.050   1.339  12.068  1.7827 -0.1597 -1.9608
   76TMC2    H2 1188   3.751   1.034  12.068  0.9358  0.2542  0.5393
   76TMC2    C7 1189   3.950   1.113  12.204  0.2132 -0.9001 -0.1069
   76TMC2    C8 1190   3.630   1.101  11.878  0.7216  0.3833  0.3988
   76TMC2    O1 1191   3.862   1.050  12.262  0.6921 -0.3442 -0.5000
   76TMC2    O2 1192   3.634   0.981  11.852  0.0364  0.1940 -0.0274
   76TMC2    O5 1193   3.543   1.192  11.831 -0.5479  0.1615  0.5450
   76TMC2    H5 1194   3.553   1.277  11.877  0.4504 -0.7655  2.0416
   77MPD2     C 1195   4.162   1.945  11.936  0.0114  0.1154 -0.2260
   77MPD2    C1 1196   4.029   1.915  11.912  0.1406 -0.0843 -0.2788
   77MPD2    C2 1197   3.989   1.782  11.907  0.0985  0.6381  0.2850
   77MPD2    C3 1198   4.077   1.677  11.919  0.1249 -0.0227 -0.1096
   77MPD2    C4 1199   4.212   1.707  11.936  0.0045  0.1779 -0.6382
   77MPD2    C5 1200   4.253   1.839  11.945 -0.1551 -0.3290 -0.2194
   77MPD2     H 1201   3.882   1.766  11.894  0.2833  2.0121 -2.8689
   77MPD2    H1 1202   4.284   1.629  11.957 -0.4666  0.1791  0.9635
   77MPD2    H2 1203   4.188   2.050  11.946  2.6996 -0.4657 -1.1923
   77MPD2    H3 1204   4.355   1.864  11.971 -1.1501  0.7917  2.6367
   77MPD2     N 1205   4.037   1.538  11.927  0.0153  0.0592 -0.3021
   77MPD2    H5 1206   4.114   1.477  11.955  0.1999  0.5148  0.1915
   77MPD2    N1 1207   3.927   2.012  11.906 -0.2911  0.4914 -0.5912
   77MPD2    H7 1208   3.834   1.981  11.880  0.0410 -0.1959 -0.9615
   78TMC2    C1 1209   4.150   2.625   1.530 -0.7103  0.9182  0.1178
   78TMC2    C2 1210   4.164   2.620   1.671 -0.3697 -0.4786  0.0345
   78TMC2    C3 1211   4.291   2.626   1.721  0.8308  1.0069 -0.1016
   78TMC2    C4 1212   4.259   2.642   1.450 -0.1953  0.2074  0.3472
   78TMC2    C5 1213   4.384   2.633   1.502 -0.3144 -0.8122  0.3385
   78TMC2    C6 1214   4.403   2.634   1.641 -0.1104 -0.0669  0.0191
   78TMC2     C 1215   4.015   2.630   1.484 -0.3259  0.6279  0.2773
   78TMC2     O 1216   3.928   2.656   1.566 -0.5303 -0.1842 -0.2039
   78TMC2     H 1217   4.080   2.612   1.738 -1.8540 -0.7513 -1.8741
   78TMC2    H1 1218   4.251   2.656   1.342 -2.6978  1.9157  0.7637
   78TMC2    H2 1219   4.505   2.639   1.677  0.4900 -0.0707 -1.6981
   78TMC2    C7 1220   4.503   2.652   1.417  0.3754 -0.9642  0.3066
   78TMC2    C8 1221   4.316   2.645   1.866  0.2693  0.0149  0.0244
   78TMC2    O1 1222   4.606   2.677   1.478 -0.0264  0.8324 -0.1274
   78TMC2    O2 1223   4.399   2.724   1.903  0.4023  0.1028 -0.0751
   78TMC2    O5 1224   4.225   2.583   1.944 -0.5664 -0.1632 -0.2213
   78TMC2    H5 1225   4.177   2.508   1.901 -0.8761  0.2166 -0.5332
   79MPD1     C 1226   3.655   2.602   1.127  0.1934 -0.4471  0.6217
   79MPD1    C1 1227   3.635   2.616   1.264  0.2330 -0.1118  0.3663
   79MPD1    C2 1228   3.756   2.622   1.337 -0.2347  0.7310  0.0953
   79MPD1    C3 1229   3.884   2.606   1.276 -0.1538  0.5727 -0.4065
   79MPD1    C4 1230   3.886   2.595   1.138  0.3142  0.1436 -0.0960
   79MPD1    C5 1231   3.775   2.592   1.063 -0.0555  0.3541 -0.0203
   79MPD1     H 1232   3.749   2.632   1.445 -2.4702 -1.6019  0.1632
   79MPD1    H1 1233   3.980   2.579   1.085  0.8460 -2.2034  1.5934
   79MPD1    H2 1234   3.571   2.608   1.058 -0.1604 -0.6908  1.0312
   79MPD1    H3 1235   3.764   2.574   0.957 -1.3051  2.2239 -0.2044
   79MPD1     N 1236   4.003   2.599   1.348  0.3031  0.1727  0.0073
   79MPD1    H5 1237   4.089   2.571   1.303 -1.0076 -0.1946 -2.2513
   79MPD1    N1 1238   3.511   2.600   1.326  0.5913  0.2383 -0.0775
   79MPD1    H6 1239   3.438   2.631   1.262 -0.0295  0.2611  0.6417
   79MPD1    H7 1240   3.506   2.662   1.407 -1.5723 -0.9811  0.7050
   80TMC2    C1 1241   3.373   1.609  12.321  1.1715 -0.7409  0.8371
   80TMC2    C2 1242   3.469   1.595  12.232  0.0727  0.5666 -0.4256
   80TMC2    C3 1243   3.443   1.586  12.097 -0.1400  0.1565  0.1803
   80TMC2    C4 1244   3.240   1.610  12.271 -0.3180  0.7932  0.3702
   80TMC2    C5 1245   3.217   1.615  12.138 -0.3231  0.2180  0.2402
   80TMC2    C6 1246   3.320   1.595  12.044 -0.2945 -0.7938  0.1337
   80TMC2     C 1247   3.411   1.630  12.467  0.3465 -0.7902 -0.1782
   80TMC2     O 1248   3.526   1.652  12.489 -0.9270  0.0605 -0.3785
   80TMC2     H 1249   3.568   1.566  12.265 -1.0922 -2.3540  0.5715
   80TMC2    H1 1250   3.158   1.625  12.341 -1.1503  0.7045 -0.5959
   80TMC2    H2 1251   3.301   1.583  11.938 -1.1609 -0.1076  0.2154
   80TMC2    C7 1252   3.104   1.536  12.096 -0.1299  0.1787 -0.1378
   80TMC2    C8 1253   3.536   1.507  12.023 -0.2810  0.2408  1.2467
   80TMC2    O1 1254   3.039   1.578  11.999  0.1098 -0.4349  0.1934
   80TMC2    O2 1255   3.501   1.422  11.943 -0.1039 -0.7013  0.0302
   80TMC2    O5 1256   3.657   1.542  12.060  0.4967  0.2415 -0.2773
   80TMC2    H5 1257   3.652   1.611  12.130  0.3468 -1.5129  1.4598
   81MPD2     C 1258   3.414   1.688  12.756 -0.9958 -0.2420  0.4087
   81MPD2    C1 1259   3.299   1.662  12.687 -0.4562  0.4924  0.2524
   81MPD2    C2 1260   3.173   1.671  12.732 -0.7079  0.3167  0.1327
   81MPD2    C3 1261   3.159   1.701  12.866 -0.2493 -0.7119  0.3478
   81MPD2    C4 1262   3.279   1.732  12.942  0.0821 -0.6789 -0.0158
   81MPD2    C5 1263   3.403   1.733  12.881 -0.2560 -0.0460  0.1207
   81MPD2     H 1264   3.083   1.640  12.680 -1.2274  0.9141  0.6676
   81MPD2    H1 1265   3.269   1.751  13.048  0.8120  0.1199 -0.1008
   81MPD2    H2 1266   3.515   1.674  12.720  0.0237  0.4111  3.0121
   81MPD2    H3 1267   3.492   1.766  12.934 -0.1057 -0.9961  0.4677
   81MPD2     N 1268   3.034   1.694  12.930 -0.4607  0.2589  0.9477
   81MPD2    H5 1269   3.029   1.697  13.031 -1.0104  0.2753  0.9179
   81MPD2    N1 1270   3.301   1.628  12.551 -0.0523  0.7251  0.2057
   81MPD2    H7 1271   3.209   1.600  12.517  1.3947 -3.3162 -0.3732
   82TMC2    C1 1272   1.632   0.796  12.094 -0.5737 -0.2420 -0.0585
   82TMC2    C2 1273   1.761   0.804  12.142 -0.5605  0.2336 -0.0757
   82TMC2    C3 1274   1.806   0.699  12.223 -0.0218  0.7443  0.0766
   82TMC2    C4 1275   1.543   0.695  12.134  0.0952  0.0875  0.1951
   82TMC2    C5 1276   1.593   0.594  12.216  0.6448  0.4192 -0.0253
   82TMC2    C6 1277   1.722   0.599  12.256 -0.0348 -0.0688 -0.7961
   82TMC2     C 1278   1.583   0.878  11.984 -0.1992  0.4111  0.1408
   82TMC2     O 1279   1.467   0.912  11.988 -0.1023  0.5596  0.7817
   82TMC2     H 1280   1.824   0.880  12.098 -0.6393  0.8688  0.9059
   82TMC2    H1 1281   1.439   0.683  12.103  0.5506  1.2398 -1.7476
   82TMC2    H2 1282   1.752   0.524  12.328 -0.1336 -0.9239 -1.6566
   82TMC2    C7 1283   1.521   0.474  12.244 -0.0936 -0.1806  0.0578
   82TMC2    C8 1284   1.949   0.672  12.238 -0.2098 -0.0804  0.8437
   82TMC2    O1 1285   1.399   0.490  12.250  0.4319  0.0146  0.1136
   82TMC2    O2 1286   1.986   0.563  12.268 -0.3860 -0.8525 -0.6803
   82TMC2    O5 1287   2.025   0.768  12.171  0.2835 -0.4195 -0.4255
   82TMC2    H5 1288   1.981   0.856  12.179 -1.2726 -1.3305  1.2633
   83MPD2     C 1289   1.638   1.084  11.519 -0.3519 -0.9611 -0.9567
   83MPD2    C1 1290   1.530   1.068  11.591  0.2164  0.6792  0.1971
   83MPD2    C2 1291   1.540   1.026  11.723  0.8279 -0.4446  0.0771
   83MPD2    C3 1292   1.662   0.966  11.768  0.3702 -0.1196  0.4133
   83MPD2    C4 1293   1.767   0.976  11.681 -0.1482  0.5906  0.2131
   83MPD2    C5 1294   1.758   1.048  11.566 -0.0184  0.5018  0.2614
   83MPD2     H 1295   1.456   1.030  11.791  0.2140 -3.1251 -0.5254
   83MPD2    H1 1296   1.861   0.937  11.717 -0.7548  0.4389  1.6267
   83MPD2    H2 1297   1.639   1.144  11.429 -1.1928  1.4405  0.6430
   83MPD2    H3 1298   1.845   1.080  11.510  0.4293 -1.8511 -0.3763
   83MPD2     N 1299   1.682   0.892  11.889 -0.0193 -0.3578  0.1019
   83MPD2    H5 1300   1.771   0.846  11.907  0.5459  0.0823 -1.6037
   83MPD2    N1 1301   1.404   1.112  11.539 -0.2180 -0.3067 -0.2601
   83MPD2    H7 1302   1.410   1.154  11.447 -1.8167  0.2032 -0.1342
   84TMC2    C1 1303   2.046   0.300  11.715 -0.6368 -0.0223  0.0615
   84TMC2    C2 1304   2.038   0.268  11.845 -0.1081 -0.0161 -1.3693
   84TMC2    C3 1305   2.044   0.134  11.875  0.5822 -0.3006  0.6684
   84TMC2    C4 1306   2.059   0.208  11.616 -0.7179 -0.1234  0.0016
   84TMC2    C5 1307   2.041   0.078  11.648  0.0719  0.2480 -0.5831
   84TMC2    C6 1308   2.037   0.036  11.776 -0.5163 -0.1879 -0.2850
   84TMC2     C 1309   2.042   0.442  11.683  0.4769  0.1008 -0.8092
   84TMC2     O 1310   2.045   0.518  11.778  0.3921 -0.5065  0.0572
   84TMC2     H 1311   2.023   0.340  11.924 -0.3791 -2.3728  0.7280
   84TMC2    H1 1312   2.086   0.237  11.516 -1.5472 -1.6589 -0.6675
   84TMC2    H2 1313   1.996   4.678  11.809  4.2804 -2.0367  0.4404
   84TMC2    C7 1314   2.009   4.723  11.538 -0.0408 -0.0607  0.6584
   84TMC2    C8 1315   2.054   0.101  12.016 -0.3456  0.0081  0.5662
   84TMC2    O1 1316   1.967   0.039  11.433 -0.3984 -0.0457  0.1109
   84TMC2    O2 1317   2.039   0.178  12.112 -0.2752 -0.0143  0.0514
   84TMC2    O5 1318   2.079   4.708  12.023  0.2672 -0.0477  0.1404
   84TMC2    H5 1319   2.091   4.661  11.937 -0.3500  1.3650 -0.7262
   85TMC2    C1 1320   2.980   3.122  16.348 -0.4798  0.2351  0.1299
   85TMC2    C2 1321   2.877   3.115  16.256 -0.2647 -0.4961 -0.7245
   85TMC2    C3 1322   2.891   3.200  16.150  0.0905 -0.4243 -0.1633
   85TMC2    C4 1323   3.100   3.188  16.333 -0.4452 -0.4423 -0.0406
   85TMC2    C5 1324   3.116   3.256  16.212 -0.3998 -0.3191  0.5354
   85TMC2    C6 1325   3.007   3.264  16.123  0.1348 -0.2503 -0.2440
   85TMC2     C 1326   2.982   3.013  16.442 -0.0546 -1.0626 -0.0111
   85TMC2     O 1327   3.049   3.025  16.549  0.2773 -0.2184  0.2607
   85TMC2     H 1328   2.779   3.072  16.274 -0.1276 -0.2142  0.7126
   85TMC2    H1 1329   3.173   3.189  16.413 -0.4002 -0.7586 -0.0799
   85TMC2    H2 1330   3.034   3.312  16.030 -0.6620  0.4187 -0.1282
   85TMC2    C7 1331   3.221   3.350  16.183  0.4814  0.2265  0.1908
   85TMC2    C8 1332   2.780   3.207  16.051 -0.4566  0.1941  0.1224
   85TMC2    O1 1333   3.250   3.371  16.065  0.0163 -0.2591 -0.5935
   85TMC2    O2 1334   2.694   3.122  16.044  0.2376 -0.6658 -0.1536
   85TMC2    O5 1335   2.799   3.318  15.969  0.5161  0.7185  0.4180
   85TMC2    H5 1336   2.867   3.382  16.001  0.3155  1.8783 -1.4845
   86MPD2     C 1337   2.848   2.539  16.592  0.4193  0.7729 -0.4072
   86MPD2    C1 1338   2.816   2.555  16.460  0.1522 -0.3428 -0.2267
   86MPD2    C2 1339   2.840   2.674  16.406 -0.2465 -0.5828 -0.5925
   86MPD2    C3 1340   2.898   2.786  16.469  0.3495 -0.5923  0.0464
   86MPD2    C4 1341   2.934   2.760  16.600 -0.3265  0.4065 -0.2398
   86MPD2    C5 1342   2.908   2.635  16.661 -0.2934 -0.3590 -0.4723
   86MPD2     H 1343   2.807   2.689  16.304 -0.5556 -1.0495 -0.5606
   86MPD2    H1 1344   2.966   2.836  16.670 -1.4063 -0.3273  1.0585
   86MPD2    H2 1345   2.831   2.446  16.645  1.6647  1.1932  0.7363
   86MPD2    H3 1346   2.945   2.616  16.761 -2.6547 -0.0105  0.4458
   86MPD2     N 1347   2.917   2.902  16.403 -0.3306  0.1937  0.0067
   86MPD2    H5 1348   2.873   2.905  16.311  0.0813 -2.8806 -0.2910
   86MPD2    N1 1349   2.740   2.453  16.392  0.2540  0.7669  0.1707
   86MPD2    H7 1350   2.731   2.450  16.291 -0.8100  2.3325  0.2268
   87TMC2    C1 1351   0.668   1.333   1.428  0.3113  0.0276 -0.0488
   87TMC2    C2 1352   0.762   1.282   1.511  0.6521 -0.5130  0.9373
   87TMC2    C3 1353   0.774   1.354   1.630  0.2591 -0.5158 -0.0918
   87TMC2    C4 1354   0.623   1.462   1.438  0.3068  0.0160  0.4793
   87TMC2    C5 1355   0.648   1.528   1.553 -0.2160  0.0653 -0.3886
   87TMC2    C6 1356   0.718   1.472   1.659 -0.5882  0.0879  1.1403
   87TMC2     C 1357   0.667   1.278   1.299 -0.6380  0.2620  0.0191
   87TMC2     O 1358   0.780   1.269   1.245  0.5105  0.0957  0.0862
   87TMC2     H 1359   0.829   1.199   1.493  0.8476 -0.0027 -0.6626
   87TMC2    H1 1360   0.582   1.511   1.351  0.2674 -0.8797  0.0000
   87TMC2    H2 1361   0.727   1.525   1.753  1.4825 -0.2857  1.1369
   87TMC2    C7 1362   0.550   1.635   1.573 -0.1459 -0.3012 -0.4062
   87TMC2    C8 1363   0.867   1.296   1.728  0.0766 -0.3616 -0.9896
   87TMC2    O1 1364   0.467   1.660   1.485  0.5360  0.0928  0.2430
   87TMC2    O2 1365   0.969   1.241   1.702 -0.1321 -0.5425 -0.3290
   87TMC2    O5 1366   0.808   1.276   1.852  0.0550  0.1472  0.1052
   87TMC2    H5 1367   0.729   1.330   1.875 -0.5818 -0.8046  0.1779
   88MPD2     C 1368   0.450   1.819   1.876  0.4301  0.1232 -0.1334
   88MPD2    C1 1369   0.475   1.799   1.743 -0.8219 -0.1302 -1.0718
   88MPD2    C2 1370   0.410   1.884   1.652  0.0927 -0.3589 -1.0931
   88MPD2    C3 1371   0.337   2.000   1.697 -0.5803  0.2644  0.3463
   88MPD2    C4 1372   0.312   2.012   1.831  0.1297  0.1061  0.7765
   88MPD2    C5 1373   0.366   1.917   1.915 -0.8139  0.4436  0.3972
   88MPD2     H 1374   0.430   1.865   1.547 -0.0158 -0.4784 -1.0918
   88MPD2    H1 1375   0.263   2.098   1.873  1.7927  1.0788  0.7316
   88MPD2    H2 1376   0.487   1.757   1.956  0.4440 -0.3751 -0.5278
   88MPD2    H3 1377   0.336   1.927   2.019  2.2417  3.1129  0.9974
   88MPD2     N 1378   0.280   2.092   1.609  0.2975 -0.1868  0.0600
   88MPD2    H5 1379   0.221   2.167   1.642  1.1401  1.6866 -2.7364
   88MPD2    N1 1380   0.548   1.682   1.697  0.4854  0.0049  0.0237
   88MPD2    H7 1381   0.608   1.637   1.765  0.4931  0.4620  0.3230
   89TMC2    C1 1382   1.481   4.727   1.586  0.1230 -0.0740 -0.0881
   89TMC2    C2 1383   1.562   4.630   1.543  0.4502 -0.4314  0.4841
   89TMC2    C3 1384   1.693   4.644   1.552  0.1022  0.2452  0.1331
   89TMC2    C4 1385   1.531   0.111   1.638  0.0904  0.0188  0.0112
   89TMC2    C5 1386   1.669   0.120   1.639 -0.4184 -0.2262  0.1518
   89TMC2    C6 1387   1.752   0.022   1.590  0.2004  0.2825 -0.7133
   89TMC2     C 1388   1.344   4.698   1.619  0.3035  0.5363  0.2026
   89TMC2     O 1389   1.273   0.056   1.657 -0.2445 -0.1335  0.3568
   89TMC2     H 1390   1.519   4.547   1.487 -0.1521  0.9079 -1.0280
   89TMC2    H1 1391   1.468   0.180   1.694  0.1798 -1.2750  1.7006
   89TMC2    H2 1392   1.856   0.018   1.622  0.7894  1.5995 -2.4902
   89TMC2    C7 1393   1.729   0.244   1.706  0.4602 -0.0662 -0.0165
   89TMC2    C8 1394   1.788   4.534   1.517 -0.1284 -0.2666  0.4390
   89TMC2    O1 1395   1.653   0.309   1.775 -0.3567 -0.3771 -0.0861
   89TMC2    O2 1396   1.906   4.538   1.544 -0.0133 -0.7556  0.0041
   89TMC2    O5 1397   1.730   4.453   1.424 -0.2165  0.0908  0.1818
   89TMC2    H5 1398   1.657   4.497   1.375 -0.0958 -1.0924 -1.0521
   90MPD2     C 1399   0.936   4.394   1.698 -0.6777 -0.2642 -1.1336
   90MPD2    C1 1400   1.051   4.322   1.699  0.2565 -0.8115  0.3541
   90MPD2    C2 1401   1.173   4.376   1.673 -0.1228  0.6982 -0.7324
   90MPD2    C3 1402   1.177   4.515   1.650  0.3569  0.3362  0.0135
   90MPD2    C4 1403   1.064   4.591   1.661  0.5071 -1.2235  0.0015
   90MPD2    C5 1404   0.951   4.535   1.696 -0.1362 -0.7915 -0.1908
   90MPD2     H 1405   1.260   4.312   1.677 -0.5436  0.2433  1.3256
   90MPD2    H1 1406   1.076   4.698   1.657  1.8496 -1.3549  0.5603
   90MPD2    H2 1407   0.837   4.358   1.721 -0.7459  1.7528  1.8054
   90MPD2    H3 1408   0.870   4.605   1.711  0.7327  0.1127  0.2024
   90MPD2     N 1409   1.309   4.568   1.638  0.0706 -0.5220  0.1931
   90MPD2    H5 1410   1.385   4.500   1.641  0.2189 -0.4438 -2.0525
   90MPD2    N1 1411   1.052   4.183   1.731  0.1236  0.4499  0.8284
   90MPD2    H7 1412   1.139   4.134   1.715  0.0191  0.4553  0.2567
   91TMC2    C1 1413   2.795   3.691  16.708  0.0459  0.3134  0.0970
   91TMC2    C2 1414   2.860   3.809  16.682 -0.1470 -0.6969  0.4003
   91TMC2    C3 1415   2.800   3.893  16.591 -0.2560 -0.4211 -0.5375
   91TMC2    C4 1416   2.682   3.655  16.639 -0.1461 -0.8870  0.0758
   91TMC2    C5 1417   2.629   3.733  16.541 -0.2870  0.9050 -0.5012
   91TMC2    C6 1418   2.693   3.846  16.513 -0.0362 -0.1252 -0.7312
   91TMC2     C 1419   2.835   3.604  16.822  0.9325 -0.1993  0.2212
   91TMC2     O 1420   2.747   3.531  16.865 -0.0429 -0.0988 -0.5171
   91TMC2     H 1421   2.925   3.853  16.757  0.8298 -0.0397 -0.8397
   91TMC2    H1 1422   2.627   3.565  16.666 -0.5898 -0.0630  1.8679
   91TMC2    H2 1423   2.653   3.917  16.441 -0.8901  1.0482  0.9049
   91TMC2    C7 1424   2.482   3.720  16.505 -0.1934 -0.6061  0.0126
   91TMC2    C8 1425   2.815   4.032  16.637  0.0566 -0.2760  0.0461
   91TMC2    O1 1426   2.418   3.629  16.557  0.9514  0.4188 -0.0519
   91TMC2    O2 1427   2.920   4.064  16.692  0.3390  0.1660 -0.1869
   91TMC2    O5 1428   2.730   4.113  16.572 -0.1916 -0.3252 -0.1004
   91TMC2    H5 1429   2.674   4.076  16.500 -1.6155  3.8670 -1.1469
   92MPD2     C 1430   2.951   3.478  17.058  0.0648  0.1410  0.3649
   92MPD2    C1 1431   3.031   3.537  16.960 -0.5474 -0.0817 -0.3192
   92MPD2    C2 1432   3.171   3.537  16.967  0.6095  0.4212  0.0403
   92MPD2    C3 1433   3.232   3.461  17.063  0.5600  0.1193 -0.1528
   92MPD2    C4 1434   3.158   3.400  17.157 -0.0708 -0.2497  0.3644
   92MPD2    C5 1435   3.025   3.415  17.154  0.3091  0.6997 -0.5752
   92MPD2     H 1436   3.229   3.607  16.907 -0.7849  1.3763 -0.1770
   92MPD2    H1 1437   3.195   3.345  17.244  0.7664  0.3245  0.3646
   92MPD2    H2 1438   2.844   3.480  17.076  0.3218  0.6753  1.8257
   92MPD2    H3 1439   2.969   3.382  17.241  0.8538  0.6682 -0.2417
   92MPD2     N 1440   3.374   3.461  17.067  0.3124  0.2934 -0.2649
   92MPD2    H5 1441   3.417   3.511  16.991 -0.4355  2.1104  0.5134
   92MPD2    N1 1442   2.973   3.615  16.853  0.7412  0.4220  0.4491
   92MPD2    H7 1443   3.037   3.668  16.795 -0.5395  1.0085 -0.4114
   93TMC2    C1 1444   0.424   3.916  14.172 -0.0401 -0.1747 -0.5063
   93TMC2    C2 1445   0.365   4.037  14.183 -0.2868 -0.7228 -0.2176
   93TMC2    C3 1446   0.447   4.152  14.191  0.0793  0.7629  0.3737
   93TMC2    C4 1447   0.556   3.898  14.165 -0.7249 -0.1183  0.9909
   93TMC2    C5 1448   0.631   4.007  14.171 -0.3645  0.7059  0.9635
   93TMC2    C6 1449   0.587   4.135  14.185  0.6059 -0.0975  0.6906
   93TMC2     C 1450   0.347   3.808  14.129 -0.3549 -0.0453  0.0839
   93TMC2     O 1451   0.400   3.702  14.105  0.0710 -0.0151 -0.1007
   93TMC2     H 1452   0.261   4.058  14.204 -0.2427  0.0331 -0.7512
   93TMC2    H1 1453   0.601   3.799  14.168  1.5749  0.9145  0.5961
   93TMC2    H2 1454   0.654   4.220  14.182  1.3034 -0.7362 -1.5250
   93TMC2    C7 1455   0.775   3.972  14.161 -0.3332 -0.4982 -0.5598
   93TMC2    C8 1456   0.384   4.284  14.213  0.4886  0.4002  0.4548
   93TMC2    O1 1457   0.797   3.869  14.099 -0.1763 -0.0728 -0.0024
   93TMC2    O2 1458   0.265   4.310  14.210 -0.1630 -0.1630 -0.3017
   93TMC2    O5 1459   0.480   4.375  14.228 -0.3985 -0.1098  0.5604
   93TMC2    H5 1460   0.437   4.461  14.208  1.0285  0.6352  0.6776
   94MPD2     C 1461   0.131   3.599  14.090 -0.1731 -0.2448  0.6353
   94MPD2    C1 1462   0.111   3.739  14.078 -0.0399  0.3032  0.8753
   94MPD2    C2 1463   4.722   3.777  14.041 -0.2016  0.5853 -0.1577
   94MPD2    C3 1464   4.627   3.691  13.993 -0.3721 -0.2383  0.6452
   94MPD2    C4 1465   4.652   3.560  13.983  0.0733  0.4202 -0.2966
   94MPD2    C5 1466   0.027   3.513  14.048  0.7709 -0.6780 -0.7752
   94MPD2     H 1467   4.693   3.880  14.056  1.6044  0.7746  2.0835
   94MPD2    H1 1468   4.579   3.492  13.942  0.0865 -0.9629  1.9795
   94MPD2    H2 1469   0.217   3.548  14.132 -0.6139 -0.9148  0.7220
   94MPD2    H3 1470   0.040   3.405  14.054 -1.2700 -0.7436  2.2369
   94MPD2     N 1471   4.502   3.734  13.933 -0.4038  0.4958 -0.1816
   94MPD2    H5 1472   4.446   3.663  13.886 -0.5101  0.9467 -0.7356
   94MPD2    N1 1473   0.212   3.834  14.105  0.5037  0.0680  0.2761
   94MPD2    H7 1474   0.179   3.930  14.107 -2.0631 -0.7650 -1.8137
   95TMC2    C1 1475   0.737   0.379  15.670  0.3825  0.3957 -0.0127
   95TMC2    C2 1476   0.816   0.261  15.675  0.6134 -0.3114  0.1242
   95TMC2    C3 1477   0.781   0.168  15.769 -0.4486  0.1608  0.4236
   95TMC2    C4 1478   0.641   0.403  15.765 -0.2797  0.0690  0.4257
   95TMC2    C5 1479   0.615   0.306  15.856 -0.5651  0.4057 -0.0785
   95TMC2    C6 1480   0.678   0.185  15.852  0.3916  0.2796  0.0156
   95TMC2     C 1481   0.768   0.483  15.569  0.3282  0.1028  0.5331
   95TMC2     O 1482   0.710   0.589  15.573 -0.3744 -0.1789  0.5927
   95TMC2     H 1483   0.900   0.240  15.610  1.3239  0.7217  0.7052
   95TMC2    H1 1484   0.592   0.499  15.753 -2.1167 -0.6591  1.9562
   95TMC2    H2 1485   0.658   0.112  15.930  2.1133 -0.8581 -0.5901
   95TMC2    C7 1486   0.513   0.316  15.958  0.4244  0.0689 -0.1665
   95TMC2    C8 1487   0.854   0.046  15.776  0.3255 -0.0662  0.0801
   95TMC2    O1 1488   0.532   0.278  16.069 -0.1508  0.4152 -0.3285
   95TMC2    O2 1489   0.832   4.701  15.689 -0.4068  0.7372 -0.3021
   95TMC2    O5 1490   0.873   0.026  15.907 -0.0515 -0.3171 -0.1166
   95TMC2    H5 1491   0.884   0.110  15.957 -0.9369 -0.0698 -0.3364
   96MPD2     C 1492   0.874   0.617  15.097 -0.1267  0.4769  0.2501
   96MPD2    C1 1493   0.850   0.698  15.209 -0.2525  0.5682 -0.6295
   96MPD2    C2 1494   0.819   0.631  15.327  0.0046 -0.3489  0.6930
   96MPD2    C3 1495   0.822   0.495  15.334 -0.4381 -0.6461 -0.7465
   96MPD2    C4 1496   0.852   0.415  15.227  0.2734 -0.9373 -0.1709
   96MPD2    C5 1497   0.872   0.480  15.107  0.2617  0.5308  0.1872
   96MPD2     H 1498   0.807   0.697  15.411 -0.7218 -0.0120  0.3192
   96MPD2    H1 1499   0.838   0.308  15.218  1.0955 -0.8372 -2.7715
   96MPD2    H2 1500   0.880   0.655  14.996 -0.6649 -2.7995 -0.9977
   96MPD2    H3 1501   0.903   0.419  15.023 -0.5812  1.9608 -1.1580
   96MPD2     N 1502   0.813   0.425  15.453 -0.5864  0.2261 -0.6492
   96MPD2    H5 1503   0.830   0.325  15.446  0.6952  0.3918  0.1528
   96MPD2    N1 1504   0.850   0.843  15.189  0.3020 -0.7145  0.9693
   96MPD2    H7 1505   0.873   0.865  15.093 -2.1219 -1.1524  0.2779
   97TMC2    C1 1506   2.590   3.091   0.701 -0.1919  0.1007 -0.4359
   97TMC2    C2 1507   2.570   2.984   0.622 -0.5128  0.0243 -0.6779
   97TMC2    C3 1508   2.601   2.988   0.491  0.2412 -0.2896  0.5822
   97TMC2    C4 1509   2.643   3.210   0.650 -0.1978  0.0184  0.1840
   97TMC2    C5 1510   2.664   3.212   0.511 -0.4133 -0.3581  0.4235
   97TMC2    C6 1511   2.659   3.098   0.433 -0.1601 -0.3969  0.3450
   97TMC2     C 1512   2.543   3.093   0.837 -0.2542 -0.6672 -0.0321
   97TMC2     O 1513   2.520   3.205   0.879 -0.3309  0.5986  0.2382
   97TMC2     H 1514   2.525   2.890   0.651  1.0473 -0.4425  0.2159
   97TMC2    H1 1515   2.652   3.301   0.708 -0.2266 -0.1928  0.5164
   97TMC2    H2 1516   2.691   3.086   0.330 -0.3210 -0.7016  0.3311
   97TMC2    C7 1517   2.711   3.330   0.452 -0.0274 -0.4820 -0.0345
   97TMC2    C8 1518   2.584   2.873   0.404 -0.6535  0.6057  0.1444
   97TMC2    O1 1519   2.756   3.412   0.534  0.2802 -0.4758 -0.3126
   97TMC2    O2 1520   2.673   2.792   0.377 -0.0485 -0.0615 -0.1499
   97TMC2    O5 1521   2.455   2.868   0.367 -0.0974 -0.2005 -0.1499
   97TMC2    H5 1522   2.401   2.938   0.410 -0.2189 -1.2255  1.3828
   98MPD2     C 1523   2.303   2.850   1.219  0.4164  0.0910  0.1480
   98MPD2    C1 1524   2.303   2.984   1.194 -0.6529 -0.4130  0.3041
   98MPD2    C2 1525   2.376   3.027   1.081 -0.4587 -0.3297  0.7970
   98MPD2    C3 1526   2.440   2.933   0.999 -0.6697  0.0128  0.1350
   98MPD2    C4 1527   2.436   2.807   1.035  0.4865 -0.1460 -0.6438
   98MPD2    C5 1528   2.367   2.763   1.135  0.2414  0.0147 -0.0936
   98MPD2     H 1529   2.383   3.133   1.061 -0.2041 -0.8122 -1.7061
   98MPD2    H1 1530   2.481   2.729   0.975 -0.0767 -1.0551  0.1079
   98MPD2    H2 1531   2.249   2.812   1.305  0.3579 -0.6963 -0.2380
   98MPD2    H3 1532   2.365   2.657   1.156  0.9867  0.2003  0.9069
   98MPD2     N 1533   2.513   2.972   0.879  0.0223 -0.4227  0.6971
   98MPD2    H5 1534   2.552   2.892   0.830  1.5738  1.6916 -1.5108
   98MPD2    N1 1535   2.240   3.077   1.284 -0.1215  0.0684  0.4364
   98MPD2    H7 1536   2.184   3.038   1.360 -0.7146  2.0361  1.0201
   99TMC2    C1 1537   1.794   0.742   1.476  0.4085 -0.3186 -0.1649
   99TMC2    C2 1538   1.899   0.827   1.473  0.5109 -0.1481 -0.0360
   99TMC2    C3 1539   1.891   0.934   1.563  0.1765 -0.1008 -0.0431
   99TMC2    C4 1540   1.682   0.764   1.551  0.5029  0.7059  0.0197
   99TMC2    C5 1541   1.676   0.883   1.621 -0.2954 -0.4992  0.8210
   99TMC2    C6 1542   1.779   0.960   1.649 -0.2582  0.2471 -0.1058
   99TMC2     C 1543   1.822   0.614   1.413  0.4691  0.4406 -0.3395
   99TMC2     O 1544   1.929   0.598   1.358 -0.2042 -0.1470 -0.5215
   99TMC2     H 1545   1.981   0.828   1.403  0.0763  1.7488 -0.5085
   99TMC2    H1 1546   1.607   0.686   1.557  0.7853  0.2962 -2.0711
   99TMC2    H2 1547   1.776   1.047   1.713  1.4124  0.8660 -0.8590
   99TMC2    C7 1548   1.557   0.903   1.701 -0.8961 -0.6189 -0.2256
   99TMC2    C8 1549   1.977   1.045   1.542  0.1332 -0.2433 -0.1183
   99TMC2    O1 1550   1.564   0.972   1.801  0.5467  0.3880 -0.7476
   99TMC2    O2 1551   2.095   1.035   1.520  0.2674 -0.1472 -0.0433
   99TMC2    O5 1552   1.904   1.149   1.515 -0.8804  0.5892  0.5763
   99TMC2    H5 1553   1.817   1.106   1.498  0.3127 -1.2200 -1.0151
  100MPD2     C 1554   1.812   0.334   1.327 -0.3848  1.1126  0.4257
  100MPD2    C1 1555   1.698   0.414   1.340  0.4932  0.0145  0.6076
  100MPD2    C2 1556   1.578   0.356   1.302  0.4756 -0.4680  0.1307
  100MPD2    C3 1557   1.563   0.227   1.257  0.3357 -0.0009 -0.5160
  100MPD2    C4 1558   1.672   0.149   1.247  0.2767  0.4010  0.0713
  100MPD2    C5 1559   1.793   0.205   1.289 -0.0659  0.3609 -0.4087
  100MPD2     H 1560   1.499   0.428   1.315 -1.2068 -2.5251  1.2998
  100MPD2    H1 1561   1.673   0.047   1.212 -3.5881  0.4266 -0.1010
  100MPD2    H2 1562   1.915   0.359   1.348  0.1458 -0.4590 -0.3359
  100MPD2    H3 1563   1.876   0.135   1.291 -0.5846 -0.2270  0.8314
  100MPD2     N 1564   1.437   0.197   1.215 -0.3922  0.5192  0.4359
  100MPD2    H5 1565   1.365   0.266   1.234  0.1783  0.9691  0.9990
  100MPD2    N1 1566   1.705   0.549   1.385 -0.3322  0.0375  0.0947
  100MPD2    H7 1567   1.614   0.584   1.413 -0.5140 -0.0134 -0.4198
  101TMC2    C1 1568   1.521   1.809  13.084  0.6539 -0.6669 -0.3501
  101TMC2    C2 1569   1.388   1.838  13.053 -0.0744 -0.4466  0.2479
  101TMC2    C3 1570   1.359   1.929  12.963  0.2402 -0.0827 -0.4897
  101TMC2    C4 1571   1.623   1.870  13.016 -0.1397 -0.1651 -0.1951
  101TMC2    C5 1572   1.584   1.979  12.936 -0.3010  0.0909  0.3659
  101TMC2    C6 1573   1.455   2.011  12.908 -0.1001  0.5191 -0.0207
  101TMC2     C 1574   1.540   1.691  13.169 -0.1486  0.2029 -0.4627
  101TMC2     O 1575   1.439   1.638  13.213  0.5253 -0.1579  0.2463
  101TMC2     H 1576   1.310   1.771  13.086 -2.4657  2.7583  1.1154
  101TMC2    H1 1577   1.727   1.843  13.030 -0.7105 -2.1558  0.1912
  101TMC2    H2 1578   1.426   2.076  12.827  4.1376  1.2270 -0.9796
  101TMC2    C7 1579   1.695   2.058  12.884 -0.2414 -0.7445  0.8383
  101TMC2    C8 1580   1.223   1.966  12.952  0.2298  0.3672 -0.2567
  101TMC2    O1 1581   1.803   2.000  12.882  0.0716  0.1454  0.3572
  101TMC2    O2 1582   1.136   1.887  12.990 -0.0591 -1.0304 -0.6055
  101TMC2    O5 1583   1.226   2.094  12.990  0.2105  0.3791 -0.0804
  101TMC2    H5 1584   1.312   2.141  12.980 -0.3304  1.1569 -1.0389
  102MPD2     C 1585   1.866   1.551  13.269 -0.3852 -0.2451  0.1911
  102MPD2    C1 1586   1.730   1.561  13.270  0.3288 -0.3871 -0.4648
  102MPD2    C2 1587   1.648   1.468  13.339  0.2110  0.1354 -0.3925
  102MPD2    C3 1588   1.715   1.367  13.419 -0.3179 -0.0173 -0.1333
  102MPD2    C4 1589   1.856   1.385  13.434 -0.3832 -0.1452  0.2500
  102MPD2    C5 1590   1.929   1.470  13.362  0.8215 -0.2058 -0.3312
  102MPD2     H 1591   1.541   1.474  13.327  0.0496  0.3885  1.1745
  102MPD2    H1 1592   1.920   1.319  13.492 -1.3073  0.2749  1.7344
  102MPD2    H2 1593   1.924   1.627  13.218 -0.3625 -1.9014 -2.2448
  102MPD2    H3 1594   2.037   1.473  13.368  0.7931  1.1916 -0.5143
  102MPD2     N 1595   1.638   1.263  13.475  0.4047 -0.0670  0.2695
  102MPD2    H5 1596   1.538   1.255  13.460  0.2902  1.8612 -0.0034
  102MPD2    N1 1597   1.675   1.658  13.182  0.2424 -0.5306 -0.1317
  102MPD2    H7 1598   1.745   1.715  13.136  0.5367 -0.6409  0.1805
  103TMC2    C1 1599   4.596   1.403  12.497  0.1011  0.1097  0.6512
  103TMC2    C2 1600   4.701   1.438  12.419 -0.0731 -0.0121  0.3656
  103TMC2    C3 1601   0.036   1.544  12.461  0.0337  0.1479  0.0915
  103TMC2    C4 1602   4.568   1.472  12.608  0.4231  0.1587 -0.2228
  103TMC2    C5 1603   4.627   1.589  12.634  0.2375 -0.6881 -0.8834
  103TMC2    C6 1604   0.002   1.622  12.568  0.1445 -0.1922 -0.0136
  103TMC2     C 1605   4.518   1.285  12.454 -0.2829  0.0434  0.3341
  103TMC2     O 1606   4.522   1.257  12.334 -0.4770  0.2205  0.0282
  103TMC2     H 1607   4.725   1.377  12.332 -1.1342  0.1414 -0.0368
  103TMC2    H1 1608   4.480   1.447  12.666  0.0352 -0.1556 -0.9486
  103TMC2    H2 1609   0.059   1.710  12.594 -1.6315  0.7586  0.6992
  103TMC2    C7 1610   4.579   1.676  12.738 -0.3260 -0.7602 -0.0608
  103TMC2    C8 1611   0.115   1.613  12.356 -0.3950 -0.4494 -0.7472
  103TMC2    O1 1612   4.521   1.627  12.835 -0.6950 -0.1755  0.3910
  103TMC2    O2 1613   0.116   1.575  12.241  0.2268  0.4275 -0.0903
  103TMC2    O5 1614   0.223   1.655  12.429  0.1418  0.3527  0.2108
  103TMC2    H5 1615   0.205   1.667  12.525  1.2153 -0.1594  0.4853
  104MPD2     C 1616   4.235   1.128  12.630  0.1957 -0.2879 -0.1972
  104MPD2    C1 1617   4.310   1.181  12.529  0.1181 -0.2055 -0.0934
  104MPD2    C2 1618   4.244   1.178  12.407 -0.0473  0.2552 -0.0122
  104MPD2    C3 1619   4.117   1.137  12.384 -0.0761  0.4391 -0.4499
  104MPD2    C4 1620   4.046   1.093  12.493  0.6357  0.5100 -0.1767
  104MPD2    C5 1621   4.101   1.094  12.615 -0.6683  0.1581  0.1279
  104MPD2     H 1622   4.297   1.221  12.323  2.3863  1.1255  1.9408
  104MPD2    H1 1623   3.943   1.060  12.486  0.6471  0.9335 -2.1719
  104MPD2    H2 1624   4.275   1.135  12.730 -1.2810  1.6786  0.2738
  104MPD2    H3 1625   4.045   1.055  12.699 -1.2788  3.3545  1.2156
  104MPD2     N 1626   4.071   1.141  12.251  0.2881  0.5033 -0.3164
  104MPD2    H5 1627   4.141   1.175  12.187  3.3349  0.4921  3.0332
  104MPD2    N1 1628   4.439   1.237  12.556  0.3021 -0.9461  0.5983
  104MPD2    H7 1629   4.466   1.247  12.653  0.3676  2.0094  0.2867
  105TMC2    C1 1630   0.864   1.021   0.403 -0.5704 -1.2727 -0.0347
  105TMC2    C2 1631   0.867   1.160   0.379  0.6575 -0.6300 -0.3768
  105TMC2    C3 1632   0.832   1.239   0.491 -0.1515 -0.0607 -0.0398
  105TMC2    C4 1633   0.824   0.966   0.524  0.0731  0.4619 -0.1622
  105TMC2    C5 1634   0.761   1.056   0.614 -0.7775 -0.4343 -0.0845
  105TMC2    C6 1635   0.775   1.191   0.599 -0.1934  0.4126 -0.5414
  105TMC2     C 1636   0.878   0.927   0.294 -0.5421 -0.5200 -0.7552
  105TMC2     O 1637   0.841   0.813   0.317  0.1142 -0.4470  0.4047
  105TMC2     H 1638   0.900   1.205   0.287 -1.1593  0.2883 -0.5725
  105TMC2    H1 1639   0.820   0.859   0.546  1.5329  0.3751 -0.3089
  105TMC2    H2 1640   0.746   1.255   0.682  0.0354 -0.1100 -0.0565
  105TMC2    C7 1641   0.682   0.997   0.720 -0.4750  0.8130  0.0602
  105TMC2    C8 1642   0.872   1.378   0.478  0.3007 -0.3252  0.0089
  105TMC2    O1 1643   0.639   0.884   0.699  0.0182  0.4560  0.1185
  105TMC2    O2 1644   0.953   1.414   0.393  0.0979  0.0709 -0.1050
  105TMC2    O5 1645   0.792   1.452   0.560 -0.3718 -0.1444  0.6965
  105TMC2    H5 1646   0.713   1.410   0.598 -2.1133  0.7919 -1.8175
  106MPD2     C 1647   1.031   0.776  17.566  0.4121  0.5230 -0.3123
  106MPD2    C1 1648   1.054   0.910  17.581  0.6415 -0.6270 -0.1268
  106MPD2    C2 1649   1.009   0.984  17.693 -0.6882 -0.9026  0.3277
  106MPD2    C3 1650   0.955   0.914   0.056 -0.1759  0.0782  0.8309
  106MPD2    C4 1651   0.935   0.782   0.042  0.3043 -0.3190 -0.3696
  106MPD2    C5 1652   0.963   0.712  17.670  0.9044 -0.6767  0.3373
  106MPD2     H 1653   1.007   1.092  17.702 -1.1934 -0.9136  0.3563
  106MPD2    H1 1654   0.906   0.716   0.123 -1.6174 -0.9442 -1.5678
  106MPD2    H2 1655   1.058   0.720  17.477 -0.3445  1.8230 -1.3647
  106MPD2    H3 1656   0.975   0.604  17.669  1.3482 -0.6254  0.0238
  106MPD2     N 1657   0.927   0.982   0.178 -0.1140  0.1217  0.1632
  106MPD2    H5 1658   0.945   1.081   0.175  0.1895  0.0984  1.2270
  106MPD2    N1 1659   1.133   0.981  17.492 -0.6695 -0.5415 -0.0606
  106MPD2    H7 1660   1.125   1.080  17.515 -0.3213 -0.5087 -0.0734
  107TMC2    C1 1661   2.093   1.182  11.961 -0.1642  0.2871 -0.1069
  107TMC2    C2 1662   2.121   1.313  11.949  0.3262  0.0338  0.4430
  107TMC2    C3 1663   2.148   1.368  11.827 -0.0330  0.1480  0.3636
  107TMC2    C4 1664   2.109   1.096  11.851 -0.7564 -0.2766 -0.4510
  107TMC2    C5 1665   2.138   1.152  11.736  0.0731 -0.0346 -0.9049
  107TMC2    C6 1666   2.164   1.288  11.718 -0.4326 -0.2243  0.4072
  107TMC2     C 1667   2.010   1.136  12.066  0.0991  0.4910  0.4783
  107TMC2     O 1668   2.018   1.021  12.106 -0.4531 -0.4226 -0.7277
  107TMC2     H 1669   2.107   1.379  12.033  0.8774  0.9212 -0.1571
  107TMC2    H1 1670   2.084   0.991  11.866  0.4347 -0.7953 -2.1405
  107TMC2    H2 1671   2.187   1.333  11.623 -0.6244 -0.7189  0.1229
  107TMC2    C7 1672   2.155   1.076  11.612 -0.2231  0.4130 -0.5756
  107TMC2    C8 1673   2.188   1.504  11.830 -0.4688 -0.4757  0.4553
  107TMC2    O1 1674   2.148   1.144  11.512 -0.2173  0.4518 -0.5744
  107TMC2    O2 1675   2.255   1.547  11.920 -0.2561  0.6504 -0.2609
  107TMC2    O5 1676   2.172   1.555  11.702 -0.7116  0.1280 -0.0989
  107TMC2    H5 1677   2.109   1.504  11.647 -0.4146 -0.9970  0.6153
  108MPD2     C 1678   1.663   1.231  12.098  0.8484 -0.1813  0.0412
  108MPD2    C1 1679   1.786   1.182  12.139 -0.0439 -0.5863  0.5476
  108MPD2    C2 1680   1.787   1.092  12.245  0.3157  0.5086 -0.5380
  108MPD2    C3 1681   1.672   1.056  12.311  0.2547 -0.0699  0.1310
  108MPD2    C4 1682   1.557   1.123  12.277 -0.1319 -0.2287  0.3813
  108MPD2    C5 1683   1.552   1.207  12.168  0.0199 -0.4445 -0.3915
  108MPD2     H 1684   1.884   1.066  12.286  1.2726  1.0808 -2.4255
  108MPD2    H1 1685   1.467   1.113  12.336 -1.2631 -1.3922 -1.5562
  108MPD2    H2 1686   1.660   1.310  12.024 -1.7200  2.3552  2.8391
  108MPD2    H3 1687   1.461   1.265  12.154  0.4948  0.2800 -0.4656
  108MPD2     N 1688   1.665   0.986  12.431  0.2774 -0.4772  0.0918
  108MPD2    H5 1689   1.569   0.975  12.463  0.0141 -0.8448 -0.8376
  108MPD2    N1 1690   1.897   1.216  12.060  1.0212 -0.0122 -0.2349
  108MPD2    H7 1691   1.890   1.292  11.994 -2.2095 -1.3135 -1.3863
  109TMC2    C1 1692   1.087   3.401   0.974 -0.0852 -0.8049  0.5322
  109TMC2    C2 1693   1.125   3.475   0.871 -0.1837 -0.0165 -0.1468
  109TMC2    C3 1694   1.254   3.510   0.851  0.4153 -0.4623 -0.4575
  109TMC2    C4 1695   1.177   3.362   1.071  0.2593  0.1674 -1.1355
  109TMC2    C5 1696   1.307   3.408   1.057  0.3286  0.4155 -0.9028
  109TMC2    C6 1697   1.351   3.475   0.944 -0.0272  0.3540  0.3538
  109TMC2     C 1698   0.970   3.313   0.961 -0.3763 -0.6399 -0.3262
  109TMC2     O 1699   0.996   3.198   0.991 -0.1052  0.1284 -0.1006
  109TMC2     H 1700   1.053   3.495   0.792 -0.5233  2.6128  0.7995
  109TMC2    H1 1701   1.130   3.329   1.163  2.5825 -1.6859 -0.6153
  109TMC2    H2 1702   1.454   3.506   0.930 -0.3235  1.3573  0.4333
  109TMC2    C7 1703   1.412   3.367   1.148  0.8059 -0.3850 -0.3510
  109TMC2    C8 1704   1.286   3.556   0.711  0.1979  0.0530  0.0971
  109TMC2    O1 1705   1.519   3.414   1.118  0.3228 -0.0457  0.0108
  109TMC2    O2 1706   1.223   3.642   0.650  0.0664 -0.1757 -0.1850
  109TMC2    O5 1707   1.349   3.453   0.651  0.3147 -0.5516  0.0068
  109TMC2    H5 1708   1.387   3.380   0.704 -0.6268 -0.7953  0.3574
  110MPD2     C 1709   0.477   3.231   0.896 -0.0220 -0.2046  0.4707
  110MPD2    C1 1710   0.579   3.143   0.932  0.1986  0.5377 -0.2234
  110MPD2    C2 1711   0.708   3.193   0.912  0.1302 -0.0750 -0.6179
  110MPD2    C3 1712   0.730   3.322   0.910 -0.3563  0.6905 -0.0262
  110MPD2    C4 1713   0.630   3.410   0.893 -0.0476 -0.4946 -0.5377
  110MPD2    C5 1714   0.501   3.367   0.887  0.6080  0.6829 -0.5647
  110MPD2     H 1715   0.799   3.138   0.934  1.5440  2.1632 -0.8802
  110MPD2    H1 1716   0.635   3.518   0.886  0.4475 -0.4926 -0.1311
  110MPD2    H2 1717   0.371   3.206   0.891  0.5309 -2.3089 -0.7280
  110MPD2    H3 1718   0.415   3.432   0.873 -0.8311 -1.3405 -1.1066
  110MPD2     N 1719   0.860   3.381   0.932 -0.2396 -0.1743  0.4673
  110MPD2    H5 1720   0.869   3.482   0.929  0.3520 -0.1542  2.7472
  110MPD2    N1 1721   0.539   3.016   0.976  0.3539  0.5426 -0.1003
  110MPD2    H7 1722   0.443   3.002   1.004  0.2413 -0.7147 -1.1183
  111TMC2    C1 1723   2.191   2.271  11.457 -0.4052 -0.4574 -0.6319
  111TMC2    C2 1724   2.287   2.278  11.364  0.1644  0.6871  0.4337
  111TMC2    C3 1725   2.417   2.308  11.407 -0.0330 -0.4857 -0.4507
  111TMC2    C4 1726   2.227   2.262  11.592  0.8696  0.2750 -0.6903
  111TMC2    C5 1727   2.354   2.282  11.626  0.4130 -0.0533  0.3184
  111TMC2    C6 1728   2.454   2.311  11.538 -0.5177 -0.2901 -0.2969
  111TMC2     C 1729   2.054   2.292  11.418  0.4835  0.2244  0.1846
  111TMC2     O 1730   2.035   2.266  11.301 -0.1529 -0.0980 -0.1592
  111TMC2     H 1731   2.262   2.277  11.258 -1.1540  0.2524  0.7386
  111TMC2    H1 1732   2.150   2.250  11.666  0.7632  0.2097 -0.8118
  111TMC2    H2 1733   2.561   2.323  11.553 -0.8127  1.4013  0.4361
  111TMC2    C7 1734   2.390   2.256  11.770 -0.5979 -0.0060  0.4508
  111TMC2    C8 1735   2.518   2.294  11.307  0.1090  0.4949 -0.2929
  111TMC2    O1 1736   2.304   2.255  11.854  0.2643 -0.1677 -0.6940
  111TMC2    O2 1737   2.629   2.242  11.330 -0.3373  0.0979  0.2834
  111TMC2    O5 1738   2.491   2.380  11.204  0.0349  0.1766 -0.4123
  111TMC2    H5 1739   2.411   2.432  11.225  0.0309 -0.0369  0.1295
  112MPD2     C 1740   1.572   2.440  11.467  0.1604 -0.2709  0.3154
  112MPD2    C1 1741   1.653   2.427  11.354  0.4706 -0.0614  0.0628
  112MPD2    C2 1742   1.787   2.390  11.363 -0.1497 -0.9953  0.3865
  112MPD2    C3 1743   1.839   2.367  11.490 -0.0608  0.4612 -0.1236
  112MPD2    C4 1744   1.757   2.396  11.603  0.8356  0.1256 -0.2703
  112MPD2    C5 1745   1.628   2.433  11.587  0.2564 -0.3372 -0.3798
  112MPD2     H 1746   1.849   2.390  11.274  0.6002  1.3956  0.8992
  112MPD2    H1 1747   1.789   2.369  11.703 -1.0753 -0.5782  0.1604
  112MPD2    H2 1748   1.465   2.459  11.463  0.3750  0.9418  0.1690
  112MPD2    H3 1749   1.567   2.431  11.677  1.5567 -1.0991  0.4865
  112MPD2     N 1750   1.974   2.345  11.513  0.0736 -0.0447  0.5419
  112MPD2    H5 1751   2.013   2.362  11.606  1.0536  0.6946 -0.0029
  112MPD2    N1 1752   1.601   2.435  11.223  0.2244 -0.1850 -0.0161
  112MPD2    H7 1753   1.666   2.427  11.146 -1.6643  0.4860 -1.6532
  113TMC2    C1 1754   4.568   0.678   0.524  0.0059  0.5285 -0.7622
  113TMC2    C2 1755   4.522   0.790   0.461 -0.4062 -0.1844  0.4668
  113TMC2    C3 1756   4.408   0.777   0.387  1.0502  0.1878 -0.5060
  113TMC2    C4 1757   4.510   0.554   0.512  0.7133 -0.1074  1.0878
  113TMC2    C5 1758   4.396   0.543   0.437  0.3645  0.7879 -0.6797
  113TMC2    C6 1759   4.339   0.652   0.371  0.0467  0.3952 -0.3261
  113TMC2     C 1760   4.652   0.698   0.637 -0.0028  0.1156 -0.7738
  113TMC2     O 1761   4.671   0.810   0.680  0.2124 -0.2479 -0.0631
  113TMC2     H 1762   4.581   0.881   0.464 -2.1756  1.0347 -1.5767
  113TMC2    H1 1763   4.543   0.468   0.569 -0.6510 -2.0122 -1.0379
  113TMC2    H2 1764   4.251   0.632   0.310 -1.0708 -1.7273  2.0058
  113TMC2    C7 1765   4.311   0.425   0.445 -0.2841  0.4591 -0.2667
  113TMC2    C8 1766   4.373   0.895   0.305 -0.4645  0.5146 -0.3444
  113TMC2    O1 1767   4.236   0.410   0.355  0.7310  0.7510  0.2338
  113TMC2    O2 1768   4.446   0.974   0.250  0.3751  0.5378 -0.4609
  113TMC2    O5 1769   4.257   0.854   0.241  0.1237  0.3591  0.0728
  113TMC2    H5 1770   4.199   0.807   0.305  0.3179 -0.1756 -0.1397
  114MPD2     C 1771   0.176   0.495   1.040 -0.2511  0.0550 -0.6195
  114MPD2    C1 1772   0.125   0.625   1.021 -0.2172  0.8669  0.3303
  114MPD2    C2 1773   0.053   0.659   0.906  0.3509  0.0779  0.2020
  114MPD2    C3 1774   0.027   0.560   0.809 -0.5787 -0.0521  0.4402
  114MPD2    C4 1775   0.086   0.435   0.826  0.5287 -0.0906  0.1372
  114MPD2    C5 1776   0.157   0.402   0.939  0.3690  0.5501  0.2275
  114MPD2     H 1777   0.011   0.757   0.890  0.4722  0.0803 -0.1029
  114MPD2    H1 1778   0.066   0.358   0.752 -1.1835  0.2816  0.1929
  114MPD2    H2 1779   0.215   0.471   1.138 -0.1136 -0.6563 -0.8477
  114MPD2    H3 1780   0.174   0.300   0.970  0.4414 -0.1301 -1.9948
  114MPD2     N 1781   4.701   0.582   0.685  0.4548  0.1084  0.0940
  114MPD2    H5 1782   4.693   0.505   0.619  3.2702  0.4724 -0.6379
  114MPD2    N1 1783   0.130   0.709   1.135  0.4721 -0.1514  0.3080
  114MPD2    H7 1784   0.195   0.671   1.204 -0.0600 -2.7568 -0.6517
  115TMC2    C1 1785   0.853   2.809   0.137  0.3996 -0.0454 -0.3306
  115TMC2    C2 1786   0.976   2.780   0.184  0.2930 -0.7056 -0.4090
  115TMC2    C3 1787   1.055   2.880   0.220 -0.2940  0.2392  0.3147
  115TMC2    C4 1788   0.807   2.935   0.125  0.0895 -0.1377 -0.2960
  115TMC2    C5 1789   0.888   3.035   0.165 -0.4228 -0.2572 -0.0330
  115TMC2    C6 1790   1.009   3.009   0.216 -1.1032  0.2739  0.4836
  115TMC2     C 1791   0.764   2.697   0.104 -0.0994  0.0061 -0.2246
  115TMC2     O 1792   0.809   2.596   0.045 -0.1116 -0.1035 -0.1220
  115TMC2     H 1793   1.008   2.677   0.198  1.4925 -0.1538  0.9890
  115TMC2    H1 1794   0.713   2.959   0.078  0.0145  0.2762  0.0632
  115TMC2    H2 1795   1.081   3.081   0.253 -0.1445 -1.8566  2.8154
  115TMC2    C7 1796   0.844   3.164   0.118 -0.2565 -0.3607 -0.0145
  115TMC2    C8 1797   1.192   2.853   0.239  0.4604  0.7164 -0.4404
  115TMC2    O1 1798   0.725   3.177   0.099 -0.1382 -0.0651  0.4611
  115TMC2    O2 1799   1.261   2.903   0.319  0.3545 -0.0107  0.0348
  115TMC2    O5 1800   1.226   2.806   0.120 -0.5052  0.1121 -0.2813
  115TMC2    H5 1801   1.161   2.804   0.046  0.2088  1.6412 -0.9451
  116MPD2     C 1802   0.318   2.467   0.162 -0.1749 -0.2492  0.1952
  116MPD2    C1 1803   0.424   2.428   0.086  0.6503 -0.7376  0.4035
  116MPD2    C2 1804   0.537   2.506   0.089 -0.4551 -0.7859 -0.3661
  116MPD2    C3 1805   0.537   2.626   0.162 -0.8982  0.2748 -0.2073
  116MPD2    C4 1806   0.427   2.658   0.233  0.1417 -0.2086  0.3410
  116MPD2    C5 1807   0.321   2.571   0.239  0.2370  0.3825 -0.5131
  116MPD2     H 1808   0.633   2.474   0.049 -0.0447 -0.1667  0.1128
  116MPD2    H1 1809   0.416   2.749   0.291 -1.6518  0.3284 -0.8522
  116MPD2    H2 1810   0.225   2.412   0.159  0.0478 -0.5798 -0.6651
  116MPD2    H3 1811   0.237   2.604   0.299  1.0270  0.3856  0.5905
  116MPD2     N 1812   0.643   2.722   0.165  0.2618 -0.1547 -0.2325
  116MPD2    H5 1813   0.616   2.809   0.211  1.4410  0.2141 -0.2444
  116MPD2    N1 1814   0.403   2.323  17.739  0.2230 -0.1639 -0.3552
  116MPD2    H7 1815   0.310   2.282  17.728  0.3899 -0.8029  0.6014
  117TMC2    C1 1816   4.212   4.449  14.050 -0.0055  0.3192 -0.4445
  117TMC2    C2 1817   4.311   4.369  14.101  0.2368 -0.3445 -0.1950
  117TMC2    C3 1818   4.440   4.413  14.106  0.0195 -0.5855 -1.3533
  117TMC2    C4 1819   4.240   4.569  13.997 -0.6021  1.0282  0.8168
  117TMC2    C5 1820   4.373   4.611  14.008 -0.0802  0.1329 -0.4006
  117TMC2    C6 1821   4.475   4.534  14.058 -0.0855 -0.4817  0.5953
  117TMC2     C 1822   4.071   4.407  14.077  0.8087 -0.0963 -0.4799
  117TMC2     O 1823   4.059   4.285  14.101 -0.3071 -0.3534  0.3596
  117TMC2     H 1824   4.279   4.269  14.129  0.1553 -0.6459 -1.3615
  117TMC2    H1 1825   4.162   4.634  13.959 -1.5203  0.3510  1.5559
  117TMC2    H2 1826   4.575   4.574  14.057  0.0075 -0.6742  1.9035
  117TMC2    C7 1827   4.418   4.716  13.916  0.1543 -0.0347 -0.1594
  117TMC2    C8 1828   4.552   4.317  14.090  0.2987  0.1222 -0.0915
  117TMC2    O1 1829   4.540   0.008  13.916  0.0321  0.6431 -0.4274
  117TMC2    O2 1830   4.660   4.344  14.034  0.4455  0.3933  0.2099
  117TMC2    O5 1831   4.516   4.212  14.165  0.9334  0.5429  0.0829
  117TMC2    H5 1832   4.448   4.233  14.232 -0.8201 -1.0556 -1.1842
  118MPD2     C 1833   4.214   0.158  13.660 -0.0399  0.3576  0.1400
  118MPD2    C1 1834   4.319   0.136  13.749  0.6996 -0.0760 -0.3226
  118MPD2    C2 1835   4.408   0.243  13.767  0.7189 -0.3345 -0.1144
  118MPD2    C3 1836   4.390   0.365  13.700 -0.8030 -0.7443 -0.0059
  118MPD2    C4 1837   4.272   0.382  13.628  0.3415  0.6515 -0.2305
  118MPD2    C5 1838   4.192   0.276  13.598  0.1726 -0.4973 -0.1390
  118MPD2     H 1839   4.502   0.230  13.820  0.1687 -0.7701  0.7566
  118MPD2    H1 1840   4.244   0.478  13.587 -0.4426  0.8832  0.8620
  118MPD2    H2 1841   4.143   0.079  13.638 -0.9470  1.3969 -0.6241
  118MPD2    H3 1842   4.110   0.288  13.528 -0.6444  0.0064  0.8891
  118MPD2     N 1843   4.472   0.478  13.716 -0.2649 -0.5444 -0.2467
  118MPD2    H5 1844   4.434   0.569  13.695  1.5593  0.3187  0.2460
  118MPD2    N1 1845   4.322   0.017  13.819 -0.4349  0.2460  0.0602
  118MPD2    H7 1846   4.236   4.703  13.802 -0.0163 -0.5988  0.4866
  119TMC2    C1 1847   2.632   1.518  14.056 -0.2084  0.6676  0.7925
  119TMC2    C2 1848   2.692   1.615  13.982  0.2520 -0.5731 -0.1440
  119TMC2    C3 1849   2.637   1.650  13.860  0.3292 -0.5131  0.0066
  119TMC2    C4 1850   2.512   1.475  14.016  0.2924  0.7371 -0.0795
  119TMC2    C5 1851   2.449   1.517  13.904 -0.0519  0.1283  0.3434
  119TMC2    C6 1852   2.513   1.599  13.814  0.0143 -0.0525  0.1924
  119TMC2     C 1853   2.691   1.469  14.174 -0.4695  0.1139  0.0990
  119TMC2     O 1854   2.619   1.419  14.258  0.2135  0.5178 -0.2116
  119TMC2     H 1855   2.794   1.643  14.009  0.0354 -0.4998  0.5912
  119TMC2    H1 1856   2.460   1.422  14.095 -0.7857  1.0584 -0.5762
  119TMC2    H2 1857   2.459   1.630  13.725  0.4814 -0.6740 -0.3127
  119TMC2    C7 1858   2.323   1.455  13.863  0.1861  0.0745  0.4484
  119TMC2    C8 1859   2.709   1.710  13.757 -0.6031 -0.0552 -0.1350
  119TMC2    O1 1860   2.250   1.509  13.781 -0.1057 -0.7944 -0.0828
  119TMC2    O2 1861   2.674   1.708  13.642  0.2890 -0.3063 -0.2102
  119TMC2    O5 1862   2.740   1.832  13.812  0.1102  0.0073 -0.1716
  119TMC2    H5 1863   2.777   1.840  13.903 -1.2904  2.5848  0.1770
  120MPD2     C 1864   3.075   1.297  14.446 -0.1083  0.0602  0.0166
  120MPD2    C1 1865   2.943   1.314  14.476  0.1771  0.1298 -0.4915
  120MPD2    C2 1866   2.860   1.378  14.390 -0.0439  0.6641 -0.2956
  120MPD2    C3 1867   2.902   1.423  14.267 -0.3373  0.3147  0.1937
  120MPD2    C4 1868   3.032   1.393  14.230  0.7344  0.7536 -0.2147
  120MPD2    C5 1869   3.117   1.341  14.325  0.3421  0.4622  0.6598
  120MPD2     H 1870   2.762   1.407  14.427 -0.0060 -0.4804  0.6865
  120MPD2    H1 1871   3.065   1.410  14.129 -1.4562  1.7180 -0.7650
  120MPD2    H2 1872   3.147   1.248  14.511 -0.6877  1.0616  1.4269
  120MPD2    H3 1873   3.223   1.339  14.302  0.8458  0.9657  2.8406
  120MPD2     N 1874   2.825   1.479  14.169  0.1749  0.1905 -0.0316
  120MPD2    H5 1875   2.866   1.500  14.078  0.5006 -1.1431 -0.1989
  120MPD2    N1 1876   2.899   1.261  14.600 -0.1952  0.3341  0.4285
  120MPD2    H7 1877   2.955   1.184  14.636 -0.3877 -0.4634 -0.9753
  121TMC2    C1 1878   4.037   2.903  14.432 -0.2242 -0.2381 -0.9385
  121TMC2    C2 1879   4.042   2.855  14.563  0.5734  0.0931 -0.8890
  121TMC2    C3 1880   3.973   2.746  14.592 -0.2714 -0.9016  0.2699
  121TMC2    C4 1881   3.956   2.846  14.339 -0.1777  0.2233 -0.4353
  121TMC2    C5 1882   3.872   2.752  14.384 -0.2584 -0.6786  0.1144
  121TMC2    C6 1883   3.871   2.700  14.513  0.0526  0.3518  0.0146
  121TMC2     C 1884   4.108   3.026  14.405  0.7613  1.0776 -0.1040
  121TMC2     O 1885   4.158   3.083  14.500 -0.0195 -0.9347 -0.4458
  121TMC2     H 1886   4.093   2.914  14.639  1.4597 -0.8226 -0.7691
  121TMC2    H1 1887   3.941   2.885  14.239 -1.9989  1.2187  0.2317
  121TMC2    H2 1888   3.810   2.613  14.537  0.6325  0.0632  0.4524
  121TMC2    C7 1889   3.800   2.689  14.278  0.6280  0.3081 -0.1950
  121TMC2    C8 1890   3.964   2.709  14.729 -0.3860  0.9087  0.2348
  121TMC2    O1 1891   3.859   2.681  14.169  0.3614  0.1920 -0.1504
  121TMC2    O2 1892   3.853   2.695  14.784  0.5031 -0.9361 -0.2719
  121TMC2    O5 1893   4.086   2.696  14.792  0.0644 -0.1827 -0.3636
  121TMC2    H5 1894   4.161   2.735  14.742  0.2812  1.6737  1.4315
  122MPD2     C 1895   4.150   3.302  14.294 -0.3532 -0.4511  0.0829
  122MPD2    C1 1896   4.123   3.189  14.218  0.3222  0.3368 -0.0560
  122MPD2    C2 1897   4.117   3.200  14.078 -0.1300  0.0504  0.5622
  122MPD2    C3 1898   4.150   3.317  14.014  0.4242 -0.0506 -0.3798
  122MPD2    C4 1899   4.173   3.431  14.094  0.4640  0.7432 -0.5298
  122MPD2    C5 1900   4.156   3.420  14.225  0.2046 -0.7412 -0.5362
  122MPD2     H 1901   4.090   3.113  14.019  1.7708  0.1906 -0.5204
  122MPD2    H1 1902   4.185   3.528  14.048  2.0383  0.7901 -0.0167
  122MPD2    H2 1903   4.154   3.301  14.402  1.1133 -0.4366  0.0292
  122MPD2    H3 1904   4.158   3.511  14.283 -0.2686 -1.9702  1.4464
  122MPD2     N 1905   4.164   3.325  13.875  0.0777  0.4171  0.3186
  122MPD2    H5 1906   4.163   3.419  13.836  2.1835  0.9374  1.5162
  122MPD2    N1 1907   4.113   3.056  14.271 -0.7039  0.2304 -0.3413
  122MPD2    H7 1908   4.079   2.983  14.209 -1.4543 -0.4797  0.8914
  123TMC2    C1 1909   2.513   0.879  10.088 -0.4810 -0.2223 -0.2155
  123TMC2    C2 1910   2.607   0.964  10.041 -0.0941 -0.0958  0.7180
  123TMC2    C3 1911   2.582   1.036   9.928 -0.6261  0.3816  0.7859
  123TMC2    C4 1912   2.408   0.838  10.008  0.0178 -0.1376  0.2248
  123TMC2    C5 1913   2.397   0.899   9.887  0.4548  1.1629 -0.4853
  123TMC2    C6 1914   2.474   1.007   9.845 -0.2994  0.3032  0.1102
  123TMC2     C 1915   2.514   0.852  10.230 -0.9038  0.1756 -1.3260
  123TMC2     O 1916   2.606   0.896  10.303 -0.3204  0.9782 -0.1103
  123TMC2     H 1917   2.687   1.004  10.102  0.2430  1.0853 -0.5124
  123TMC2    H1 1918   2.328   0.775  10.047 -0.3199 -0.6843 -1.3427
  123TMC2    H2 1919   2.455   1.038   9.743  0.2234 -0.4834 -0.2276
  123TMC2    C7 1920   2.268   0.881   9.834 -0.6423  0.0563 -0.4915
  123TMC2    C8 1921   2.677   1.150   9.896  0.5534 -0.4081 -0.2910
  123TMC2    O1 1922   2.222   0.767   9.831  0.1761  0.2266 -0.2429
  123TMC2    O2 1923   2.793   1.144   9.933 -0.8559  0.0898 -0.2958
  123TMC2    O5 1924   2.626   1.237   9.803  0.1716 -0.3657  0.0616
  123TMC2    H5 1925   2.531   1.215   9.793  0.1354  1.3756 -3.5131
  124MPD2     C 1926   2.252   0.658  10.643  0.0028 -0.1845 -0.3564
  124MPD2    C1 1927   2.177   0.638  10.532 -0.0059  0.1308  0.0590
  124MPD2    C2 1928   2.236   0.685  10.413 -0.1319  1.1453 -0.4840
  124MPD2    C3 1929   2.362   0.741  10.401 -0.0779  0.3543  0.9901
  124MPD2    C4 1930   2.433   0.759  10.521  0.0559  0.2508  0.0316
  124MPD2    C5 1931   2.376   0.722  10.637 -0.2367 -0.4142 -0.3296
  124MPD2     H 1932   2.177   0.691  10.322 -0.4507  1.9996 -0.2140
  124MPD2    H1 1933   2.522   0.819  10.532 -0.0913  0.3114  0.9357
  124MPD2    H2 1934   2.221   0.624  10.741  1.8194 -0.5304  0.1018
  124MPD2    H3 1935   2.433   0.731  10.729 -1.0193 -0.0236  0.1181
  124MPD2     N 1936   2.399   0.787  10.272 -0.2420  0.3335 -0.3629
  124MPD2    H5 1937   2.329   0.782  10.199 -0.3896 -0.7115 -0.1580
  124MPD2    N1 1938   2.044   0.586  10.545  0.0374  0.1753 -0.2683
  124MPD2    H7 1939   2.006   0.573  10.638  0.8991  0.2154  0.0968
  125TMC2    C1 1940   2.812   2.581   9.911  0.8709  0.6552 -0.4909
  125TMC2    C2 1941   2.790   2.472   9.829  0.0363 -0.6341  0.4890
  125TMC2    C3 1942   2.870   2.455   9.718  0.2165 -0.0233  0.2704
  125TMC2    C4 1943   2.903   2.681   9.866 -1.2848  0.0298 -0.5749
  125TMC2    C5 1944   2.969   2.666   9.750  0.4016  0.4407  0.2010
  125TMC2    C6 1945   2.965   2.548   9.679 -0.1065  0.2092 -0.1981
  125TMC2     C 1946   2.762   2.586  10.042 -0.0758  0.0571  0.3420
  125TMC2     O 1947   2.793   2.688  10.104  0.0855  0.1209 -0.7450
  125TMC2     H 1948   2.717   2.394   9.847 -0.6954  0.0597  0.4870
  125TMC2    H1 1949   2.912   2.779   9.910  3.0034 -1.1954  1.3038
  125TMC2    H2 1950   3.018   2.535   9.585 -0.0954 -0.9218 -0.0404
  125TMC2    C7 1951   3.071   2.763   9.703  0.0495 -0.0159 -0.3653
  125TMC2    C8 1952   2.869   2.319   9.666  0.2791  0.0719  0.7028
  125TMC2    O1 1953   3.051   2.884   9.713 -0.4626  0.1467 -0.4170
  125TMC2    O2 1954   2.830   2.218   9.718 -0.4272 -0.1800  0.1376
  125TMC2    O5 1955   2.916   2.328   9.539 -0.3273  0.0295  0.0695
  125TMC2    H5 1956   2.943   2.416   9.504 -0.0487 -0.4697 -0.9717
  126MPD1     C 1957   2.458   2.434  10.427  0.4009  0.3903  0.1790
  126MPD1    C1 1958   2.464   2.336  10.333  0.5446 -0.0478 -0.3267
  126MPD1    C2 1959   2.532   2.352  10.218  0.3201 -0.5481  0.1942
  126MPD1    C3 1960   2.614   2.462  10.201  0.1351 -0.0011  0.8196
  126MPD1    C4 1961   2.624   2.553  10.306  0.2442 -0.7389 -0.5507
  126MPD1    C5 1962   2.543   2.537  10.416 -0.2761  0.8805 -0.2720
  126MPD1     H 1963   2.512   2.277  10.143  0.0298  1.1048 -1.3707
  126MPD1    H1 1964   2.685   2.643  10.301  0.1748 -0.6541  0.2445
  126MPD1    H2 1965   2.406   2.419  10.521  0.1035  3.1336  0.4589
  126MPD1    H3 1966   2.539   2.614  10.493  1.3587  2.1270 -1.4109
  126MPD1     N 1967   2.681   2.480  10.076  0.0296 -0.5688  0.2695
  126MPD1    H5 1968   2.668   2.406  10.007  0.3259  2.7529 -3.3549
  126MPD1    N1 1969   2.379   2.226  10.341  0.4714 -0.3851  0.5444
  126MPD1    H6 1970   2.416   2.138  10.305  2.5715  0.7970 -0.1001
  126MPD1    H7 1971   2.341   2.209  10.434  0.5144 -0.0870  0.6147
  127TMC2    C1 1972   4.517   1.119  10.372 -0.0207  0.1231 -0.3023
  127TMC2    C2 1973   4.603   1.107  10.478  0.2520  0.9284  0.4949
  127TMC2    C3 1974   4.607   0.986  10.532  0.0349  0.2940 -0.5894
  127TMC2    C4 1975   4.442   1.019  10.317 -0.0223 -0.8256  0.5166
  127TMC2    C5 1976   4.453   0.899  10.382 -0.3222  0.0200 -0.5878
  127TMC2    C6 1977   4.534   0.878  10.493  0.1487 -0.7423  0.6801
  127TMC2     C 1978   4.531   1.249  10.301 -0.1673 -0.1889  0.2535
  127TMC2     O 1979   4.536   1.349  10.373 -0.1203  0.6217 -0.0752
  127TMC2     H 1980   4.659   1.192  10.513  1.1124  0.1857  0.9036
  127TMC2    H1 1981   4.370   1.047  10.242 -0.5792 -1.0052  0.9899
  127TMC2    H2 1982   4.541   0.783  10.545  0.2972 -0.4529  1.1815
  127TMC2    C7 1983   4.363   0.791  10.352 -1.5257 -1.2359 -0.4736
  127TMC2    C8 1984   4.678   0.977  10.657 -0.5027 -0.1046  0.7495
  127TMC2    O1 1985   4.388   0.675  10.387 -0.7495 -0.5334 -0.7256
  127TMC2    O2 1986   0.048   1.032  10.675  0.4544  0.2676 -0.1283
  127TMC2    O5 1987   4.602   0.909  10.751 -0.7294  0.1347  0.6304
  127TMC2    H5 1988   4.505   0.924  10.747 -0.3402  2.8181  1.4069
  128MPD2     C 1989   4.472   1.338   9.951  0.1419 -0.1127  0.4734
  128MPD2    C1 1990   4.504   1.359  10.081  0.0893  0.3652 -0.0135
  128MPD2    C2 1991   4.552   1.489  10.120  0.2290 -0.7460  0.4760
  128MPD2    C3 1992   4.549   1.596  10.026 -0.4008  0.2216 -0.5342
  128MPD2    C4 1993   4.521   1.567   9.895 -0.5956  0.7766 -1.1301
  128MPD2    C5 1994   4.486   1.440   9.866 -0.5846  0.3223 -0.2592
  128MPD2     H 1995   4.567   1.521  10.223 -1.9061 -1.9091  1.1425
  128MPD2    H1 1996   4.517   1.634   9.810 -1.6930  2.2409  0.0699
  128MPD2    H2 1997   4.446   1.238   9.918 -1.0943  0.2765  0.2783
  128MPD2    H3 1998   4.465   1.440   9.759  0.6846 -0.2136 -0.5096
  128MPD2     N 1999   4.575   1.728  10.072  0.4264  0.0119  0.6682
  128MPD2    H5 2000   4.609   1.727  10.167  0.8483  0.5189  0.5241
  128MPD2    N1 2001   4.507   1.245  10.162  0.0290  0.6139 -0.6357
  128MPD2    H7 2002   4.497   1.154  10.119 -0.3434 -0.1278  0.9920
  129TMC2    C1 2003   2.835   1.983   1.564  0.0996  0.5057  0.0213
  129TMC2    C2 2004   2.948   2.017   1.499  0.1456  0.2978 -0.1293
  129TMC2    C3 2005   3.006   1.922   1.427  0.4344  0.3739 -0.6293
  129TMC2    C4 2006   2.789   1.851   1.571 -0.1676  0.4837  0.2228
  129TMC2    C5 2007   2.853   1.760   1.499  0.1697  0.4272  0.0233
  129TMC2    C6 2008   2.957   1.795   1.422  0.1296 -0.4684  0.4567
  129TMC2     C 2009   2.745   2.082   1.622  0.1194 -0.1577 -0.0404
  129TMC2     O 2010   2.653   2.023   1.684  0.0922 -0.8115 -0.1011
  129TMC2     H 2011   2.996   2.114   1.506 -0.2463  0.4648  0.2113
  129TMC2    H1 2012   2.702   1.822   1.628  1.6658 -1.1383  2.1411
  129TMC2    H2 2013   2.991   1.725   1.347  0.4518 -0.8265  0.9397
  129TMC2    C7 2014   2.777   1.639   1.485  0.2842 -0.5779 -0.4049
  129TMC2    C8 2015   3.134   1.952   1.370  0.3698 -0.0652  0.0884
  129TMC2    O1 2016   2.656   1.644   1.490  1.1137 -0.2258 -0.0491
  129TMC2    O2 2017   3.168   2.065   1.333 -0.1097 -0.1522 -0.2244
  129TMC2    O5 2018   3.195   1.837   1.334  0.4668 -0.6947 -0.1764
  129TMC2    H5 2019   3.167   1.761   1.389  1.3574 -1.2372 -0.4805
  130MPD2     C 2020   2.556   2.308   1.685 -0.0192  0.1315 -0.2604
  130MPD2    C1 2021   2.676   2.325   1.612 -0.3808 -0.0648  0.2406
  130MPD2    C2 2022   2.699   2.450   1.556  0.1977 -0.2601  0.0362
  130MPD2    C3 2023   2.601   2.549   1.540 -0.4403  0.6587 -0.0725
  130MPD2    C4 2024   2.486   2.525   1.609  0.5145  0.1006 -0.7988
  130MPD2    C5 2025   2.469   2.409   1.687  0.0046 -0.4604 -0.9472
  130MPD2     H 2026   2.788   2.465   1.496  0.0313 -0.3691 -0.2393
  130MPD2    H1 2027   2.407   2.600   1.605  0.6145  0.2395 -0.1827
  130MPD2    H2 2028   2.533   2.218   1.740  1.1263  0.0733  0.1130
  130MPD2    H3 2029   2.373   2.396   1.735  1.0410 -1.1363  0.9190
  130MPD2     N 2030   2.639   2.665   1.464 -0.0675 -0.6212 -0.3850
  130MPD2    H5 2031   2.733   2.660   1.425 -0.7482  1.0962 -2.2195
  130MPD2    N1 2032   2.758   2.215   1.583  0.0483 -0.0987  0.0409
  130MPD2    H7 2033   2.838   2.235   1.524  0.4517 -2.4243 -0.2011
  131TMC2    C1 2034   1.806   1.296  10.076 -0.0166 -0.5913  0.3811
  131TMC2    C2 2035   1.755   1.396  10.149  0.4902  0.8743  0.0158
  131TMC2    C3 2036   1.833   1.499  10.189 -0.6573 -0.1893  0.2720
  131TMC2    C4 2037   1.938   1.295  10.052  0.0777  0.3040  0.4736
  131TMC2    C5 2038   2.025   1.389  10.105  0.3123  0.1250 -0.1170
  131TMC2    C6 2039   1.969   1.501  10.173  0.0545 -0.1316 -0.2240
  131TMC2     C 2040   1.751   1.166  10.081 -0.1260  0.3150 -0.2457
  131TMC2     O 2041   1.835   1.081  10.098 -0.2382 -0.4365 -0.1378
  131TMC2     H 2042   1.651   1.390  10.179  0.5964  0.2817  0.2685
  131TMC2    H1 2043   1.980   1.215   9.992 -0.2891  0.8861 -0.5561
  131TMC2    H2 2044   2.030   1.578  10.219 -1.9894  2.9075 -2.5643
  131TMC2    C7 2045   2.170   1.360  10.107  0.4735 -0.5453  0.4770
  131TMC2    C8 2046   1.785   1.585  10.297 -0.0705 -1.0845  0.0496
  131TMC2    O1 2047   2.193   1.255  10.052 -0.2577  0.3509  0.1581
  131TMC2    O2 2048   1.665   1.608  10.297 -0.5508 -0.1392 -0.1935
  131TMC2    O5 2049   1.841   1.529  10.405 -0.0305 -0.6158 -0.3584
  131TMC2    H5 2050   1.937   1.519  10.391  0.1510  0.8818 -0.1395
  132MPD2     C 2051   1.407   1.053  10.084  0.1470 -1.2649 -0.6564
  132MPD2    C1 2052   1.541   1.054  10.116 -0.7919  0.1283 -0.1564
  132MPD2    C2 2053   1.597   0.941  10.184  0.3337  0.3903 -0.1200
  132MPD2    C3 2054   1.517   0.835  10.219 -0.2485  0.0288 -0.3307
  132MPD2    C4 2055   1.386   0.839  10.185 -0.0898  0.4054  0.0978
  132MPD2    C5 2056   1.331   0.948  10.125 -0.3740  0.5162 -0.3549
  132MPD2     H 2057   1.696   0.938  10.228 -0.5669  0.2595  1.9051
  132MPD2    H1 2058   1.309   0.773  10.224 -0.4824  0.9490  0.2387
  132MPD2    H2 2059   1.359   1.124  10.017 -0.9547  0.6121  2.1309
  132MPD2    H3 2060   1.225   0.938  10.106  0.2242 -1.7327 -2.4977
  132MPD2     N 2061   1.577   0.734  10.291 -0.7022  0.0622  0.2345
  132MPD2    H5 2062   1.678   0.728  10.287 -0.9148 -1.6651 -1.8641
  132MPD2    N1 2063   1.616   1.167  10.075  0.4443 -0.5534 -0.4762
  132MPD2    H7 2064   1.563   1.249  10.048 -0.0224 -1.4239 -2.1931
  133TMC2    C1 2065   1.864   2.501   9.741  0.0358  0.5784 -0.0599
  133TMC2    C2 2066   1.935   2.617   9.774  0.1110 -0.3039 -0.2120
  133TMC2    C3 2067   2.058   2.623   9.733 -0.0166 -0.6551 -0.3419
  133TMC2    C4 2068   1.926   2.389   9.692 -0.8812 -0.3682  0.3654
  133TMC2    C5 2069   2.054   2.404   9.655 -0.3357  0.5882  0.1560
  133TMC2    C6 2070   2.125   2.523   9.672  0.1767  0.1610  0.3467
  133TMC2     C 2071   1.716   2.489   9.773 -0.1831  0.4459 -0.4740
  133TMC2     O 2072   1.667   2.376   9.771 -0.2849 -0.4239  0.2808
  133TMC2     H 2073   1.883   2.698   9.823  1.6433 -0.4023  1.5567
  133TMC2    H1 2074   1.865   2.299   9.681 -1.9700  0.3062  0.8581
  133TMC2    H2 2075   2.225   2.537   9.635  1.0549 -2.0068  1.9209
  133TMC2    C7 2076   2.119   2.292   9.579  0.1914 -0.0606  0.4531
  133TMC2    C8 2077   2.138   2.747   9.739 -0.3500  0.0379 -0.3755
  133TMC2    O1 2078   2.217   2.319   9.512 -0.2599 -0.0234 -0.7679
  133TMC2    O2 2079   2.209   2.768   9.641 -0.2011  0.0561 -0.3455
  133TMC2    O5 2080   2.071   2.835   9.822 -0.2723 -0.5498 -0.8535
  133TMC2    H5 2081   2.021   2.783   9.888 -1.4212  2.4706  0.6452
  134MPD2     C 2082   1.459   2.733   9.861  0.4096 -0.1092 -0.6273
  134MPD2    C1 2083   1.529   2.613   9.867 -0.2125 -0.1135 -0.2360
  134MPD2    C2 2084   1.469   2.503   9.918 -0.4906 -0.0396 -0.1000
  134MPD2    C3 2085   1.339   2.503   9.959 -0.4882  0.5084  0.0536
  134MPD2    C4 2086   1.265   2.624   9.943 -0.7300 -0.8267 -0.0757
  134MPD2    C5 2087   1.330   2.734   9.900 -0.6606 -0.4437 -0.7460
  134MPD2     H 2088   1.527   2.416   9.947 -0.6611  0.3079  1.3262
  134MPD2    H1 2089   1.164   2.636   9.980 -1.0971 -1.4040 -0.8769
  134MPD2    H2 2090   1.504   2.823   9.821 -1.4097  0.5379 -1.1931
  134MPD2    H3 2091   1.274   2.827   9.899  3.0836  1.7868 -0.2493
  134MPD2     N 2092   1.271   2.384   9.992  0.1314 -0.2985  0.1077
  134MPD2    H5 2093   1.169   2.383   9.987  0.1802  2.1393 -1.0951
  134MPD2    N1 2094   1.652   2.611   9.804 -0.4350  0.0811 -0.1375
  134MPD2    H7 2095   1.692   2.701   9.781  0.9969 -0.1842  1.3182
  135TMC2    C1 2096   3.383   3.062   9.835  0.6983  0.0734 -0.5333
  135TMC2    C2 2097   3.263   3.078   9.900 -0.0224 -0.6601 -0.3156
  135TMC2    C3 2098   3.214   2.968   9.961 -0.2305  0.1379 -0.1629
  135TMC2    C4 2099   3.463   2.949   9.839 -0.6051  0.3027  0.1424
  135TMC2    C5 2100   3.408   2.846   9.905 -0.7374  0.5532  0.5299
  135TMC2    C6 2101   3.286   2.847   9.956 -0.3856  0.0737  0.6911
  135TMC2     C 2102   3.428   3.181   9.761  0.6141  0.0093 -0.3506
  135TMC2     O 2103   3.347   3.273   9.750 -0.5217  0.1854 -0.2509
  135TMC2     H 2104   3.202   3.166   9.887  0.2496 -0.4463 -0.1476
  135TMC2    H1 2105   3.567   2.946   9.810 -0.6183  2.6492 -0.1252
  135TMC2    H2 2106   3.235   2.758   9.992 -0.4650 -0.0389  0.3014
  135TMC2    C7 2107   3.489   2.732   9.885 -0.1342 -0.3125  0.1992
  135TMC2    C8 2108   3.096   2.981  10.032 -0.3068  0.0673 -0.4476
  135TMC2    O1 2109   3.589   2.738   9.813  0.5951 -0.6886 -0.2558
  135TMC2    O2 2110   3.002   3.058  10.012 -0.3080 -0.1682 -0.3987
  135TMC2    O5 2111   3.117   2.921  10.153  0.3307 -0.1335 -0.0274
  135TMC2    H5 2112   3.211   2.898  10.172  0.3691  0.0852  0.0461
  136MPD2     C 2113   3.571   3.389   9.605  0.3217  0.2261 -0.4533
  136MPD2    C1 2114   3.608   3.255   9.615 -0.6311 -0.6321 -0.0309
  136MPD2    C2 2115   3.731   3.211   9.569  0.1986 -0.3449 -0.0255
  136MPD2    C3 2116   3.800   3.284   9.481  0.2804  0.0898  0.2495
  136MPD2    C4 2117   3.750   3.411   9.453 -0.5802  0.5338 -0.1744
  136MPD2    C5 2118   3.645   3.464   9.521  0.4052 -0.5209  0.0752
  136MPD2     H 2119   3.734   3.105   9.591 -3.5734 -0.5653 -0.5218
  136MPD2    H1 2120   3.808   3.477   9.388  0.6518 -0.1127  0.2690
  136MPD2    H2 2121   3.486   3.432   9.656  0.5307  0.7348 -0.5407
  136MPD2    H3 2122   3.613   3.567   9.509  1.3931 -0.0100  1.6789
  136MPD2     N 2123   3.930   3.252   9.431 -0.3057  0.7447 -0.1392
  136MPD2    H5 2124   3.975   3.328   9.382  1.4773 -0.8272 -0.9310
  136MPD2    N1 2125   3.541   3.157   9.694 -0.1063  0.0733 -0.3342
  136MPD2    H7 2126   3.587   3.067   9.699  1.4009  0.9992  2.1698
  137TMC2    C1 2127   3.475   2.025   9.655 -0.2125  0.2964  1.1102
  137TMC2    C2 2128   3.492   2.051   9.516 -0.3121 -0.9576  0.4450
  137TMC2    C3 2129   3.422   2.158   9.468  0.5134  0.3964 -0.5086
  137TMC2    C4 2130   3.395   2.097   9.741  0.5475 -0.1660 -0.0160
  137TMC2    C5 2131   3.337   2.207   9.675  0.4048  0.2165  0.4764
  137TMC2    C6 2132   3.344   2.232   9.543  0.7742  0.0107 -0.5667
  137TMC2     C 2133   3.572   1.942   9.711 -0.7230  0.2748 -0.3973
  137TMC2     O 2134   3.607   1.973   9.824 -0.2952  0.5463 -0.3064
  137TMC2     H 2135   3.548   1.982   9.454 -0.8039 -0.1636 -0.8820
  137TMC2    H1 2136   3.404   2.091   9.848 -0.5814  1.2006  0.1550
  137TMC2    H2 2137   3.296   2.318   9.496 -0.7326 -0.8641 -0.6237
  137TMC2    C7 2138   3.259   2.301   9.754 -0.6732  0.0275  0.2353
  137TMC2    C8 2139   3.420   2.176   9.328 -0.2646 -0.5915  0.0782
  137TMC2    O1 2140   3.240   2.409   9.702  0.6499  0.6502  0.3450
  137TMC2    O2 2141   3.433   2.089   9.240  0.5051  0.3765  0.5873
  137TMC2    O5 2142   3.448   2.308   9.313  0.0617 -0.6325  0.1520
  137TMC2    H5 2143   3.475   2.357   9.394 -1.8814 -1.2135  1.1342
  138MPD2     C 2144   3.667   1.606   9.590 -0.3970 -0.5841  0.3306
  138MPD2    C1 2145   3.665   1.709   9.677  0.0424 -0.1860  0.4960
  138MPD2    C2 2146   3.722   1.696   9.804 -0.3786 -0.7561 -0.2640
  138MPD2    C3 2147   3.745   1.573   9.859 -0.0190  0.1042 -0.3413
  138MPD2    C4 2148   3.731   1.466   9.766  0.5982  0.2053  0.3476
  138MPD2    C5 2149   3.694   1.480   9.634  0.1939  0.5439  0.3180
  138MPD2     H 2150   3.723   1.783   9.870  2.1746  0.0315 -1.3157
  138MPD2    H1 2151   3.768   1.368   9.794 -0.8527 -0.7543 -1.0650
  138MPD2    H2 2152   3.640   1.626   9.486  0.7719  1.3802  0.4167
  138MPD2    H3 2153   3.709   1.398   9.565 -1.8489  1.6697 -1.4953
  138MPD2     N 2154   3.782   1.553   9.995  0.4044 -0.4157 -0.6037
  138MPD2    H5 2155   3.789   1.638  10.051  1.1921 -0.6256 -0.3932
  138MPD2    N1 2156   3.603   1.831   9.630 -0.3092  0.0953 -0.4185
  138MPD2    H7 2157   3.555   1.834   9.541 -1.7453  0.9885  0.3986
  139TMC2    C1 2158   4.064   0.984  13.973  0.0352  0.2328  0.1261
  139TMC2    C2 2159   4.143   1.013  13.868 -0.0527  0.2005  0.0805
  139TMC2    C3 2160   4.108   1.124  13.790  0.0138 -0.1797  0.6970
  139TMC2    C4 2161   3.955   1.061  14.011 -0.2790  0.0794  0.6148
  139TMC2    C5 2162   3.925   1.162  13.926  0.0783 -0.2746 -1.2412
  139TMC2    C6 2163   3.998   1.198  13.821  0.4176  1.0996 -0.1194
  139TMC2     C 2164   4.051   0.844  14.019 -0.1522 -0.8646 -0.2727
  139TMC2     O 2165   3.947   0.806  14.072 -0.3439  0.1132  0.4435
  139TMC2     H 2166   4.225   0.949  13.836 -1.0864 -0.6423 -0.9056
  139TMC2    H1 2167   3.885   1.025  14.086 -0.0621  1.4312  1.4697
  139TMC2    H2 2168   3.976   1.291  13.770 -1.1620  0.7796 -0.0118
  139TMC2    C7 2169   3.806   1.238  13.947 -0.1855 -0.1476 -0.6267
  139TMC2    C8 2170   4.160   1.127  13.657  1.1209 -0.0463  0.0770
  139TMC2    O1 2171   3.752   1.290  13.849 -0.3522  0.1331 -0.2912
  139TMC2    O2 2172   4.273   1.177  13.639 -0.0418  0.6727 -0.0088
  139TMC2    O5 2173   4.117   1.010  13.608  0.1618  0.0268 -0.4507
  139TMC2    H5 2174   4.034   0.980  13.651 -0.3676  3.1967  0.8025
  140MPD2     C 2175   4.289   0.562  14.014 -0.3533  0.0301 -0.4421
  140MPD2    C1 2176   4.170   0.627  14.011 -0.6604 -0.1419  0.0982
  140MPD2    C2 2177   4.064   0.534  14.013 -0.4153  0.2826  0.2175
  140MPD2    C3 2178   4.078   0.396  14.020  0.2298 -0.6863 -0.8186
  140MPD2    C4 2179   4.201   0.338  14.028 -0.3129  0.3137 -0.5103
  140MPD2    C5 2180   4.303   0.429  14.029 -0.1001 -1.2061  0.2626
  140MPD2     H 2181   3.964   0.575  14.020 -1.1202 -1.3967  0.0639
  140MPD2    H1 2182   4.228   0.233  14.028 -1.2577  0.0651  1.7143
  140MPD2    H2 2183   4.378   0.621  14.031  0.7610 -1.1196 -2.3117
  140MPD2    H3 2184   4.405   0.394  14.026  0.6166  0.7825  1.4188
  140MPD2     N 2185   3.963   0.326  13.991  0.3677  0.0364  0.3127
  140MPD2    H5 2186   3.884   0.390  13.980  0.5584  0.1631 -0.3247
  140MPD2    N1 2187   4.162   0.770  13.998  0.2813  0.6919  0.5983
  140MPD2    H7 2188   4.241   0.831  13.982  2.0350 -2.0228 -1.0623
  141TMC2    C1 2189   4.595   1.708  14.379  0.3032  0.0670 -0.0489
  141TMC2    C2 2190   4.515   1.603  14.399  0.0617 -0.3129  0.5281
  141TMC2    C3 2191   4.554   1.505  14.483 -0.7674  0.3649  0.6518
  141TMC2    C4 2192   4.710   1.726  14.447 -0.3280 -0.4361  0.6501
  141TMC2    C5 2193   4.731   1.634  14.548 -0.7499 -0.5239  0.4490
  141TMC2    C6 2194   4.668   1.515  14.558  0.0841  0.5514  0.8004
  141TMC2     C 2195   4.567   1.783  14.260 -0.1920 -0.2906  0.0156
  141TMC2     O 2196   4.663   1.798  14.181 -0.7956  0.2655  0.5526
  141TMC2     H 2197   4.414   1.597  14.360 -0.0781 -1.4824  1.0835
  141TMC2    H1 2198   0.030   1.817  14.429  1.3825 -1.6330 -0.0323
  141TMC2    H2 2199   4.680   1.457  14.649  2.4683  0.5146  0.4419
  141TMC2    C7 2200   0.084   1.665  14.656  0.0160  0.0783  0.4722
  141TMC2    C8 2201   4.470   1.396  14.493  0.1424 -0.8557 -0.2108
  141TMC2    O1 2202   0.119   1.582  14.737 -0.0488 -0.7622 -0.2930
  141TMC2    O2 2203   4.355   1.396  14.451  0.5671 -0.1779  0.0736
  141TMC2    O5 2204   4.546   1.284  14.526 -0.4656  0.2545  0.0354
  141TMC2    H5 2205   4.642   1.305  14.525 -0.0349 -1.9092 -1.6216
  142TMC2    C1 2206   1.488   0.511   9.966 -0.0044 -0.4843 -0.5077
  142TMC2    C2 2207   1.390   0.530   9.872 -0.1777  0.3266  0.3072
  142TMC2    C3 2208   1.412   0.623   9.774  0.2391 -0.1253 -0.1464
  142TMC2    C4 2209   1.602   0.578   9.966 -0.1292 -0.5297  0.2070
  142TMC2    C5 2210   1.615   0.671   9.871 -0.6178 -0.1195 -0.2111
  142TMC2    C6 2211   1.526   0.702   9.772 -0.3581 -0.4213 -0.0646
  142TMC2     C 2212   1.446   0.427  10.081 -0.0711  0.4978  0.0572
  142TMC2     O 2213   1.326   0.410  10.090  0.6064  0.4787 -0.1446
  142TMC2     H 2214   1.286   0.501   9.885 -0.7662  1.5268 -1.7740
  142TMC2    H1 2215   1.686   0.568  10.034 -0.7684 -0.7397  0.9636
  142TMC2    H2 2216   1.544   0.756   9.680 -1.0187  0.0852  0.1003
  142TMC2    C7 2217   1.744   0.732   9.874  0.7317 -0.6543 -0.2281
  142TMC2    C8 2218   1.301   0.664   9.686  0.2814 -0.4631 -0.7924
  142TMC2    O1 2219   1.838   0.661   9.907 -0.2208 -0.4019 -0.0632
  142TMC2    O2 2220   1.285   0.771   9.638 -0.4648 -0.3970  0.4616
  142TMC2    O5 2221   1.205   0.571   9.683  0.5855 -0.0874  0.0678
  142TMC2    H5 2222   1.224   0.486   9.727  1.0418 -0.5496 -1.0408
  143MPD2     C 2223   1.541   0.132  10.509 -0.0676  0.4598  0.7854
  143MPD2    C1 2224   1.424   0.167  10.450  0.2039  0.4293  0.0232
  143MPD2    C2 2225   1.436   0.256  10.338 -0.1388  0.1801 -0.0574
  143MPD2    C3 2226   1.555   0.286  10.278 -0.1116 -0.0939  0.1715
  143MPD2    C4 2227   1.671   0.232  10.327 -0.1755  0.5699 -0.2900
  143MPD2    C5 2228   1.664   0.155  10.442 -0.0358  0.3481  0.3582
  143MPD2     H 2229   1.345   0.295  10.294 -0.6439  0.6455  1.3843
  143MPD2    H1 2230   1.769   0.258  10.290 -0.5959 -0.8043 -2.3994
  143MPD2    H2 2231   1.536   0.062  10.591  0.2630  0.3659  0.7258
  143MPD2    H3 2232   1.749   0.112  10.493 -0.4760 -1.7795 -0.7078
  143MPD2     N 2233   1.551   0.369  10.154 -0.3329 -0.0936  0.3178
  143MPD2    H5 2234   1.641   0.373  10.109 -1.4744 -0.8093 -2.0370
  143MPD2    N1 2235   1.306   0.129  10.514  0.0164  0.4172  0.1342
  143MPD2    H7 2236   1.323   0.065  10.591  2.7749  0.7003 -0.2271
  144TMC2    C1 2237   0.593   4.263   0.831 -0.4007  0.0363  0.3701
  144TMC2    C2 2238   0.650   4.150   0.768  0.1993 -0.3894 -0.1565
  144TMC2    C3 2239   0.758   4.092   0.831  0.0049 -0.0980 -1.0489
  144TMC2    C4 2240   0.669   4.336   0.925 -0.0987 -0.2060  0.1487
  144TMC2    C5 2241   0.779   4.277   0.979 -0.0079  0.2865  0.2642
  144TMC2    C6 2242   0.819   4.156   0.935 -0.2995  0.1463 -0.0304
  144TMC2     C 2243   0.475   4.320   0.766  0.8986 -0.0945  0.0740
  144TMC2     O 2244   0.436   4.261   0.667  0.2967  0.2296  0.2577
  144TMC2     H 2245   0.593   4.095   0.694 -0.9670  2.3342 -1.3056
  144TMC2    H1 2246   0.638   4.434   0.957  0.8749  1.1132 -2.9834
  144TMC2    H2 2247   0.905   4.105   0.977  0.2165  0.1995 -1.0199
  144TMC2    C7 2248   0.883   4.360   1.051  0.6766  0.5152  0.5026
  144TMC2    C8 2249   0.756   3.947   0.854 -0.7089  0.5294 -0.4641
  144TMC2    O1 2250   1.002   4.323   1.043  0.7275 -0.3077 -0.0619
  144TMC2    O2 2251   0.748   3.906   0.968 -0.0789 -0.2578  0.2181
  144TMC2    O5 2252   0.710   3.888   0.744 -0.5465  0.2742 -0.1765
  144TMC2    H5 2253   0.728   3.935   0.660 -0.2980  2.0179  0.8564
  145MPD2     C 2254   0.145   4.697   0.681 -0.2011 -0.4013  0.2545
  145MPD2    C1 2255   0.145   4.570   0.628 -0.7686 -0.3573 -0.6143
  145MPD2    C2 2256   0.240   4.481   0.675  0.1249 -0.4844  0.0747
  145MPD2    C3 2257   0.337   4.527   0.763  0.0420 -0.1130 -0.5925
  145MPD2    C4 2258   0.332   4.655   0.813 -0.0044  0.4894 -0.0859
  145MPD2    C5 2259   0.245   0.010   0.757 -0.2320 -0.3060  0.6750
  145MPD2     H 2260   0.246   4.379   0.638  1.4125 -1.1062  1.9450
  145MPD2    H1 2261   0.394   4.693   0.893 -3.6583 -1.6223  3.7627
  145MPD2    H2 2262   0.067   0.032   0.661 -0.3220 -0.2424  1.3059
  145MPD2    H3 2263   0.255   0.112   0.793 -1.4617  1.0711 -2.8589
  145MPD2     N 2264   0.446   4.445   0.809 -0.0740 -0.6001 -0.9974
  145MPD2    H5 2265   0.519   4.491   0.861  1.3934 -3.7952 -0.2048
  145MPD2    N1 2266   0.051   4.538   0.521  0.3137 -0.2225  0.7050
  145MPD2    H7 2267   0.052   4.443   0.487 -1.7012 -0.3779  1.0611
  146TMC2    C1 2268   2.087   3.044  12.273  0.6560  0.2536  0.3624
  146TMC2    C2 2269   2.044   3.022  12.143 -0.0084  0.0443 -0.2356
  146TMC2    C3 2270   2.131   2.954  12.059 -0.2286 -0.1242 -0.4908
  146TMC2    C4 2271   2.213   3.001  12.318  0.1043  0.6097  1.1319
  146TMC2    C5 2272   2.295   2.940  12.222 -0.8314  0.1682  0.5890
  146TMC2    C6 2273   2.259   2.918  12.096  0.0749  0.2872  0.4411
  146TMC2     C 2274   1.991   3.095  12.366 -0.0271 -0.0137  0.1213
  146TMC2     O 2275   1.900   3.164  12.321 -0.8574 -0.1403  0.6243
  146TMC2     H 2276   1.950   3.061  12.106  0.6566  0.4387 -1.5358
  146TMC2    H1 2277   2.251   3.035  12.414 -0.0715  0.7810  1.1412
  146TMC2    H2 2278   2.327   2.859  12.034 -0.9436  2.1200 -2.4349
  146TMC2    C7 2279   2.437   2.917  12.253  0.0569  0.1401  0.3112
  146TMC2    C8 2280   2.098   2.972  11.921 -0.3249 -0.1141  1.0638
  146TMC2    O1 2281   2.516   2.911  12.159  0.7727 -0.1900  0.3181
  146TMC2    O2 2282   1.984   3.006  11.891  0.5904  0.3681  0.0729
  146TMC2    O5 2283   2.187   2.926  11.831  0.1226  0.0707  0.1133
  146TMC2    H5 2284   2.280   2.915  11.862 -0.9120 -2.1592  2.4255
  147MPD2     C 2285   2.828   2.813  12.582  0.3379  0.1635 -0.6585
  147MPD2    C1 2286   2.709   2.818  12.655  0.5264 -0.8336  0.2878
  147MPD2    C2 2287   2.589   2.854  12.585  0.3861  0.0632  0.4587
  147MPD2    C3 2288   2.581   2.875  12.450  0.1544 -0.0567 -0.1185
  147MPD2    C4 2289   2.703   2.850  12.383  0.5076  0.1816  0.2722
  147MPD2    C5 2290   2.818   2.817  12.447 -0.2939 -0.1946  0.2862
  147MPD2     H 2291   2.498   2.875  12.640 -0.7272 -0.0868 -1.2958
  147MPD2    H1 2292   2.710   2.858  12.275 -1.3302 -2.3980 -0.0508
  147MPD2    H2 2293   2.918   2.785  12.634 -0.0877  0.2828  0.1351
  147MPD2    H3 2294   2.905   2.799  12.385  0.5511  0.2782  1.3420
  147MPD2     N 2295   2.453   2.900  12.392  0.4188  0.0949 -0.2516
  147MPD2    H5 2296   2.374   2.913  12.455 -0.9838 -1.8774 -1.5797
  147MPD2    N1 2297   2.721   2.782  12.800 -0.0805 -0.1697 -0.6764
  147MPD2    H7 2298   2.804   2.739  12.839 -0.8515  0.4839  1.6716
  148TMC2    C1 2299   2.007   1.856  10.688 -0.4701 -0.0167  0.3412
  148TMC2    C2 2300   2.092   1.898  10.788 -0.4854  0.4262  0.1879
  148TMC2    C3 2301   2.212   1.831  10.789 -0.3641 -0.5730 -0.5748
  148TMC2    C4 2302   2.056   1.771  10.592 -0.3182  0.1933 -0.4819
  148TMC2    C5 2303   2.175   1.713  10.596  0.3552 -0.5276 -0.2553
  148TMC2    C6 2304   2.257   1.742  10.694  0.1618 -0.1597 -0.2912
  148TMC2     C 2305   1.865   1.877  10.704 -0.9736  0.1194 -0.1609
  148TMC2     O 2306   1.831   1.982  10.757 -0.0915 -0.1643  0.0210
  148TMC2     H 2307   2.063   1.974  10.860  1.4298  0.8598  0.5155
  148TMC2    H1 2308   1.995   1.743  10.506 -1.5211 -0.5553  0.6277
  148TMC2    H2 2309   2.359   1.707  10.693  0.0250 -0.5530 -0.3133
  148TMC2    C7 2310   2.178   1.582  10.535  1.2359 -0.5104 -0.1638
  148TMC2    C8 2311   2.283   1.828  10.914  0.3391  0.7793 -0.1390
  148TMC2    O1 2312   2.095   1.567  10.446  0.0061  0.3924 -0.2574
  148TMC2    O2 2313   2.405   1.798  10.915  0.5236  0.7448  0.1021
  148TMC2    O5 2314   2.199   1.753  10.992 -0.0901 -0.0452  0.1493
  148TMC2    H5 2315   2.108   1.774  10.963 -0.0178  0.8242  0.5516
  149MPD2     C 2316   1.566   1.885  10.655  0.1319 -0.2194 -1.1448
  149MPD2    C1 2317   1.648   1.770  10.640  0.9059 -0.8210  0.3980
  149MPD2    C2 2318   1.588   1.640  10.646  0.3989 -0.0043 -0.5221
  149MPD2    C3 2319   1.446   1.630  10.647 -0.2995  0.2578 -0.1850
  149MPD2    C4 2320   1.375   1.739  10.664  0.6383 -0.0412  0.6442
  149MPD2    C5 2321   1.434   1.865  10.666 -0.1204 -0.5848  0.3027
  149MPD2     H 2322   1.650   1.552  10.636 -0.3049 -0.3744 -1.6048
  149MPD2    H1 2323   1.266   1.741  10.665  0.6597  1.7090  0.4141
  149MPD2    H2 2324   1.606   1.986  10.656  1.0941 -0.6055 -0.2580
  149MPD2    H3 2325   1.375   1.954  10.683 -1.0689 -0.9498 -1.0591
  149MPD2     N 2326   1.375   1.503  10.671  0.4131 -0.0485 -0.1440
  149MPD2    H5 2327   1.274   1.503  10.680  0.6212  2.0346  2.0317
  149MPD2    N1 2328   1.793   1.775  10.635 -0.0518 -0.3917 -0.6863
  149MPD2    H7 2329   1.846   1.689  10.639  0.1228 -0.2938 -0.9074
  150TMC2    C1 2330   3.988   0.747  12.438  0.2392 -0.6772 -0.0963
  150TMC2    C2 2331   3.982   0.744  12.302  0.1006  0.4173  0.1300
  150TMC2    C3 2332   4.101   0.745  12.238  0.0087 -0.0661 -0.4755
  150TMC2    C4 2333   4.109   0.760  12.505 -0.0791  0.8405  0.3825
  150TMC2    C5 2334   4.221   0.771  12.437  0.4842 -0.1157  0.0147
  150TMC2    C6 2335   4.220   0.765  12.301  0.7283 -0.1374  0.5071
  150TMC2     C 2336   3.864   0.760  12.519 -0.1689  0.2631 -1.0635
  150TMC2     O 2337   3.853   0.730  12.638 -0.3555 -0.5245 -0.2663
  150TMC2     H 2338   3.887   0.732  12.251 -0.3294  0.5228  0.8973
  150TMC2    H1 2339   4.097   0.748  12.613 -2.0165 -0.6410  0.0124
  150TMC2    H2 2340   4.311   0.781  12.245  0.3539  1.2055  0.2783
  150TMC2    C7 2341   4.352   0.793  12.491  0.3065  0.2551  1.3022
  150TMC2    C8 2342   4.087   0.794  12.103  0.3722 -0.2009  0.1911
  150TMC2    O1 2343   4.446   0.821  12.414  0.1272 -0.2624  0.9646
  150TMC2    O2 2344   3.987   0.819  12.040 -0.5131 -0.4553 -0.2996
  150TMC2    O5 2345   4.196   0.753  12.036 -0.2678 -0.0835 -0.3630
  150TMC2    H5 2346   4.262   0.698  12.085 -0.9515 -0.5190  0.0579
  151MPD2     C 2347   3.378   0.953  12.523  0.1445  0.4507  1.0414
  151MPD2    C1 2348   3.435   0.979  12.401  0.0785 -0.4551 -0.3061
  151MPD2    C2 2349   3.569   0.939  12.378 -0.0217  0.7755  0.6636
  151MPD2    C3 2350   3.642   0.877  12.476 -0.2327 -0.2678 -0.2398
  151MPD2    C4 2351   3.582   0.848  12.597  0.6897 -0.3494 -0.0061
  151MPD2    C5 2352   3.449   0.881  12.612  0.3342 -0.7094 -0.3095
  151MPD2     H 2353   3.620   0.962  12.285  0.6559 -3.2904  0.0051
  151MPD2    H1 2354   3.630   0.790  12.675  0.3965  2.8973  2.5797
  151MPD2    H2 2355   3.273   0.972  12.546 -0.7498  0.8178 -3.4194
  151MPD2    H3 2356   3.400   0.845  12.701  0.3430 -0.0370 -0.0338
  151MPD2     N 2357   3.772   0.832  12.445  0.7724 -0.4793 -0.2008
  151MPD2    H5 2358   3.807   0.863  12.355  0.9360 -0.8085 -0.2483
  151MPD2    N1 2359   3.348   1.018  12.297  0.0978  0.8760  0.2028
  151MPD2    H7 2360   3.248   1.006  12.312  0.6772 -3.2351  0.7167
  152TMC2    C1 2361   3.585   0.675  13.197 -0.6227  0.0174 -0.5105
  152TMC2    C2 2362   3.689   0.589  13.191  0.3664 -1.1503 -0.1567
  152TMC2    C3 2363   3.798   0.630  13.259  0.7538 -0.0274  0.3424
  152TMC2    C4 2364   3.596   0.800  13.256 -0.4648 -0.6953 -0.2183
  152TMC2    C5 2365   3.717   0.841  13.306  0.1138 -0.0615  0.0362
  152TMC2    C6 2366   3.816   0.751  13.329 -0.2859  0.3144  0.6802
  152TMC2     C 2367   3.472   0.663  13.103 -0.3113 -0.3962  0.5730
  152TMC2     O 2368   3.413   0.765  13.070 -0.4999  0.6268  0.1174
  152TMC2     H 2369   3.699   0.504  13.126  0.4596  0.4117 -2.1931
  152TMC2    H1 2370   3.521   0.875  13.235 -0.2008 -0.3654  0.0181
  152TMC2    H2 2371   3.910   0.771  13.378 -0.6755 -1.1008  2.0173
  152TMC2    C7 2372   3.739   0.983  13.333 -0.5234 -0.2331 -0.3831
  152TMC2    C8 2373   3.884   0.525  13.308 -0.6125 -0.8496 -0.1414
  152TMC2    O1 2374   3.640   1.052  13.361 -0.1818 -0.3107  0.3987
  152TMC2    O2 2375   3.977   0.563  13.378 -0.2116  0.2192  0.2457
  152TMC2    O5 2376   3.803   0.416  13.343 -0.3252  0.0264 -0.2659
  152TMC2    H5 2377   3.725   0.393  13.289 -0.6412 -0.7852  0.5434
  153MPD2     C 2378   3.355   0.348  12.943 -0.1347 -0.6995  0.8540
  153MPD2    C1 2379   3.361   0.481  12.965 -0.7549 -0.7924 -0.0171
  153MPD2    C2 2380   3.271   0.562  12.895  0.1085  0.8245  0.4057
  153MPD2    C3 2381   3.182   0.511  12.800 -1.0634  0.5038  0.2038
  153MPD2    C4 2382   3.190   0.377  12.775 -0.1898 -0.9660 -0.0020
  153MPD2    C5 2383   3.270   0.292  12.857 -0.2929 -0.6605 -0.7279
  153MPD2     H 2384   3.279   0.668  12.914  0.9120  0.7984  0.2495
  153MPD2    H1 2385   3.125   0.341  12.696  0.0923 -1.5817  0.0480
  153MPD2    H2 2386   3.418   0.284  13.002 -0.8464 -2.2997 -0.0968
  153MPD2    H3 2387   3.272   0.185  12.845  1.2445 -0.7254  0.1488
  153MPD2     N 2388   3.093   0.594  12.725  0.0102  0.7153  0.0581
  153MPD2    H5 2389   3.115   0.693  12.724 -1.8755  1.1044 -2.2936
  153MPD2    N1 2390   3.457   0.533  13.063 -0.0405 -0.0518  0.0052
  153MPD2    H7 2391   3.504   0.457  13.110  1.3197  1.1006  0.4977
  154TMC2    C1 2392   3.988   1.534   0.177  0.2590 -0.3790  0.1404
  154TMC2    C2 2393   4.113   1.578   0.157 -0.5165  0.1847 -0.4130
  154TMC2    C3 2394   4.146   1.624   0.031 -0.3213  0.5097  0.2483
  154TMC2    C4 2395   3.892   1.536   0.078 -0.1144  0.2507 -0.9186
  154TMC2    C5 2396   3.924   1.572  17.696  0.1948  0.3522 -0.5966
  154TMC2    C6 2397   4.051   1.619  17.671 -0.2466 -0.1451  0.1555
  154TMC2     C 2398   3.962   1.508   0.315 -0.1427  0.3695 -0.1742
  154TMC2     O 2399   4.053   1.539   0.392 -0.8776  0.0072  0.3329
  154TMC2     H 2400   4.205   1.558   0.211 -0.3585  1.0161 -0.3753
  154TMC2    H1 2401   3.785   1.518   0.090 -0.1302 -0.4782 -2.1223
  154TMC2    H2 2402   4.077   1.664  17.575  0.2332  0.2148  0.4531
  154TMC2    C7 2403   3.820   1.564  17.597  0.6284 -0.0745 -0.4146
  154TMC2    C8 2404   4.272   1.681   0.011 -0.1527 -0.1863 -0.0649
  154TMC2    O1 2405   3.708   1.591  17.631  0.2216 -0.1704 -0.3559
  154TMC2    O2 2406   4.353   1.707   0.102 -0.3179  0.2865  0.3041
  154TMC2    O5 2407   4.302   1.665  17.630  0.2543  0.3399 -0.1761
  154TMC2    H5 2408   4.248   1.603  17.575 -1.0970 -1.6808  3.4347
  155MPD2     C 2409   3.647   1.431   0.487  0.1953  0.1197  0.4004
  155MPD2    C1 2410   3.782   1.446   0.471 -0.0900  0.5057  0.0653
  155MPD2    C2 2411   3.854   1.461   0.592 -0.0574  0.1220 -0.5510
  155MPD2    C3 2412   3.795   1.480   0.712  0.7551 -0.4174 -0.0392
  155MPD2    C4 2413   3.659   1.471   0.721 -0.2705 -0.2429 -0.0045
  155MPD2    C5 2414   3.583   1.451   0.608  0.0399 -0.2531 -0.2083
  155MPD2     H 2415   3.959   1.491   0.592 -0.2484  0.7871  0.8701
  155MPD2    H1 2416   3.612   1.476   0.819 -0.6613  2.8627 -0.3500
  155MPD2    H2 2417   3.584   1.443   0.399  1.0765 -2.3643 -0.5604
  155MPD2    H3 2418   3.474   1.442   0.606 -0.2280  3.4863 -0.9745
  155MPD2     N 2419   3.871   1.508   0.823 -0.2731 -0.3722  0.1692
  155MPD2    H5 2420   3.972   1.509   0.813 -0.1659  0.6966  1.3307
  155MPD2    N1 2421   3.837   1.455   0.338 -0.4299  0.1017  0.0850
  155MPD2    H7 2422   3.783   1.426   0.257 -1.7909 -0.2422  1.1004
  156TMC2    C1 2423   4.187   2.577  11.802 -0.0599 -0.1234 -0.3370
  156TMC2    C2 2424   4.182   2.444  11.785 -0.3077 -0.1890  0.2994
  156TMC2    C3 2425   4.091   2.395  11.692 -0.6690  0.0061 -0.9872
  156TMC2    C4 2426   4.112   2.665  11.726 -0.0390  0.4090  0.7523
  156TMC2    C5 2427   4.019   2.610  11.642  0.5087  0.3412 -0.3533
  156TMC2    C6 2428   4.005   2.472  11.626  0.3566 -0.4169  0.4959
  156TMC2     C 2429   4.221   2.632  11.931  0.4713  0.1998 -0.5369
  156TMC2     O 2430   4.243   2.753  11.952 -0.5899  0.5909 -0.1450
  156TMC2     H 2431   4.247   2.374  11.837  2.9196  1.7308 -1.1875
  156TMC2    H1 2432   4.119   2.771  11.748 -1.6704  0.2885  1.8385
  156TMC2    H2 2433   3.918   2.430  11.576 -0.1914  0.3231  0.8254
  156TMC2    C7 2434   3.919   2.701  11.580 -0.3738 -0.9880  0.1931
  156TMC2    C8 2435   4.093   2.252  11.662  0.2744 -0.1140 -0.6811
  156TMC2    O1 2436   3.917   2.821  11.617 -0.2460  0.7170  0.2066
  156TMC2    O2 2437   4.018   2.195  11.580 -0.1545 -0.3361 -0.2092
  156TMC2    O5 2438   4.209   2.201  11.706 -0.6875 -0.1357 -0.0311
  156TMC2    H5 2439   4.226   2.115  11.661  0.9993  0.3446 -0.3004
  157MPD2     C 2440   4.103   2.459  12.242  0.0411 -0.1647 -0.3549
  157MPD2    C1 2441   4.132   2.567  12.158  0.0497  0.1700 -0.9393
  157MPD2    C2 2442   4.127   2.693  12.214  0.5079 -0.1960 -0.5433
  157MPD2    C3 2443   4.085   2.715  12.345  0.1466  0.1354  0.2542
  157MPD2    C4 2444   4.060   2.605  12.427  0.2971 -0.1442  0.6636
  157MPD2    C5 2445   4.080   2.478  12.375 -0.2331 -1.0116 -0.2469
  157MPD2     H 2446   4.151   2.781  12.156 -2.4696 -0.2704 -1.8915
  157MPD2    H1 2447   4.040   2.619  12.532  0.3120  1.9992  0.3646
  157MPD2    H2 2448   4.122   2.359  12.205 -0.0912  0.2463 -1.5463
  157MPD2    H3 2449   4.068   2.393  12.441 -0.1997  0.1111  1.2148
  157MPD2     N 2450   4.057   2.851  12.384  0.2088 -0.0796 -0.2691
  157MPD2    H5 2451   4.066   2.921  12.312 -1.6567 -0.5817 -0.9845
  157MPD2    N1 2452   4.176   2.536  12.028 -0.1498 -0.0307  0.1599
  157MPD2    H7 2453   4.175   2.437  12.004 -3.0704  0.0062  0.1969
  158TMC2    C1 2454   3.997   2.017  13.193 -0.4253 -0.3595 -0.5122
  158TMC2    C2 2455   4.052   2.000  13.071  0.4215 -0.6499  0.7967
  158TMC2    C3 2456   3.968   1.952  12.970  0.0337 -0.0037 -0.3940
  158TMC2    C4 2457   3.863   1.977  13.214  0.0305 -0.8794  0.2643
  158TMC2    C5 2458   3.788   1.924  13.115 -0.7375  0.4380 -0.1425
  158TMC2    C6 2459   3.839   1.917  12.989 -0.0548 -0.0449 -0.9885
  158TMC2     C 2460   4.076   2.067  13.307 -0.3074  0.3513  0.3917
  158TMC2     O 2461   4.187   2.114  13.272  0.1770  0.1220 -0.0169
  158TMC2     H 2462   4.153   2.035  13.053  0.2094 -0.0978  0.6683
  158TMC2    H1 2463   3.808   2.010  13.301  0.7994  0.5267  0.2283
  158TMC2    H2 2464   3.777   1.891  12.904 -2.2065 -1.5043  1.0285
  158TMC2    C7 2465   3.646   1.952  13.122 -0.0740 -0.2218  0.3049
  158TMC2    C8 2466   4.011   1.980  12.837  0.1145  0.3652  0.0488
  158TMC2    O1 2467   3.587   1.994  13.020 -0.0545  0.2487 -0.7253
  158TMC2    O2 2468   4.125   1.955  12.803  0.1600 -0.1400  0.3335
  158TMC2    O5 2469   3.918   2.062  12.775 -0.6379  0.3706 -0.2340
  158TMC2    H5 2470   3.828   2.056  12.812 -0.8200  2.8019 -0.3078
  159MPD2     C 2471   4.164   2.162  13.799 -0.6721 -0.3054 -0.3497
  159MPD2    C1 2472   4.040   2.103  13.793  0.2244  0.1067 -0.7663
  159MPD2    C2 2473   3.994   2.061  13.667 -0.4507  0.5952 -0.3383
  159MPD2    C3 2474   4.078   2.078  13.555 -0.2471 -1.0318 -0.1703
  159MPD2    C4 2475   4.188   2.155  13.561 -0.2720  0.4313 -0.3259
  159MPD2    C5 2476   4.239   2.186  13.686  0.3170  0.1633 -0.0689
  159MPD2     H 2477   3.895   2.023  13.644  0.7554 -2.1505 -1.0148
  159MPD2    H1 2478   4.245   2.190  13.475 -0.2958  2.8173  0.6260
  159MPD2    H2 2479   4.221   2.172  13.891  0.1160  0.6120 -0.9414
  159MPD2    H3 2480   4.332   2.240  13.700  0.5385  0.4240 -2.5201
  159MPD2     N 2481   4.024   2.036  13.431  0.1762 -0.0535  0.7170
  159MPD2    H5 2482   3.944   1.975  13.434  0.8437 -1.0446 -1.3848
  159MPD2    N1 2483   3.979   2.071  13.915  0.5002  0.4057  0.3351
  159MPD2    H7 2484   4.015   2.127  13.992 -1.0416 -0.8804  1.9629
  160TMC2    C1 2485   3.685   0.355   1.086  0.1852  0.9502  0.4990
  160TMC2    C2 2486   3.581   0.297   1.031 -0.4144 -0.2732 -0.0793
  160TMC2    C3 2487   3.572   0.159   1.026 -0.0975  0.8439 -0.5731
  160TMC2    C4 2488   3.793   0.286   1.131  0.5431  0.1062  0.2045
  160TMC2    C5 2489   3.787   0.150   1.118  0.2843 -0.8858  0.2480
  160TMC2    C6 2490   3.679   0.080   1.073  0.2275  0.0988  0.0192
  160TMC2     C 2491   3.698   0.502   1.100 -0.1589  0.0223  0.6383
  160TMC2     O 2492   3.802   0.540   1.153  0.3228  0.5644  0.5632
  160TMC2     H 2493   3.499   0.356   0.992  0.2647  0.6945 -0.0365
  160TMC2    H1 2494   3.878   0.335   1.175 -0.0815  0.6041  0.8528
  160TMC2    H2 2495   3.674   4.709   1.072 -2.2776  0.2202 -0.0161
  160TMC2    C7 2496   3.894   0.077   1.184  0.2841 -0.1021  0.1278
  160TMC2    C8 2497   3.447   0.088   0.999  0.1982 -0.4722 -0.2109
  160TMC2    O1 2498   3.868   4.700   1.214  0.2848  0.3232  0.5134
  160TMC2    O2 2499   3.443   4.706   0.962 -0.2448  0.6869  0.3674
  160TMC2    O5 2500   3.345   0.178   0.996 -0.3489 -0.0411 -0.3960
  160TMC2    H5 2501   3.349   0.262   1.046  1.1988  0.0653 -0.6993
  161MPD2     C 2502   3.648   0.785   1.171 -0.6495  0.2833 -0.0903
  161MPD2    C1 2503   3.561   0.709   1.099  0.3190  0.8194 -0.1205
  161MPD2    C2 2504   3.438   0.755   1.062 -0.7580  0.3544  0.0548
  161MPD2    C3 2505   3.417   0.893   1.063 -0.4844 -0.3001 -0.0408
  161MPD2    C4 2506   3.514   0.974   1.124  0.4019  0.1587 -0.3591
  161MPD2    C5 2507   3.631   0.919   1.177  0.3880  0.3379  0.4284
  161MPD2     H 2508   3.365   0.681   1.030 -0.4519  0.4124 -0.7828
  161MPD2    H1 2509   3.502   1.080   1.142 -0.5911 -0.1221  0.6341
  161MPD2    H2 2510   3.739   0.753   1.221 -1.2297 -0.2189  0.6474
  161MPD2    H3 2511   3.712   0.984   1.208 -0.1592  2.8241 -3.2858
  161MPD2     N 2512   3.307   0.944   0.997  0.1438 -0.2802  0.0095
  161MPD2    H5 2513   3.291   1.045   1.000 -0.7377 -0.3664 -1.4894
  161MPD2    N1 2514   3.588   0.575   1.067 -0.4441 -0.0591 -0.0182
  161MPD2    H7 2515   3.507   0.534   1.023 -1.3175  1.3033  0.3273
  162TMC2    C1 2516   1.445   2.030   1.201 -0.2881 -0.3525  0.3751
  162TMC2    C2 2517   1.333   2.060   1.279  1.1851  0.2889  0.4838
  162TMC2    C3 2518   1.348   2.074   1.409  0.2178 -0.8571  0.1979
  162TMC2    C4 2519   1.569   2.006   1.254 -0.2399  0.0008 -0.0832
  162TMC2    C5 2520   1.569   2.012   1.395 -0.5569 -0.1445 -0.0629
  162TMC2    C6 2521   1.464   2.051   1.472  0.6698 -0.6423 -0.1947
  162TMC2     C 2522   1.433   1.994   1.057 -0.1153 -1.2504 -0.0688
  162TMC2     O 2523   1.532   1.946   1.002 -0.1520 -0.4794 -0.3433
  162TMC2     H 2524   1.233   2.062   1.237  1.3693  0.4475  0.0515
  162TMC2    H1 2525   1.652   1.965   1.197 -1.3825 -0.0022 -1.7695
  162TMC2    H2 2526   1.481   2.064   1.578  0.5259  1.1988 -0.4018
  162TMC2    C7 2527   1.690   1.980   1.466  0.2718 -0.0122  0.6324
  162TMC2    C8 2528   1.233   2.062   1.487  0.4129 -0.1585  0.3339
  162TMC2    O1 2529   1.696   2.034   1.578 -0.6377 -0.2034 -0.1183
  162TMC2    O2 2530   1.120   2.035   1.441  0.0756 -0.2577  0.3118
  162TMC2    O5 2531   1.257   2.113   1.612  0.1995  0.1078 -0.3321
  162TMC2    H5 2532   1.341   2.161   1.630  0.4317 -1.2346  2.2272
  163MPD2     C 2533   1.165   1.915   0.627 -0.2399  0.2035 -0.2553
  163MPD2    C1 2534   1.297   1.897   0.655 -0.1843 -0.4238 -0.4994
  163MPD2    C2 2535   1.352   1.935   0.779 -0.0736 -0.3058  0.0408
  163MPD2    C3 2536   1.268   1.985   0.873  0.2254  0.1776 -0.4791
  163MPD2    C4 2537   1.138   2.004   0.843  0.0348 -0.4685  0.5328
  163MPD2    C5 2538   1.085   1.971   0.721  0.0448 -0.4565 -0.2448
  163MPD2     H 2539   1.459   1.952   0.786 -0.1153 -0.1586  0.2822
  163MPD2    H1 2540   1.064   2.042   0.912 -1.0583 -0.3501 -0.7041
  163MPD2    H2 2541   1.124   1.873   0.536 -1.3681 -0.4830  0.5666
  163MPD2    H3 2542   0.987   2.012   0.699  0.5579  1.2315  0.5750
  163MPD2     N 2543   1.308   2.017   1.007 -0.4171 -0.5554 -0.3060
  163MPD2    H5 2544   1.230   2.039   1.069  0.3058 -1.3778  0.8974
  163MPD2    N1 2545   1.371   1.822   0.565  0.2162 -0.9597  0.2153
  163MPD2    H7 2546   1.327   1.801   0.476 -0.5793 -3.4091  1.1877
  164TMC2    C1 2547   2.240   1.596  11.261 -0.5291  0.4973  0.1049
  164TMC2    C2 2548   2.362   1.656  11.258  0.1034 -0.1022  0.0499
  164TMC2    C3 2549   2.386   1.759  11.340 -0.3770  0.8718  0.6505
  164TMC2    C4 2550   2.147   1.646  11.347 -0.4554  0.1686  0.1312
  164TMC2    C5 2551   2.165   1.758  11.417 -0.0813  0.2744 -0.5773
  164TMC2    C6 2552   2.284   1.819  11.407 -0.3517  1.0302 -0.2871
  164TMC2     C 2553   2.224   1.468  11.187 -0.6831 -0.1424 -0.4592
  164TMC2     O 2554   2.116   1.420  11.178  0.0494  0.0495 -0.5160
  164TMC2     H 2555   2.448   1.617  11.205  0.8780  1.5156  0.1228
  164TMC2    H1 2556   2.050   1.599  11.352 -0.0166 -0.4682  2.6880
  164TMC2    H2 2557   2.296   1.910  11.465  0.9800  0.5116  0.2358
  164TMC2    C7 2558   2.048   1.808  11.484 -0.1778 -0.2183 -0.1246
  164TMC2    C8 2559   2.521   1.812  11.347 -0.1668  0.7107  0.4854
  164TMC2    O1 2560   1.943   1.758  11.446  0.7526  0.3642  0.2255
  164TMC2    O2 2561   2.623   1.745  11.333 -0.0159  0.3747  0.0877
  164TMC2    O5 2562   2.520   1.949  11.332 -0.3395 -0.1585 -0.3435
  164TMC2    H5 2563   2.432   1.978  11.299  0.3477  1.9170 -0.3622
  165TMC2    C1 2564   3.094   4.621   1.144  0.3397  0.3049 -0.1777
  165TMC2    C2 2565   3.072   4.732   1.222  0.2142  0.9694 -0.2895
  165TMC2    C3 2566   3.170   0.043   1.297 -0.2423  0.5006 -0.0115
  165TMC2    C4 2567   3.214   4.560   1.140  0.0186 -0.7661  0.7088
  165TMC2    C5 2568   3.305   4.607   1.234  0.1285 -0.1542  0.2283
  165TMC2    C6 2569   3.290   4.718   1.312  0.4183  0.0167  0.3020
  165TMC2     C 2570   2.985   4.556   1.079 -1.1504 -0.0274  0.1184
  165TMC2     O 2571   2.996   4.436   1.073  0.3193 -0.0818 -0.1560
  165TMC2     H 2572   2.978   0.049   1.220  0.0474  0.5645 -4.1081
  165TMC2    H1 2573   3.228   4.463   1.092  1.1825  0.0516 -0.6246
  165TMC2    H2 2574   3.368   0.023   1.375  1.4660 -0.5629 -0.6200
  165TMC2    C7 2575   3.436   4.536   1.235 -0.2236  0.1392 -0.2309
  165TMC2    C8 2576   3.132   0.156   1.384  0.3179  0.1589 -1.0301
  165TMC2    O1 2577   3.527   4.610   1.272  0.4840  0.2711 -0.3030
  165TMC2    O2 2578   3.090   0.260   1.337 -0.3015 -0.0308  0.2113
  165TMC2    O5 2579   3.205   0.164   1.495 -0.1507  0.2915  0.0050
  165TMC2    H5 2580   3.232   0.081   1.540  1.6807  0.9436  0.1009
  166MPD2     C 2581   2.509   4.537   0.871  0.4167  0.0845  0.3214
  166MPD2    C1 2582   2.586   4.436   0.913  0.4869 -0.3901  0.2103
  166MPD2    C2 2583   2.711   4.469   0.975  0.2056 -0.7499 -0.1566
  166MPD2    C3 2584   2.759   4.600   0.989 -0.7238  0.1706 -0.4219
  166MPD2    C4 2585   2.668   4.699   0.949  0.2083 -0.6247  0.2421
  166MPD2    C5 2586   2.554   4.665   0.881 -0.0045 -0.2209 -0.0937
  166MPD2     H 2587   2.775   4.390   1.012 -1.7523 -2.2566  0.0042
  166MPD2    H1 2588   2.698   0.066   0.961 -0.1652 -0.3286 -1.3173
  166MPD2    H2 2589   2.410   4.514   0.834  0.2736  1.9744 -0.4406
  166MPD2    H3 2590   2.489   0.008   0.844 -1.5754 -0.6180  1.8670
  166MPD2     N 2591   2.880   4.640   1.047  0.1589 -0.1518  0.6136
  166MPD2    H5 2592   2.909   4.736   1.057 -0.0739 -0.1222  1.0049
  166MPD2    N1 2593   2.538   4.302   0.904 -0.1283 -0.6305  0.2100
  166MPD2    H7 2594   2.450   4.289   0.855  0.9283 -2.0811 -1.3313
  167TMC2    C1 2595   1.435   1.481  12.871 -0.0759 -0.1138 -0.3402
  167TMC2    C2 2596   1.332   1.422  12.799 -0.6713  0.3761 -0.3487
  167TMC2    C3 2597   1.276   1.314  12.850 -0.5993  0.1915 -0.7900
  167TMC2    C4 2598   1.482   1.421  12.985 -0.2367  0.1178  0.3027
  167TMC2    C5 2599   1.417   1.311  13.034  0.9440  0.0968  0.1364
  167TMC2    C6 2600   1.323   1.252  12.963  0.0594 -0.3036 -0.3513
  167TMC2     C 2601   1.539   1.539  12.796 -0.0224 -0.6978 -0.1032
  167TMC2     O 2602   1.643   1.474  12.807  0.1015  0.3602 -0.4642
  167TMC2     H 2603   1.295   1.461  12.705 -3.0954 -1.7710 -0.2927
  167TMC2    H1 2604   1.570   1.467  13.030 -0.1248  1.0957 -0.9053
  167TMC2    H2 2605   1.277   1.157  12.988 -0.3851  0.6141  2.2567
  167TMC2    C7 2606   1.510   1.221  13.083  0.4711  0.1678  0.2421
  167TMC2    C8 2607   1.143   1.282  12.813 -0.0353 -0.5355  0.1133
  167TMC2    O1 2608   1.465   1.151  13.170 -0.5020  0.3374 -0.1670
  167TMC2    O2 2609   1.110   1.165  12.812 -0.1595 -0.2162 -0.2999
  167TMC2    O5 2610   1.067   1.390  12.779 -0.6183  0.3091 -0.0899
  167TMC2    H5 2611   1.106   1.465  12.829 -0.4195  0.6789 -0.7949
  168MPD2     C 2612   1.735   1.720  12.674 -0.1025  0.4468 -0.0391
  168MPD2    C1 2613   1.598   1.738  12.660  0.1589  0.2939 -0.5319
  168MPD2    C2 2614   1.543   1.843  12.591  0.5700  0.1060 -0.1613
  168MPD2    C3 2615   1.627   1.949  12.542 -0.3512 -0.1589  0.1313
  168MPD2    C4 2616   1.765   1.933  12.561 -0.2070 -0.5291  0.0000
  168MPD2    C5 2617   1.818   1.814  12.617  0.1603  0.3384  0.2159
  168MPD2     H 2618   1.436   1.852  12.578  0.2387 -3.4186 -0.0264
  168MPD2    H1 2619   1.833   2.013  12.531  0.6782 -0.7214  1.4969
  168MPD2    H2 2620   1.774   1.639  12.736  1.2397  0.7227 -0.5342
  168MPD2    H3 2621   1.925   1.801  12.629  0.4065  0.3514 -2.0486
  168MPD2     N 2622   1.572   2.064  12.482 -0.0923  0.1917 -0.0883
  168MPD2    H5 2623   1.640   2.126  12.441 -0.0178 -0.7815 -1.4157
  168MPD2    N1 2624   1.504   1.651  12.724  0.3575  0.2703 -0.5788
  168MPD2    H7 2625   1.406   1.679  12.723  1.1832  3.2253  1.0619
  169MPD1     C 2626   4.490   0.275  10.739  0.4932 -0.4538 -0.0373
  169MPD1    C1 2627   4.492   0.207  10.620  0.0034 -0.0974  0.0685
  169MPD1    C2 2628   4.546   0.269  10.507 -0.0124 -0.8774  0.6078
  169MPD1    C3 2629   4.589   0.402  10.508 -0.5042 -0.8945  1.0319
  169MPD1    C4 2630   4.590   0.463  10.631  0.1265  0.1495  0.2338
  169MPD1    C5 2631   4.536   0.401  10.750 -0.3365  0.4471  0.6413
  169MPD1     H 2632   4.556   0.214  10.414 -1.2464 -0.7232  0.3808
  169MPD1    H1 2633   4.619   0.566  10.651 -1.3264  0.4406  0.8106
  169MPD1    H2 2634   4.451   0.240  10.834 -0.8278 -0.6526 -0.6535
  169MPD1    H3 2635   4.538   0.467  10.836 -0.5595  0.7053  0.4488
  169MPD1     N 2636   4.632   0.468  10.390  0.4722 -0.9301 -0.4142
  169MPD1    H5 2637   4.605   0.426  10.302  1.8415  0.7634 -1.6424
  169MPD1    N1 2638   4.419   0.087  10.605  0.7656  0.7087  0.4710
  169MPD1    H6 2639   4.414   0.046  10.698 -1.4112  0.3256  0.1940
  169MPD1    H7 2640   4.466   0.017  10.547 -2.8355  1.7738 -3.7520
  170MPD1     C 2641   3.227   3.340  13.204  0.3158 -0.6572 -0.3924
  170MPD1    C1 2642   3.100   3.351  13.148 -0.1767  0.1162 -0.0230
  170MPD1    C2 2643   3.003   3.411  13.226  0.2364 -0.1305  0.2091
  170MPD1    C3 2644   3.025   3.464  13.354  0.1745 -0.0092 -0.4333
  170MPD1    C4 2645   3.148   3.454  13.407  0.1079  0.0281 -0.2308
  170MPD1    C5 2646   3.243   3.391  13.330 -0.3125 -0.2148 -0.4176
  170MPD1     H 2647   2.904   3.424  13.184  0.9324  2.0101 -0.7917
  170MPD1    H1 2648   3.184   3.476  13.507 -1.1481 -1.3676  0.5200
  170MPD1    H2 2649   3.308   3.291  13.151 -1.1096 -1.9210 -1.3909
  170MPD1    H3 2650   3.341   3.382  13.375 -1.5648 -0.2831  2.2671
  170MPD1     N 2651   2.916   3.521  13.419  0.1513 -0.1753 -0.1976
  170MPD1    H5 2652   2.830   3.530  13.365 -0.8850 -0.2508  1.4461
  170MPD1    N1 2653   3.077   3.318  13.013  0.1057 -0.4333 -0.6184
  170MPD1    H6 2654   3.158   3.270  12.973  0.5933 -0.1297  0.0087
  170MPD1    H7 2655   2.991   3.265  13.010  0.6804 -1.4262  0.4893
  171MPD1     C 2656   1.457   0.078  15.083  0.2092  0.6003  0.8112
  171MPD1    C1 2657   1.325   0.088  15.126  0.2891  0.6984  0.0893
  171MPD1    C2 2658   1.278   0.010  15.237  0.5252 -0.5540  0.2897
  171MPD1    C3 2659   1.361   4.655  15.297 -0.9309  0.3329 -0.5879
  171MPD1    C4 2660   1.493   4.646  15.245  0.0156  0.0352 -0.0960
  171MPD1    C5 2661   1.546   4.729  15.151 -0.2303 -0.6112  0.4499
  171MPD1     H 2662   1.183   0.041  15.279 -0.3181 -2.0109 -0.5391
  171MPD1    H1 2663   1.569   4.585  15.292 -1.2254 -0.1648  1.6465
  171MPD1    H2 2664   1.493   0.144  15.006 -0.3801 -1.5048 -1.2699
  171MPD1    H3 2665   1.651   4.730  15.123 -0.0601  0.3765  1.1128
  171MPD1     N 2666   1.321   4.571  15.409  0.4794 -0.0656 -0.6141
  171MPD1    H5 2667   1.385   4.495  15.429 -1.2327 -1.4463 -0.4618
  171MPD1    N1 2668   1.234   0.178  15.065 -0.7387  0.1476  0.1990
  171MPD1    H6 2669   1.144   0.133  15.052 -0.4057 -0.4575  0.0016
  171MPD1    H7 2670   1.271   0.192  14.970 -0.4712  2.4548  0.6367
  172MPD1     C 2671   0.406   4.182  17.694 -0.5888  0.3194  0.7462
  172MPD1    C1 2672   0.310   4.277  17.705  0.2500  0.1726 -0.3141
  172MPD1    C2 2673   0.319   4.368   0.056  0.3201  0.4176  0.1592
  172MPD1    C3 2674   0.433   4.390   0.132 -0.1960 -0.3701  0.5496
  172MPD1    C4 2675   0.534   4.298   0.118  0.2144  0.0685 -1.5931
  172MPD1    C5 2676   0.521   4.194   0.029 -0.0351  0.0142 -0.5536
  172MPD1     H 2677   0.231   4.427   0.081  0.1396  0.6361 -0.9944
  172MPD1    H1 2678   0.624   4.321   0.174 -0.7081  0.3638 -0.2373
  172MPD1    H2 2679   0.409   4.104  17.619  1.8613  1.8796 -0.7792
  172MPD1    H3 2680   0.603   4.123   0.018 -1.5915 -2.1277  1.5037
  172MPD1     N 2681   0.432   4.472   0.250  0.2761 -0.1155  0.0616
  172MPD1    H5 2682   0.498   4.441   0.320 -1.3612  0.7340  2.0080
  172MPD1    N1 2683   0.186   4.258  17.640  0.2387  0.7274  0.0909
  172MPD1    H6 2684   0.200   4.210  17.551 -0.7272 -0.5541  0.6333
  172MPD1    H7 2685   0.135   4.343  17.617  0.2419  0.0521 -2.4367
  173MPD1     C 2686   1.887   4.098  13.840  1.0068 -0.3204 -0.6615
  173MPD1    C1 2687   1.782   4.111  13.924  0.2877  1.1066  0.4654
  173MPD1    C2 2688   1.776   4.047  14.047 -0.0496  0.1808  0.4080
  173MPD1    C3 2689   1.884   3.971  14.087 -0.5853  0.7523 -0.4512
  173MPD1    C4 2690   1.988   3.945  13.993  0.8284 -0.4456 -0.2794
  173MPD1    C5 2691   1.988   4.013  13.876 -0.3816  0.5392 -0.3010
  173MPD1     H 2692   1.702   4.063  14.125 -1.0348 -0.9452 -0.2987
  173MPD1    H1 2693   2.075   3.883  14.015  1.2430  1.1743  2.6584
  173MPD1    H2 2694   1.890   4.155  13.747  0.6880 -0.7193 -0.9194
  173MPD1    H3 2695   2.075   3.998  13.812  0.6245 -0.9840  1.4513
  173MPD1     N 2696   1.887   3.919  14.215 -0.4543  0.4859 -0.0467
  173MPD1    H5 2697   1.797   3.898  14.257 -0.4978 -0.3097 -0.5325
  173MPD1    N1 2698   1.685   4.205  13.888 -0.2368 -0.6919  0.5898
  173MPD1    H6 2699   1.696   4.236  13.791  0.6191 -1.3362  0.4888
  173MPD1    H7 2700   1.590   4.174  13.909 -0.4790 -1.5397 -1.6838
  174MPD1     C 2701   2.624   3.543  14.789 -0.0347  0.0879  0.4066
  174MPD1    C1 2702   2.504   3.516  14.859  0.2178 -0.9631  0.1863
  174MPD1    C2 2703   2.385   3.517  14.797 -0.1053 -0.6248 -0.2531
  174MPD1    C3 2704   2.381   3.567  14.665  0.4246 -0.3382 -0.0119
  174MPD1    C4 2705   2.499   3.608  14.604 -0.9658  0.0561 -0.4329
  174MPD1    C5 2706   2.619   3.601  14.666 -0.0789  0.5436  0.7368
  174MPD1     H 2707   2.293   3.494  14.848 -0.4469  1.6611  0.1604
  174MPD1    H1 2708   2.497   3.662  14.509 -1.1407  0.6066 -0.1141
  174MPD1    H2 2709   2.724   3.532  14.830  0.1495  1.9464  0.4492
  174MPD1    H3 2710   2.709   3.631  14.614 -1.0514  3.5359  0.7984
  174MPD1     N 2711   2.263   3.592  14.588  0.0750  0.1787  0.0114
  174MPD1    H5 2712   2.273   3.656  14.510  0.3804  1.2308  0.9131
  174MPD1    N1 2713   2.504   3.472  14.990  0.0827 -0.1547 -0.2277
  174MPD1    H6 2714   2.420   3.493  15.043 -0.2224  0.8490 -1.1210
  174MPD1    H7 2715   2.584   3.509  15.041  1.1599  1.4869 -3.1614
  175MPD1     C 2716   0.238   0.340  15.381 -0.1948 -0.7948  0.2621
  175MPD1    C1 2717   0.317   0.275  15.476  0.5515 -0.1226 -0.2439
  175MPD1    C2 2718   0.261   0.245  15.596 -0.2613 -0.5336 -0.1878
  175MPD1    C3 2719   0.124   0.263  15.625 -0.2816  0.1293 -0.5738
  175MPD1    C4 2720   0.046   0.306  15.517 -0.2273 -0.0395  0.9778
  175MPD1    C5 2721   0.106   0.350  15.406 -0.5387  0.1207  0.4794
  175MPD1     H 2722   0.329   0.222  15.677  2.2978  1.9133 -1.6633
  175MPD1    H1 2723   4.675   0.313  15.526 -0.2219  1.3708  0.0257
  175MPD1    H2 2724   0.275   0.381  15.288  2.2449 -1.6072  0.8553
  175MPD1    H3 2725   0.038   0.378  15.326 -0.0729  1.6638  0.6254
  175MPD1     N 2726   0.065   0.204  15.741  0.5135  0.2469 -0.3260
  175MPD1    H5 2727   4.701   0.218  15.748  0.2709 -2.8090  2.3894
  175MPD1    N1 2728   0.454   0.269  15.463 -0.6216 -0.0637 -0.0412
  175MPD1    H6 2729   0.483   0.174  15.488 -0.2053  0.1375  0.2372
  175MPD1    H7 2730   0.477   0.267  15.364  0.9103  2.7310  0.2667
  176MPD1     C 2731   1.181   2.462   0.196 -0.2858  0.0443  0.2779
  176MPD1    C1 2732   1.256   2.464   0.080 -0.4470 -0.2209  0.0935
  176MPD1    C2 2733   1.395   2.501   0.095  0.4478  0.9726  0.3296
  176MPD1    C3 2734   1.455   2.511   0.219 -0.6336  0.3009  0.2299
  176MPD1    C4 2735   1.374   2.496   0.329 -0.2756  0.1747 -0.6156
  176MPD1    C5 2736   1.237   2.481   0.321 -0.2877  0.4207  0.1034
  176MPD1     H 2737   1.459   2.498   0.007 -1.7892 -3.4027 -1.1758
  176MPD1    H1 2738   1.412   2.529   0.425 -1.2182  2.1350 -0.9315
  176MPD1    H2 2739   1.072   2.468   0.196 -0.2591  0.5550 -0.5885
  176MPD1    H3 2740   1.172   2.486   0.408 -1.7737  2.7708 -1.1259
  176MPD1     N 2741   1.587   2.555   0.232  0.6022 -0.0262  0.2106
  176MPD1    H5 2742   1.632   2.584   0.146  1.1106 -1.9424 -0.1676
  176MPD1    N1 2743   1.187   2.480  17.701  0.2852 -0.3105 -0.3925
  176MPD1    H6 2744   1.097   2.434  17.711  0.1072  0.2163  0.4590
  176MPD1    H7 2745   1.239   2.439  17.624 -0.5549 -1.9383 -0.0816
  177MPD1     C 2746   0.369   1.729  10.648  0.1161 -0.3609 -0.2691
  177MPD1    C1 2747   0.392   1.669  10.525 -0.2011  0.1099 -0.0869
  177MPD1    C2 2748   0.332   1.718  10.410 -0.2737 -0.4626 -0.0868
  177MPD1    C3 2749   0.260   1.839  10.419  0.5363  0.3721  0.8920
  177MPD1    C4 2750   0.229   1.890  10.544  0.3528  0.5567 -0.2246
  177MPD1    C5 2751   0.282   1.837  10.654  0.1304 -0.8289  0.6097
  177MPD1     H 2752   0.360   1.673  10.315  0.4812 -0.1055 -0.0315
  177MPD1    H1 2753   0.163   1.974  10.560  0.0372  0.3635 -0.5276
  177MPD1    H2 2754   0.411   1.697  10.743  0.6503  1.5035  0.1223
  177MPD1    H3 2755   0.255   1.871  10.753  1.2942  1.1136  0.2426
  177MPD1     N 2756   0.202   1.894  10.302  0.4061  0.6972  0.3555
  177MPD1    H5 2757   0.207   1.839  10.217 -0.1662  0.8870  0.2007
  177MPD1    N1 2758   0.477   1.558  10.513  0.0486 -0.1807  0.4498
  177MPD1    H6 2759   0.457   1.500  10.432  1.1741  1.2754 -0.8653
  177MPD1    H7 2760   0.484   1.504  10.600  4.0838  0.4629  0.5228
  178MPD1     C 2761   1.955   2.295   0.293  0.1470  0.1034  0.5500
  178MPD1    C1 2762   2.076   2.354   0.309 -0.8956 -0.1346  0.3491
  178MPD1    C2 2763   2.153   2.381   0.200  1.1042 -0.0747  0.2698
  178MPD1    C3 2764   2.118   2.347   0.073  0.1677 -1.3390 -0.1835
  178MPD1    C4 2765   1.993   2.289   0.055  0.3519 -0.2675  0.7139
  178MPD1    C5 2766   1.916   2.264   0.168 -0.5651 -0.4887 -0.6620
  178MPD1     H 2767   2.252   2.424   0.209  1.2546 -0.3822  0.1091
  178MPD1    H1 2768   1.957   2.257  17.703 -1.7024  2.4207  0.5998
  178MPD1    H2 2769   1.889   2.267   0.373  1.7031  0.1032  1.8289
  178MPD1    H3 2770   1.818   2.225   0.142 -1.0178  0.2258 -0.0185
  178MPD1     N 2771   2.190   2.387  17.697 -0.6371  0.2808  0.0059
  178MPD1    H5 2772   2.148   2.364  17.608  0.3170  1.5459 -0.7800
  178MPD1    N1 2773   2.132   2.382   0.433  0.3140  0.5462  0.0911
  178MPD1    H6 2774   2.054   2.394   0.498 -0.9641 -2.9990 -0.7597
  178MPD1    H7 2775   2.190   2.465   0.430 -1.7359  1.9627 -0.0949
  179MPD1     C 2776   2.775   0.389  15.601 -0.0021 -0.1920 -0.1902
  179MPD1    C1 2777   2.644   0.394  15.550  0.0539  0.0239 -0.1906
  179MPD1    C2 2778   2.542   0.465  15.618  0.2812  0.3012 -0.3251
  179MPD1    C3 2779   2.585   0.549  15.724 -0.0010 -0.2199  0.1700
  179MPD1    C4 2780   2.720   0.544  15.774  0.1325 -0.8206  0.2728
  179MPD1    C5 2781   2.805   0.463  15.715 -0.1404 -0.1021 -0.1620
  179MPD1     H 2782   2.440   0.468  15.581  0.2524 -1.0107 -0.3436
  179MPD1    H1 2783   2.745   0.602  15.862  0.5496 -0.8894  0.1999
  179MPD1    H2 2784   2.855   0.328  15.561 -1.3109 -1.1944 -1.2939
  179MPD1    H3 2785   2.903   0.452  15.761  0.1245 -0.8506 -0.9139
  179MPD1     N 2786   2.502   0.644  15.792  0.0301  0.6968  0.1948
  179MPD1    H5 2787   2.547   0.695  15.867 -1.4653  0.5882  1.1757
  179MPD1    N1 2788   2.602   0.314  15.443 -0.7965 -0.0565 -0.6097
  179MPD1    H6 2789   2.520   0.357  15.401 -1.2069 -0.8752 -0.6342
  179MPD1    H7 2790   2.670   0.316  15.367  0.5441 -3.6062  0.4967
  180MPD1     C 2791   2.434   2.330  14.781  0.0915  0.8370 -0.4095
  180MPD1    C1 2792   2.476   2.392  14.660  0.0743  0.6266 -0.8656
  180MPD1    C2 2793   2.395   2.485  14.594  0.5062  0.0759 -0.3846
  180MPD1    C3 2794   2.262   2.482  14.623  0.4085 -0.1109  0.3265
  180MPD1    C4 2795   2.220   2.413  14.735 -0.3757 -0.2172  0.0174
  180MPD1    C5 2796   2.304   2.347  14.822  0.8461  0.1979 -0.0806
  180MPD1     H 2797   2.431   2.551  14.516  0.4725  0.5843  0.0302
  180MPD1    H1 2798   2.114   2.402  14.758  0.0862 -1.3219  1.6069
  180MPD1    H2 2799   2.505   2.261  14.825 -1.2759 -1.7494 -2.2289
  180MPD1    H3 2800   2.261   2.291  14.904  2.3387  0.9190  1.1911
  180MPD1     N 2801   2.180   2.551  14.533 -0.4309 -0.2814  0.3214
  180MPD1    H5 2802   2.228   2.611  14.467  0.4730 -1.6037 -0.2186
  180MPD1    N1 2803   2.614   2.375  14.628  0.1289 -0.1842  0.6442
  180MPD1    H6 2804   2.638   2.276  14.630  1.1688  0.0749  1.6603
  180MPD1    H7 2805   2.650   2.422  14.545  2.0293 -1.0612  0.9711
  181MPD1     C 2806   3.604   3.933   9.378  0.7451 -0.2605 -0.8688
  181MPD1    C1 2807   3.600   4.053   9.452  0.4145  0.1141  0.8315
  181MPD1    C2 2808   3.636   4.054   9.588 -0.1951 -0.3634 -0.5048
  181MPD1    C3 2809   3.658   3.936   9.652 -0.2171 -0.0380 -0.7231
  181MPD1    C4 2810   3.657   3.822   9.577 -0.2759  0.3714 -0.0133
  181MPD1    C5 2811   3.623   3.818   9.443  0.3133  0.0617  0.1519
  181MPD1     H 2812   3.636   4.145   9.648 -2.2434 -0.3657 -0.5214
  181MPD1    H1 2813   3.677   3.733   9.635  1.2269  0.0679 -1.0087
  181MPD1    H2 2814   3.592   3.925   9.270 -2.3839  0.7971 -0.6148
  181MPD1    H3 2815   3.629   3.727   9.385  0.9349  0.8445 -1.0153
  181MPD1     N 2816   3.692   3.929   9.779  0.4389  0.5498 -0.0413
  181MPD1    H5 2817   3.709   3.834   9.809  1.0830  0.7113  0.1117
  181MPD1    N1 2818   3.591   4.171   9.378 -0.5865 -0.2760  0.3786
  181MPD1    H6 2819   3.548   4.150   9.288  0.6404  1.6995 -0.6780
  181MPD1    H7 2820   3.549   4.251   9.424  1.5293  0.6355  0.7423
  182MPD1     C 2821   4.536   3.459   1.237 -0.0443  0.5614 -0.0492
  182MPD1    C1 2822   4.443   3.557   1.225 -0.2335 -0.3743 -0.2817
  182MPD1    C2 2823   4.375   3.563   1.110  0.0471  0.8063 -0.1497
  182MPD1    C3 2824   4.418   3.487   0.999 -0.4719  0.2100  0.8640
  182MPD1    C4 2825   4.525   3.403   1.011 -0.4819 -0.7746  0.0606
  182MPD1    C5 2826   4.581   3.387   1.133  0.4941  0.8278 -0.2141
  182MPD1     H 2827   4.287   3.625   1.097 -0.6382  0.1217  1.2814
  182MPD1    H1 2828   4.575   3.348   0.931 -2.1260  0.0984 -1.5757
  182MPD1    H2 2829   4.594   3.445   1.328  2.3683  3.7858 -1.0984
  182MPD1    H3 2830   4.669   3.326   1.147  1.1512  1.3130 -2.2852
  182MPD1     N 2831   4.365   3.501   0.870 -0.0382  0.2755  0.1872
  182MPD1    H5 2832   4.412   3.444   0.801 -0.8080 -0.0894 -0.0336
  182MPD1    N1 2833   4.386   3.615   1.335 -0.2232  0.3303 -0.7128
  182MPD1    H6 2834   4.444   3.616   1.419 -2.0014 -1.3290  0.5436
  182MPD1    H7 2835   4.376   3.715   1.316 -0.2696  0.2918 -0.8832
  183MPD1     C 2836   4.059   3.830   9.612 -0.6174  0.2231 -0.5674
  183MPD1    C1 2837   4.054   3.960   9.566 -0.6014 -0.6271  0.1430
  183MPD1    C2 2838   4.167   4.031   9.591  0.2259  0.3273 -0.6792
  183MPD1    C3 2839   4.284   3.976   9.655  1.1069  0.1149 -0.3204
  183MPD1    C4 2840   4.271   3.856   9.716 -0.6816  1.1486 -0.0544
  183MPD1    C5 2841   4.163   3.780   9.692  0.2973  0.4168  0.2984
  183MPD1     H 2842   4.169   4.131   9.550 -0.4091  0.1600 -1.1167
  183MPD1    H1 2843   4.357   3.807   9.759 -1.9946  0.2607  1.5409
  183MPD1    H2 2844   3.980   3.755   9.612 -0.4684  0.0630 -2.7158
  183MPD1    H3 2845   4.156   3.679   9.731 -1.1327  0.1328 -0.6829
  183MPD1     N 2846   4.391   4.066   9.671 -0.1399 -0.2899 -0.5189
  183MPD1    H5 2847   4.386   4.154   9.622 -1.8451 -0.9679 -1.5653
  183MPD1    N1 2848   3.963   4.000   9.476 -0.2532  0.2543 -0.1151
  183MPD1    H6 2849   3.951   4.101   9.472  2.1158  0.6606  2.7842
  183MPD1    H7 2850   3.875   3.955   9.501 -0.0118 -0.2470 -0.1450
  184MPD1     C 2851   4.034   1.235  10.818 -0.3888  0.4344 -0.1348
  184MPD1    C1 2852   4.017   1.130  10.725  0.1501  0.4073  0.1555
  184MPD1    C2 2853   4.077   1.148  10.595 -0.0741 -0.2532 -0.3118
  184MPD1    C3 2854   4.137   1.269  10.560 -0.6208  0.0514 -0.5281
  184MPD1    C4 2855   4.156   1.364  10.657  0.1405  0.1400 -0.8435
  184MPD1    C5 2856   4.105   1.347  10.783  0.1358 -0.1371  0.2246
  184MPD1     H 2857   4.062   1.064  10.528  0.5201 -0.3585 -0.3151
  184MPD1    H1 2858   4.221   1.447  10.632  1.4131 -1.1220 -1.7106
  184MPD1    H2 2859   3.989   1.227  10.916  0.9143  1.1207  0.5109
  184MPD1    H3 2860   4.121   1.417  10.863  1.7817  1.7378 -1.7315
  184MPD1     N 2861   4.170   1.305  10.425  0.0169  0.3074  0.3697
  184MPD1    H5 2862   4.192   1.400  10.398 -0.7934 -0.2138 -2.1850
  184MPD1    N1 2863   3.962   1.007  10.756  0.2041 -0.0217 -0.1813
  184MPD1    H6 2864   3.895   1.006  10.833  0.5110 -2.0844  0.0664
  184MPD1    H7 2865   3.935   0.948  10.677 -2.4427 -0.9987  1.4521
  185MPD1     C 2866   3.771   0.968   9.559  0.5546 -0.0228 -0.0260
  185MPD1    C1 2867   3.822   1.091   9.523 -0.5523  0.1735 -0.3107
  185MPD1    C2 2868   3.892   1.159   9.619  0.5845 -0.1298  0.3758
  185MPD1    C3 2869   3.897   1.109   9.750  0.1575  0.5084 -1.1997
  185MPD1    C4 2870   3.839   0.988   9.782  0.2916 -0.3579  0.3757
  185MPD1    C5 2871   3.780   0.918   9.684  0.2250  0.4676 -0.2145
  185MPD1     H 2872   3.949   1.245   9.586  0.3547 -0.4204 -0.7586
  185MPD1    H1 2873   3.845   0.945   9.881 -0.5067 -1.6129 -0.1286
  185MPD1    H2 2874   3.726   0.911   9.478  0.6671 -1.0369  0.6262
  185MPD1    H3 2875   3.739   0.819   9.703  1.8197 -0.3113 -0.8194
  185MPD1     N 2876   3.960   1.168   9.858 -0.8358  0.9998 -0.2766
  185MPD1    H5 2877   3.952   1.132   9.953  4.7221 -1.3143 -0.6637
  185MPD1    N1 2878   3.848   1.113   9.385 -0.2729  0.7389  0.1118
  185MPD1    H6 2879   3.777   1.069   9.327  1.3059 -2.9797  0.9799
  185MPD1    H7 2880   3.873   1.210   9.364  1.6936  0.4821  1.2108
  186MPD1     C 2881   2.577   0.729  16.290  0.5274 -0.4678 -0.5610
  186MPD1    C1 2882   2.620   0.820  16.203 -0.2795 -0.7297 -0.0231
  186MPD1    C2 2883   2.574   0.948  16.215  0.3527 -0.3811 -0.5801
  186MPD1    C3 2884   2.511   0.985  16.333  0.3743  0.2096 -0.1644
  186MPD1    C4 2885   2.480   0.885  16.432 -0.3294 -0.9055 -0.3784
  186MPD1    C5 2886   2.520   0.757  16.407 -0.4502  0.3622  0.4011
  186MPD1     H 2887   2.601   1.019  16.138  0.7736 -0.7807 -0.8079
  186MPD1    H1 2888   2.413   0.898  16.516 -0.4147  1.0722 -0.7499
  186MPD1    H2 2889   2.599   0.625  16.271 -1.7968 -1.3543  1.6479
  186MPD1    H3 2890   2.480   0.681  16.472 -1.5638 -1.0998 -1.9872
  186MPD1     N 2891   2.458   1.117  16.361 -0.4626  0.1177 -0.3208
  186MPD1    H5 2892   2.407   1.134  16.447  0.8027  2.6646 -0.0753
  186MPD1    N1 2893   2.672   0.767  16.085 -0.8810 -0.3643  0.8138
  186MPD1    H6 2894   2.742   0.829  16.043  0.6269 -2.8239 -0.2706
  186MPD1    H7 2895   2.734   0.694  16.118  0.4310 -0.3761 -1.6616
  187MPD1     C 2896   2.340   3.256   0.403  0.4866  0.5636 -0.5415
  187MPD1    C1 2897   2.262   3.140   0.389  0.9589 -0.0540 -0.2796
  187MPD1    C2 2898   2.198   3.113   0.268  0.5211 -0.2751  0.0680
  187MPD1    C3 2899   2.218   3.205   0.166  0.2924  0.0057  0.2102
  187MPD1    C4 2900   2.294   3.317   0.186  1.1434 -0.2842  0.6961
  187MPD1    C5 2901   2.357   3.343   0.304 -0.9910  0.2207 -0.7421
  187MPD1     H 2902   2.135   3.027   0.250 -0.3362  0.7141 -1.6555
  187MPD1    H1 2903   2.307   3.377   0.097  2.5602 -0.9488  0.4647
  187MPD1    H2 2904   2.400   3.276   0.491 -0.4000 -1.2110  0.4729
  187MPD1    H3 2905   2.419   3.432   0.309 -3.2265  1.7767 -0.8235
  187MPD1     N 2906   2.157   3.202   0.039 -0.3762  0.9125  0.0231
  187MPD1    H5 2907   2.177   3.280  17.721  0.1685  0.9967  0.3011
  187MPD1    N1 2908   2.276   3.047   0.497 -0.5450  0.0923  0.0230
  187MPD1    H6 2909   2.296   3.095   0.585  1.6248 -0.6180 -0.0957
  187MPD1    H7 2910   2.194   2.985   0.500 -1.6857  1.5845 -0.5778
  188MPD1     C 2911   1.982   3.641  10.059  0.4945 -0.6072 -0.1464
  188MPD1    C1 2912   1.844   3.621  10.067 -0.1733  0.5524 -0.6211
  188MPD1    C2 2913   1.798   3.487  10.066 -0.7511 -0.2094 -0.6002
  188MPD1    C3 2914   1.882   3.377  10.060  0.4634  0.1357 -0.0791
  188MPD1    C4 2915   2.014   3.408  10.029 -0.8494  0.7089  0.0361
  188MPD1    C5 2916   2.064   3.534  10.030  0.3037  0.1818 -0.5099
  188MPD1     H 2917   1.692   3.469  10.083 -0.7337 -0.0303 -0.3020
  188MPD1    H1 2918   2.085   3.326  10.030 -1.5726  0.0675 -4.0513
  188MPD1    H2 2919   2.035   3.735  10.061  0.7769 -0.7205 -2.2538
  188MPD1    H3 2920   2.170   3.535  10.008  0.4636 -0.5154  0.2488
  188MPD1     N 2921   1.831   3.247  10.068 -0.0335  0.9235  0.0304
  188MPD1    H5 2922   1.883   3.163  10.047  1.0130  1.1309  1.7579
  188MPD1    N1 2923   1.767   3.729  10.101 -0.3268 -0.3312  0.0543
  188MPD1    H6 2924   1.802   3.815  10.058 -3.0785  0.4112 -0.7208
  188MPD1    H7 2925   1.668   3.717  10.082 -0.2481  3.2491 -2.5692
  189MPD1     C 2926   3.723   3.938   0.397  0.1876  0.5056 -0.9930
  189MPD1    C1 2927   3.660   3.880   0.506 -0.4005 -1.0215  0.1833
  189MPD1    C2 2928   3.531   3.918   0.533 -0.2772  0.8197  0.6345
  189MPD1    C3 2929   3.466   4.007   0.452  0.5926 -0.5104  0.6917
  189MPD1    C4 2930   3.530   4.065   0.342  0.1956 -0.1054 -0.1920
  189MPD1    C5 2931   3.665   4.042   0.330 -0.7075  0.2281  0.0835
  189MPD1     H 2932   3.471   3.876   0.613  2.1497 -0.8079  1.6000
  189MPD1    H1 2933   3.492   4.137   0.271  0.4935 -0.6592 -0.9193
  189MPD1    H2 2934   3.824   3.912   0.366  0.4406  0.8252 -0.4553
  189MPD1    H3 2935   3.715   4.080   0.241  2.3491  2.8850  2.9070
  189MPD1     N 2936   3.333   4.036   0.492  0.1435 -0.5734 -0.4195
  189MPD1    H5 2937   3.304   3.980   0.571  2.0755  0.7347  1.2314
  189MPD1    N1 2938   3.717   3.768   0.570 -0.0446  0.1676 -0.4972
  189MPD1    H6 2939   3.722   3.776   0.671  3.9978  0.1604 -0.6825
  189MPD1    H7 2940   3.812   3.747   0.539 -0.4711  0.2770 -1.8980
  190MPD1     C 2941   2.458   1.723  14.995  0.2587  0.9172 -0.0201
  190MPD1    C1 2942   2.566   1.744  15.070 -0.1126  0.9862  0.3130
  190MPD1    C2 2943   2.564   1.861  15.150 -0.3952 -1.0368 -0.9272
  190MPD1    C3 2944   2.463   1.955  15.146  0.8173  0.4701  0.3512
  190MPD1    C4 2945   2.360   1.930  15.058  0.1120  0.2365 -0.0078
  190MPD1    C5 2946   2.352   1.814  14.984  0.6044  0.2672  0.0754
  190MPD1     H 2947   2.642   1.877  15.222 -0.8379 -1.1947 -0.4090
  190MPD1    H1 2948   2.277   1.999  15.052  0.3634  0.4286 -1.3334
  190MPD1    H2 2949   2.442   1.627  14.946  1.5230  0.7992 -0.1902
  190MPD1    H3 2950   2.265   1.798  14.921  0.5796  0.2338  0.1176
  190MPD1     N 2951   2.479   2.077  15.224  0.5775  0.2093 -0.5785
  190MPD1    H5 2952   2.558   2.077  15.287 -0.7053  1.2065  1.0275
  190MPD1    N1 2953   2.673   1.650  15.084  0.2304  0.2226  0.2310
  190MPD1    H6 2954   2.679   1.590  15.002 -0.3318  0.8239 -0.2484
  190MPD1    H7 2955   2.762   1.697  15.101  0.7543 -0.7672  0.2110
  191MPD1     C 2956   1.363   3.681  13.438 -0.2013  0.1656  0.4193
  191MPD1    C1 2957   1.250   3.749  13.463 -0.0138 -0.1386 -0.1438
  191MPD1    C2 2958   1.241   3.881  13.416 -0.0537  0.1819 -0.3681
  191MPD1    C3 2959   1.326   3.928  13.317 -0.3231 -0.6997 -0.3478
  191MPD1    C4 2960   1.441   3.856  13.285 -0.1520  0.2460  0.1522
  191MPD1    C5 2961   1.454   3.735  13.350  0.5602  0.3746  0.5553
  191MPD1     H 2962   1.155   3.944  13.433 -0.5308 -0.8057  0.8545
  191MPD1    H1 2963   1.519   3.887  13.217  0.2582 -0.5340  0.2581
  191MPD1    H2 2964   1.389   3.579  13.463 -0.5123 -0.0947 -0.3131
  191MPD1    H3 2965   1.542   3.674  13.340  0.7862  1.2350 -2.5100
  191MPD1     N 2966   1.293   4.042  13.256 -0.5927  0.4555 -0.4780
  191MPD1    H5 2967   1.229   4.105  13.303 -0.6774  1.0884 -1.4419
  191MPD1    N1 2968   1.154   3.693  13.553  0.5803 -0.1577 -0.3344
  191MPD1    H6 2969   1.153   3.596  13.523 -0.9073 -0.5102  0.8298
  191MPD1    H7 2970   1.065   3.736  13.530  1.0598  0.3523 -1.2257
  192MPD1     C 2971   0.692   4.669  13.571 -0.1570 -0.0136 -0.3062
  192MPD1    C1 2972   0.698   4.535  13.547  0.3328  0.8090  0.0593
  192MPD1    C2 2973   0.792   4.494  13.450 -0.4131  0.1684  0.5139
  192MPD1    C3 2974   0.889   4.581  13.404 -0.6648  0.6719  0.3764
  192MPD1    C4 2975   0.897   4.707  13.450  0.3515  0.2713  0.1673
  192MPD1    C5 2976   0.787   0.014  13.519  0.7577  0.0925 -0.0873
  192MPD1     H 2977   0.790   4.394  13.407  2.0907  0.0034  0.7242
  192MPD1    H1 2978   0.974   0.039  13.417  1.6922 -0.6163  1.4393
  192MPD1    H2 2979   0.616   4.714  13.633 -0.5295  0.4891 -1.1192
  192MPD1    H3 2980   0.780   0.120  13.540 -0.3313 -0.2488  1.2017
  192MPD1     N 2981   0.987   4.535  13.312  0.0382 -0.6086  0.5433
  192MPD1    H5 2982   1.061   4.596  13.278  1.7934 -3.4436 -0.7144
  192MPD1    N1 2983   0.589   4.451  13.594 -1.1180 -0.2183  0.4961
  192MPD1    H6 2984   0.618   4.354  13.600 -2.1561 -0.5377  0.1787
  192MPD1    H7 2985   0.557   4.493  13.681 -1.8042  0.6734 -0.1853
  193MPD1     C 2986   0.771   4.388  17.011 -0.1026  0.3237  0.6678
  193MPD1    C1 2987   0.840   4.384  16.885  0.2798  0.0316  0.1041
  193MPD1    C2 2988   0.909   4.496  16.843 -0.2597  0.8120 -0.0462
  193MPD1    C3 2989   0.912   4.610  16.924  0.6500  0.4335  0.1093
  193MPD1    C4 2990   0.851   4.610  17.050 -0.6612  0.4843 -0.8933
  193MPD1    C5 2991   0.780   4.499  17.093  0.7481  0.2575  0.9881
  193MPD1     H 2992   0.958   4.491  16.746  1.8248 -0.4734  1.0637
  193MPD1    H1 2993   0.855   4.694  17.118 -1.3053 -0.1346 -0.0797
  193MPD1    H2 2994   0.718   4.297  17.037  0.7994 -0.3106  0.2720
  193MPD1    H3 2995   0.726   4.499  17.187 -2.1855 -2.1565 -0.6583
  193MPD1     N 2996   0.988   4.728  16.890 -0.4167 -0.5675  0.6278
  193MPD1    H5 2997   1.006   0.059  16.964 -0.5845 -0.6627  0.7565
  193MPD1    N1 2998   0.823   4.279  16.794 -0.4440 -0.3586 -0.3526
  193MPD1    H6 2999   0.897   4.262  16.726 -0.5660  1.0257 -0.8265
  193MPD1    H7 3000   0.811   4.192  16.846 -1.6641 -1.8165 -3.0782
  194MPD1     C 3001   3.094   1.546  17.359 -0.3613 -0.3623 -0.1041
  194MPD1    C1 3002   3.185   1.579  17.456 -0.1108  0.1683  0.0802
  194MPD1    C2 3003   3.298   1.505  17.482  0.2082 -0.3593  0.0792
  194MPD1    C3 3004   3.323   1.404  17.396 -0.7315  0.0788 -0.7294
  194MPD1    C4 3005   3.232   1.370  17.296  0.6612  0.1192 -0.1283
  194MPD1    C5 3006   3.117   1.440  17.277 -0.4003  0.5304  0.7273
  194MPD1     H 3007   3.374   1.534  17.553 -1.2373  2.2765  0.5347
  194MPD1    H1 3008   3.249   1.278  17.239  0.6187  1.1755 -1.8529
  194MPD1    H2 3009   3.005   1.604  17.338  1.2346  1.9474 -0.5111
  194MPD1    H3 3010   3.039   1.403  17.211 -1.7271  0.1813  2.4924
  194MPD1     N 3011   3.430   1.313  17.417  0.1501 -0.1758 -1.1648
  194MPD1    H5 3012   3.449   1.248  17.341 -0.7862 -0.3894 -1.2154
  194MPD1    N1 3013   3.150   1.684  17.546  0.2270  0.0661 -0.0215
  194MPD1    H6 3014   3.228   1.738  17.582  0.5516 -1.5112  1.6709
  194MPD1    H7 3015   3.094   1.745  17.488 -1.3441 -1.2800  0.0686
  195MPD1     C 3016   1.011   4.182  17.712  0.3556  0.0061  0.3692
  195MPD1    C1 3017   1.135   4.137  17.677  0.1529  0.8105  0.1990
  195MPD1    C2 3018   1.196   4.027  17.739 -0.1382 -0.1499 -0.2494
  195MPD1    C3 3019   1.130   3.956   0.090  0.1692  0.4776 -0.3650
  195MPD1    C4 3020   0.996   3.993   0.112  0.6083 -0.2323  0.0066
  195MPD1    C5 3021   0.940   4.116   0.066  0.1113 -0.3451 -0.3661
  195MPD1     H 3022   1.302   4.010  17.723 -0.3112 -0.9359 -0.5645
  195MPD1    H1 3023   0.927   3.938   0.174  0.5847 -0.2938 -0.0738
  195MPD1    H2 3024   0.976   4.275  17.669 -0.3046 -0.3054  0.2251
  195MPD1    H3 3025   0.839   4.148   0.087  1.2786  1.8805  1.9229
  195MPD1     N 3026   1.186   3.837   0.149 -0.2657  0.1624  0.4279
  195MPD1    H5 3027   1.129   3.793   0.221 -0.2308 -0.7084 -0.0813
  195MPD1    N1 3028   1.195   4.206  17.559  0.2206  0.6968 -0.1756
  195MPD1    H6 3029   1.296   4.197  17.548  0.0887  0.5468 -1.2501
  195MPD1    H7 3030   1.167   4.303  17.544 -0.2474  0.2568 -2.2588
  196MPD1     C 3031   4.508   2.419   0.383  0.2379 -0.4888  0.1675
  196MPD1    C1 3032   4.604   2.489   0.317  0.7495 -0.4094 -0.8071
  196MPD1    C2 3033   4.673   2.579   0.398  0.0552  0.9038  0.6306
  196MPD1    C3 3034   4.622   2.628   0.518 -0.2220  0.1640 -0.0292
  196MPD1    C4 3035   4.504   2.582   0.563 -0.1562  0.0650  0.8068
  196MPD1    C5 3036   4.456   2.473   0.495 -0.7336 -0.5580 -0.0022
  196MPD1     H 3037   0.033   2.607   0.356  0.9623 -3.0482  0.0366
  196MPD1    H1 3038   4.452   2.614   0.652  2.2622  0.2952  2.1454
  196MPD1    H2 3039   4.465   2.327   0.345 -0.3401  0.9606 -2.7343
  196MPD1    H3 3040   4.375   2.420   0.543 -1.4940  0.8030  0.2209
  196MPD1     N 3041   4.678   2.736   0.594 -0.1480 -0.6091  0.2449
  196MPD1    H5 3042   4.619   2.769   0.670 -0.4681 -0.7960  0.0776
  196MPD1    N1 3043   4.658   2.436   0.201  0.2213  0.0969 -0.5489
  196MPD1    H6 3044   4.591   2.390   0.141 -0.9432 -1.1461  1.6988
  196MPD1    H7 3045   4.696   2.509   0.141 -0.5798  2.3276  1.6675
  197MPD1     C 3046   3.964   0.043  17.222  0.0163 -0.8197  0.5694
  197MPD1    C1 3047   4.085   4.723  17.237 -0.7155 -0.9747 -0.8036
  197MPD1    C2 3048   4.198   0.050  17.187  0.0820  0.0978  0.3114
  197MPD1    C3 3049   4.191   0.176  17.128  0.2523 -0.2849  0.3135
  197MPD1    C4 3050   4.068   0.241  17.117 -0.2704 -0.0989  0.6081
  197MPD1    C5 3051   3.957   0.173  17.170 -0.1127  0.2860  0.1924
  197MPD1     H 3052   4.294   0.001  17.196  0.8061  1.3987 -0.2527
  197MPD1    H1 3053   4.052   0.340  17.076 -1.2817 -0.1155  0.9495
  197MPD1    H2 3054   3.876   4.733  17.264 -0.7359  0.8378  0.8455
  197MPD1    H3 3055   3.867   0.233  17.180  0.0139  0.2442  1.4918
  197MPD1     N 3056   4.301   0.246  17.080 -0.5972 -0.2475 -0.4160
  197MPD1    H5 3057   4.285   0.330  17.025 -0.3850  0.3252  0.4043
  197MPD1    N1 3058   4.103   4.599  17.303 -0.2518  0.5013 -0.4978
  197MPD1    H6 3059   4.017   4.544  17.297 -0.7947  1.4458 -1.1790
  197MPD1    H7 3060   4.172   4.539  17.258 -0.8804 -0.0663 -0.7250
  198MPD1     C 3061   1.654   0.154  15.866 -0.5178  0.4989  0.2200
  198MPD1    C1 3062   1.600   0.041  15.912  0.3105  0.2220  0.2678
  198MPD1    C2 3063   1.679   4.666  15.935  0.5457 -0.1459  0.1309
  198MPD1    C3 3064   1.813   4.672  15.909  0.4950  0.2494 -0.3165
  198MPD1    C4 3065   1.869   0.054  15.865 -0.7224  0.3341 -0.3424
  198MPD1    C5 3066   1.786   0.165  15.851 -0.0968 -0.2947 -0.2610
  198MPD1     H 3067   1.630   4.572  15.960 -0.4409  0.0662 -1.0260
  198MPD1    H1 3068   1.971   0.064  15.831 -0.7257  0.4920 -0.3069
  198MPD1    H2 3069   1.585   0.232  15.835  0.8946  1.8746  0.5128
  198MPD1    H3 3070   1.823   0.255  15.803  0.6053 -0.1016  0.6485
  198MPD1     N 3071   1.880   4.552  15.908  0.2449  0.6875 -0.3372
  198MPD1    H5 3072   1.826   4.467  15.911 -0.7962  1.3653 -0.0027
  198MPD1    N1 3073   1.464   0.025  15.897 -0.6898 -0.4598 -0.1732
  198MPD1    H6 3074   1.431   4.713  15.981 -1.2388  2.6980  1.4293
  198MPD1    H7 3075   1.407   0.109  15.886 -1.5863 -1.1709 -0.9370
  199MPD1     C 3076   4.147   3.961  10.248  0.0970  0.1966 -0.1771
  199MPD1    C1 3077   4.128   3.989  10.114 -0.6849 -0.0277 -0.9142
  199MPD1    C2 3078   4.087   4.116  10.078 -0.5168  0.6916  0.1720
  199MPD1    C3 3079   4.072   4.207  10.173  0.0447  0.5897 -0.0341
  199MPD1    C4 3080   4.086   4.179  10.305  0.1557  0.3992 -0.2472
  199MPD1    C5 3081   4.116   4.052  10.347  0.4643 -0.2121  0.0911
  199MPD1     H 3082   4.060   4.142   9.976  0.7118 -1.3205 -0.6701
  199MPD1    H1 3083   4.062   4.249  10.384 -2.2206 -0.4949 -0.1571
  199MPD1    H2 3084   4.187   3.866  10.283 -2.2240 -1.1238 -1.1510
  199MPD1    H3 3085   4.113   4.014  10.448  1.2307  1.5256  0.7558
  199MPD1     N 3086   4.021   4.340  10.149 -0.1027  0.1713 -0.2722
  199MPD1    H5 3087   3.980   4.392  10.226  0.2514 -0.0450  0.0626
  199MPD1    N1 3088   4.129   3.879  10.025 -0.2880 -0.0587  0.1574
  199MPD1    H6 3089   4.225   3.844  10.020  0.0706  1.0724 -0.6870
  199MPD1    H7 3090   4.113   3.908   9.929  1.3264 -1.3188 -0.4897
  200MPD1     C 3091   2.493   4.439  14.388  0.4730 -0.0677 -0.1143
  200MPD1    C1 3092   2.555   4.397  14.271  0.3116 -0.6093 -0.2784
  200MPD1    C2 3093   2.688   4.414  14.273  0.3212 -0.7119  0.4451
  200MPD1    C3 3094   2.769   4.458  14.383  0.1652 -0.3356  0.0626
  200MPD1    C4 3095   2.698   4.503  14.490 -0.4985  0.4204 -0.3991
  200MPD1    C5 3096   2.563   4.486  14.492  0.0264  0.4561  0.3204
  200MPD1     H 3097   2.734   4.378  14.182 -0.0854 -1.6431  0.5963
  200MPD1    H1 3098   2.752   4.550  14.572  1.3316 -1.2966 -0.6232
  200MPD1    H2 3099   2.386   4.424  14.399  0.5625  0.4885  1.5385
  200MPD1    H3 3100   2.515   4.521  14.582 -2.0405 -1.3088 -0.1178
  200MPD1     N 3101   2.911   4.455  14.380  0.5312  0.8260  0.1854
  200MPD1    H5 3102   2.960   4.450  14.291 -0.7724  2.0044 -0.6095
  200MPD1    N1 3103   2.480   4.331  14.164  0.4479 -0.2873 -0.5776
  200MPD1    H6 3104   2.531   4.250  14.127 -0.2320 -1.5462  1.2264
  200MPD1    H7 3105   2.397   4.288  14.203  1.6609 -1.3707  0.8415
  201MPD1     C 3106   0.450   3.649  12.844  0.3990  0.3294 -0.1465
  201MPD1    C1 3107   0.527   3.552  12.775 -0.4906  0.9752  0.0884
  201MPD1    C2 3108   0.602   3.467  12.858 -0.5339 -0.7426 -0.0173
  201MPD1    C3 3109   0.623   3.496  12.997  0.1796 -0.6657  0.1006
  201MPD1    C4 3110   0.570   3.621  13.049 -0.0735 -0.2423  0.5778
  201MPD1    C5 3111   0.480   3.684  12.971 -0.2140 -0.4131  0.3706
  201MPD1     H 3112   0.634   3.370  12.820  0.2413 -0.8099  0.8181
  201MPD1    H1 3113   0.568   3.639  13.155 -2.1912 -0.0863  0.5215
  201MPD1    H2 3114   0.381   3.714  12.791 -1.7552 -1.8824 -0.0772
  201MPD1    H3 3115   0.412   3.761  13.006 -0.9206 -0.8620 -0.0187
  201MPD1     N 3116   0.673   3.394  13.084  0.0863  0.1868  0.8031
  201MPD1    H5 3117   0.682   3.304  13.038 -3.6190  1.1606 -1.8688
  201MPD1    N1 3118   0.492   3.511  12.640  0.2459 -0.2676  0.0598
  201MPD1    H6 3119   0.558   3.453  12.587 -0.4841 -2.3335  1.4419
  201MPD1    H7 3120   0.482   3.591  12.577 -1.2944 -0.5870 -0.1041
  202MPD1     C 3121   0.043   3.377   9.478 -0.1366  0.6414  0.0764
  202MPD1    C1 3122   0.058   3.280   9.573  0.3254 -0.2274 -0.1450
  202MPD1    C2 3123   0.178   3.273   9.634 -0.0254 -1.0798  0.2813
  202MPD1    C3 3124   0.273   3.374   9.629  0.4830  0.2257  0.1330
  202MPD1    C4 3125   0.249   3.484   9.544 -0.0899 -0.0877 -0.1479
  202MPD1    C5 3126   0.134   3.481   9.469 -0.1816 -0.5651 -0.6709
  202MPD1     H 3127   0.183   3.207   9.720  0.5243 -1.7208 -0.2418
  202MPD1    H1 3128   0.317   3.568   9.538 -0.6484  0.2391 -1.8584
  202MPD1    H2 3129   4.693   3.378   9.413  0.2014  1.3136 -0.3651
  202MPD1    H3 3130   0.121   3.557   9.392  0.9077  0.8052  0.4993
  202MPD1     N 3131   0.393   3.387   9.709  0.0759 -0.8740 -0.6511
  202MPD1    H5 3132   0.441   3.477   9.714 -2.6703  0.6501 -1.3375
  202MPD1    N1 3133   4.721   3.161   9.555 -0.9333  0.6366 -0.0849
  202MPD1    H6 3134   4.732   3.096   9.632 -0.8920  0.5038 -0.2024
  202MPD1    H7 3135   4.621   3.171   9.538 -0.8580 -2.1949 -2.1223
  203MPD1     C 3136   4.093   4.732  12.416  0.0058  0.1116  0.9040
  203MPD1    C1 3137   4.191   4.659  12.354 -0.0284  0.4919  0.8487
  203MPD1    C2 3138   4.204   4.523  12.385  0.9457 -0.0080  0.3646
  203MPD1    C3 3139   4.122   4.464  12.475 -0.2265 -0.3186  0.4080
  203MPD1    C4 3140   4.014   4.540  12.533  0.1783 -0.1541 -0.5766
  203MPD1    C5 3141   4.013   4.677  12.504 -1.1175 -0.1426 -0.6594
  203MPD1     H 3142   4.290   4.473  12.342 -0.9948 -1.3927 -1.9488
  203MPD1    H1 3143   3.954   4.509  12.617 -2.1439  2.1496 -1.4186
  203MPD1    H2 3144   4.091   0.103  12.404  1.2801 -0.1143 -1.3778
  203MPD1    H3 3145   3.944   0.010  12.550  1.9081  1.2276  1.8148
  203MPD1     N 3146   4.161   4.335  12.525 -0.4643  0.0125  0.2103
  203MPD1    H5 3147   4.244   4.295  12.480  0.2939  0.4375  1.2339
  203MPD1    N1 3148   4.289   4.721  12.276  0.2504  0.5549 -0.0535
  203MPD1    H6 3149   4.237   0.045  12.213  0.9609 -0.8423 -1.9748
  203MPD1    H7 3150   4.339   4.651  12.222 -0.5489  0.9808 -1.3683
  204MPD1     C 3151   3.937   0.798  17.456  0.2413 -0.4376 -0.3436
  204MPD1    C1 3152   3.993   0.758  17.334  0.1425  0.6213 -0.4569
  204MPD1    C2 3153   3.907   0.700  17.245  0.0555  0.3128 -0.7531
  204MPD1    C3 3154   3.778   0.677  17.278  0.1175 -0.3152 -0.3717
  204MPD1    C4 3155   3.718   0.732  17.387 -0.6047  0.3005 -0.3021
  204MPD1    C5 3156   3.799   0.794  17.475 -0.6406  0.2669 -0.8007
  204MPD1     H 3157   3.944   0.639  17.164 -1.8412  0.1560 -1.5112
  204MPD1    H1 3158   3.610   0.731  17.398 -0.7821  0.1124 -2.0402
  204MPD1    H2 3159   3.996   0.863  17.520 -1.5778 -0.1280  1.0007
  204MPD1    H3 3160   3.752   0.848  17.556 -1.6770  0.9109 -1.8383
  204MPD1     N 3161   3.706   0.595  17.188 -0.6698  0.5123 -0.2070
  204MPD1    H5 3162   3.752   0.583  17.098  0.7870 -0.0413  0.6063
  204MPD1    N1 3163   4.133   0.757  17.322 -0.0716 -0.4495  0.1184
  204MPD1    H6 3164   4.158   0.836  17.381 -0.7429  0.4323 -0.7690
  204MPD1    H7 3165   4.164   0.778  17.227 -2.4628 -1.6700 -0.9411
  205MPD1     C 3166   4.506   4.174  16.765 -0.1841 -0.6502  0.5568
  205MPD1    C1 3167   4.497   4.060  16.840 -0.3475  0.2749  0.2062
  205MPD1    C2 3168   4.402   4.048  16.942 -0.6269  0.1570 -0.0961
  205MPD1    C3 3169   4.314   4.147  16.974 -0.8227  0.0852  0.8849
  205MPD1    C4 3170   4.339   4.266  16.906  0.2266  0.5225 -0.0041
  205MPD1    C5 3171   4.432   4.282  16.811  0.3693  0.8959  0.3625
  205MPD1     H 3172   4.391   3.950  16.986 -0.4005  0.0809 -0.2090
  205MPD1    H1 3173   4.280   4.355  16.924 -1.4549 -0.5862  0.0440
  205MPD1    H2 3174   4.574   4.174  16.681 -0.7243 -2.1350  0.1189
  205MPD1    H3 3175   4.440   4.380  16.764 -0.0523  1.4639  1.4712
  205MPD1     N 3176   4.213   4.144  17.066 -0.4167 -0.1043 -0.0919
  205MPD1    H5 3177   4.145   4.219  17.064 -0.8596 -0.5151 -0.3998
  205MPD1    N1 3178   4.572   3.938  16.806  0.2208 -0.0212  0.4356
  205MPD1    H6 3179   4.668   3.961  16.782  0.2035  0.9129  1.2710
  205MPD1    H7 3180   4.562   3.866  16.877  1.5832 -1.1344 -0.5113
  206MPD1     C 3181   3.265   1.388  16.938 -0.3307 -0.3368  0.0335
  206MPD1    C1 3182   3.327   1.344  16.826 -1.0568  0.7518  0.2236
  206MPD1    C2 3183   3.389   1.434  16.742 -0.4031 -0.6053 -0.1092
  206MPD1    C3 3184   3.378   1.568  16.767  0.0776  0.1641  0.2054
  206MPD1    C4 3185   3.309   1.616  16.871  0.5716 -0.0139 -0.1385
  206MPD1    C5 3186   3.249   1.523  16.955  0.2118 -0.0923 -0.3907
  206MPD1     H 3187   3.453   1.393  16.664 -1.2233 -0.4492 -0.8690
  206MPD1    H1 3188   3.292   1.722  16.887 -0.8371 -0.4432  1.2278
  206MPD1    H2 3189   3.232   1.315  17.011  0.0356  0.1559  0.6994
  206MPD1    H3 3190   3.203   1.568  17.043  0.9454 -0.8999  0.4065
  206MPD1     N 3191   3.444   1.670  16.699 -0.3446  0.0999  0.4344
  206MPD1    H5 3192   3.434   1.767  16.725  0.4871  0.7896 -1.7857
  206MPD1    N1 3193   3.354   1.204  16.828 -0.1127  0.1912 -0.4689
  206MPD1    H6 3194   3.376   1.161  16.738  0.6997  0.7656 -0.5446
  206MPD1    H7 3195   3.274   1.157  16.870 -0.2809  1.4643  0.6266
  207MPD1     C 3196   0.537   4.509   9.979 -0.2917 -0.2171  0.0483
  207MPD1    C1 3197   0.522   4.452  10.104 -0.0289 -0.4068 -0.1008
  207MPD1    C2 3198   0.614   4.493  10.210  0.3297  0.0393  0.1434
  207MPD1    C3 3199   0.707   4.590  10.192  0.0642 -0.0733 -0.5215
  207MPD1    C4 3200   0.698   4.660  10.073  0.3483 -0.3077 -0.1556
  207MPD1    C5 3201   0.610   4.629   9.969  0.0117 -0.1878  0.2327
  207MPD1     H 3202   0.610   4.441  10.305  0.1586 -1.5416 -0.7179
  207MPD1    H1 3203   0.762   0.008  10.051  0.7616 -0.5470  0.1219
  207MPD1    H2 3204   0.468   4.475   9.902  0.3474  0.5773 -0.8851
  207MPD1    H3 3205   0.604   4.684   9.876 -0.3111 -0.0232  0.3514
  207MPD1     N 3206   0.811   4.615  10.282  0.0381  0.0529 -0.1671
  207MPD1    H5 3207   0.882   4.685  10.262 -0.6720  1.3156  1.6776
  207MPD1    N1 3208   0.426   4.354  10.116 -0.1794 -0.9625 -0.2946
  207MPD1    H6 3209   0.333   4.359  10.074 -0.6735 -2.2561  0.6643
  207MPD1    H7 3210   0.420   4.322  10.212  0.0263 -0.0898  0.0141
  208MPD1     C 3211   4.679   3.181  17.083 -0.1618  0.1453  0.1089
  208MPD1    C1 3212   4.565   3.255  17.075 -0.5518  0.1260 -0.1000
  208MPD1    C2 3213   4.471   3.240  17.181  0.4143  0.3326 -0.1517
  208MPD1    C3 3214   4.484   3.136  17.274  0.2897  1.1160  0.0121
  208MPD1    C4 3215   4.591   3.047  17.260  0.0020 -0.3069 -0.7491
  208MPD1    C5 3216   4.697   3.079  17.179  0.1251  0.8999  0.0741
  208MPD1     H 3217   4.384   3.304  17.180 -0.0682 -0.3194 -0.0808
  208MPD1    H1 3218   4.609   2.960  17.323 -0.3251 -1.3430 -2.0829
  208MPD1    H2 3219   0.027   3.208  17.021 -0.4642  3.5116  1.1242
  208MPD1    H3 3220   0.047   3.017  17.160  1.0028  2.8197 -2.2799
  208MPD1     N 3221   4.387   3.120  17.373 -0.7211 -0.4962  0.6291
  208MPD1    H5 3222   4.321   3.196  17.384 -1.4254 -0.7942 -1.4421
  208MPD1    N1 3223   4.555   3.360  16.983  0.4523  0.5226 -0.6371
  208MPD1    H6 3224   4.609   3.352  16.897  0.2962 -3.4522 -0.3755
  208MPD1    H7 3225   4.461   3.362  16.945 -0.6412  0.7545  2.1170
  209MPD1     C 3226   1.484   3.505  11.103  0.1826  0.1312 -0.1001
  209MPD1    C1 3227   1.466   3.611  11.006  0.3935  0.7916  0.1994
  209MPD1    C2 3228   1.469   3.742  11.047  0.4284 -0.0219 -0.0550
  209MPD1    C3 3229   1.494   3.770  11.188 -0.3959  0.0469 -0.6212
  209MPD1    C4 3230   1.508   3.662  11.283 -0.1780  0.5887 -0.1311
  209MPD1    C5 3231   1.503   3.530  11.240  0.2854  0.4068 -0.2841
  209MPD1     H 3232   1.453   3.822  10.975  2.3972  0.8572  0.5191
  209MPD1    H1 3233   1.502   3.673  11.391  1.1685 -2.0113  0.2225
  209MPD1    H2 3234   1.478   3.403  11.068 -1.4435 -0.0751  0.7822
  209MPD1    H3 3235   1.508   3.446  11.308  0.2904 -0.3940 -1.2676
  209MPD1     N 3236   1.505   3.903  11.230 -0.4535  0.1140  0.4530
  209MPD1    H5 3237   1.462   3.971  11.168  1.2383  0.8885  0.1193
  209MPD1    N1 3238   1.426   3.555  10.880 -0.2048  0.1487  0.6198
  209MPD1    H6 3239   1.466   3.597  10.796 -0.9345  0.4578  0.4326
  209MPD1    H7 3240   1.447   3.456  10.875 -1.4308 -0.1588  1.6843
  210MPD1     C 3241   1.727   4.730  11.923  0.1947  0.2672 -0.2903
  210MPD1    C1 3242   1.757   4.589  11.935  0.0442  0.6179  0.3107
  210MPD1    C2 3243   1.725   4.512  11.826 -0.1095 -0.2861  0.8195
  210MPD1    C3 3244   1.683   4.565  11.707 -1.0250 -0.3814  0.1147
  210MPD1    C4 3245   1.668   4.702  11.697  0.3161 -0.1917  0.3601
  210MPD1    C5 3246   1.699   0.046  11.801  0.3839  0.6345 -0.0536
  210MPD1     H 3247   1.736   4.408  11.854  2.8070  0.3622  2.0992
  210MPD1    H1 3248   1.621   0.001  11.606  0.7480 -0.0126  0.2058
  210MPD1    H2 3249   1.732   0.068  12.002  1.0174  0.8653 -0.9019
  210MPD1    H3 3250   1.682   0.153  11.792  0.0687  0.8469  3.1201
  210MPD1     N 3251   1.636   4.488  11.595  0.6198  0.1524  0.1610
  210MPD1    H5 3252   1.594   4.534  11.515 -0.7570  0.0803  0.8399
  210MPD1    N1 3253   1.776   4.533  12.061 -0.2391 -0.1599  0.4198
  210MPD1    H6 3254   1.823   4.592  12.130  1.1502 -0.4023 -0.3176
  210MPD1    H7 3255   1.809   4.437  12.065  0.2022  0.0391  1.6951
  211MPD1     C 3256   4.103   2.800  17.293 -0.3150 -0.5220  0.2723
  211MPD1    C1 3257   3.971   2.803  17.331  0.5757 -0.4230 -0.4259
  211MPD1    C2 3258   3.889   2.909  17.294 -0.1322  0.3520 -0.3623
  211MPD1    C3 3259   3.937   3.018  17.222 -0.1324  0.0422 -0.8717
  211MPD1    C4 3260   4.066   3.015  17.182 -0.1731  0.1106 -0.6476
  211MPD1    C5 3261   4.146   2.907  17.221  0.7718  0.4761 -0.0028
  211MPD1     H 3262   3.789   2.908  17.337  0.4113 -0.3411  0.9101
  211MPD1    H1 3263   4.106   3.092  17.118  0.5142 -0.3755 -0.8012
  211MPD1    H2 3264   4.178   2.728  17.323  0.8927 -0.0332 -1.6025
  211MPD1    H3 3265   4.251   2.911  17.195  0.4442  2.6264 -0.9469
  211MPD1     N 3266   3.861   3.129  17.189  0.4929 -0.2924  0.3790
  211MPD1    H5 3267   3.761   3.114  17.199  0.2080  1.7615  0.5217
  211MPD1    N1 3268   3.931   2.700  17.416 -0.1361 -1.1375 -0.7136
  211MPD1    H6 3269   3.843   2.650  17.404 -0.9298 -0.7952  3.7944
  211MPD1    H7 3270   3.997   2.623  17.420  1.4827  0.3208  0.6778
  212MPD1     C 3271   3.009   2.363  16.918 -0.1175 -0.2529 -0.7762
  212MPD1    C1 3272   3.025   2.252  16.836  0.1887  0.5404  0.6082
  212MPD1    C2 3273   2.967   2.133  16.877  0.2464 -0.6944 -0.1361
  212MPD1    C3 3274   2.903   2.125  17.000  0.2126  0.7103 -0.1085
  212MPD1    C4 3275   2.896   2.240  17.085  0.0328 -0.3580 -0.8439
  212MPD1    C5 3276   2.962   2.353  17.044 -0.1844  0.4731  0.8435
  212MPD1     H 3277   2.964   2.051  16.806  1.8099 -0.7404 -0.1466
  212MPD1    H1 3278   2.837   2.242  17.176  2.5235  0.7195  0.7545
  212MPD1    H2 3279   3.050   2.461  16.896 -0.4778  0.0102 -0.2766
  212MPD1    H3 3280   2.947   2.449  17.092 -0.4108  1.4426 -1.1488
  212MPD1     N 3281   2.857   2.004  17.053  0.3810 -0.1313 -0.3716
  212MPD1    H5 3282   2.802   2.006  17.138 -0.9621 -0.2613 -1.2264
  212MPD1    N1 3283   3.074   2.275  16.706 -0.8523 -0.6072  0.2015
  212MPD1    H6 3284   3.131   2.356  16.684  3.5735 -2.4746  4.9821
  212MPD1    H7 3285   3.121   2.194  16.665  0.5415 -0.0229  0.6658
  213MPD1     C 3286   1.451   2.770  16.083  0.7726  0.8581 -0.1768
  213MPD1    C1 3287   1.373   2.664  16.028  0.2039 -0.4079 -0.0548
  213MPD1    C2 3288   1.385   2.663  15.890  0.0526  0.9703  0.0151
  213MPD1    C3 3289   1.422   2.770  15.817  0.4212 -0.5670 -0.0191
  213MPD1    C4 3290   1.476   2.890  15.876 -0.2186 -0.6264  0.3348
  213MPD1    C5 3291   1.490   2.883  16.010  0.2889  0.3897 -0.9044
  213MPD1     H 3292   1.339   2.575  15.847 -1.0275  0.6218  1.8559
  213MPD1    H1 3293   1.501   2.974  15.812 -1.2027 -2.1903 -2.1196
  213MPD1    H2 3294   1.460   2.785  16.190 -2.2606  1.8243 -0.0530
  213MPD1    H3 3295   1.543   2.967  16.054  1.1148 -0.4592 -0.2775
  213MPD1     N 3296   1.398   2.753  15.677  0.5185  0.1391 -0.3537
  213MPD1    H5 3297   1.368   2.658  15.659  0.9084  0.2862 -1.8620
  213MPD1    N1 3298   1.357   2.553  16.104  0.1311  0.3150 -0.4033
  213MPD1    H6 3299   1.278   2.496  16.075  2.9572 -3.1685 -1.1114
  213MPD1    H7 3300   1.342   2.571  16.204  2.9738  1.2133 -0.1230
  214MPD1     C 3301   0.864   2.284  14.978  0.4174 -0.3498 -0.5866
  214MPD1    C1 3302   0.818   2.345  15.091  0.5292 -0.9188 -0.8618
  214MPD1    C2 3303   0.912   2.428  15.155  0.2876  0.0631 -0.7167
  214MPD1    C3 3304   1.034   2.464  15.090 -0.4046  0.0793 -0.5643
  214MPD1    C4 3305   1.067   2.397  14.976 -0.5666 -0.3061  0.0046
  214MPD1    C5 3306   0.986   2.299  14.923 -0.3766 -0.3711  0.3007
  214MPD1     H 3307   0.883   2.475  15.248  0.3324 -1.3581  0.0132
  214MPD1    H1 3308   1.156   2.414  14.915  0.8184  1.8026  2.6307
  214MPD1    H2 3309   0.800   2.220  14.918 -0.9593  0.0115  0.4796
  214MPD1    H3 3310   1.018   2.258  14.828 -0.4764 -1.0808  0.5711
  214MPD1     N 3311   1.131   2.557  15.138  0.6992  0.5586 -0.4327
  214MPD1    H5 3312   1.208   2.578  15.075 -1.1843  1.8121 -2.2734
  214MPD1    N1 3313   0.704   2.308  15.151 -0.0091 -0.6356 -0.0799
  214MPD1    H6 3314   0.656   2.386  15.195  1.0564  0.0413 -0.1108
  214MPD1    H7 3315   0.637   2.278  15.080 -0.0511  0.0542 -0.3310
  215MPD1     C 3316   0.111   4.022  11.805  0.7770  0.3669 -0.5957
  215MPD1    C1 3317   0.228   4.059  11.863 -0.0198 -0.1786  0.3172
  215MPD1    C2 3318   0.337   4.092  11.783 -0.1431 -0.3388  0.5188
  215MPD1    C3 3319   0.336   4.088  11.649  0.1603  0.1696  0.4046
  215MPD1    C4 3320   0.217   4.058  11.594  0.0719  0.2199  0.2517
  215MPD1    C5 3321   0.106   4.030  11.671 -0.0072 -0.5671 -0.2395
  215MPD1     H 3322   0.422   4.130  11.839 -0.7088  1.5042  0.1440
  215MPD1    H1 3323   0.197   4.071  11.488  1.3842  0.1130 -0.0157
  215MPD1    H2 3324   0.020   3.996  11.858  0.0717  0.5138 -1.7322
  215MPD1    H3 3325   0.012   4.000  11.628 -0.7409  3.7932 -1.7394
  215MPD1     N 3326   0.459   4.129  11.581 -0.2975  0.2650 -0.1784
  215MPD1    H5 3327   0.547   4.144  11.629 -1.1162 -1.3526  1.8337
  215MPD1    N1 3328   0.246   4.042  12.002 -0.0409 -0.3373 -0.3116
  215MPD1    H6 3329   0.316   4.099  12.049 -1.6178  0.8944  0.5390
  215MPD1    H7 3330   0.164   4.061  12.058 -0.8896 -1.6792 -1.1066
  216MPD1     C 3331   3.162   2.155   0.951 -1.3992  0.4211  0.0858
  216MPD1    C1 3332   3.249   2.049   0.926  0.1944 -0.1266 -0.3110
  216MPD1    C2 3333   3.206   1.938   0.859  0.0905  0.0563  0.2232
  216MPD1    C3 3334   3.077   1.930   0.814  0.6641  0.4322  0.0444
  216MPD1    C4 3335   2.994   2.032   0.826 -0.0132  0.4583  0.1083
  216MPD1    C5 3336   3.040   2.150   0.897  0.0210  0.4202 -0.2516
  216MPD1     H 3337   3.271   1.852   0.847 -0.3037 -0.2875  0.5374
  216MPD1    H1 3338   2.889   2.039   0.803  0.0118 -1.9313 -0.6807
  216MPD1    H2 3339   3.186   2.249   1.000  2.5563 -1.7179  2.2777
  216MPD1    H3 3340   2.966   2.227   0.917 -1.0155 -0.6724  0.1149
  216MPD1     N 3341   3.040   1.809   0.751  0.1848 -0.3042 -0.5998
  216MPD1    H5 3342   3.110   1.735   0.754 -0.4873 -0.7927  3.0837
  216MPD1    N1 3343   3.379   2.054   0.989 -0.1889  0.2141 -0.5598
  216MPD1    H6 3344   3.452   2.019   0.928 -1.7237 -1.6366 -1.3419
  216MPD1    H7 3345   3.391   2.154   1.003 -1.2762  0.2519  0.0907
  217MPD1     C 3346   4.511   3.792   9.285 -0.2597  0.4155 -0.6619
  217MPD1    C1 3347   4.580   3.686   9.231  0.2630  0.1498 -0.2395
  217MPD1    C2 3348   4.528   3.561   9.244 -0.5145  0.2446 -0.4600
  217MPD1    C3 3349   4.411   3.541   9.314  0.9656 -0.4800  0.0790
  217MPD1    C4 3350   4.344   3.643   9.377  0.4643 -0.0061  0.5451
  217MPD1    C5 3351   4.393   3.769   9.364  0.7249  0.9812  0.1695
  217MPD1     H 3352   4.580   3.475   9.204  1.6634  0.6571  1.4694
  217MPD1    H1 3353   4.256   3.625   9.438 -1.9738  2.9800 -2.0465
  217MPD1    H2 3354   4.537   3.895   9.265  1.1244  0.6091  2.1670
  217MPD1    H3 3355   4.339   3.854   9.404 -1.9666 -1.4112  1.5814
  217MPD1     N 3356   4.349   3.416   9.330 -0.6336 -0.0633  0.1759
  217MPD1    H5 3357   4.269   3.415   9.393 -0.8049 -2.7529 -0.0419
  217MPD1    N1 3358   4.687   3.705   9.144 -0.1260 -0.0417 -0.0610
  217MPD1    H6 3359   4.734   3.795   9.158 -0.8144  0.3179 -0.0593
  217MPD1    H7 3360   0.017   3.628   9.144  1.0349  0.9261  2.6975
  218MPD1     C 3361   1.054   2.921  13.253  1.3811 -0.3507 -0.5749
  218MPD1    C1 3362   1.053   2.970  13.127  0.0731  0.1114  0.3975
  218MPD1    C2 3363   1.068   3.103  13.103 -0.3926  0.0937  0.2109
  218MPD1    C3 3364   1.062   3.192  13.209 -0.0411  0.0667 -0.0871
  218MPD1    C4 3365   1.067   3.143  13.337  0.5823  0.5415 -0.6180
  218MPD1    C5 3366   1.064   3.005  13.363 -0.1976 -0.5195  0.5801
  218MPD1     H 3367   1.081   3.137  13.000 -3.6211  0.3608 -0.1061
  218MPD1    H1 3368   1.083   3.199  13.428  0.9943 -0.1703 -0.2433
  218MPD1    H2 3369   1.038   2.818  13.283 -0.7284  0.4509  1.0792
  218MPD1    H3 3370   1.057   2.969  13.465  0.7916 -1.4312  0.3265
  218MPD1     N 3371   1.084   3.330  13.176  0.5542 -0.0725 -0.3049
  218MPD1    H5 3372   1.109   3.355  13.081 -0.9508 -0.2515 -0.7473
  218MPD1    N1 3373   1.057   2.880  13.020  0.0498 -0.0732  0.3737
  218MPD1    H6 3374   1.007   2.794  13.045  0.0513 -0.8773 -2.3454
  218MPD1    H7 3375   1.006   2.920  12.941 -0.2607 -2.7961 -0.8193
  219MPD1     C 3376   0.500   4.124  13.202 -0.1684  0.7686 -0.3808
  219MPD1    C1 3377   0.626   4.169  13.170  0.3979  0.6255 -0.1224
  219MPD1    C2 3378   0.734   4.077  13.155 -0.1853  0.1682 -0.1173
  219MPD1    C3 3379   0.724   3.943  13.192  0.1725  0.1595 -0.3888
  219MPD1    C4 3380   0.600   3.898  13.231  0.1624  0.0880  0.5813
  219MPD1    C5 3381   0.490   3.989  13.226 -0.1867  0.0018 -0.0456
  219MPD1     H 3382   0.826   4.116  13.114  1.0390  1.3914  3.7839
  219MPD1    H1 3383   0.589   3.799  13.274 -0.9614 -0.4686 -0.9911
  219MPD1    H2 3384   0.411   4.184  13.195  0.2832  1.5292  0.4806
  219MPD1    H3 3385   0.394   3.948  13.257  0.0131 -1.7381 -1.7038
  219MPD1     N 3386   0.830   3.851  13.182 -0.5460  0.3241 -0.1052
  219MPD1    H5 3387   0.819   3.760  13.225 -0.0309  1.6472  2.8166
  219MPD1    N1 3388   0.652   4.307  13.124 -0.0114  0.0409  0.2868
  219MPD1    H6 3389   0.744   4.338  13.155  1.0568 -2.3886 -0.5282
  219MPD1    H7 3390   0.584   4.375  13.157  2.4566  1.7362  1.9449
  220MPD1     C 3391   0.398   0.421   9.770 -0.0870  0.1873  0.0022
  220MPD1    C1 3392   0.455   0.443   9.895  0.1489 -0.5810 -0.0611
  220MPD1    C2 3393   0.431   0.354   9.995 -0.0714 -0.6695 -0.0833
  220MPD1    C3 3394   0.374   0.231   9.975 -0.2796  0.7331 -0.0995
  220MPD1    C4 3395   0.330   0.204   9.848 -0.3773 -0.2662 -0.2184
  220MPD1    C5 3396   0.336   0.304   9.740  0.4188 -0.0267  0.3214
  220MPD1     H 3397   0.460   0.376  10.097  0.9465  0.9762 -0.7263
  220MPD1    H1 3398   0.279   0.112   9.822  1.7068 -1.2708 -0.7803
  220MPD1    H2 3399   0.418   0.496   9.694 -0.5962  1.2432  0.8966
  220MPD1    H3 3400   0.298   0.287   9.639  0.6281  0.6881  0.1194
  220MPD1     N 3401   0.359   0.139  10.085 -0.2647  0.2548 -0.7584
  220MPD1    H5 3402   0.385   0.174  10.176 -0.5534 -1.6288  0.0321
  220MPD1    N1 3403   0.518   0.567   9.919 -0.6417  0.3636  0.3737
  220MPD1    H6 3404   0.536   0.620   9.834  1.6787  0.4618  0.9177
  220MPD1    H7 3405   0.604   0.562   9.973 -0.6795  2.0090  0.5849
  221MPD1     C 3406   4.122   3.669  16.534 -0.1615 -0.2519  0.0734
  221MPD1    C1 3407   4.182   3.659  16.656 -0.4420 -0.1083 -0.0001
  221MPD1    C2 3408   4.200   3.530  16.700 -0.3536 -1.0015 -0.7148
  221MPD1    C3 3409   4.135   3.421  16.636 -0.4373 -0.2569  0.7531
  221MPD1    C4 3410   4.066   3.440  16.520 -0.1174 -0.3344 -0.1110
  221MPD1    C5 3411   4.047   3.566  16.472 -0.2463  0.1347  0.0396
  221MPD1     H 3412   4.255   3.523  16.794 -1.1175 -1.6681 -0.3168
  221MPD1    H1 3413   4.023   3.354  16.470  0.3486 -0.0810 -0.9468
  221MPD1    H2 3414   4.126   3.753  16.465 -4.4863  0.8169  1.0831
  221MPD1    H3 3415   3.991   3.582  16.380 -1.0883  1.2244  0.7391
  221MPD1     N 3416   4.150   3.288  16.679  0.2157  0.1014  0.2130
  221MPD1    H5 3417   4.112   3.217  16.617  0.2075  0.1553  0.1558
  221MPD1    N1 3418   4.266   3.760  16.703 -1.3022  0.3169  0.4043
  221MPD1    H6 3419   4.216   3.845  16.678 -0.9379  1.0147  2.0088
  221MPD1    H7 3420   4.286   3.753  16.803 -2.0813 -1.8073  0.4092
  222MPD1     C 3421   3.351   1.902  17.286 -0.3752 -0.4813 -0.2437
  222MPD1    C1 3422   3.242   1.943  17.218 -0.0143  0.6508  0.4094
  222MPD1    C2 3423   3.132   2.001  17.282 -0.1594  0.4033 -0.4438
  222MPD1    C3 3424   3.139   2.030  17.415 -1.5003 -0.4490 -0.3458
  222MPD1    C4 3425   3.254   1.991  17.487 -0.0977 -0.1912 -0.1884
  222MPD1    C5 3426   3.351   1.928  17.417 -0.1045 -0.6738  0.5289
  222MPD1     H 3427   3.033   2.024  17.243 -0.4290  0.0042  0.0099
  222MPD1    H1 3428   3.268   2.001  17.594  0.6477  0.2004 -0.3224
  222MPD1    H2 3429   3.443   1.867  17.240 -0.5261  0.5097 -1.3176
  222MPD1    H3 3430   3.430   1.876  17.470  1.1129  0.4924 -0.1340
  222MPD1     N 3431   3.027   2.077  17.494  0.1202  0.2127  0.0323
  222MPD1    H5 3432   3.053   2.099  17.589 -0.4163 -1.2205  0.5099
  222MPD1    N1 3433   3.221   1.906  17.085 -0.4119  0.4460  0.7834
  222MPD1    H6 3434   3.158   1.970  17.037  1.4184  1.8786  0.2876
  222MPD1    H7 3435   3.307   1.893  17.033  0.0793  0.9330  1.4724
  223MPD1     C 3436   2.121   1.903   0.283  0.1379  0.7476  0.8259
  223MPD1    C1 3437   2.162   2.017   0.337 -0.7352  0.0756  0.7581
  223MPD1    C2 3438   2.264   2.090   0.275 -0.0316 -0.7918 -0.2574
  223MPD1    C3 3439   2.324   2.049   0.156 -0.7105 -0.0349 -0.3845
  223MPD1    C4 3440   2.267   1.931   0.099  0.1729 -0.0720  0.0494
  223MPD1    C5 3441   2.172   1.858   0.158 -0.0639 -0.3550  0.7783
  223MPD1     H 3442   2.306   2.177   0.324 -1.5733 -0.3310  0.2639
  223MPD1    H1 3443   2.301   1.903  17.745 -0.8950  0.2969 -0.4158
  223MPD1    H2 3444   2.045   1.853   0.342 -0.6432  0.3414 -0.5060
  223MPD1    H3 3445   2.130   1.773   0.106 -1.2199 -0.4881  1.9382
  223MPD1     N 3446   2.441   2.109   0.103 -0.3560  0.2949 -0.4790
  223MPD1    H5 3447   2.489   2.179   0.158 -0.8489 -1.4783  2.2407
  223MPD1    N1 3448   2.106   2.057   0.458  0.0951  0.0651 -0.3791
  223MPD1    H6 3449   2.127   2.157   0.467 -0.5214  0.0866  0.7559
  223MPD1    H7 3450   2.005   2.051   0.459 -0.0660  2.6356  0.0333
  224MPD1     C 3451   0.186   4.009   9.541  0.0430 -0.1980 -0.1887
  224MPD1    C1 3452   0.274   3.935   9.614  0.0948 -0.6293 -0.0818
  224MPD1    C2 3453   0.219   3.832   9.688  0.3047 -0.0680 -0.0124
  224MPD1    C3 3454   0.088   3.791   9.670  0.2824 -0.4374  0.1652
  224MPD1    C4 3455   0.006   3.860   9.587 -0.4652 -0.3782 -0.2220
  224MPD1    C5 3456   0.055   3.965   9.526  0.2113  0.8897  0.5493
  224MPD1     H 3457   0.295   3.778   9.742  1.2387  0.0614 -1.1846
  224MPD1    H1 3458   4.642   3.824   9.567  0.6274 -3.1922 -0.6386
  224MPD1    H2 3459   0.212   4.104   9.496 -3.3209 -0.0787 -1.8667
  224MPD1    H3 3460   4.724   4.029   9.471 -0.3402  1.1411  1.5091
  224MPD1     N 3461   0.031   3.679   9.742 -0.1759  0.5889 -0.2480
  224MPD1    H5 3462   4.671   3.650   9.728 -0.2022  0.7378 -0.3858
  224MPD1    N1 3463   0.399   3.986   9.639 -0.1791 -0.3343  0.1103
  224MPD1    H6 3464   0.447   4.038   9.566 -1.8036  0.3035 -0.4923
  224MPD1    H7 3465   0.465   3.916   9.673 -1.6266 -1.6601  0.2255
  225MPD1     C 3466   1.370   0.365  13.057  0.6559  0.7834 -0.4373
  225MPD1    C1 3467   1.336   0.240  13.013  0.4753 -0.0797 -0.1482
  225MPD1    C2 3468   1.213   0.186  13.049  0.3795 -0.1613  0.3752
  225MPD1    C3 3469   1.118   0.267  13.109 -0.2955  0.0812 -0.3682
  225MPD1    C4 3470   1.155   0.393  13.134 -0.1736 -0.2130 -0.4990
  225MPD1    C5 3471   1.276   0.443  13.115 -0.9048  0.3264  0.7548
  225MPD1     H 3472   1.190   0.088  13.007 -2.0381  0.5835 -0.0168
  225MPD1    H1 3473   1.077   0.461  13.169  0.6468 -0.1928  1.2871
  225MPD1    H2 3474   1.466   0.412  13.034  1.5201  0.0485  1.6244
  225MPD1    H3 3475   1.302   0.543  13.147 -1.3005  0.7589 -0.2881
  225MPD1     N 3476   0.982   0.228  13.130 -0.7249  0.1023  0.3643
  225MPD1    H5 3477   0.921   0.306  13.151 -0.2811  0.8707 -1.1923
  225MPD1    N1 3478   1.426   0.156  12.951  0.9835 -0.2641  0.0405
  225MPD1    H6 3479   1.394   0.072  12.905 -0.9274  0.3740  0.2006
  225MPD1    H7 3480   1.482   0.210  12.886 -2.3234  2.6966 -0.3715
  226MPD1     C 3481   3.718   0.869   9.091 -0.0690 -0.6700 -0.4120
  226MPD1    C1 3482   3.640   0.782   9.153  0.1603  0.2919 -0.7069
  226MPD1    C2 3483   3.702   0.696   9.244 -0.1558  0.1013 -0.6248
  226MPD1    C3 3484   3.835   0.708   9.277 -1.3516  0.4006 -0.3523
  226MPD1    C4 3485   3.905   0.811   9.229  0.2434 -0.3603  0.7655
  226MPD1    C5 3486   3.850   0.892   9.130 -0.0851  0.2967  0.3914
  226MPD1     H 3487   3.646   0.616   9.292 -0.7508  0.6922 -0.3358
  226MPD1    H1 3488   3.998   0.847   9.273  0.9987  0.4076 -1.4796
  226MPD1    H2 3489   3.679   0.938   9.017 -2.9202 -3.1806 -1.2564
  226MPD1    H3 3490   3.901   0.981   9.095 -1.0085  0.7346  0.1509
  226MPD1     N 3491   3.884   0.612   9.363  0.0395  0.2870 -0.4794
  226MPD1    H5 3492   3.822   0.538   9.393 -0.4208  1.3985  1.3148
  226MPD1    N1 3493   3.508   0.768   9.107 -0.3086 -0.2421  0.3744
  226MPD1    H6 3494   3.445   0.726   9.176  1.7737  0.3747  2.6565
  226MPD1    H7 3495   3.464   0.844   9.054 -0.1319 -0.4253 -0.0329
  227MPD1     C 3496   3.631   4.490   9.747  0.4173  0.2137 -0.2612
  227MPD1    C1 3497   3.763   4.466   9.739 -0.7529 -0.3023  0.0020
  227MPD1    C2 3498   3.835   4.575   9.718 -0.0164 -0.2089 -0.5989
  227MPD1    C3 3499   3.787   4.703   9.684  0.3124  0.0166 -0.1403
  227MPD1    C4 3500   3.657   4.724   9.691  0.5506 -0.7479  0.2911
  227MPD1    C5 3501   3.575   4.617   9.728  0.1151  0.1257 -0.7045
  227MPD1     H 3502   3.941   4.557   9.702  0.6614  1.7088  1.7326
  227MPD1    H1 3503   3.615   0.085   9.668 -1.5205 -1.8916 -0.7183
  227MPD1    H2 3504   3.562   4.408   9.763  1.2159  0.2330  3.4523
  227MPD1    H3 3505   3.470   4.631   9.747  0.5033 -0.4271  1.8871
  227MPD1     N 3506   3.888   0.066   9.655 -0.2462  1.6070  0.2465
  227MPD1    H5 3507   3.983   0.032   9.645 -1.3408 -2.2826  2.9216
  227MPD1    N1 3508   3.818   4.340   9.768  0.1309 -0.1481  0.2096
  227MPD1    H6 3509   3.746   4.283   9.813 -1.2397  1.0344 -0.4976
  227MPD1    H7 3510   3.897   4.347   9.832  0.4837  0.6376 -0.3171
  228MPD1     C 3511   3.457   2.634  13.155  0.3039  0.3629 -0.1950
  228MPD1    C1 3512   3.400   2.662  13.033  0.1138 -0.3503  0.3645
  228MPD1    C2 3513   3.260   2.665  13.023 -0.3901 -1.0550 -0.1639
  228MPD1    C3 3514   3.182   2.635  13.132  0.4523  0.1587 -1.0902
  228MPD1    C4 3515   3.240   2.612  13.252 -0.0115  0.3489  0.2439
  228MPD1    C5 3516   3.379   2.616  13.266  0.1439  0.4637  0.5281
  228MPD1     H 3517   3.218   2.695  12.928  2.9339 -0.2503 -1.3639
  228MPD1    H1 3518   3.180   2.583  13.337 -0.5310  0.9854  0.0906
  228MPD1    H2 3519   3.563   2.615  13.170  0.3495  0.2002 -0.7186
  228MPD1    H3 3520   3.435   2.580  13.351 -0.1873 -1.9032 -0.2419
  228MPD1     N 3521   3.043   2.648  13.116  0.4907 -0.1983  0.2893
  228MPD1    H5 3522   3.011   2.675  13.023  1.4426  0.1875  0.0674
  228MPD1    N1 3523   3.492   2.675  12.927 -0.3269  0.3665  0.2988
  228MPD1    H6 3524   3.572   2.730  12.957 -1.0270  1.0150  0.9772
  228MPD1    H7 3525   3.453   2.726  12.848 -0.0144  0.2522  0.0738
  229MPD1     C 3526   1.872   1.496  15.469  1.2219  0.3039  1.3405
  229MPD1    C1 3527   1.842   1.365  15.434 -0.2276  0.4896 -1.4040
  229MPD1    C2 3528   1.945   1.275  15.430  0.0570  0.2040  0.0818
  229MPD1    C3 3529   2.069   1.310  15.476  0.0134 -0.2533 -0.5964
  229MPD1    C4 3530   2.093   1.431  15.525 -0.5835  0.2152 -0.1539
  229MPD1    C5 3531   1.997   1.527  15.515 -0.2875  0.3218  0.3097
  229MPD1     H 3532   1.928   1.179  15.383  0.4864 -0.7133  1.7878
  229MPD1    H1 3533   2.188   1.465  15.565 -0.4782 -0.8185  0.4731
  229MPD1    H2 3534   1.793   1.569  15.486 -0.2091 -1.3979  2.0070
  229MPD1    H3 3535   2.010   1.629  15.549 -0.2584  0.6148 -0.5689
  229MPD1     N 3536   2.180   1.221  15.477 -0.4714  0.3617 -0.3780
  229MPD1    H5 3537   2.273   1.259  15.494 -0.0012 -2.4699  3.4115
  229MPD1    N1 3538   1.716   1.321  15.387  0.0434 -0.0302  0.4536
  229MPD1    H6 3539   1.700   1.222  15.402 -0.6229  0.1318  0.7984
  229MPD1    H7 3540   1.638   1.378  15.420  0.2539  1.7080 -1.9895
  230MPD1     C 3541   2.966   0.918  16.036 -0.1335 -0.0230 -0.3129
  230MPD1    C1 3542   2.984   0.845  15.920 -0.0962 -0.3411  0.2883
  230MPD1    C2 3543   2.893   0.857  15.814  0.9823 -0.5021  0.5034
  230MPD1    C3 3544   2.789   0.949  15.814  0.4462 -0.1777 -0.3377
  230MPD1    C4 3545   2.781   1.031  15.929  0.1266 -0.1807 -0.3560
  230MPD1    C5 3546   2.861   1.011  16.037  0.1429  0.1446 -0.5227
  230MPD1     H 3547   2.916   0.804  15.722  0.4839 -2.5545  1.5558
  230MPD1    H1 3548   2.711   1.112  15.945  0.9147  0.6080 -0.8915
  230MPD1    H2 3549   3.039   0.913  16.116  1.3951 -0.4053 -1.7466
  230MPD1    H3 3550   2.847   1.072  16.125  1.4773 -0.2868 -0.0014
  230MPD1     N 3551   2.701   0.955  15.705 -0.1063  0.1498 -0.2006
  230MPD1    H5 3552   2.729   0.894  15.630 -0.1637  0.6695 -0.6493
  230MPD1    N1 3553   3.075   0.740  15.931  0.1244  0.3321 -0.0733
  230MPD1    H6 3554   3.155   0.761  15.990  0.2964  1.4767 -0.7225
  230MPD1    H7 3555   3.116   0.717  15.840 -0.6014 -1.4502  0.0400
  231MPD1     C 3556   1.007   2.811  15.820 -0.1576  0.3371  0.1797
  231MPD1    C1 3557   0.927   2.795  15.708  0.2012 -0.0159 -0.1066
  231MPD1    C2 3558   0.940   2.877  15.600  0.2835  0.3286  0.0557
  231MPD1    C3 3559   1.035   2.981  15.607 -0.5592 -0.9145  0.8881
  231MPD1    C4 3560   1.131   2.980  15.713  0.0916  0.2170  0.1256
  231MPD1    C5 3561   1.109   2.899  15.814  0.9233 -0.4676  0.2459
  231MPD1     H 3562   0.867   2.867  15.521  0.4212  3.4603 -0.4712
  231MPD1    H1 3563   1.215   3.048  15.719  0.5502 -0.4827  1.6413
  231MPD1    H2 3564   0.996   2.754  15.912  2.0566 -1.8993 -0.9510
  231MPD1    H3 3565   1.167   2.909  15.905 -1.1202 -2.4853  1.7666
  231MPD1     N 3566   1.041   3.068  15.491 -0.3205  0.4077 -0.2606
  231MPD1    H5 3567   0.975   3.037  15.421  0.2542  0.7586 -0.9481
  231MPD1    N1 3568   0.821   2.707  15.716  0.7263 -0.1793 -0.6393
  231MPD1    H6 3569   0.850   2.625  15.769  0.4920  0.4343  0.4345
  231MPD1    H7 3570   0.784   2.672  15.627  0.3093  1.2280 -1.0183
  232MPD1     C 3571   2.224   1.019   0.219 -0.5624 -0.0257 -0.0490
  232MPD1    C1 3572   2.113   0.975   0.284 -0.4287 -0.5166  0.4534
  232MPD1    C2 3573   2.089   0.841   0.297  0.6057  0.2093  0.9883
  232MPD1    C3 3574   2.174   0.748   0.231  0.5426  0.6189  0.0914
  232MPD1    C4 3575   2.301   0.790   0.175 -0.2657  0.3661 -0.8864
  232MPD1    C5 3576   2.319   0.928   0.170  0.0036 -0.0374  0.2249
  232MPD1     H 3577   1.998   0.814   0.349  0.0672 -1.2253 -0.6783
  232MPD1    H1 3578   2.370   0.712   0.143 -0.1258  0.5558 -1.0456
  232MPD1    H2 3579   2.261   1.121   0.219  0.3095 -0.3408  1.3758
  232MPD1    H3 3580   2.404   0.981   0.130 -0.2102  0.2013  0.0796
  232MPD1     N 3581   2.152   0.604   0.239 -0.9383 -0.0636  0.0975
  232MPD1    H5 3582   2.068   0.575   0.288 -0.7282  1.7342  1.5439
  232MPD1    N1 3583   2.045   1.073   0.348  0.1506 -0.0944  0.4761
  232MPD1    H6 3584   2.031   1.163   0.302  1.0670 -0.5222 -0.6471
  232MPD1    H7 3585   1.958   1.049   0.394  0.7070  1.4934  2.3331
  233MPD1     C 3586   3.071   3.913  17.105  0.4073  0.5800 -0.1372
  233MPD1    C1 3587   3.184   3.963  17.162  0.6550  0.5021 -0.0468
  233MPD1    C2 3588   3.218   3.909  17.281  0.3960  0.2362 -0.2145
  233MPD1    C3 3589   3.160   3.797  17.346  0.7735  0.5637 -0.3075
  233MPD1    C4 3590   3.045   3.758  17.282 -0.4460 -0.1779 -0.1777
  233MPD1    C5 3591   3.001   3.813  17.168  0.3816 -0.2521 -0.2692
  233MPD1     H 3592   3.309   3.951  17.322  1.6286 -2.0539 -0.6096
  233MPD1    H1 3593   2.988   3.672  17.315 -0.4590  0.0381  0.3599
  233MPD1    H2 3594   3.042   3.952  17.008  2.0674  1.3045 -0.3398
  233MPD1    H3 3595   2.914   3.769  17.121 -0.8309  2.3663 -0.5004
  233MPD1     N 3596   3.205   3.729  17.460 -0.1237  0.1674 -0.0105
  233MPD1    H5 3597   3.149   3.650  17.489  1.5854 -0.7848  0.7447
  233MPD1    N1 3598   3.265   4.057  17.093 -0.2572  0.4095 -0.4006
  233MPD1    H6 3599   3.343   4.111  17.128  0.6662 -1.1656 -0.0098
  233MPD1    H7 3600   3.206   4.114  17.032 -2.5881  0.7194  2.1613
  234MPD1     C 3601   0.276   1.642   9.989  0.1325 -0.2280  0.3469
  234MPD1    C1 3602   0.372   1.734  10.007  0.4271  0.4712  0.3543
  234MPD1    C2 3603   0.356   1.865   9.966 -0.4669 -0.0386  0.3225
  234MPD1    C3 3604   0.249   1.897   9.886 -0.9207  1.6694 -0.2809
  234MPD1    C4 3605   0.156   1.796   9.854  0.5440 -0.4440 -0.7322
  234MPD1    C5 3606   0.167   1.673   9.915 -0.0451  1.0124  0.5942
  234MPD1     H 3607   0.427   1.941   9.997 -1.4614  0.8785  0.3613
  234MPD1    H1 3608   0.070   1.810   9.789 -0.3119 -2.6517 -0.0864
  234MPD1    H2 3609   0.287   1.538  10.019 -0.8756 -0.4518 -0.0649
  234MPD1    H3 3610   0.097   1.595   9.889 -2.1481  3.3882 -0.9320
  234MPD1     N 3611   0.240   2.028   9.834  0.5425  0.4294 -0.2749
  234MPD1    H5 3612   0.314   2.095   9.852  1.9752 -0.5069 -2.7884
  234MPD1    N1 3613   0.484   1.704  10.087 -0.0768  0.7736  0.0973
  234MPD1    H6 3614   0.502   1.604  10.084  0.2940  0.8092  1.2984
  234MPD1    H7 3615   0.562   1.758  10.049  1.5222 -3.8553 -3.2306
  235MPD1     C 3616   1.719   0.168  11.219  0.3263 -0.2704  0.3210
  235MPD1    C1 3617   1.827   0.245  11.188 -0.0825 -0.7537  0.5382
  235MPD1    C2 3618   1.824   0.319  11.071 -0.3383 -0.3561 -0.4627
  235MPD1    C3 3619   1.734   0.291  10.973  0.5000  0.0104  0.4790
  235MPD1    C4 3620   1.631   0.207  11.002  0.1438 -0.4454  0.2932
  235MPD1    C5 3621   1.619   0.152  11.126  0.1777  0.7658  0.1385
  235MPD1     H 3622   1.909   0.383  11.048 -0.7307  0.5312  0.5843
  235MPD1    H1 3623   1.545   0.182  10.941  0.2424  0.1785 -0.1059
  235MPD1    H2 3624   1.711   0.119  11.316  0.9158  0.2313  0.6261
  235MPD1    H3 3625   1.527   0.105  11.160  1.2897 -2.4249 -1.3554
  235MPD1     N 3626   1.737   0.364  10.852 -0.6082  0.0203  0.6102
  235MPD1    H5 3627   1.811   0.434  10.849 -1.8596  1.2902 -0.6336
  235MPD1    N1 3628   1.922   0.271  11.292  0.5696 -0.0565 -0.4970
  235MPD1    H6 3629   2.013   0.293  11.253  1.0226 -2.0452 -0.5632
  235MPD1    H7 3630   1.930   0.182  11.340 -0.0082 -0.4206 -1.0610
  236MPD1     C 3631   0.609   1.267  10.348  1.2054 -0.4459  0.1902
  236MPD1    C1 3632   0.629   1.150  10.432 -0.0483  0.1035 -0.1954
  236MPD1    C2 3633   0.746   1.144  10.507  0.4219  0.3632  0.2521
  236MPD1    C3 3634   0.839   1.248  10.501 -0.1290 -0.1513 -0.0830
  236MPD1    C4 3635   0.806   1.359  10.431 -0.0997 -0.1076  0.3770
  236MPD1    C5 3636   0.696   1.371  10.352 -0.1584  0.0413  0.3558
  236MPD1     H 3637   0.755   1.051  10.562 -0.5055  0.5181  0.6793
  236MPD1    H1 3638   0.878   1.440  10.425 -0.6279  0.2183 -1.4927
  236MPD1    H2 3639   0.516   1.284  10.295  0.3012 -0.9012  1.6189
  236MPD1    H3 3640   0.663   1.462  10.303  2.0427 -0.2950 -1.7583
  236MPD1     N 3641   0.965   1.237  10.567  0.3377 -0.2066  0.0402
  236MPD1    H5 3642   1.017   1.325  10.573  1.6648 -1.1141  1.8280
  236MPD1    N1 3643   0.519   1.064  10.447 -0.0005  0.1961 -0.3102
  236MPD1    H6 3644   0.459   1.068  10.365 -1.5624 -0.0329  0.8250
  236MPD1    H7 3645   0.546   0.969  10.470 -0.1237  0.2032 -0.1376
  237MPD1     C 3646   1.659   4.544  14.807  0.2769  0.9390 -0.0866
  237MPD1    C1 3647   1.681   4.472  14.926  0.6193 -0.3986  0.0882
  237MPD1    C2 3648   1.563   4.424  14.983  0.0095  0.4512  0.1385
  237MPD1    C3 3649   1.434   4.466  14.952 -0.0369 -0.7896 -0.5979
  237MPD1    C4 3650   1.423   4.552  14.845  0.6362 -1.0991  0.0307
  237MPD1    C5 3651   1.534   4.584  14.773  0.4928  0.3368  0.0352
  237MPD1     H 3652   1.561   4.353  15.065 -0.4902 -2.1223 -2.0789
  237MPD1    H1 3653   1.330   4.604  14.827  0.3002 -1.4145  0.8213
  237MPD1    H2 3654   1.739   4.574  14.741  0.2146  0.5617 -0.3397
  237MPD1    H3 3655   1.525   4.652  14.690 -3.1006 -1.4810 -1.1051
  237MPD1     N 3656   1.314   4.425  15.012  0.1560  0.2058  0.9599
  237MPD1    H5 3657   1.228   4.477  14.998 -1.0999 -1.9409  0.6539
  237MPD1    N1 3658   1.797   4.408  14.948 -0.5404 -0.4172  0.2135
  237MPD1    H6 3659   1.889   4.450  14.941 -1.0321  0.7222  0.6422
  237MPD1    H7 3660   1.794   4.372  15.043  3.5092 -0.4075  0.3567
  238MPD1     C 3661   3.025   3.118  15.330 -0.4318  0.2347 -0.6456
  238MPD1    C1 3662   3.012   3.155  15.199  0.7022  0.3006 -0.0264
  238MPD1    C2 3663   2.908   3.102  15.113 -0.3531 -0.9872 -0.3554
  238MPD1    C3 3664   2.820   3.012  15.168  0.3287 -0.0892  0.0436
  238MPD1    C4 3665   2.837   2.974  15.303  0.2541  0.1785  0.6896
  238MPD1    C5 3666   2.941   3.023  15.373  0.9471  0.2041 -0.2012
  238MPD1     H 3667   2.899   3.147  15.015 -1.4608 -1.2554 -0.3700
  238MPD1    H1 3668   2.764   2.910  15.350  0.0181  0.2004  0.3504
  238MPD1    H2 3669   3.105   3.148  15.396  0.3145  0.6117 -1.7227
  238MPD1    H3 3670   2.951   2.993  15.476  1.3329  2.2766  0.3595
  238MPD1     N 3671   2.716   2.953  15.098  0.5168 -0.0558 -0.1589
  238MPD1    H5 3672   2.644   2.908  15.153 -0.9059  0.8055 -1.3127
  238MPD1    N1 3673   3.100   3.250  15.147 -0.3589  0.3400  0.4078
  238MPD1    H6 3674   3.185   3.254  15.204  0.1302 -1.4137 -0.1990
  238MPD1    H7 3675   3.129   3.224  15.052 -0.5391  0.6995  0.2557
  239MPD1     C 3676   2.980   4.302  15.199  0.3574 -0.3817  0.3381
  239MPD1    C1 3677   3.027   4.184  15.147  0.2530  0.5117 -0.2314
  239MPD1    C2 3678   3.016   4.168  15.009  0.5941 -0.0567  0.6180
  239MPD1    C3 3679   2.965   4.263  14.932  0.4203  0.0353 -0.5885
  239MPD1    C4 3680   2.907   4.369  14.983 -0.3130 -0.0465 -0.5947
  239MPD1    C5 3681   2.920   4.393  15.117  0.5982 -0.0801 -0.3454
  239MPD1     H 3682   3.036   4.070  14.967 -2.6206 -0.3779 -0.2050
  239MPD1    H1 3683   2.867   4.445  14.917 -0.0681  1.1927  0.7158
  239MPD1    H2 3684   2.971   4.308  15.306 -3.1411  4.8239 -0.2241
  239MPD1    H3 3685   2.868   4.472  15.170  1.7458 -0.0246  0.6751
  239MPD1     N 3686   2.945   4.243  14.795 -0.1889  0.1197 -0.4264
  239MPD1    H5 3687   2.910   4.327  14.750 -2.1168 -0.0521  0.7196
  239MPD1    N1 3688   3.061   4.077  15.232 -0.3181 -0.0384  0.5301
  239MPD1    H6 3689   3.120   4.007  15.187 -1.9977 -0.4810 -0.9584
  239MPD1    H7 3690   3.098   4.113  15.320 -1.0029  1.5121  0.1626
  240MPD1     C 3691   2.063   3.642  13.779  0.0356  0.3707  0.8104
  240MPD1    C1 3692   1.996   3.526  13.821  0.1357  0.3703  0.9371
  240MPD1    C2 3693   2.068   3.459  13.918 -0.2463 -0.5575  0.4145
  240MPD1    C3 3694   2.184   3.505  13.986  1.3643  0.2518 -0.0186
  240MPD1    C4 3695   2.248   3.616  13.937  0.5368 -0.1841  0.0791
  240MPD1    C5 3696   2.181   3.678  13.838 -0.2941  0.2945  0.5973
  240MPD1     H 3697   2.028   3.362  13.944 -0.5535 -0.9093 -1.3603
  240MPD1    H1 3698   2.343   3.658  13.968  1.5251 -1.3878 -1.3082
  240MPD1    H2 3699   2.030   3.699  13.693  0.5494 -1.7359 -0.8004
  240MPD1    H3 3700   2.235   3.767  13.808  0.0544 -0.6317 -1.5071
  240MPD1     N 3701   2.239   3.418  14.081 -0.1556  0.0833  0.0701
  240MPD1    H5 3702   2.179   3.338  14.097  1.4445 -1.3469 -1.1604
  240MPD1    N1 3703   1.882   3.478  13.756  0.0843  0.3115 -0.0636
  240MPD1    H6 3704   1.821   3.543  13.706  0.0363  0.2036 -0.1438
  240MPD1    H7 3705   1.826   3.414  13.812  1.5690 -1.0278 -0.1064
  241MPD1     C 3706   3.077   3.325  14.625 -0.0986  0.8057 -0.2586
  241MPD1    C1 3707   2.992   3.231  14.677  0.5218  0.1675 -0.9855
  241MPD1    C2 3708   2.867   3.230  14.622 -0.1868 -0.3915 -0.3706
  241MPD1    C3 3709   2.827   3.302  14.512  0.4496 -0.1427  1.1625
  241MPD1    C4 3710   2.923   3.381  14.451 -0.1554  0.1271  0.3518
  241MPD1    C5 3711   3.045   3.380  14.505  0.3017  0.1615  1.1710
  241MPD1     H 3712   2.796   3.159  14.665 -0.8044 -1.9241 -3.9163
  241MPD1    H1 3713   2.902   3.437  14.360 -1.8285  0.9288  1.2321
  241MPD1    H2 3714   3.180   3.336  14.656  0.5131  0.0051 -1.9986
  241MPD1    H3 3715   3.114   3.448  14.456 -0.8671  0.3257 -0.2559
  241MPD1     N 3716   2.700   3.295  14.456 -0.8801  0.1701  0.4427
  241MPD1    H5 3717   2.687   3.336  14.364 -4.1370 -1.8249  0.0245
  241MPD1    N1 3718   3.013   3.166  14.797 -0.0799  0.4277  0.7938
  241MPD1    H6 3719   3.106   3.125  14.794 -0.4331 -0.3642  0.5140
  241MPD1    H7 3720   2.942   3.096  14.819  1.8342 -1.8693 -0.3255
  242MPD1     C 3721   1.801   2.505  15.880 -0.3005 -0.3144  0.1067
  242MPD1    C1 3722   1.705   2.425  15.824 -0.4218  0.6763  0.5583
  242MPD1    C2 3723   1.757   2.332  15.730  0.1536  0.1677 -0.3263
  242MPD1    C3 3724   1.887   2.308  15.693 -0.5805  0.0530  0.1131
  242MPD1    C4 3725   1.973   2.404  15.738 -0.1591  0.3158 -0.8314
  242MPD1    C5 3726   1.934   2.499  15.831  0.7127 -0.1509  0.4618
  242MPD1     H 3727   1.686   2.257  15.696  2.2411 -1.5146 -1.0006
  242MPD1    H1 3728   2.077   2.406  15.706  0.5279 -1.3466  1.2830
  242MPD1    H2 3729   1.780   2.571  15.963  0.8945  0.2590 -0.0391
  242MPD1    H3 3730   2.012   2.548  15.887 -1.3516  1.8160  1.5913
  242MPD1     N 3731   1.928   2.202  15.608  0.6464  0.2687 -0.1229
  242MPD1    H5 3732   2.027   2.196  15.588  0.5786 -0.6486 -0.2052
  242MPD1    N1 3733   1.575   2.428  15.867 -0.3430  0.3860 -0.0733
  242MPD1    H6 3734   1.505   2.406  15.796 -0.5204 -1.2529  0.6005
  242MPD1    H7 3735   1.555   2.509  15.924 -1.0971 -0.8341  1.4009
  243MPD1     C 3736   3.280   1.530   0.337  0.0208  0.1916 -0.6497
  243MPD1    C1 3737   3.235   1.572   0.215 -0.6190 -0.1515  0.2017
  243MPD1    C2 3738   3.213   1.469   0.119 -0.2582  0.1852  0.3331
  243MPD1    C3 3739   3.227   1.335   0.150 -1.1491 -0.0509  0.3373
  243MPD1    C4 3740   3.285   1.301   0.264  0.1902 -0.2658 -0.0389
  243MPD1    C5 3741   3.310   1.400   0.356  0.4948 -0.1927 -0.3674
  243MPD1     H 3742   3.184   1.503   0.021  0.7913  1.7678  0.5675
  243MPD1    H1 3743   3.309   1.199   0.291  4.4983  0.6317 -0.4271
  243MPD1    H2 3744   3.302   1.600   0.417 -2.2427 -0.5764  0.6498
  243MPD1    H3 3745   3.347   1.369   0.452  1.0760 -1.4607 -1.0053
  243MPD1     N 3746   3.184   1.239   0.055  0.4458 -0.3443  0.3274
  243MPD1    H5 3747   3.127   1.276  17.725 -1.5366 -3.6880  0.1741
  243MPD1    N1 3748   3.239   1.711   0.176 -0.7875 -0.1826  0.7049
  243MPD1    H6 3749   3.228   1.774   0.255  2.4732 -2.1860  2.7531
  243MPD1    H7 3750   3.179   1.739   0.098  2.1659 -1.3751 -2.0008
  244MPD1     C 3751   2.875   0.191  17.574 -0.0578  0.9933  0.0742
  244MPD1    C1 3752   2.982   0.227  17.491 -0.2760 -0.3176  0.1760
  244MPD1    C2 3753   3.015   0.362  17.490 -0.0134  0.9037  0.0274
  244MPD1    C3 3754   2.955   0.459  17.566 -0.1716  1.0450  0.2305
  244MPD1    C4 3755   2.852   0.422  17.647  0.1543 -0.5458  0.2638
  244MPD1    C5 3756   2.807   0.289  17.640 -0.0733 -0.1379 -0.7881
  244MPD1     H 3757   3.098   0.400  17.431  0.7313 -1.6795 -0.6039
  244MPD1    H1 3758   2.800   0.483  17.720  1.4398  1.2946 -0.3477
  244MPD1    H2 3759   2.842   0.088  17.588 -1.8900  1.6147  0.3892
  244MPD1    H3 3760   2.724   0.259  17.703  0.1031  2.2225  0.5410
  244MPD1     N 3761   3.003   0.588  17.565 -0.3279  0.6476 -0.0258
  244MPD1    H5 3762   3.080   0.596  17.499 -0.5011 -2.8683 -0.6234
  244MPD1    N1 3763   3.071   0.131  17.444 -0.7712 -0.6002  0.1946
  244MPD1    H6 3764   3.106   0.161  17.353 -2.9278  3.9996  0.8656
  244MPD1    H7 3765   3.022   0.043  17.433  1.3116 -1.7913  0.3058
  245MPD1     C 3766   0.686   0.652  13.406 -0.7715 -0.4169  0.0466
  245MPD1    C1 3767   0.823   0.678  13.412 -0.1805 -0.6951  1.4390
  245MPD1    C2 3768   0.861   0.787  13.484 -0.3545 -0.0399 -0.6296
  245MPD1    C3 3769   0.781   0.885  13.532  0.1320  0.1579 -0.4066
  245MPD1    C4 3770   0.644   0.871  13.506 -0.0400  0.5932 -0.4127
  245MPD1    C5 3771   0.601   0.754  13.454  0.0262  0.0904 -0.3707
  245MPD1     H 3772   0.965   0.787  13.515 -1.2049 -0.0239  2.2611
  245MPD1    H1 3773   0.577   0.949  13.541 -1.4003 -1.1832  0.9864
  245MPD1    H2 3774   0.638   0.573  13.348 -2.0786 -0.6392  1.4289
  245MPD1    H3 3775   0.493   0.747  13.448  0.0118 -2.2568  2.6101
  245MPD1     N 3776   0.838   0.995  13.601 -0.3960 -0.5590 -0.1827
  245MPD1    H5 3777   0.939   1.004  13.605 -0.3084 -1.6899  0.1569
  245MPD1    N1 3778   0.915   0.577  13.369  0.2262  0.2378  0.6545
  245MPD1    H6 3779   1.008   0.608  13.342  0.3889 -1.1571 -0.3555
  245MPD1    H7 3780   0.883   0.516  13.295  3.8400  0.7117 -1.2993
  246MPD1     C 3781   2.164   1.798   9.413 -1.0930 -0.0743 -0.6752
  246MPD1    C1 3782   2.060   1.803   9.505  0.3188  0.8986 -0.6356
  246MPD1    C2 3783   2.033   1.925   9.566  0.1356  0.5562  0.6449
  246MPD1    C3 3784   2.103   2.044   9.541  0.2468 -0.1880  0.1799
  246MPD1    C4 3785   2.207   2.029   9.451 -0.2769 -0.0624  0.4563
  246MPD1    C5 3786   2.227   1.916   9.382 -0.4209 -0.3118 -0.3080
  246MPD1     H 3787   1.946   1.929   9.630  0.9281  0.6012  1.7085
  246MPD1    H1 3788   2.274   2.109   9.420  1.0235 -0.7150  1.5856
  246MPD1    H2 3789   2.204   1.706   9.371 -0.0070  0.3449 -0.5555
  246MPD1    H3 3790   2.314   1.898   9.319 -0.7825 -2.4218 -0.2301
  246MPD1     N 3791   2.059   2.169   9.595  0.3708 -0.2870 -0.3050
  246MPD1    H5 3792   1.974   2.165   9.650  0.8486 -0.9903  0.3741
  246MPD1    N1 3793   1.989   1.684   9.528  0.4186  0.7211 -0.2763
  246MPD1    H6 3794   1.939   1.686   9.617 -1.1659  1.4484 -1.1952
  246MPD1    H7 3795   2.058   1.609   9.519 -2.1834 -1.9178  1.8478
  247MPD1     C 3796   0.031   0.455  16.096 -0.0046  0.8069 -0.4737
  247MPD1    C1 3797   0.119   0.368  16.154 -0.0044 -0.0762 -0.2593
  247MPD1    C2 3798   0.244   0.350  16.101  0.8273 -0.1216  0.9791
  247MPD1    C3 3799   0.279   0.412  15.982  0.2100 -0.2708  0.9121
  247MPD1    C4 3800   0.191   0.494  15.913 -0.0681 -0.1191  0.8278
  247MPD1    C5 3801   0.065   0.509  15.975 -0.0409  0.3634  0.3953
  247MPD1     H 3802   0.319   0.284  16.144 -0.0802 -0.9126  1.3388
  247MPD1    H1 3803   0.212   0.530  15.814 -0.5076 -0.7278  0.5109
  247MPD1    H2 3804   4.667   0.472  16.133 -0.4257  1.8268 -2.0660
  247MPD1    H3 3805   4.726   0.572  15.930 -2.3992 -0.0317  3.7587
  247MPD1     N 3806   0.405   0.388  15.914 -0.3023 -0.0547 -0.2534
  247MPD1    H5 3807   0.403   0.426  15.820 -2.2327 -3.1968 -1.4855
  247MPD1    N1 3808   0.084   0.296  16.269 -0.3673  0.4321  0.2073
  247MPD1    H6 3809   0.020   0.356  16.320  0.9063 -0.0392  2.3727
  247MPD1    H7 3810   0.174   0.278  16.314 -0.4708 -0.3108  0.1017
  248MPD1     C 3811   3.695   1.577  17.097 -0.1720  0.0095  0.0210
  248MPD1    C1 3812   3.820   1.521  17.110  0.0184  0.0118 -0.1011
  248MPD1    C2 3813   3.870   1.515  17.240 -0.1483 -1.2696  0.0927
  248MPD1    C3 3814   3.797   1.547  17.344  1.1404  0.5677 -0.7083
  248MPD1    C4 3815   3.666   1.592  17.329 -0.6560 -0.6435  0.0869
  248MPD1    C5 3816   3.613   1.604  17.204  0.6715 -0.0957  0.1226
  248MPD1     H 3817   3.966   1.470  17.261  0.1715 -1.2929 -1.4517
  248MPD1    H1 3818   3.605   1.621  17.414 -1.5882  0.4012 -0.9459
  248MPD1    H2 3819   3.659   1.602  16.998 -0.6686  0.9131  0.4305
  248MPD1    H3 3820   3.510   1.635  17.191  0.5109 -0.8698 -0.4417
  248MPD1     N 3821   3.860   1.532  17.472 -0.1585  0.2044 -0.6103
  248MPD1    H5 3822   3.960   1.514  17.464 -0.0654  0.4309  0.0547
  248MPD1    N1 3823   3.905   1.493  17.001  0.1666  0.2598  0.3433
  248MPD1    H6 3824   3.856   1.478  16.913  1.2175 -1.2873  0.0305
  248MPD1    H7 3825   3.975   1.422  17.020 -1.6553 -1.2656  1.3297
  249MPD1     C 3826   1.008   3.853  10.827  0.4754  0.7417  0.3367
  249MPD1    C1 3827   1.021   3.949  10.726  0.0394  0.2882  0.0353
  249MPD1    C2 3828   1.128   4.039  10.740  0.3657  0.6439 -0.1413
  249MPD1    C3 3829   1.216   4.033  10.847  0.1672  0.1173  0.1065
  249MPD1    C4 3830   1.192   3.946  10.947  0.5937 -0.1626  0.2436
  249MPD1    C5 3831   1.081   3.862  10.942  0.3540  0.1905 -0.2079
  249MPD1     H 3832   1.139   4.113  10.662  3.9246  0.3467  0.1043
  249MPD1    H1 3833   1.262   3.950  11.029  2.0333 -0.7102 -0.9507
  249MPD1    H2 3834   0.933   3.774  10.819  0.9581  0.3693 -0.5573
  249MPD1    H3 3835   1.047   3.807  11.030 -1.4798 -0.6058 -1.4193
  249MPD1     N 3836   1.318   4.131  10.850  0.7216  0.2327 -0.6604
  249MPD1    H5 3837   1.318   4.193  10.769 -2.3590  1.1905  0.0857
  249MPD1    N1 3838   0.941   3.938  10.607 -0.4471 -0.9549 -0.2360
  249MPD1    H6 3839   0.932   4.029  10.562  0.9816 -2.0922 -2.8885
  249MPD1    H7 3840   0.845   3.919  10.634 -1.2906  2.2533 -0.9277
  250MPD2     C 3841   3.132   4.256  13.288  0.9074  0.4260 -0.0537
  250MPD2    C1 3842   3.101   4.319  13.177  0.8233  0.2727  0.2356
  250MPD2    C2 3843   3.115   4.255  13.053  0.4482 -0.3208 -0.3092
  250MPD2    C3 3844   3.163   4.122  13.051  0.0419  0.2245  0.1515
  250MPD2    C4 3845   3.191   4.058  13.164  0.1646 -0.2053 -0.5845
  250MPD2    C5 3846   3.174   4.124  13.286 -0.6931  0.7468  0.0670
  250MPD2     H 3847   3.093   4.308  12.960 -1.2678  1.8791  1.3582
  250MPD2    H1 3848   3.235   3.960  13.164 -1.1113 -0.7660  1.2381
  250MPD2    H2 3849   3.122   4.315  13.378 -0.4922 -0.1743  0.1682
  250MPD2    H3 3850   3.197   4.071  13.378  0.9428  0.3728 -0.5700
  250MPD2     N 3851   3.181   4.044  12.934  0.0366  0.4576  0.0782
  250MPD2    H5 3852   3.212   3.950  12.954 -1.6228 -0.3314 -1.0116
  250MPD2    N1 3853   3.049   4.454  13.187  0.5964 -0.1174  0.2324
  250MPD2    H7 3854   3.059   4.504  13.275 -0.9307 -2.0809  1.5337
  251TMC3    C1 3855   2.968   4.660  13.112  0.4279  0.2791 -0.8147
  251TMC3    C2 3856   2.855   4.727  13.073 -0.1830 -0.1524 -0.2555
  251TMC3    C3 3857   2.846   0.125  13.103  0.0518  0.1092  1.2893
  251TMC3    C4 3858   3.074   4.732  13.174 -0.3638 -0.6894  0.0967
  251TMC3    C5 3859   3.063   0.131  13.190 -0.1184 -0.1115 -0.1432
  251TMC3    C6 3860   2.945   0.198  13.167 -1.3671  0.1977 -0.0648
  251TMC3     C 3861   2.993   4.515  13.083  0.0176 -0.6654 -0.2594
  251TMC3     O 3862   2.930   4.469  12.989 -0.0358 -0.1694 -0.1665
  251TMC3     H 3863   2.775   4.670  13.027 -1.8660 -0.6686  3.3035
  251TMC3    H1 3864   3.168   4.684  13.198 -0.0297  1.1584  2.4029
  251TMC3    H2 3865   2.941   0.306  13.173  1.1505  0.3741 -1.5654
  251TMC3    C7 3866   3.166   0.189  13.274 -0.7484 -0.3054  0.3951
  251TMC3    C8 3867   2.720   0.192  13.137 -0.5309 -0.0610  0.0064
  251TMC3    O1 3868   3.236   0.106  13.333 -0.1040  0.2013 -0.0884
  251TMC3    O2 3869   2.717   0.311  13.176  0.0508  0.3322  0.5038
  252TMC3    C1 3870   4.694   0.650  10.266  0.5140 -0.0388  0.1849
  252TMC3    C2 3871   0.045   0.754  10.241  0.0678 -0.2052 -0.5492
  252TMC3    C3 3872   0.026   0.818  10.123  0.0990 -0.2670  0.1548
  252TMC3    C4 3873   4.599   0.602  10.178  0.3066  0.1877  0.0189
  252TMC3    C5 3874   4.586   0.674  10.060  0.3266  0.1756 -0.5184
  252TMC3    C6 3875   4.664   0.784  10.031 -0.2046 -0.1019 -0.4260
  252TMC3     C 3876   4.701   0.583  10.396  0.5953  0.1984  0.8725
  252TMC3     O 3877   0.010   0.648  10.491 -0.8070  0.1631 -0.2879
  252TMC3     H 3878   0.134   0.767  10.302  1.0840 -3.3454 -1.3903
  252TMC3    H1 3879   4.509   0.550  10.209  1.3169  0.7091  3.8861
  252TMC3    H2 3880   4.647   0.851   9.947 -1.6305  1.4448  1.0810
  252TMC3    C7 3881   4.454   0.673   9.991 -0.2696  0.2595  0.1758
  252TMC3    C8 3882   0.067   0.959  10.110 -0.8289 -0.1983 -0.1122
  252TMC3    O1 3883   4.423   0.774   9.934 -0.3707 -0.0677 -0.0135
  252TMC3    O2 3884   0.051   1.016  10.002  0.7971  0.3346 -0.0630
  253MPD2     C 3885   0.824   4.517  15.283 -0.2169 -0.1581 -0.5315
  253MPD2    C1 3886   0.689   4.495  15.270 -0.4532  0.0910  0.1576
  253MPD2    C2 3887   0.614   4.438  15.371  0.5894  1.2084 -0.0077
  253MPD2    C3 3888   0.668   4.423  15.497 -0.2462 -0.6060 -0.0759
  253MPD2    C4 3889   0.800   4.449  15.512  0.7865  0.3665 -0.0477
  253MPD2    C5 3890   0.874   4.498  15.408  0.1544  0.2008  0.0491
  253MPD2     H 3891   0.509   4.415  15.357  1.2679 -1.5625 -0.6263
  253MPD2    H1 3892   0.855   4.428  15.604  2.2494 -0.3430 -1.0859
  253MPD2    H2 3893   0.886   4.553  15.202 -0.1615  0.5371 -0.1798
  253MPD2    H3 3894   0.981   4.503  15.426 -0.1810 -1.7957  2.6362
  253MPD2     N 3895   0.586   4.385  15.610 -0.5511  0.0806 -0.3094
  253MPD2    H5 3896   0.640   4.360  15.692 -1.9224  2.8183  1.4058
  253MPD2    N1 3897   0.620   4.526  15.149 -0.0350 -0.0986  0.8973
  253MPD2    H7 3898   0.543   4.460  15.144 -1.6442  1.9300 -0.6615
  254TMC3    C1 3899   0.384   4.327  15.731 -0.8346  0.0465  0.5907
  254TMC3    C2 3900   0.245   4.329  15.728 -0.0936  0.2334 -0.1878
  254TMC3    C3 3901   0.181   4.310  15.844  0.0063 -0.3942 -0.1369
  254TMC3    C4 3902   0.458   4.293  15.838  0.1529 -0.5468 -0.2939
  254TMC3    C5 3903   0.384   4.273  15.956  0.5328 -0.3222 -0.3009
  254TMC3    C6 3904   0.246   4.281  15.965 -0.1942  0.0657 -0.5559
  254TMC3     C 3905   0.444   4.371  15.606  0.8170 -0.0634  0.0636
  254TMC3     O 3906   0.366   4.430  15.535  0.0549 -0.4996  0.3114
  254TMC3     H 3907   0.196   4.334  15.631 -0.0410 -0.8829 -0.2680
  254TMC3    H1 3908   0.567   4.296  15.833  0.1924  1.5330  1.8469
  254TMC3    H2 3909   0.194   4.270  16.060  1.0432  0.0479  0.1282
  254TMC3    C7 3910   0.453   4.252  16.083  0.0413 -0.5963 -0.4205
  254TMC3    C8 3911   0.044   4.355  15.858  0.0873  1.0527 -0.9679
  254TMC3    O1 3912   0.381   4.210  16.170 -0.2015  0.4705 -0.6041
  254TMC3    O2 3913   4.720   4.319  15.958 -0.6361  0.7435  0.0666
  255MPD2     C 3914   3.408   1.445  10.754  0.3742 -0.3906 -0.6676
  255MPD2    C1 3915   3.456   1.485  10.636 -0.7000  0.3832 -0.2695
  255MPD2    C2 3916   3.544   1.399  10.572 -0.1625 -0.4259 -0.1267
  255MPD2    C3 3917   3.593   1.285  10.641 -0.5871  0.0506  0.2751
  255MPD2    C4 3918   3.539   1.250  10.763  0.1264 -0.6982  0.9158
  255MPD2    C5 3919   3.444   1.327  10.814  0.3990 -0.3396 -0.6842
  255MPD2     H 3920   3.581   1.425  10.474  0.6808  0.0772  0.3215
  255MPD2    H1 3921   3.562   1.157  10.814 -1.4182 -1.6494 -0.1348
  255MPD2    H2 3922   3.335   1.504  10.809  0.1346  0.2425 -1.6668
  255MPD2    H3 3923   3.415   1.289  10.911  1.3294 -0.3223 -0.3952
  255MPD2     N 3924   3.684   1.191  10.591  0.4479 -0.2197 -0.1827
  255MPD2    H5 3925   3.690   1.100  10.636 -1.1556 -0.1518  0.1804
  255MPD2    N1 3926   3.420   1.617  10.593  0.1922 -0.4149  0.1983
  255MPD2    H7 3927   3.379   1.676  10.665 -1.9243 -2.5267  0.7496
  256TMC3    C1 3928   3.416   1.810  10.441 -0.0684 -0.1762  0.3113
  256TMC3    C2 3929   3.479   1.877  10.336  0.2828 -0.1049  0.7470
  256TMC3    C3 3930   3.425   2.000  10.295 -0.3173 -0.0663  0.8192
  256TMC3    C4 3931   3.312   1.869  10.507  0.2585 -0.4656  0.3275
  256TMC3    C5 3932   3.268   1.992  10.463  0.5263 -1.2287  0.2449
  256TMC3    C6 3933   3.327   2.066  10.359  0.2869 -0.1804 -0.1849
  256TMC3     C 3934   3.456   1.670  10.468 -0.3856  0.3041  0.0021
  256TMC3     O 3935   3.503   1.618  10.366  0.1601  0.8439  0.3448
  256TMC3     H 3936   3.561   1.822  10.290 -3.1710 -2.5757 -2.4907
  256TMC3    H1 3937   3.245   1.808  10.566  1.3819 -0.2092  1.8725
  256TMC3    H2 3938   3.270   2.146  10.314  0.7535 -0.4797 -1.3171
  256TMC3    C7 3939   3.153   2.043  10.534 -0.1554  0.4790  0.1845
  256TMC3    C8 3940   3.506   2.066  10.196 -0.5660 -0.3598 -0.4496
  256TMC3    O1 3941   3.075   1.963  10.589 -0.0117 -0.6669  0.0588
  256TMC3    O2 3942   3.583   1.998  10.132  0.0173  0.0718 -0.0707
  257MPD2     C 3943   2.346   3.869  12.927  0.0510 -0.5848 -0.3547
  257MPD2    C1 3944   2.372   3.967  13.017 -0.6229  0.1272  0.2152
  257MPD2    C2 3945   2.442   3.942  13.136 -0.2115 -0.4378 -0.0045
  257MPD2    C3 3946   2.494   3.820  13.153 -0.0221 -0.1670  0.9012
  257MPD2    C4 3947   2.473   3.725  13.063 -0.1548  0.3924  0.1715
  257MPD2    C5 3948   2.400   3.748  12.948  0.3328  0.2292  0.2442
  257MPD2     H 3949   2.449   4.021  13.210 -1.7468 -0.1303 -0.1841
  257MPD2    H1 3950   2.511   3.626  13.081 -0.4161  0.2453 -0.0760
  257MPD2    H2 3951   2.288   3.891  12.838 -0.3788  2.2505  0.6166
  257MPD2    H3 3952   2.392   3.668  12.875  0.0067  0.2794  0.2250
  257MPD2     N 3953   2.557   3.780  13.270 -0.2018  0.0473 -0.0646
  257MPD2    H5 3954   2.619   3.700  13.262 -0.2365  0.1751 -1.5685
  257MPD2    N1 3955   2.326   4.096  12.997 -0.4791 -0.0335  0.2713
  257MPD2    H7 3956   2.268   4.112  12.915  0.8554 -1.0382 -0.8494
  258TMC3    C1 3957   2.622   3.780  13.500 -0.1755 -0.0850 -0.4503
  258TMC3    C2 3958   2.718   3.688  13.460 -0.1486 -0.3869 -0.6631
  258TMC3    C3 3959   2.783   3.630  13.567 -0.0362 -0.0839  0.3305
  258TMC3    C4 3960   2.594   3.808  13.627 -0.5507 -0.3249  0.1590
  258TMC3    C5 3961   2.649   3.732  13.724 -0.5218  0.3933 -0.1861
  258TMC3    C6 3962   2.743   3.640  13.697 -0.1449  0.7269  0.1448
  258TMC3     C 3963   2.535   3.836  13.395  0.0998 -0.2261 -0.4447
  258TMC3     O 3964   2.460   3.921  13.435 -0.8492  0.3981 -0.9323
  258TMC3     H 3965   2.748   3.684  13.356  0.1512  1.7495 -0.6569
  258TMC3    H1 3966   2.513   3.876  13.650 -0.3569 -0.4378  1.1776
  258TMC3    H2 3967   2.773   3.555  13.757  0.6211  0.3740 -0.7353
  258TMC3    C7 3968   2.635   3.766  13.862 -0.0581  0.0485 -0.0151
  258TMC3    C8 3969   2.908   3.561  13.547  0.2667 -0.0268 -0.3422
  258TMC3    O1 3970   2.538   3.834  13.897  0.1186 -0.4580 -0.5634
  258TMC3    O2 3971   2.994   3.550  13.632  0.2603 -0.9505 -0.1838
  259MPD2     C 3972   1.196   1.316   0.655 -0.0099 -0.1852 -0.5131
  259MPD2    C1 3973   1.146   1.190   0.681  1.2392  0.7190  0.4132
  259MPD2    C2 3974   1.146   1.093   0.584 -0.3128 -0.3521  0.2126
  259MPD2    C3 3975   1.209   1.115   0.466 -0.3959  0.6840 -0.0530
  259MPD2    C4 3976   1.255   1.246   0.437 -0.1267 -0.4500  0.2602
  259MPD2    C5 3977   1.240   1.347   0.526  0.8229 -0.0210  0.2697
  259MPD2     H 3978   1.130   0.988   0.607  0.1406 -0.5236 -0.2601
  259MPD2    H1 3979   1.303   1.270   0.343  0.3215  2.0304  1.1325
  259MPD2    H2 3980   1.180   1.397   0.725  0.3842 -1.0777  0.6247
  259MPD2    H3 3981   1.293   1.438   0.501  0.7496 -0.0620 -0.0391
  259MPD2     N 3982   1.223   1.007   0.375 -0.2869  0.2254 -0.2892
  259MPD2    H5 3983   1.197   0.918   0.416 -0.5672  0.3142 -0.2755
  259MPD2    N1 3984   1.103   1.164   0.812 -0.4755  0.2297  0.1011
  259MPD2    H7 3985   1.105   1.232   0.887 -2.5012  0.5658 -0.1712
  260TMC3    C1 3986   1.283   0.880   0.188  0.3237 -0.4850  0.4166
  260TMC3    C2 3987   1.336   0.870   0.065 -1.0662 -0.3130 -0.0745
  260TMC3    C3 3988   1.341   0.751  17.744 -0.0919 -0.3140 -0.0795
  260TMC3    C4 3989   1.237   0.771   0.252 -0.5248 -0.3661  0.3553
  260TMC3    C5 3990   1.226   0.652   0.181 -0.0774  0.0774 -0.4042
  260TMC3    C6 3991   1.276   0.643   0.055  0.4708 -0.5415 -0.5598
  260TMC3     C 3992   1.270   1.013   0.242 -0.6603 -0.2004  0.5469
  260TMC3     O 3993   1.294   1.109   0.171  0.1118 -0.0565 -0.4106
  260TMC3     H 3994   1.380   0.959   0.022  0.2201 -1.4445 -1.0871
  260TMC3    H1 3995   1.183   0.772   0.346  1.8496 -2.2368  1.7442
  260TMC3    H2 3996   1.255   0.555  17.740 -3.0444 -0.7227  0.9493
  260TMC3    C7 3997   1.204   0.526   0.244  0.2413  0.7172 -0.2526
  260TMC3    C8 3998   1.444   0.732  17.643 -0.0770 -0.1666 -0.2238
  260TMC3    O1 3999   1.173   0.431   0.169  0.3096  0.3053  0.0911
  260TMC3    O2 4000   1.490   0.829  17.587 -0.7379  0.0747  0.1909
  261MPD2     C 4001   2.977   4.031  12.081  0.2002  0.0284 -0.2652
  261MPD2    C1 4002   2.971   4.105  12.194 -0.6457  0.7569  0.2826
  261MPD2    C2 4003   2.933   4.235  12.178 -1.0588 -0.3302  0.3182
  261MPD2    C3 4004   2.926   4.298  12.051 -0.2848 -0.0725  0.1813
  261MPD2    C4 4005   2.949   4.221  11.939 -0.1030 -0.0572  0.5522
  261MPD2    C5 4006   2.968   4.087  11.955  0.5376  0.4395  0.4254
  261MPD2     H 4007   2.934   4.303  12.263 -0.9811 -2.3645  1.9392
  261MPD2    H1 4008   2.962   4.264  11.840  1.6989  0.8284  1.1662
  261MPD2    H2 4009   3.002   3.926  12.082 -2.3770 -0.5828  1.0261
  261MPD2    H3 4010   2.971   4.020  11.869 -0.1547  1.7470 -0.6170
  261MPD2     N 4011   2.896   4.435  12.032 -0.1260  0.3790 -0.1814
  261MPD2    H5 4012   2.905   4.478  11.940  2.0497 -1.8975 -1.0332
  261MPD2    N1 4013   3.003   4.062  12.324 -0.2366  0.1086  0.4858
  261MPD2    H7 4014   2.992   4.133  12.397 -1.3459 -0.8658  1.2618
  262TMC3    C1 4015   2.837   4.662  12.099 -0.2081  0.0249 -0.6582
  262TMC3    C2 4016   2.810   0.009  12.205 -0.6868 -0.5408 -0.1744
  262TMC3    C3 4017   2.788   0.134  12.173  0.7336 -0.7097  0.4573
  262TMC3    C4 4018   2.863   4.706  11.971  0.3976 -0.0865  0.2302
  262TMC3    C5 4019   2.839   0.102  11.947  0.8098  0.0996  0.5615
  262TMC3    C6 4020   2.786   0.181  12.045 -0.1804 -0.0291  0.0470
  262TMC3     C 4021   2.845   4.519  12.131  0.1851 -0.3748  0.1809
  262TMC3     O 4022   2.798   4.490  12.243  0.3151  0.4069 -0.5186
  262TMC3     H 4023   2.812   4.718  12.310  1.8449 -1.5538 -0.5000
  262TMC3    H1 4024   2.901   4.642  11.893  2.4393 -0.0740  1.2231
  262TMC3    H2 4025   2.766   0.285  12.022  4.0692  0.9716  0.9312
  262TMC3    C7 4026   2.910   0.165  11.843  0.6075 -0.1913 -0.2744
  262TMC3    C8 4027   2.772   0.243  12.272  0.4791 -0.0704 -0.3322
  262TMC3    O1 4028   2.983   0.087  11.778 -0.3454 -0.1750  0.0648
  262TMC3    O2 4029   2.665   0.243  12.331 -0.1716 -0.1157  0.3966
  263MPD2     C 4030   3.945   3.323  11.271  1.0448  1.2715 -0.1327
  263MPD2    C1 4031   3.960   3.456  11.295  0.4606  0.1933  0.6532
  263MPD2    C2 4032   3.887   3.551  11.223  0.2185  0.4061  0.0290
  263MPD2    C3 4033   3.802   3.502  11.126  0.2682 -0.0228  0.6895
  263MPD2    C4 4034   3.808   3.370  11.086 -0.4145  0.4269  0.2887
  263MPD2    C5 4035   3.875   3.282  11.162  0.1959 -1.0873 -0.0240
  263MPD2     H 4036   3.886   3.656  11.248  2.2771  0.8004 -1.5481
  263MPD2    H1 4037   3.771   3.334  10.991  0.4514  0.8811 -0.2235
  263MPD2    H2 4038   3.993   3.249  11.334  1.9353  0.0089 -2.2736
  263MPD2    H3 4039   3.861   3.176  11.143  0.5740 -1.2214  0.4549
  263MPD2     N 4040   3.737   3.593  11.041  0.1549 -0.4909 -0.1182
  263MPD2    H5 4041   3.707   3.559  10.950 -1.0027 -0.3899  0.2207
  263MPD2    N1 4042   4.039   3.479  11.405  0.0511 -0.1344 -0.3754
  263MPD2    H7 4043   4.075   3.392  11.445  1.3679  1.5611  2.1306
  264TMC3    C1 4044   3.699   3.802  10.930 -0.8896 -0.5907  0.1224
  264TMC3    C2 4045   3.690   3.938  10.934  0.2327  0.5006  0.4021
  264TMC3    C3 4046   3.727   4.017  10.827  0.3283  0.5311  0.2785
  264TMC3    C4 4047   3.765   3.746  10.821 -0.7886 -0.0840 -0.8566
  264TMC3    C5 4048   3.811   3.828  10.719  0.4388  0.3714  0.5233
  264TMC3    C6 4049   3.789   3.960  10.720  0.4952  0.2864  0.0214
  264TMC3     C 4050   3.731   3.730  11.058  0.0268  0.0238  0.4151
  264TMC3     O 4051   3.729   3.795  11.163  0.0841 -0.1291  0.4542
  264TMC3     H 4052   3.650   3.973  11.028  0.8943  0.3722  0.7340
  264TMC3    H1 4053   3.791   3.641  10.825 -0.2830  0.1209  1.2151
  264TMC3    H2 4054   3.819   4.022  10.636  0.5014 -0.6743 -0.6941
  264TMC3    C7 4055   3.905   3.780  10.622  0.0036 -0.2846 -0.0640
  264TMC3    C8 4056   3.798   4.136  10.865  0.1774  0.3416  1.5662
  264TMC3    O1 4057   3.976   3.865  10.574  0.4928 -0.1168  0.1580
  264TMC3    O2 4058   3.893   4.171  10.798  0.0376 -0.1892 -0.0292
  265MPD2     C 4059   1.449   3.913  15.714  0.2398  0.7394 -0.0478
  265MPD2    C1 4060   1.476   4.017  15.631 -0.7505  0.3131  0.1219
  265MPD2    C2 4061   1.566   3.997  15.525  0.2144  0.2776 -0.1064
  265MPD2    C3 4062   1.615   3.875  15.500 -0.3043  0.3809  0.0392
  265MPD2    C4 4063   1.594   3.772  15.591 -0.6381  0.1882 -0.3440
  265MPD2    C5 4064   1.511   3.795  15.698  0.2250  0.0183 -0.4284
  265MPD2     H 4065   1.588   4.083  15.463  0.6248  1.2434  1.3849
  265MPD2    H1 4066   1.637   3.675  15.569 -0.9480  0.1274 -0.6816
  265MPD2    H2 4067   1.370   3.924  15.788  0.6354 -0.8932  0.6244
  265MPD2    H3 4068   1.509   3.711  15.766  0.8432 -0.0446 -0.4812
  265MPD2     N 4069   1.707   3.841  15.392 -0.6163  0.3299  0.1380
  265MPD2    H5 4070   1.725   3.741  15.400 -2.3531 -0.1312 -1.9417
  265MPD2    N1 4071   1.398   4.139  15.649 -0.3919  0.0600  0.0120
  265MPD2    H7 4072   1.413   4.213  15.581 -0.1618  0.1857  0.1991
  266TMC3    C1 4073   1.262   4.318  15.732  0.4506  0.3660 -0.0276
  266TMC3    C2 4074   1.218   4.373  15.847 -0.3445 -0.1385 -0.2543
  266TMC3    C3 4075   1.176   4.501  15.857  0.1304 -0.3211 -0.7080
  266TMC3    C4 4076   1.260   4.392  15.618  0.0251 -0.7962 -1.0599
  266TMC3    C5 4077   1.227   4.525  15.631 -0.0625 -0.2750  0.2628
  266TMC3    C6 4078   1.175   4.586  15.745  0.3430 -0.3709 -0.7367
  266TMC3     C 4079   1.313   4.180  15.747  0.1463  0.1046  0.3160
  266TMC3     O 4080   1.280   4.113  15.842 -0.6776  0.1674  0.0483
  266TMC3     H 4081   1.214   4.313  15.937 -0.4126  0.9189  0.4524
  266TMC3    H1 4082   1.282   4.355  15.518  0.1950 -0.0800 -1.2836
  266TMC3    H2 4083   1.175   4.694  15.747  2.6454 -0.3564 -1.6917
  266TMC3    C7 4084   1.228   4.607  15.503  0.5546 -0.0416 -0.0193
  266TMC3    C8 4085   1.160   4.555  15.988 -0.2399  0.1005 -0.0944
  266TMC3    O1 4086   1.167   4.711  15.504  0.0587  0.4804  0.2001
  266TMC3    O2 4087   1.143   4.471  16.076  0.1632  0.0457  0.0214
  267MPD2     C 4088   3.424   0.942   0.557  0.3259 -0.3583  0.3498
  267MPD2    C1 4089   3.446   1.048   0.639  0.3470 -0.3301 -0.9406
  267MPD2    C2 4090   3.343   1.134   0.664 -0.2240  0.4231 -0.7092
  267MPD2    C3 4091   3.227   1.126   0.582 -0.2333 -0.0002  0.3767
  267MPD2    C4 4092   3.205   1.013   0.503  0.5338 -0.4948 -0.3897
  267MPD2    C5 4093   3.302   0.919   0.492  0.1017 -0.1798  0.7465
  267MPD2     H 4094   3.356   1.212   0.738 -0.6034  0.0578 -0.2524
  267MPD2    H1 4095   3.112   0.991   0.451  0.8003 -0.6610 -0.7940
  267MPD2    H2 4096   3.499   0.867   0.533  1.6790  1.1584 -0.1215
  267MPD2    H3 4097   3.285   0.828   0.435 -1.3825 -1.1909  2.7980
  267MPD2     N 4098   3.121   1.226   0.578 -0.0237 -0.0248 -0.3219
  267MPD2    H5 4099   3.048   1.197   0.514 -1.7731 -0.5790  1.9386
  267MPD2    N1 4100   3.575   1.049   0.708  0.3445 -0.0797 -0.2767
  267MPD2    H7 4101   3.646   0.992   0.663  1.5921 -2.2042  4.3269
  268TMC3    C1 4102   3.756   1.157   0.821 -0.2570  0.5683 -0.8701
  268TMC3    C2 4103   3.826   1.133   0.708  0.1379 -0.1372  0.4013
  268TMC3    C3 4104   3.961   1.108   0.718 -0.0926 -0.2039  0.4747
  268TMC3    C4 4105   3.820   1.143   0.948 -0.4336  0.2617  0.7413
  268TMC3    C5 4106   3.954   1.113   0.953 -0.2920  0.1840  0.2480
  268TMC3    C6 4107   4.025   1.096   0.838  0.3996 -0.5177  0.8230
  268TMC3     C 4108   3.610   1.131   0.814 -0.7680 -0.8312  0.2933
  268TMC3     O 4109   3.535   1.190   0.892  0.0379 -0.4811  0.2272
  268TMC3     H 4110   3.773   1.163   0.618 -1.1134 -3.3948  0.0376
  268TMC3    H1 4111   3.765   1.145   1.042 -0.7976  3.3035  0.4802
  268TMC3    H2 4112   4.126   1.056   0.833  0.0986 -1.1560 -0.2228
  268TMC3    C7 4113   4.025   1.081   1.078 -0.4765  0.3047  0.2257
  268TMC3    C8 4114   4.046   1.165   0.612 -0.0582  0.5748  0.5719
  268TMC3    O1 4115   4.125   1.011   1.060 -0.2927 -0.4484  0.5360
  268TMC3    O2 4116   4.160   1.196   0.644  0.5920  0.1913 -0.0292
  269MPD2     C 4117   4.380   0.320  15.273  0.3610  0.2152 -0.5484
  269MPD2    C1 4118   4.269   0.280  15.345  0.4100  0.3397 -0.2383
  269MPD2    C2 4119   4.178   0.377  15.378  0.1005 -0.4538  0.0506
  269MPD2    C3 4120   4.197   0.511  15.341  0.4085 -0.4568 -0.3713
  269MPD2    C4 4121   4.304   0.546  15.263 -0.7320 -0.5297  0.0623
  269MPD2    C5 4122   4.394   0.452  15.230 -0.2638 -0.4643  0.0724
  269MPD2     H 4123   4.080   0.350  15.416  0.1681 -1.7264 -0.6767
  269MPD2    H1 4124   4.328   0.648  15.233 -2.9598  0.8091  2.8904
  269MPD2    H2 4125   4.462   0.249  15.270 -2.7669 -3.4129  0.0725
  269MPD2    H3 4126   4.481   0.484  15.174  1.8718 -0.4120  3.4264
  269MPD2     N 4127   4.101   0.610  15.383 -0.4294 -0.3579  0.3031
  269MPD2    H5 4128   4.022   0.575  15.436 -1.6632 -1.3465 -2.2015
  269MPD2    N1 4129   4.254   0.141  15.367 -0.0028  0.3235 -0.0568
  269MPD2    H7 4130   4.327   0.084  15.325  1.3219 -0.0097  2.6629
  270TMC3    C1 4131   4.166   4.677  15.442  0.9085 -0.1731 -0.1824
  270TMC3    C2 4132   4.045   4.613  15.462  0.6158 -0.4134  0.0113
  270TMC3    C3 4133   4.045   4.479  15.458 -0.5506 -0.4850  0.2886
  270TMC3    C4 4134   4.284   4.612  15.433  0.2854  0.1953 -0.4762
  270TMC3    C5 4135   4.280   4.474  15.443 -0.1795  0.0859  0.2276
  270TMC3    C6 4136   4.160   4.412  15.461  0.8688  0.4981 -0.2995
  270TMC3     C 4137   4.162   0.079  15.448  0.1067 -0.2858 -0.1698
  270TMC3     O 4138   4.066   0.133  15.498  0.4014 -0.3148 -0.0581
  270TMC3     H 4139   3.953   4.666  15.441  0.2118 -0.9511  0.4194
  270TMC3    H1 4140   4.377   4.667  15.429 -0.3201  1.3229  0.9748
  270TMC3    H2 4141   4.156   4.304  15.470  0.0400  0.4855 -0.7896
  270TMC3    C7 4142   4.400   4.402  15.476 -0.1759 -0.8325 -0.1726
  270TMC3    C8 4143   3.936   4.413  15.388 -0.1520  0.3958 -0.3317
  270TMC3    O1 4144   4.384   4.294  15.529 -0.0828 -0.1410  0.2782
  270TMC3    O2 4145   3.832   4.472  15.370 -0.2096 -0.0248 -0.3053
  271MPD2     C 4146   3.334   4.160  13.780 -0.8308 -0.0709 -0.3711
  271MPD2    C1 4147   3.283   4.177  13.910  0.0710  0.5020  0.6428
  271MPD2    C2 4148   3.175   4.250  13.928  0.4019  0.0425  0.0888
  271MPD2    C3 4149   3.110   4.309  13.826  0.0630  0.2978 -0.0110
  271MPD2    C4 4150   3.154   4.293  13.699  0.3630  0.5815 -0.0403
  271MPD2    C5 4151   3.264   4.217  13.676 -0.2684 -0.0128  0.3343
  271MPD2     H 4152   3.147   4.265  14.031  1.9252  1.3866  0.2945
  271MPD2    H1 4153   3.114   4.353  13.618  0.9610 -0.1688 -0.8894
  271MPD2    H2 4154   3.433   4.120  13.760 -1.3918 -0.9469 -1.3723
  271MPD2    H3 4155   3.309   4.210  13.577 -0.5352  3.2031  0.0056
  271MPD2     N 4156   2.992   4.390  13.832 -0.6829  0.0244  0.2763
  271MPD2    H5 4157   2.958   4.415  13.740  0.3456 -0.5476 -0.2658
  271MPD2    N1 4158   3.348   4.118  14.023 -0.4692  0.2735  0.5178
  271MPD2    H7 4159   3.308   4.131  14.115 -1.3248 -0.7933  0.3020
  272TMC3    C1 4160   3.519   4.031  14.146  0.0052  0.0573  0.7196
  272TMC3    C2 4161   3.652   4.027  14.142  0.1229 -0.1548  0.1865
  272TMC3    C3 4162   3.720   4.044  14.261 -0.3281  0.3064  0.4895
  272TMC3    C4 4163   3.450   4.075  14.255  0.2000 -0.1813 -0.2007
  272TMC3    C5 4164   3.526   4.117  14.362  0.0877 -0.0316 -0.0930
  272TMC3    C6 4165   3.659   4.095  14.374  0.3293 -0.1389  0.4151
  272TMC3     C 4166   3.454   4.036  14.020 -0.1645 -0.1001  0.2644
  272TMC3     O 4167   3.517   3.986  13.927 -0.1057  0.5486 -0.1937
  272TMC3     H 4168   3.700   3.981  14.057  0.7544 -1.6414  1.3402
  272TMC3    H1 4169   3.343   4.067  14.268  0.0832  1.5088 -0.0933
  272TMC3    H2 4170   3.707   4.087  14.471  1.8089  2.6681 -0.0868
  272TMC3    C7 4171   3.448   4.177  14.468  0.0701 -0.0596 -0.7355
  272TMC3    C8 4172   3.860   4.011  14.260 -0.1100  0.6202  0.4468
  272TMC3    O1 4173   3.328   4.170  14.467 -0.3161  0.4306 -0.3928
  272TMC3    O2 4174   3.906   3.990  14.150 -0.3016  0.7661  0.6694
  273MPD2     C 4175   4.568   2.264  11.800 -0.1485  0.8816  0.3827
  273MPD2    C1 4176   4.642   2.381  11.820 -0.0942 -0.1055  0.4755
  273MPD2    C2 4177   4.681   2.458  11.712 -0.5290 -0.2839 -0.5575
  273MPD2    C3 4178   4.633   2.427  11.588  0.3944  0.6126  0.5763
  273MPD2    C4 4179   4.554   2.319  11.563 -0.4778 -0.4319  0.1473
  273MPD2    C5 4180   4.524   2.237  11.672  0.1272 -0.5690  0.1374
  273MPD2     H 4181   0.008   2.545  11.721  1.2858 -1.5095 -1.4140
  273MPD2    H1 4182   4.527   2.285  11.464  0.0098 -0.4647  0.0301
  273MPD2    H2 4183   4.531   2.201  11.879  1.3061 -0.6346 -0.1645
  273MPD2    H3 4184   4.477   2.139  11.671  0.7639 -0.9050  2.6149
  273MPD2     N 4185   4.646   2.512  11.481  0.0545  0.9007  0.0567
  273MPD2    H5 4186   4.622   2.485  11.386  1.0435  0.5344 -0.0932
  273MPD2    N1 4187   4.679   2.416  11.955  0.3019  0.7188 -0.2145
  273MPD2    H7 4188   4.641   2.360  12.030  0.4250  0.6999 -0.1672
  274TMC3    C1 4189   4.689   2.712  11.373  0.0906 -0.4226  0.1033
  274TMC3    C2 4190   4.564   2.725  11.323 -0.2409 -0.2597  0.0381
  274TMC3    C3 4191   4.533   2.843  11.256 -0.1632 -0.9093  0.1698
  274TMC3    C4 4192   0.032   2.822  11.388  0.1692  0.0813 -0.4379
  274TMC3    C5 4193   0.002   2.944  11.333  0.2126 -0.1342 -0.3810
  274TMC3    C6 4194   4.616   2.954  11.265 -0.0627  0.1121 -0.3435
  274TMC3     C 4195   4.710   2.631  11.491 -0.1343 -0.0681  0.1843
  274TMC3     O 4196   0.024   2.696  11.575 -0.1230  0.2683  0.0049
  274TMC3     H 4197   4.495   2.642  11.311  0.4339 -0.7940 -0.1985
  274TMC3    H1 4198   0.130   2.819  11.433 -0.8334 -1.6555  1.6636
  274TMC3    H2 4199   4.586   3.049  11.223 -0.3720  0.7727  1.3631
  274TMC3    C7 4200   0.025   3.064  11.410 -0.1089  0.1185 -0.2254
  274TMC3    C8 4201   4.466   2.829  11.124  0.4418  0.5799 -0.5557
  274TMC3    O1 4202   4.723   3.172  11.361  0.6600  0.2524  0.6242
  274TMC3    O2 4203   4.424   2.714  11.114 -0.6926  0.3084  0.3893
  275MPD2     C 4204   4.675   1.050  14.202 -0.3465 -0.3036 -0.5793
  275MPD2    C1 4205   4.713   0.925  14.241 -0.2937  0.4058  0.2267
  275MPD2    C2 4206   4.608   0.838  14.292  0.0455  0.2351 -0.6569
  275MPD2    C3 4207   4.479   0.869  14.286 -0.0258 -0.3400  0.2478
  275MPD2    C4 4208   4.449   0.998  14.248 -0.2294  0.6229  0.4363
  275MPD2    C5 4209   4.542   1.091  14.211 -0.4507  0.0976  0.1229
  275MPD2     H 4210   4.643   0.741  14.326  0.3436  0.7745  0.5698
  275MPD2    H1 4211   4.344   1.026  14.241  0.2462  1.9937 -1.1364
  275MPD2    H2 4212   0.011   1.126  14.174 -1.1386  0.4620 -0.5697
  275MPD2    H3 4213   4.518   1.192  14.182  1.8249 -0.0701 -2.2811
  275MPD2     N 4214   4.374   0.784  14.313  0.0649  0.1437  0.2660
  275MPD2    H5 4215   4.280   0.821  14.329 -0.9967 -2.8182  0.9001
  275MPD2    N1 4216   0.109   0.882  14.250  0.0241  0.2309  0.1211
  275MPD2    H7 4217   0.129   0.795  14.297  0.3651  0.6654  0.7879
  276TMC3    C1 4218   0.348   0.886  14.226 -0.1831  0.1484  1.0220
  276TMC3    C2 4219   0.354   0.757  14.255 -0.2625  0.1687 -0.0269
  276TMC3    C3 4220   0.465   0.704  14.294  0.0107  0.1179 -0.1916
  276TMC3    C4 4221   0.462   0.961  14.244  0.3789 -0.0890  0.0092
  276TMC3    C5 4222   0.581   0.907  14.284  0.1998  0.2789 -0.0099
  276TMC3    C6 4223   0.581   0.773  14.296  0.5345  0.5671 -0.2732
  276TMC3     C 4224   0.222   0.947  14.193  0.8240  0.8575 -0.0365
  276TMC3     O 4225   0.214   1.064  14.148 -0.4058  0.0137  0.7754
  276TMC3     H 4226   0.266   0.696  14.238  1.2884 -1.9927 -0.3574
  276TMC3    H1 4227   0.459   1.069  14.237  0.7512  0.0362  1.9206
  276TMC3    H2 4228   0.674   0.723  14.321 -0.6007 -0.7443  1.3280
  276TMC3    C7 4229   0.642   0.974  14.398 -0.2233 -0.0397  0.2583
  276TMC3    C8 4230   0.454   0.603  14.401 -0.1198 -0.5960 -0.4370
  276TMC3    O1 4231   0.672   0.897  14.488 -0.3308  0.2416 -0.1460
  276TMC3    O2 4232   0.358   0.526  14.402  0.1410  0.5811  0.4955
  277MPD2     C 4233   1.987   4.078  13.311  0.1830  0.5032  0.1898
  277MPD2    C1 4234   1.872   4.148  13.354 -0.1419 -0.3860  0.6314
  277MPD2    C2 4235   1.795   4.080  13.442 -0.1154 -0.2769 -0.4357
  277MPD2    C3 4236   1.809   3.954  13.485 -0.5512 -0.0284 -0.1712
  277MPD2    C4 4237   1.928   3.888  13.451 -0.1801 -0.2842 -0.0933
  277MPD2    C5 4238   2.017   3.957  13.371 -0.2957  0.3914  0.4301
  277MPD2     H 4239   1.711   4.133  13.484 -0.1807 -1.3822  0.8160
  277MPD2    H1 4240   1.975   3.809  13.510  2.1994  2.0937  1.2252
  277MPD2    H2 4241   2.035   4.121  13.224  1.2251  0.3801  0.7088
  277MPD2    H3 4242   2.108   3.905  13.341  1.1911  2.5053  1.3130
  277MPD2     N 4243   1.710   3.895  13.567  0.2353 -0.2799  0.5701
  277MPD2    H5 4244   1.628   3.950  13.591 -1.1100 -0.7961 -2.9282
  277MPD2    N1 4245   1.833   4.273  13.302 -0.1598 -0.2004  0.0549
  277MPD2    H7 4246   1.908   4.325  13.258 -1.3869  0.3973 -1.3228
  278TMC3    C1 4247   1.601   3.746  13.725 -0.1666  0.4097  0.4359
  278TMC3    C2 4248   1.556   3.624  13.764  0.2912 -0.4876  0.0958
  278TMC3    C3 4249   1.459   3.611  13.858  1.1019 -0.2500  0.1649
  278TMC3    C4 4250   1.543   3.860  13.785  0.4567 -0.2048 -0.0420
  278TMC3    C5 4251   1.454   3.839  13.883 -0.5104  0.0344  0.1883
  278TMC3    C6 4252   1.400   3.716  13.910  0.7958  0.1219  0.2802
  278TMC3     C 4253   1.712   3.770  13.625  1.1640  0.8888  0.0848
  278TMC3     O 4254   1.799   3.686  13.603  0.1326 -0.4211 -0.1279
  278TMC3     H 4255   1.601   3.540  13.713 -0.8376 -1.4767  0.7042
  278TMC3    H1 4256   1.590   3.957  13.780 -0.6980  0.3825  0.6356
  278TMC3    H2 4257   1.320   3.706  13.983 -0.0672 -0.1773 -0.7063
  278TMC3    C7 4258   1.400   3.956  13.953  0.3806  0.0147 -0.3232
  278TMC3    C8 4259   1.406   3.480  13.873 -0.4641  0.0366 -0.2778
  278TMC3    O1 4260   1.456   4.065  13.947 -0.1253 -0.1580 -0.6615
  278TMC3    O2 4261   1.479   3.388  13.906 -0.1250  0.1380  0.2217
  279MPD2     C 4262   0.895   4.408   0.422  0.0932  0.5105 -0.3594
  279MPD2    C1 4263   0.803   4.513   0.439  0.1365 -0.4137  0.0799
  279MPD2    C2 4264   0.751   4.578   0.323 -0.0904 -0.6011 -0.2548
  279MPD2    C3 4265   0.786   4.538   0.196 -0.0540 -1.4592  0.0550
  279MPD2    C4 4266   0.871   4.432   0.181 -0.0459 -0.0823 -0.0839
  279MPD2    C5 4267   0.918   4.365   0.291  0.3231  0.4507  0.3444
  279MPD2     H 4268   0.687   4.665   0.335  0.5667  0.0698 -1.5916
  279MPD2    H1 4269   0.904   4.397   0.084 -0.7838  2.8368 -1.3907
  279MPD2    H2 4270   0.932   4.342   0.499  3.3519  1.9551 -0.7057
  279MPD2    H3 4271   0.988   4.282   0.283  0.2100  0.3465  0.4489
  279MPD2     N 4272   0.728   4.591   0.080 -0.0616  0.1821  0.0160
  279MPD2    H5 4273   0.745   4.553  17.732  0.8338  0.6962 -0.0275
  279MPD2    N1 4274   0.770   4.541   0.576  0.2330  0.3110  0.0053
  279MPD2    H7 4275   0.835   4.505   0.645  0.5858  2.3402  0.7374
  280TMC3    C1 4276   0.565   4.675   0.540  0.0666  0.1954 -0.2194
  280TMC3    C2 4277   0.494   4.589   0.470 -0.3143  0.1538  0.7579
  280TMC3    C3 4278   0.389   4.641   0.398 -0.2876 -0.4603 -0.8193
  280TMC3    C4 4279   0.523   0.069   0.560 -0.6147  0.0047  0.2653
  280TMC3    C5 4280   0.409   0.112   0.498 -0.0715 -0.7250  0.0750
  280TMC3    C6 4281   0.344   0.032   0.406  0.1768  0.1118 -0.0293
  280TMC3     C 4282   0.674   4.630   0.627  0.4664  0.3614  0.4810
  280TMC3     O 4283   0.660   4.672   0.745 -0.6428 -0.3951 -0.0939
  280TMC3     H 4284   0.525   4.486   0.478  1.9838  0.9440  2.0862
  280TMC3    H1 4285   0.571   0.141   0.625 -0.5411 -0.9115  1.2207
  280TMC3    H2 4286   0.254   0.058   0.351  0.6252 -3.4410 -2.4169
  280TMC3    C7 4287   0.375   0.256   0.506 -0.0944 -0.4674  0.7562
  280TMC3    C8 4288   0.337   4.561   0.292  0.1142 -0.1432 -0.1532
  280TMC3    O1 4289   0.445   0.319   0.581  0.5007 -0.6427 -0.7170
  280TMC3    O2 4290   0.238   4.600   0.232  0.0098 -1.2090 -0.0907
  281TMC3    C1 4291   3.837   0.190  13.862  0.5815  0.4917  0.2578
  281TMC3    C2 4292   3.790   0.306  13.800 -0.2268  0.0997 -0.0196
  281TMC3    C3 4293   3.737   0.298  13.675  0.1419 -0.1477 -0.5323
  281TMC3    C4 4294   3.837   0.070  13.803 -0.2902 -0.7715 -0.1522
  281TMC3    C5 4295   3.781   0.062  13.675  0.1102 -0.1313  0.2553
  281TMC3    C6 4296   3.740   0.175  13.604 -0.2092 -0.9360 -0.1715
  281TMC3     C 4297   3.954   0.201  13.944  0.2145 -0.3029 -0.4180
  281TMC3     O 4298   4.021   0.104  13.978 -0.0273 -0.1247 -0.1632
  281TMC3     H 4299   3.772   0.392  13.863 -0.8864  0.5249 -0.7815
  281TMC3    H1 4300   3.872   4.717  13.853  0.0017 -1.0994 -0.9457
  281TMC3    H2 4301   3.726   0.168  13.497 -1.5780  0.6109 -0.0829
  281TMC3    C7 4302   3.735   4.668  13.624 -0.5080 -0.1457 -0.1100
  281TMC3    C8 4303   3.645   0.398  13.633 -0.2180  1.1646 -0.4057
  281TMC3    O1 4304   3.646   4.663  13.542 -0.0258  0.9273  0.5932
  281TMC3    O2 4305   3.668   0.508  13.682 -0.3610  0.5553  0.0149
  282MPD2     C 4306   1.391   1.268  15.221 -0.1996 -0.0321  0.1092
  282MPD2    C1 4307   1.291   1.360  15.202  0.1999 -0.7486  0.0685
  282MPD2    C2 4308   1.227   1.354  15.084  0.5788  0.5199 -0.1848
  282MPD2    C3 4309   1.268   1.266  14.983  0.2488 -0.7906  0.4720
  282MPD2    C4 4310   1.376   1.183  15.001 -0.3032  0.1525  0.1437
  282MPD2    C5 4311   1.428   1.187  15.124 -0.1109  0.1668 -0.2766
  282MPD2     H 4312   1.141   1.418  15.067 -2.3236 -2.9235  1.5924
  282MPD2    H1 4313   1.413   1.114  14.926 -1.5314 -0.2981 -0.0548
  282MPD2    H2 4314   1.441   1.243  15.314  2.0076 -0.1096 -1.0993
  282MPD2    H3 4315   1.507   1.118  15.152  0.0488  0.0556 -1.0016
  282MPD2     N 4316   1.194   1.280  14.865  0.1834 -0.9217 -0.9413
  282MPD2    H5 4317   1.120   1.349  14.859  0.6709 -0.4682 -1.6605
  282MPD2    N1 4318   1.239   1.433  15.314  0.5574  0.0639  0.0108
  282MPD2    H7 4319   1.163   1.496  15.289 -0.6417 -1.0379  0.8407
  283TMC3    C1 4320   1.197   1.479  15.540 -0.0391 -0.0606 -1.0805
  283TMC3    C2 4321   1.168   1.615  15.542 -0.1867  0.5170 -0.0530
  283TMC3    C3 4322   1.080   1.659  15.636  0.1249 -0.4739  0.3023
  283TMC3    C4 4323   1.129   1.391  15.613  0.4802 -0.6968 -0.5795
  283TMC3    C5 4324   1.031   1.432  15.695 -0.1510  0.9176 -0.1865
  283TMC3    C6 4325   1.006   1.568  15.707 -0.9756 -0.2898 -0.5242
  283TMC3     C 4326   1.292   1.433  15.441  0.0255 -0.0561  0.3300
  283TMC3     O 4327   1.395   1.387  15.483 -0.2273  0.2806 -0.0037
  283TMC3     H 4328   1.238   1.682  15.493 -0.0633  0.7824  0.4907
  283TMC3    H1 4329   1.161   1.288  15.603  2.5770 -0.0985 -0.0715
  283TMC3    H2 4330   0.935   1.594  15.784  0.6642 -1.3755  1.3372
  283TMC3    C7 4331   0.957   1.343  15.774  0.1461 -0.2384 -0.0713
  283TMC3    C8 4332   1.081   1.786  15.698 -0.0606 -0.4218 -0.7461
  283TMC3    O1 4333   0.887   1.390  15.863 -0.3843 -0.2227 -0.3031
  283TMC3    O2 4334   1.035   1.800  15.809 -0.2757  0.0456  0.0086
  284MPD2     C 4335   3.936   0.390  12.340 -0.3949  0.5571 -0.7549
  284MPD2    C1 4336   4.071   0.395  12.294 -0.5498 -0.5465 -0.2446
  284MPD2    C2 4337   4.177   0.416  12.381  1.2748 -0.4712  0.3485
  284MPD2    C3 4338   4.150   0.409  12.519  1.2321 -0.6531  1.0616
  284MPD2    C4 4339   4.019   0.392  12.563 -0.5996 -0.4356  0.3439
  284MPD2    C5 4340   3.918   0.396  12.473 -0.6316  0.2688 -0.5432
  284MPD2     H 4341   4.278   0.428  12.345  1.6163  0.6979  1.6701
  284MPD2    H1 4342   3.996   0.381  12.669 -1.2072  0.7276  0.3244
  284MPD2    H2 4343   3.849   0.395  12.276 -1.5458  1.4776  0.9003
  284MPD2    H3 4344   3.815   0.397  12.508 -0.6380 -0.7738 -0.5464
  284MPD2     N 4345   4.247   0.423  12.623  0.0645 -0.2453  0.0607
  284MPD2    H5 4346   4.215   0.412  12.718  0.3630 -1.7669 -0.0074
  284MPD2    N1 4347   4.100   0.399  12.164 -0.3069  0.4659  0.3363
  284MPD2    H7 4348   4.197   0.394  12.135 -0.3805  0.5972  0.0589
  285TMC3    C1 4349   4.071   0.425  11.935  0.5316 -0.6366  1.3414
  285TMC3    C2 4350   4.201   0.376  11.931 -0.2628  0.3736 -0.3865
  285TMC3    C3 4351   4.282   0.420  11.831 -0.6729 -0.2905 -0.8411
  285TMC3    C4 4352   4.024   0.521  11.853 -0.7762  0.1873  0.1223
  285TMC3    C5 4353   4.108   0.569  11.753 -0.6013 -0.6073 -0.3577
  285TMC3    C6 4354   4.240   0.519  11.745  0.6854  0.6658 -0.3357
  285TMC3     C 4355   4.007   0.413  12.061 -0.2351  0.5180 -0.0043
  285TMC3     O 4356   3.890   0.441  12.066  0.0522  0.1125  0.1646
  285TMC3     H 4357   4.227   0.295  11.998  1.5572  1.2560 -0.0348
  285TMC3    H1 4358   3.929   0.570  11.872  0.2513  2.2498 -0.2036
  285TMC3    H2 4359   4.314   0.565  11.680  0.3208  1.2875 -0.3140
  285TMC3    C7 4360   4.090   0.695  11.688 -0.4172 -0.4174 -0.0499
  285TMC3    C8 4361   4.349   0.320  11.757  0.4097  0.1065 -0.1896
  285TMC3    O1 4362   4.180   0.767  11.655 -0.3237 -0.1866 -0.5637
  285TMC3    O2 4363   4.318   0.308  11.641 -0.3107  0.4731 -0.5003
  286MPD2     C 4364   4.719   4.359   1.402  0.3983 -0.1625  0.2041
  286MPD2    C1 4365   4.634   4.305   1.310  0.2215  0.4504 -0.0934
  286MPD2    C2 4366   4.656   4.179   1.275 -0.7104  0.5863  0.1708
  286MPD2    C3 4367   0.027   4.100   1.322  0.0964 -0.0918 -0.0186
  286MPD2    C4 4368   0.109   4.158   1.408 -0.1222 -0.3383  0.0441
  286MPD2    C5 4369   0.084   4.286   1.450  0.2413  0.5390  0.0329
  286MPD2     H 4370   4.588   4.137   1.201  0.1044  1.6418 -1.1750
  286MPD2    H1 4371   0.195   4.104   1.446 -0.4792  0.1507  1.5435
  286MPD2    H2 4372   4.705   4.462   1.435 -2.3386 -0.2506 -0.7095
  286MPD2    H3 4373   0.153   4.344   1.511 -1.0680  0.2749  1.7761
  286MPD2     N 4374   0.055   3.971   1.282 -0.0896  0.4505 -0.5264
  286MPD2    H5 4375   0.131   3.926   1.333 -1.1092 -0.8936 -0.1679
  286MPD2    N1 4376   4.528   4.372   1.254 -0.2377  0.0164  0.3760
  286MPD2    H7 4377   4.459   4.320   1.201  0.8347  2.0049 -2.9780
  287TMC3    C1 4378   0.047   3.767   1.158  0.4039  0.3798 -0.1408
  287TMC3    C2 4379   0.025   3.714   1.039  0.1309 -0.4641 -0.4338
  287TMC3    C3 4380   0.102   3.611   1.001  0.0570  0.0853  0.1217
  287TMC3    C4 4381   0.138   3.721   1.248  0.6365 -0.4109 -0.4374
  287TMC3    C5 4382   0.211   3.611   1.218 -0.8583 -0.3432 -0.5856
  287TMC3    C6 4383   0.200   3.563   1.087  0.3492 -0.6605 -0.3473
  287TMC3     C 4384   4.728   3.898   1.179  0.4182  0.8066 -0.1283
  287TMC3     O 4385   4.649   3.944   1.097  0.1678  0.1581  0.0134
  287TMC3     H 4386   4.673   3.740   0.983 -1.1296  0.6375  2.0674
  287TMC3    H1 4387   0.128   3.746   1.353  0.3175  1.9120 -1.0170
  287TMC3    H2 4388   0.260   3.484   1.044  0.0341 -0.5573 -0.9654
  287TMC3    C7 4389   0.344   3.607   1.280 -0.1763 -0.0947  0.0473
  287TMC3    C8 4390   0.062   3.539   0.880 -0.2581 -0.4262 -0.2060
  287TMC3    O1 4391   0.377   3.714   1.339  0.2244 -0.5062 -0.0717
  287TMC3    O2 4392   0.077   3.412   0.885  0.3166 -0.6389 -0.0822
  288TMC3    C1 4393   2.035   3.641  14.559  0.3340  0.4302  1.0508
  288TMC3    C2 4394   1.927   3.673  14.634  0.7055  0.8692  0.5039
  288TMC3    C3 4395   1.835   3.770  14.582  0.6467  0.2219  0.0851
  288TMC3    C4 4396   2.055   3.703  14.438 -0.0992 -0.1229  0.0614
  288TMC3    C5 4397   1.968   3.809  14.404 -0.0382  0.3158 -0.3818
  288TMC3    C6 4398   1.856   3.843  14.475 -0.1243  0.2435 -0.3225
  288TMC3     C 4399   2.132   3.564  14.629  0.2337  0.0761  0.5879
  288TMC3     O 4400   2.102   3.513  14.735  0.0313 -0.9046  0.1578
  288TMC3     H 4401   1.916   3.626  14.732 -2.0684  1.3169  0.3980
  288TMC3    H1 4402   2.138   3.680  14.372  1.5224  0.3601  1.9554
  288TMC3    H2 4403   1.798   3.932  14.453  2.9931  1.5484 -3.4055
  288TMC3    C7 4404   1.999   3.869  14.274  0.0086 -0.9331  0.0176
  288TMC3    C8 4405   1.740   3.815  14.679  0.4986 -0.0292  0.3407
  288TMC3    O1 4406   2.118   3.877  14.245 -0.2792  0.2262  0.3032
  288TMC3    O2 4407   1.752   3.934  14.699  0.7034 -0.4260  0.0990
  289MPD2     C 4408   2.025   2.924  14.735  0.4924  0.2650 -0.4263
  289MPD2    C1 4409   2.011   2.984  14.613 -0.4905 -0.3317  0.5845
  289MPD2    C2 4410   1.886   2.990  14.547  0.7437 -0.9197  0.6671
  289MPD2    C3 4411   1.775   2.941  14.617 -0.2636  0.0246  0.2390
  289MPD2    C4 4412   1.791   2.881  14.739 -0.0018  0.0328 -0.1079
  289MPD2    C5 4413   1.913   2.874  14.798 -0.4347  0.1747 -0.4934
  289MPD2     H 4414   1.875   3.011  14.442 -2.6312 -0.1149  1.1821
  289MPD2    H1 4415   1.710   2.846  14.803  0.3345  0.0847  0.3511
  289MPD2    H2 4416   2.118   2.901  14.787 -0.0605 -2.5109 -0.6568
  289MPD2    H3 4417   1.915   2.825  14.895  1.4173  0.3160 -0.4634
  289MPD2     N 4418   1.649   2.949  14.562 -0.6268  0.2505  0.4827
  289MPD2    H5 4419   1.575   2.906  14.615  1.6623 -1.3851  2.3533
  289MPD2    N1 4420   2.125   3.045  14.560 -0.0004 -0.4457  0.1564
  289MPD2    H7 4421   2.199   3.066  14.625 -0.2093  2.1372 -0.4443
  290TMC3    C1 4422   1.465   3.015  14.418  0.0613  0.5700 -0.2736
  290TMC3    C2 4423   1.430   3.119  14.337  0.4635 -0.1132 -0.3715
  290TMC3    C3 4424   1.312   3.115  14.268  0.1310  0.2666  0.4885
  290TMC3    C4 4425   1.402   2.893  14.414  0.7638  0.3642 -0.1529
  290TMC3    C5 4426   1.295   2.880  14.322  0.3253 -0.6094  0.2609
  290TMC3    C6 4427   1.251   2.993  14.256  0.1787 -0.1992 -0.9996
  290TMC3     C 4428   1.607   3.020  14.449  0.1889 -0.3499 -0.4525
  290TMC3     O 4429   1.669   3.100  14.378  0.2449  0.3820 -0.1067
  290TMC3     H 4430   1.462   3.220  14.362  0.1664 -0.0432 -0.2686
  290TMC3    H1 4431   1.433   2.814  14.481  1.7591  0.0311 -0.9958
  290TMC3    H2 4432   1.156   2.972  14.208 -1.1561  0.2870  1.3877
  290TMC3    C7 4433   1.185   2.794  14.359 -0.1414 -0.8545 -0.0905
  290TMC3    C8 4434   1.223   3.228  14.241  0.6248 -0.1113  0.6576
  290TMC3    O1 4435   1.076   2.849  14.377  0.2060 -0.5649 -0.2975
  290TMC3    O2 4436   1.104   3.200  14.250  0.1173  0.0151  0.4664
  291MPD2     C 4437   0.673   3.360   0.555  0.6852  0.2181 -0.1118
  291MPD2    C1 4438   0.769   3.263   0.531 -0.2493  0.0759  0.2320
  291MPD2    C2 4439   0.890   3.295   0.486  0.0453  0.4855  0.3582
  291MPD2    C3 4440   0.918   3.428   0.454 -0.5509 -0.4326  0.2749
  291MPD2    C4 4441   0.827   3.528   0.480 -0.0727 -0.1623  0.5053
  291MPD2    C5 4442   0.713   3.493   0.550 -0.0460 -0.1010 -0.3443
  291MPD2     H 4443   0.962   3.215   0.470  0.4623  0.5651  1.8578
  291MPD2    H1 4444   0.848   3.629   0.449 -0.6334 -0.4416 -0.7762
  291MPD2    H2 4445   0.575   3.335   0.595  0.0115  0.9951 -1.2967
  291MPD2    H3 4446   0.641   3.572   0.570  0.0188 -0.1484  0.0837
  291MPD2     N 4447   1.036   3.469   0.394  0.0746 -0.6295 -0.1745
  291MPD2    H5 4448   1.045   3.569   0.380  0.7376 -0.7633 -0.6667
  291MPD2    N1 4449   0.740   3.129   0.568  0.3547  0.8437 -0.5314
  291MPD2    H7 4450   0.814   3.059   0.565  0.0431  0.3650  2.6854
  292TMC3    C1 4451   0.612   2.917   0.587  0.9364 -0.6524  0.2755
  292TMC3    C2 4452   0.503   2.863   0.649 -0.4161 -0.2237  0.0739
  292TMC3    C3 4453   0.487   2.728   0.635  0.0888 -0.5560 -1.1008
  292TMC3    C4 4454   0.704   2.837   0.517 -0.1682  0.3726  0.1550
  292TMC3    C5 4455   0.689   2.699   0.517 -0.1235  0.0465  1.3355
  292TMC3    C6 4456   0.583   2.644   0.587  0.6432 -0.0233  0.1830
  292TMC3     C 4457   0.614   3.067   0.571 -0.5245  0.5006  0.3173
  292TMC3     O 4458   0.510   3.120   0.545  0.7507  0.0691  0.2865
  292TMC3     H 4459   0.426   2.925   0.694 -0.5634 -0.6425  0.4022
  292TMC3    H1 4460   0.793   2.881   0.475 -0.4641 -0.0503 -0.9038
  292TMC3    H2 4461   0.572   2.537   0.587  0.7737 -0.0377 -1.7442
  292TMC3    C7 4462   0.805   2.617   0.487 -0.7304  0.4306  0.6437
  292TMC3    C8 4463   0.378   2.654   0.706 -0.4894 -0.5485  0.6915
  292TMC3    O1 4464   0.917   2.656   0.507  0.2894  0.4248 -0.0600
  292TMC3    O2 4465   0.332   2.704   0.809  0.2747  0.0916 -0.0313
  293MPD2     C 4466   2.641   3.951  12.588 -0.2163 -0.2068 -0.1159
  293MPD2    C1 4467   2.563   4.044  12.647  0.3837  0.6353  0.5616
  293MPD2    C2 4468   2.578   4.084  12.777 -0.4743 -0.2608 -0.2849
  293MPD2    C3 4469   2.692   4.047  12.849 -0.1422 -0.0882  0.4551
  293MPD2    C4 4470   2.777   3.957  12.789  0.5510  0.1861 -0.0978
  293MPD2    C5 4471   2.756   3.909  12.656 -0.2964  1.1101  0.8608
  293MPD2     H 4472   2.510   4.157  12.820  0.5774  0.5651 -0.0477
  293MPD2    H1 4473   2.869   3.933  12.840  1.6853  1.3630 -1.5971
  293MPD2    H2 4474   2.631   3.913  12.487 -2.4093  0.5189 -0.1567
  293MPD2    H3 4475   2.828   3.833  12.629 -0.1426  1.2152  0.9687
  293MPD2     N 4476   2.717   4.097  12.981  0.4375 -1.0524  0.1603
  293MPD2    H5 4477   2.658   4.174  13.012  0.3878 -1.1073  0.2018
  293MPD2    N1 4478   2.460   4.090  12.567 -0.4193 -0.3150  0.5455
  293MPD2    H7 4479   2.466   4.056  12.472 -0.7941 -1.9609  1.1077
  294TMC3    C1 4480   2.258   4.185  12.492  0.2458 -0.4415 -0.0651
  294TMC3    C2 4481   2.130   4.140  12.503  0.0832 -0.2999  0.3105
  294TMC3    C3 4482   2.056   4.152  12.387  0.3638  0.0467 -0.2355
  294TMC3    C4 4483   2.308   4.244  12.379 -0.8073  0.3109 -0.1416
  294TMC3    C5 4484   2.228   4.253  12.275  0.1044  0.3936  0.1240
  294TMC3    C6 4485   2.103   4.196  12.268 -0.2666  0.4825  0.9117
  294TMC3     C 4486   2.344   4.158  12.603 -0.3622  0.3665  0.1797
  294TMC3     O 4487   2.295   4.173  12.710 -0.3622  0.2569 -0.3022
  294TMC3     H 4488   2.081   4.100  12.591 -1.3652 -1.1874 -0.8910
  294TMC3    H1 4489   2.415   4.265  12.378  0.1199 -4.3728 -0.5241
  294TMC3    H2 4490   2.038   4.225  12.186  2.0690  2.8422 -0.0948
  294TMC3    C7 4491   2.276   4.319  12.156 -0.0859 -0.1019  0.3415
  294TMC3    C8 4492   1.958   4.055  12.371 -1.1856  0.5101  0.2609
  294TMC3    O1 4493   2.218   4.300  12.051 -0.3412  0.2709 -0.0369
  294TMC3    O2 4494   1.864   4.046  12.450  0.1149  1.1741 -0.0593
  295MPD2     C 4495   3.218   3.259   0.919  0.5305  0.2818 -0.4035
  295MPD2    C1 4496   3.114   3.181   0.870  0.5544  0.0943 -0.1736
  295MPD2    C2 4497   3.023   3.118   0.961  0.1126 -0.2965 -0.3554
  295MPD2    C3 4498   3.037   3.148   1.090 -0.0977 -0.4310 -0.7979
  295MPD2    C4 4499   3.144   3.231   1.135  0.2190 -0.0915  0.0612
  295MPD2    C5 4500   3.228   3.293   1.047 -0.1201  0.4785 -0.3088
  295MPD2     H 4501   2.945   3.052   0.926  0.5379 -0.8672 -0.2272
  295MPD2    H1 4502   3.157   3.254   1.240  1.6780 -0.1587 -0.1055
  295MPD2    H2 4503   3.300   3.294   0.856  1.9521 -0.2739  1.1354
  295MPD2    H3 4504   3.300   3.363   1.089 -0.4556 -1.0840  2.8718
  295MPD2     N 4505   2.939   3.098   1.186  0.5187  0.1292  0.6029
  295MPD2    H5 4506   2.945   3.153   1.271  2.5269 -1.8323  1.7210
  295MPD2    N1 4507   3.087   3.150   0.735  0.0821 -0.1921 -0.3394
  295MPD2    H7 4508   3.008   3.089   0.718  1.9649 -2.2770 -1.5400
  296TMC3    C1 4509   2.738   3.006   1.273 -0.4152  0.1412 -0.9119
  296TMC3    C2 4510   2.705   3.130   1.322 -0.0079  0.5140 -0.2107
  296TMC3    C3 4511   2.626   3.132   1.431  0.6995  0.0457  0.0612
  296TMC3    C4 4512   2.707   2.893   1.331 -0.7890 -0.0464 -0.2562
  296TMC3    C5 4513   2.637   2.895   1.445  0.1874 -0.3445  0.2470
  296TMC3    C6 4514   2.592   3.018   1.493  0.5498  0.4116  0.6560
  296TMC3     C 4515   2.841   3.003   1.170  0.1232 -0.3585 -0.1296
  296TMC3     O 4516   2.838   2.914   1.083 -0.2361 -0.3560  0.2568
  296TMC3     H 4517   2.734   3.221   1.270 -0.7824 -0.1316 -1.7605
  296TMC3    H1 4518   2.742   2.802   1.283  0.5674 -0.2341  1.0759
  296TMC3    H2 4519   2.519   3.013   1.573 -0.3193 -1.4355 -0.2559
  296TMC3    C7 4520   2.568   2.779   1.490  0.4017 -0.1553 -0.6993
  296TMC3    C8 4521   2.571   3.251   1.494 -0.4657  0.1720  0.0513
  296TMC3    O1 4522   2.464   2.794   1.556 -0.1516  0.5249  0.4650
  296TMC3    O2 4523   2.545   3.243   1.615 -0.1997  0.2789  0.3874
  297MPD2     C 4524   0.355   4.528  16.359  0.0780 -0.1749  0.0168
  297MPD2    C1 4525   0.347   4.627  16.264  0.4704 -0.0517 -0.1026
  297MPD2    C2 4526   0.446   4.721  16.248  0.2212 -0.2830 -0.0831
  297MPD2    C3 4527   0.545   4.719  16.343 -0.1879 -0.4916  0.4138
  297MPD2    C4 4528   0.564   4.608  16.423 -0.5494 -0.5769 -0.6269
  297MPD2    C5 4529   0.460   4.518  16.441 -0.3251  0.1321  0.8709
  297MPD2     H 4530   0.437   0.065  16.176  1.7392  0.2263  0.2956
  297MPD2    H1 4531   0.648   4.597  16.491  0.6584  1.0781 -1.8251
  297MPD2    H2 4532   0.271   4.461  16.377 -1.3905  1.5622 -0.4104
  297MPD2    H3 4533   0.457   4.443  16.519  0.3905 -0.0723  0.6979
  297MPD2     N 4534   0.626   0.097  16.333 -0.0869 -0.6069  0.0457
  297MPD2    H5 4535   0.617   0.157  16.252 -1.1584 -2.0954 -0.9560
  297MPD2    N1 4536   0.240   4.645  16.183  0.5787 -0.9162 -0.3720
  297MPD2    H7 4537   0.248   4.725  16.120 -2.3796 -0.0612  0.2882
  298TMC3    C1 4538   0.033   4.659  16.108  0.1131 -0.2860 -0.2285
  298TMC3    C2 4539   0.097   4.692  15.994  0.3612  1.0374  0.4647
  298TMC3    C3 4540   0.048   0.070  15.933  1.1636  0.2939  0.4874
  298TMC3    C4 4541   4.664   4.722  16.164 -0.2897 -0.2056  0.2326
  298TMC3    C5 4542   4.625   0.100  16.098  0.3155 -0.6406 -0.7168
  298TMC3    C6 4543   4.691   0.154  15.986  0.5409 -0.1718 -0.4829
  298TMC3     C 4544   0.119   4.593  16.198  0.4639 -0.7401 -1.1267
  298TMC3     O 4545   0.070   4.515  16.281  0.1802  0.3380  0.2479
  298TMC3     H 4546   0.169   4.624  15.950 -0.7557  2.0499 -2.9616
  298TMC3    H1 4547   4.617   4.676  16.250  0.2886 -0.0944  0.6141
  298TMC3    H2 4548   4.680   0.259  15.960  1.1682 -0.3726 -1.5545
  298TMC3    C7 4549   4.515   0.185  16.156 -0.2614  0.4074 -0.5303
  298TMC3    C8 4550   0.127   0.116  15.823  0.0291 -0.0021  0.7395
  298TMC3    O1 4551   4.480   0.157  16.269  0.4101  0.0506 -0.2289
  298TMC3    O2 4552   0.241   0.067  15.814  0.5410  0.1435  0.2751
  299MPD2     C 4553   0.668   0.231  11.338 -0.0446  0.0335 -0.6716
  299MPD2    C1 4554   0.743   0.286  11.232  0.3115 -0.2918  0.5496
  299MPD2    C2 4555   0.683   0.302  11.105 -0.2167 -0.3455  0.3120
  299MPD2    C3 4556   0.555   0.255  11.075  0.8491  0.3419 -0.0011
  299MPD2    C4 4557   0.490   0.192  11.180 -0.0256 -0.6247  0.5530
  299MPD2    C5 4558   0.541   0.182  11.303 -0.7847  0.4808 -0.0756
  299MPD2     H 4559   0.756   0.322  11.027  0.7054  2.7147  1.9788
  299MPD2    H1 4560   0.387   0.160  11.167 -0.9574  2.2780  0.7867
  299MPD2    H2 4561   0.704   0.210  11.438 -2.1589 -0.7254 -0.0839
  299MPD2    H3 4562   0.472   0.145  11.379 -1.2864  2.9571  0.6593
  299MPD2     N 4563   0.490   0.259  10.950  0.3413 -0.2264 -0.4578
  299MPD2    H5 4564   0.396   0.221  10.944 -0.7076  2.2244  0.2089
  299MPD2    N1 4565   0.874   0.320  11.275  0.2437 -0.3483 -0.7295
  299MPD2    H7 4566   0.903   0.296  11.369 -0.2194  1.0688 -0.2246
  300TMC3    C1 4567   0.455   0.324  10.735  0.4920 -0.0568  0.0280
  300TMC3    C2 4568   0.450   0.438  10.660  0.8733  0.2321 -0.3877
  300TMC3    C3 4569   0.334   0.480  10.597  0.1324  0.7974  0.4749
  300TMC3    C4 4570   0.350   0.236  10.737 -0.4649  0.8038  0.0763
  300TMC3    C5 4571   0.243   0.283  10.664  0.6941  0.1367  0.1504
  300TMC3    C6 4572   0.225   0.400  10.596  0.0026 -0.6981 -0.5854
  300TMC3     C 4573   0.544   0.325  10.840  0.7972 -0.3864  0.7600
  300TMC3     O 4574   0.634   0.408  10.841 -0.5445  0.4081 -0.2057
  300TMC3     H 4575   0.531   0.509  10.666 -0.8548  2.0358  1.1620
  300TMC3    H1 4576   0.356   0.130  10.758  0.8602  0.8872  0.1729
  300TMC3    H2 4577   0.137   0.432  10.540 -2.0374 -1.3322  2.3068
  300TMC3    C7 4578   0.154   0.182  10.611 -0.4335 -0.0425 -0.1224
  300TMC3    C8 4579   0.300   0.615  10.639  0.2730  0.2652  0.3586
  300TMC3    O1 4580   0.152   0.182  10.487 -0.0363 -0.3234  0.3352
  300TMC3    O2 4581   0.396   0.689  10.660  0.3912  0.5219 -0.1461
  301MPD2     C 4582   2.956   1.718   1.095 -0.2414  0.2995  1.0680
  301MPD2    C1 4583   2.851   1.627   1.104 -0.4394 -0.3477 -0.4520
  301MPD2    C2 4584   2.866   1.494   1.075 -0.0130  1.0044 -0.2984
  301MPD2    C3 4585   2.989   1.445   1.038  0.2657 -0.6506  0.8753
  301MPD2    C4 4586   3.104   1.527   1.039 -0.1652 -0.3721  0.2395
  301MPD2    C5 4587   3.081   1.665   1.071  0.1784 -0.0988 -0.9836
  301MPD2     H 4588   2.782   1.426   1.076  0.5878  0.3082  4.1288
  301MPD2    H1 4589   3.203   1.497   1.006 -0.8798 -1.0005 -1.3260
  301MPD2    H2 4590   2.949   1.825   1.108 -0.6722  0.3661  0.3027
  301MPD2    H3 4591   3.160   1.738   1.058 -0.0897  0.3677 -0.0052
  301MPD2     N 4592   2.999   1.307   0.994 -0.1636 -0.2265 -0.3802
  301MPD2    H5 4593   3.093   1.272   0.981 -0.2517 -0.2440 -0.9714
  301MPD2    N1 4594   2.717   1.661   1.120  0.7558 -0.0913 -0.5429
  301MPD2    H7 4595   2.655   1.581   1.106 -0.8984  1.0681  0.1312
  302TMC3    C1 4596   2.942   1.108   0.902 -0.6016 -0.7051  0.4444
  302TMC3    C2 4597   3.068   1.071   0.934  0.6183  0.2472 -0.0028
  302TMC3    C3 4598   3.115   0.961   0.859 -0.2000  0.5833 -0.2377
  302TMC3    C4 4599   2.863   1.053   0.803 -0.2536 -0.0181  0.0074
  302TMC3    C5 4600   2.919   0.954   0.733 -0.0893 -0.2116 -0.6263
  302TMC3    C6 4601   3.041   0.903   0.760 -0.0836  0.0347 -0.4622
  302TMC3     C 4602   2.892   1.230   0.956  0.1861  0.4160  0.3956
  302TMC3     O 4603   2.777   1.259   0.941 -0.1565 -0.0939  0.1814
  302TMC3     H 4604   3.091   1.097   1.037 -0.3075  1.1335 -0.0210
  302TMC3    H1 4605   2.768   1.095   0.774  0.3661  0.1410 -1.7741
  302TMC3    H2 4606   3.070   0.807   0.719 -1.4606  0.1240 -1.6570
  302TMC3    C7 4607   2.848   0.875   0.629 -0.5548  0.9804  0.1808
  302TMC3    C8 4608   3.225   0.878   0.908  0.5340  0.0265  0.0298
  302TMC3    O1 4609   2.917   0.830   0.536 -0.5029 -0.1664  0.7056
  302TMC3    O2 4610   3.233   0.763   0.865 -0.0303  0.3383  0.1337
  303MPD2     C 4611   2.606   4.013  11.077 -0.4592 -0.2459 -0.2185
  303MPD2    C1 4612   2.641   3.888  11.034  0.4728  0.2487 -1.0016
  303MPD2    C2 4613   2.747   3.868  10.946 -0.1107  0.1226 -0.6662
  303MPD2    C3 4614   2.821   3.985  10.906  0.2464 -0.4997  0.2605
  303MPD2    C4 4615   2.783   4.107  10.955 -0.2023 -0.1281 -0.3755
  303MPD2    C5 4616   2.681   4.115  11.037 -0.2068 -0.2395 -0.5603
  303MPD2     H 4617   2.778   3.771  10.908 -0.3374 -0.4240  0.5314
  303MPD2    H1 4618   2.842   4.195  10.936 -0.0119 -0.2449 -0.3318
  303MPD2    H2 4619   2.531   4.024  11.154  0.0707 -0.6067  0.3488
  303MPD2    H3 4620   2.673   4.209  11.091  2.1925 -1.5133  1.9984
  303MPD2     N 4621   2.928   3.986  10.814  0.5574 -0.6849 -0.2360
  303MPD2    H5 4622   2.962   4.081  10.802  0.2428 -0.5620 -0.1540
  303MPD2    N1 4623   2.558   3.781  11.070  0.0164 -0.3370  0.1151
  303MPD2    H7 4624   2.477   3.808  11.124  2.1694  2.4918  1.9409
  304TMC3    C1 4625   2.455   3.563  11.082 -0.4649 -0.0158 -0.4393
  304TMC3    C2 4626   2.328   3.596  11.047  0.3973  0.2378  0.5695
  304TMC3    C3 4627   2.250   3.484  11.002 -0.2727  0.6675 -0.4260
  304TMC3    C4 4628   2.492   3.428  11.091  0.4170 -0.4088 -0.5297
  304TMC3    C5 4629   2.405   3.323  11.063 -0.1295 -0.3300 -0.0649
  304TMC3    C6 4630   2.278   3.351  11.021  0.1092 -0.3940  0.1452
  304TMC3     C 4631   2.569   3.648  11.030  0.1406 -0.8034 -0.6095
  304TMC3     O 4632   2.652   3.594  10.957 -0.2563 -0.1421 -0.2179
  304TMC3     H 4633   2.292   3.696  11.029  0.1251 -0.1536 -1.0798
  304TMC3    H1 4634   2.595   3.404  11.115  0.2677 -0.7154 -0.1890
  304TMC3    H2 4635   2.207   3.275  10.990 -0.3804 -0.0698  0.4801
  304TMC3    C7 4636   2.468   3.228  10.969  0.2206 -0.2232  0.2070
  304TMC3    C8 4637   2.206   3.511  10.868 -0.8603  0.3997 -0.3177
  304TMC3    O1 4638   2.400   3.201  10.873 -0.2352 -0.2982 -0.4308
  304TMC3    O2 4639   2.167   3.625  10.854  0.0963  0.6851 -0.7304
  305MPD2     C 4640   1.288   0.800  14.369 -0.0996  0.0450  0.1571
  305MPD2    C1 4641   1.364   0.908  14.343 -0.5819 -0.3164  0.5813
  305MPD2    C2 4642   1.386   0.943  14.212  0.1292 -0.4195  0.1020
  305MPD2    C3 4643   1.344   0.860  14.106  0.3735 -0.4632  0.7932
  305MPD2    C4 4644   1.259   0.754  14.137  0.7508 -0.4433  0.2825
  305MPD2    C5 4645   1.228   0.728  14.271  0.4001 -0.4227 -0.4707
  305MPD2     H 4646   1.448   1.027  14.185  2.0668 -3.0764 -3.5758
  305MPD2    H1 4647   1.219   0.692  14.057 -0.9498 -1.1327  1.6702
  305MPD2    H2 4648   1.263   0.771  14.471 -0.5597 -2.0413 -0.5398
  305MPD2    H3 4649   1.161   0.648  14.300 -1.3340  0.7922 -1.1727
  305MPD2     N 4650   1.373   0.874  13.966  0.2317  0.4232  0.0706
  305MPD2    H5 4651   1.315   0.819  13.902  0.2381 -0.3728  0.7411
  305MPD2    N1 4652   1.416   0.986  14.452 -0.0915  0.1437 -0.4850
  305MPD2    H7 4653   1.405   0.950  14.546 -1.1104 -0.4449 -0.8285
  306TMC3    C1 4654   1.503   1.179  14.565  0.5486 -0.2932  0.4867
  306TMC3    C2 4655   1.591   1.102  14.638  0.3886 -0.7177 -0.3725
  306TMC3    C3 4656   1.667   1.170  14.730 -0.0315  0.0570  0.2094
  306TMC3    C4 4657   1.499   1.316  14.578  0.2954 -0.0707  0.6289
  306TMC3    C5 4658   1.573   1.373  14.680  0.2611  0.2569  0.1667
  306TMC3    C6 4659   1.661   1.303  14.757  0.6206 -0.2447  0.0471
  306TMC3     C 4660   1.443   1.120  14.443 -0.6177 -0.1577 -0.3429
  306TMC3     O 4661   1.427   1.199  14.350  0.1243  0.4676 -0.1411
  306TMC3     H 4662   1.611   0.997  14.621 -2.6088 -1.3078 -0.1518
  306TMC3    H1 4663   1.441   1.374  14.507  0.3300 -0.2702  0.4378
  306TMC3    H2 4664   1.727   1.363  14.819  0.1194 -0.6872  1.0132
  306TMC3    C7 4665   1.510   1.481  14.754 -0.0457  0.6259  0.3120
  306TMC3    C8 4666   1.792   1.105  14.770  1.0294 -0.7127  0.2454
  306TMC3    O1 4667   1.404   1.511  14.712 -0.2951 -0.2883  0.1125
  306TMC3    O2 4668   1.822   0.996  14.720 -0.0585 -0.3475 -0.5815
  307MPD2     C 4669   4.124   4.118   0.362 -0.7262 -0.4000 -0.2188
  307MPD2    C1 4670   4.018   4.205   0.332 -0.0273  0.4242 -0.0813
  307MPD2    C2 4671   3.924   4.228   0.429 -0.6191 -0.6400 -0.1242
  307MPD2    C3 4672   3.936   4.166   0.547  0.0350  0.0344 -0.2587
  307MPD2    C4 4673   4.030   4.071   0.575  0.3464 -0.0330  0.1245
  307MPD2    C5 4674   4.128   4.058   0.487  0.5640 -0.1611 -0.6697
  307MPD2     H 4675   3.844   4.299   0.412  0.8361  1.0612  0.1107
  307MPD2    H1 4676   4.035   4.018   0.670 -2.2547 -1.6608 -0.6396
  307MPD2    H2 4677   4.212   4.094   0.304 -0.4231  0.3695 -0.0848
  307MPD2    H3 4678   4.196   3.975   0.499  1.3053  0.5707  0.1561
  307MPD2     N 4679   3.840   4.191   0.643  0.7142 -0.1007 -0.1625
  307MPD2    H5 4680   3.770   4.256   0.610 -0.3088 -2.1220 -1.9702
  307MPD2    N1 4681   4.014   4.279   0.215 -0.1331  1.0823  0.2855
  307MPD2    H7 4682   3.944   4.352   0.207 -1.9407 -0.8945 -2.1341
  308TMC3    C1 4683   3.513   4.284   0.803 -0.1987  0.0078  0.1123
  308TMC3    C2 4684   3.541   4.422   0.817 -0.2569 -1.0268  1.1359
  308TMC3    C3 4685   3.675   4.456   0.830 -0.2915 -0.2292 -0.1751
  308TMC3    C4 4686   3.615   4.196   0.807  0.6268  0.2515 -0.1003
  308TMC3    C5 4687   3.741   4.232   0.838  0.4286 -0.6481 -0.3095
  308TMC3    C6 4688   3.774   4.364   0.837  0.0517 -0.3259  0.0006
  308TMC3     C 4689   3.370   4.243   0.805 -0.2549  0.0362  1.0037
  308TMC3     O 4690   3.355   4.135   0.857  0.0862  0.2541  0.0854
  308TMC3     H 4691   3.461   4.492   0.836 -0.8521 -0.9426 -1.7037
  308TMC3    H1 4692   3.585   4.095   0.783 -0.7163  0.9894 -1.4967
  308TMC3    H2 4693   3.880   4.390   0.840 -0.4195  1.2717  2.4218
  308TMC3    C7 4694   3.831   4.148   0.773  0.4584 -1.1139 -0.3782
  308TMC3    C8 4695   3.727   4.595   0.815  0.6493 -0.2845 -0.4181
  308TMC3    O1 4696   3.896   4.071   0.843 -0.4371 -0.6859 -0.4733
  308TMC3    O2 4697   3.828   4.624   0.876 -0.5427 -0.3898  0.4281
  309MPD2     C 4698   2.918   4.533  17.513 -0.0177 -0.2317 -0.7302
  309MPD2    C1 4699   2.920   4.584  17.387  0.1771  0.5940  0.7873
  309MPD2    C2 4700   2.812   4.655  17.334  0.8353  0.3269  0.4177
  309MPD2    C3 4701   2.698   4.666  17.411  0.6260 -0.6398  0.0254
  309MPD2    C4 4702   2.693   4.603  17.533 -0.0168  0.0369 -0.0629
  309MPD2    C5 4703   2.797   4.525  17.577  0.2828 -0.2380  1.2477
  309MPD2     H 4704   2.815   4.720  17.247  0.1405 -2.1216 -1.4576
  309MPD2    H1 4705   2.599   4.607  17.587  1.1681  1.0102  1.8907
  309MPD2    H2 4706   3.003   4.476  17.549 -0.5281  0.0778  0.9640
  309MPD2    H3 4707   2.788   4.467  17.668 -1.2114 -3.0943 -0.7456
  309MPD2     N 4708   2.589   0.016  17.381  0.1158  0.3801  0.0357
  309MPD2    H5 4709   2.516   0.007  17.451  1.4538 -0.7024  1.2956
  309MPD2    N1 4710   3.029   4.582  17.295 -0.4487  0.9561  0.1800
  309MPD2    H7 4711   3.010   4.626  17.206  0.1251 -1.4692 -1.1407
  310TMC3    C1 4712   3.252   4.521  17.219 -0.0155  0.5469  0.0717
  310TMC3    C2 4713   3.219   4.563  17.092 -0.9436  0.0274 -0.4978
  310TMC3    C3 4714   3.310   4.536  16.992  0.3576 -0.1972  0.5980
  310TMC3    C4 4715   3.342   4.424  17.235 -0.1347 -0.8411  0.4455
  310TMC3    C5 4716   3.417   4.386  17.130  0.3812 -0.3293  0.2825
  310TMC3    C6 4717   3.407   4.441  17.002  0.0288 -0.2150  0.3629
  310TMC3     C 4718   3.155   4.532  17.328 -0.0684  0.2993  0.2886
  310TMC3     O 4719   3.187   4.488  17.440  0.3349 -0.1522 -0.0151
  310TMC3     H 4720   3.150   4.647  17.088  1.4400  2.0478  0.9193
  310TMC3    H1 4721   3.365   4.376  17.330 -0.6127 -3.2249 -0.6517
  310TMC3    H2 4722   3.445   4.397  16.910  1.1161 -0.4938  0.9391
  310TMC3    C7 4723   3.503   4.271  17.151 -0.2015  0.8487 -0.4644
  310TMC3    C8 4724   3.314   4.619  16.872  0.0536 -0.3496  0.0142
  310TMC3    O1 4725   3.470   4.188  17.229  0.2208  0.1901 -0.0266
  310TMC3    O2 4726   3.210   4.669  16.830  0.0313  0.3953  0.0916
  311MPD2     C 4727   0.288   1.260  12.547 -0.3619 -0.2246  0.0874
  311MPD2    C1 4728   0.307   1.376  12.624 -0.7457  0.3617  0.1601
  311MPD2    C2 4729   0.224   1.400  12.730  0.6887  0.0165  0.0100
  311MPD2    C3 4730   0.119   1.323  12.753 -1.0540  0.3427  0.1852
  311MPD2    C4 4731   0.090   1.209  12.672 -0.1122  0.4127  0.0076
  311MPD2    C5 4732   0.180   1.181  12.572 -0.1985 -0.1538  0.2468
  311MPD2     H 4733   0.247   1.485  12.794 -0.8700  1.2126 -1.0066
  311MPD2    H1 4734   0.010   1.140  12.696  0.2121 -0.7732 -2.4277
  311MPD2    H2 4735   0.346   1.239  12.459  0.8885  2.2511  0.3219
  311MPD2    H3 4736   0.155   1.095  12.511 -2.5822 -0.4585  1.6401
  311MPD2     N 4737   0.042   1.349  12.869 -0.7992  0.1606 -0.1813
  311MPD2    H5 4738   0.086   1.399  12.946  1.7221  0.6232 -1.9352
  311MPD2    N1 4739   0.414   1.465  12.610  1.1134 -0.2283  0.7916
  311MPD2    H7 4740   0.432   1.533  12.683  2.7913 -1.8809  1.9405
  312TMC3    C1 4741   4.596   1.350  13.014  0.8157 -1.0313  0.0876
  312TMC3    C2 4742   4.470   1.303  13.035 -0.0403  0.4723 -0.2480
  312TMC3    C3 4743   4.388   1.378  13.109 -0.3156  0.1534 -0.2544
  312TMC3    C4 4744   4.656   1.455  13.078 -0.7710 -0.2267  0.8007
  312TMC3    C5 4745   4.569   1.518  13.162 -0.0368 -0.5670 -0.2650
  312TMC3    C6 4746   4.437   1.488  13.176  0.5875  0.8027  0.2029
  312TMC3     C 4747   4.647   1.310  12.886 -0.6079  0.6994  0.2701
  312TMC3     O 4748   4.577   1.250  12.807 -0.1911  0.0383  0.0664
  312TMC3     H 4749   4.422   1.230  12.971 -0.3607 -0.5735  1.1860
  312TMC3    H1 4750   0.022   1.488  13.066 -0.5270 -0.6503  1.6957
  312TMC3    H2 4751   4.370   1.555  13.229  0.7794 -1.0661  2.8118
  312TMC3    C7 4752   4.615   1.648  13.201 -1.3303 -0.7408 -0.4465
  312TMC3    C8 4753   4.253   1.329  13.128  0.1720 -0.3070  0.0794
  312TMC3    O1 4754   4.537   1.741  13.175  0.2557  0.5812  0.4673
  312TMC3    O2 4755   4.209   1.252  13.044  0.4991 -0.0587 -0.0063
  313MPD2     C 4756   4.493   0.114  11.129 -0.0449  0.3081 -0.5927
  313MPD2    C1 4757   4.395   0.162  11.209 -0.0792 -0.0042  0.6297
  313MPD2    C2 4758   4.261   0.134  11.179 -0.5452 -0.6705  0.0892
  313MPD2    C3 4759   4.233   0.043  11.076  0.1194 -0.1900 -0.5069
  313MPD2    C4 4760   4.335   4.710  11.011  0.6694 -0.4716  0.1827
  313MPD2    C5 4761   4.464   0.014  11.035  0.6725  0.5431  0.6778
  313MPD2     H 4762   4.179   0.186  11.227  0.9335  1.2552  0.4993
  313MPD2    H1 4763   4.312   4.643  10.929 -0.1736  2.9525 -2.3443
  313MPD2    H2 4764   4.596   0.148  11.134  0.1893 -0.4587 -0.1471
  313MPD2    H3 4765   4.540   4.710  10.971  0.3140  1.5893 -0.4070
  313MPD2     N 4766   4.092   0.032  11.051  0.2586  0.4406 -0.5868
  313MPD2    H5 4767   4.032   0.083  11.116  0.4466  0.7185 -0.6288
  313MPD2    N1 4768   4.413   0.258  11.307  0.2595 -0.3232 -0.1623
  313MPD2    H7 4769   4.330   0.262  11.365  0.6120  1.3505  0.2160
  314TMC3    C1 4770   4.517   0.428  11.433  0.7885 -0.9137  0.8017
  314TMC3    C2 4771   4.632   0.491  11.477 -0.3739 -0.4477 -0.3553
  314TMC3    C3 4772   4.624   0.621  11.511  1.1274  0.8677  0.2566
  314TMC3    C4 4773   4.398   0.507  11.419 -0.3990  0.2411  0.9056
  314TMC3    C5 4774   4.401   0.635  11.441 -0.1510  0.1292  0.4565
  314TMC3    C6 4775   4.510   0.694  11.496 -0.3550 -0.4165 -0.2756
  314TMC3     C 4776   4.529   0.318  11.336  0.5412 -0.1089 -0.5997
  314TMC3     O 4777   4.639   0.297  11.290  0.1083  0.2050 -0.6664
  314TMC3     H 4778   4.725   0.435  11.482  1.2120  2.1039 -1.1770
  314TMC3    H1 4779   4.303   0.468  11.383  1.0609 -0.6268 -2.0183
  314TMC3    H2 4780   4.510   0.799  11.521 -0.1423 -0.6867  0.8496
  314TMC3    C7 4781   4.328   0.724  11.349 -0.6059 -0.2709  0.1331
  314TMC3    C8 4782   0.006   0.697  11.531  0.6979 -0.3127  0.4102
  314TMC3    O1 4783   4.214   0.696  11.315  0.8416  0.0711 -0.2964
  314TMC3    O2 4784   4.728   0.815  11.497  0.4924 -0.2401 -0.7052
  315MPD2     C 4785   4.115   0.085   0.141 -0.2639 -0.1050  0.2855
  315MPD2    C1 4786   4.252   0.077   0.152  0.0595  0.6717 -0.1967
  315MPD2    C2 4787   4.332   0.176   0.105  0.6773  0.2396 -0.5972
  315MPD2    C3 4788   4.280   0.293   0.050 -0.4367  0.3821  0.1202
  315MPD2    C4 4789   4.138   0.302   0.036 -0.4675  0.3544 -0.4232
  315MPD2    C5 4790   4.063   0.199   0.083 -0.7257 -0.1468 -0.2088
  315MPD2     H 4791   4.437   0.152   0.097  0.7535  0.3149  0.1801
  315MPD2    H1 4792   4.090   0.391  17.741 -1.1814 -0.1783 -0.7430
  315MPD2    H2 4793   4.050   0.004   0.170 -1.6629  0.6891 -0.6578
  315MPD2    H3 4794   3.956   0.221   0.080 -0.9075 -1.0959 -0.6144
  315MPD2     N 4795   4.367   0.398   0.011  0.1671  0.4220  0.3697
  315MPD2    H5 4796   4.464   0.390   0.037  0.6123  1.1510 -1.0950
  315MPD2    N1 4797   4.317   4.707   0.215  0.1899  0.3921 -0.4782
  315MPD2    H7 4798   4.418   4.699   0.211 -0.0651 -3.3133  0.6928
  316TMC3    C1 4799   4.429   0.601  17.668 -0.0633  0.5677  0.1497
  316TMC3    C2 4800   4.507   0.625   0.036 -0.8122  0.0194 -0.0779
  316TMC3    C3 4801   4.601   0.724   0.017  0.9408  0.5601  0.2139
  316TMC3    C4 4802   4.428   0.668  17.549  0.7164 -0.4176  0.1975
  316TMC3    C5 4803   4.523   0.765  17.546  0.3258  0.5307  1.2513
  316TMC3    C6 4804   4.614   0.788  17.642 -0.3815  0.4248 -0.1830
  316TMC3     C 4805   4.323   0.506  17.684  0.2481 -0.5126  0.0708
  316TMC3     O 4806   4.225   0.515  17.612 -0.2207  0.1885 -0.4603
  316TMC3     H 4807   4.501   0.569   0.129 -0.2704 -0.0526 -0.0838
  316TMC3    H1 4808   4.349   0.649  17.477  1.0396 -0.2193 -0.2025
  316TMC3    H2 4809   4.694   0.859  17.630  0.9890 -1.1410 -0.3414
  316TMC3    C7 4810   4.570   0.796  17.411 -0.4129  0.5518  0.1074
  316TMC3    C8 4811   4.711   0.733   0.107  0.0763 -0.3451  0.5524
  316TMC3    O1 4812   4.661   0.879  17.396  0.3187 -0.7554 -0.1440
  316TMC3    O2 4813   0.013   0.845   0.128  0.2721  0.4808 -0.1360
  317MPD2     C 4814   1.886   3.198  12.612  0.2839 -0.5617  0.0342
  317MPD2    C1 4815   1.952   3.078  12.609  0.5908 -0.2141 -0.7626
  317MPD2    C2 4816   1.968   2.994  12.722 -0.2026 -0.1177  0.7399
  317MPD2    C3 4817   1.918   3.040  12.845 -0.1109  0.6466 -0.3856
  317MPD2    C4 4818   1.859   3.164  12.841 -0.3191 -0.6568  0.0601
  317MPD2    C5 4819   1.841   3.244  12.733 -0.4402 -0.1928 -0.3292
  317MPD2     H 4820   2.006   2.893  12.708 -0.8207  0.1341 -2.7239
  317MPD2    H1 4821   1.821   3.214  12.929  0.6291 -0.1382  0.1752
  317MPD2    H2 4822   1.883   3.270  12.531 -0.6521 -0.3597  0.2493
  317MPD2    H3 4823   1.801   3.345  12.732  1.4334  0.5635  0.2753
  317MPD2     N 4824   1.936   2.957  12.961 -0.0918 -0.3488 -0.1815
  317MPD2    H5 4825   1.987   2.870  12.946 -2.2181 -1.9214  1.6202
  317MPD2    N1 4826   2.014   3.039  12.492 -0.1340 -0.2118 -0.5400
  317MPD2    H7 4827   2.078   2.960  12.489  2.7517  2.0499  1.2846
  318TMC3    C1 4828   1.972   2.900  13.177  1.1127 -0.3011 -0.3486
  318TMC3    C2 4829   1.929   2.772  13.164 -0.5193  0.5270  0.0334
  318TMC3    C3 4830   1.988   2.687  13.247 -0.3419 -0.6056  0.1928
  318TMC3    C4 4831   2.039   2.951  13.287  0.2839  0.5092  0.1877
  318TMC3    C5 4832   2.091   2.863  13.378 -0.2182  0.2528  0.2413
  318TMC3    C6 4833   2.073   2.724  13.353 -0.9262  0.2916 -0.0133
  318TMC3     C 4834   1.906   2.993  13.089  0.3639  0.5661 -0.4316
  318TMC3     O 4835   1.862   3.099  13.133 -0.3093 -0.1221  0.0981
  318TMC3     H 4836   1.860   2.741  13.086  2.2521 -0.8004 -1.9209
  318TMC3    H1 4837   2.047   3.058  13.302 -1.8117  0.7745 -0.4534
  318TMC3    H2 4838   2.134   2.646  13.397  0.0701  1.3769  0.5495
  318TMC3    C7 4839   2.199   2.920  13.456 -0.0647  0.0824 -0.0918
  318TMC3    C8 4840   1.960   2.546  13.236  0.1168  0.1497 -0.0326
  318TMC3    O1 4841   2.240   3.032  13.421  0.0083  0.1954  0.2931
  318TMC3    O2 4842   2.035   2.472  13.293 -0.0668  0.7997  0.0197
  319MPD2     C 4843   1.712   4.517  16.753  0.1887  0.5513  0.7252
  319MPD2    C1 4844   1.789   4.434  16.669 -0.6132  0.4570 -0.1220
  319MPD2    C2 4845   1.729   4.353  16.576 -0.2527 -0.0480 -0.7898
  319MPD2    C3 4846   1.597   4.358  16.561  0.3396 -0.2241 -0.1141
  319MPD2    C4 4847   1.525   4.455  16.632 -0.4448 -0.8887  0.3932
  319MPD2    C5 4848   1.580   4.539  16.722  0.6880  0.2037 -0.1088
  319MPD2     H 4849   1.790   4.280  16.522 -0.1897  0.0056 -0.7911
  319MPD2    H1 4850   1.418   4.470  16.619 -0.4166 -1.9040 -0.9742
  319MPD2    H2 4851   1.749   4.580  16.832  1.9824 -1.1558  1.2409
  319MPD2    H3 4852   1.521   4.604  16.785  1.2923  1.2017 -0.5832
  319MPD2     N 4853   1.533   4.278  16.463  0.1409 -0.3144 -0.3414
  319MPD2    H5 4854   1.448   4.311  16.419  0.2097  0.9364  0.4729
  319MPD2    N1 4855   1.928   4.437  16.667 -0.6327 -0.1340 -0.6380
  319MPD2    H7 4856   1.973   4.372  16.604 -1.0036  0.5012 -1.5514
  320TMC3    C1 4857   1.527   4.110  16.300 -0.1093 -0.5563 -0.1165
  320TMC3    C2 4858   1.528   4.194  16.193 -0.2096  0.0625 -0.0263
  320TMC3    C3 4859   1.563   4.142  16.072 -0.1368  0.3748  0.0508
  320TMC3    C4 4860   1.561   3.977  16.288 -0.1023  0.6325  0.2554
  320TMC3    C5 4861   1.607   3.932  16.161 -0.6401  0.2049 -0.2464
  320TMC3    C6 4862   1.603   4.012  16.054 -0.4709  0.5626  1.1266
  320TMC3     C 4863   1.579   4.154  16.427  0.1277 -0.4887  0.2379
  320TMC3     O 4864   1.658   4.088  16.490 -0.0715  0.2174  0.0371
  320TMC3     H 4865   1.494   4.296  16.206 -1.1614 -0.2869  0.2444
  320TMC3    H1 4866   1.556   3.918  16.379 -1.4503  0.8967  0.3483
  320TMC3    H2 4867   1.633   3.968  15.960 -0.4924  0.6993  1.0555
  320TMC3    C7 4868   1.702   3.825  16.159 -0.2789 -0.1897  0.6995
  320TMC3    C8 4869   1.576   4.242  15.967 -1.0437 -0.2069 -0.4981
  320TMC3    O1 4870   1.756   3.802  16.052  0.6782 -0.4747 -0.1700
  320TMC3    O2 4871   1.510   4.345  15.985  0.1769  0.6021  0.5483
  321TMC3    C1 4872   2.141   4.498  16.746 -0.2319  0.5411  0.8857
  321TMC3    C2 4873   2.196   4.392  16.676 -0.1834 -0.5447 -0.5704
  321TMC3    C3 4874   2.333   4.378  16.688  0.0779  0.3066 -0.2623
  321TMC3    C4 4875   2.214   4.578  16.828 -0.3800 -0.8504  0.0159
  321TMC3    C5 4876   2.349   4.560  16.830  0.9070 -0.7200 -0.3966
  321TMC3    C6 4877   2.406   4.469  16.753 -0.3974  0.1945  0.5219
  321TMC3     C 4878   2.002   4.525  16.737  0.8502  0.3104 -0.2238
  321TMC3     O 4879   1.964   4.631  16.782  0.4261 -0.4056 -0.1707
  321TMC3     H 4880   2.139   4.331  16.607 -1.5970  0.4147 -0.2636
  321TMC3    H1 4881   2.167   4.652  16.890  1.4151  0.8764 -0.6759
  321TMC3    H2 4882   2.514   4.460  16.749 -0.3496  1.1578 -0.3690
  321TMC3    C7 4883   2.407   4.540  16.961 -0.3450  0.0914  0.7834
  321TMC3    C8 4884   2.370   4.240  16.706 -0.5808 -0.2474 -0.0935
  321TMC3    O1 4885   2.496   4.454  16.966  0.1884 -0.9325  0.1536
  321TMC3    O2 4886   2.307   4.161  16.635  0.7803  1.3359 -0.3948
  322MPD2     C 4887   1.719   0.692  13.825 -0.5619 -0.1645 -0.2907
  322MPD2    C1 4888   1.660   0.614  13.924 -0.4713  0.5477  0.4869
  322MPD2    C2 4889   1.615   0.485  13.900  0.4467 -0.0711  0.7666
  322MPD2    C3 4890   1.642   0.444  13.767  0.8444 -0.6742  0.6721
  322MPD2    C4 4891   1.672   0.526  13.662 -0.0465 -0.9769  0.3390
  322MPD2    C5 4892   1.709   0.650  13.696 -0.8947  0.0352  0.2223
  322MPD2     H 4893   1.590   0.415  13.978  0.6426  2.4642  3.1183
  322MPD2    H1 4894   1.678   0.492  13.560 -0.4622  1.2722 -0.4332
  322MPD2    H2 4895   1.746   0.795  13.842 -0.2135 -0.3788  0.4834
  322MPD2    H3 4896   1.752   0.711  13.618 -2.1016  0.3444 -0.2090
  322MPD2     N 4897   1.613   0.311  13.744 -0.4431 -0.4199 -0.3470
  322MPD2    H5 4898   1.580   0.263  13.827  1.1066  1.8835  1.6269
  322MPD2    N1 4899   1.657   0.674  14.050 -0.0829 -0.1510 -0.2698
  322MPD2    H7 4900   1.703   0.763  14.066 -2.3692  0.8757  0.5401
  323TMC3    C1 4901   1.652   0.663  14.284  0.1028 -0.5667  0.0013
  323TMC3    C2 4902   1.707   0.787  14.289  0.1537 -0.4611 -0.2881
  323TMC3    C3 4903   1.738   0.839  14.409 -0.0420 -0.2422  0.0132
  323TMC3    C4 4904   1.651   0.587  14.401  0.3525 -0.7054  0.0239
  323TMC3    C5 4905   1.695   0.638  14.519  0.3192 -0.2239  0.3840
  323TMC3    C6 4906   1.721   0.769  14.524  0.1148  0.1160  0.2643
  323TMC3     C 4907   1.620   0.600  14.160 -0.0855  0.7253  0.0657
  323TMC3     O 4908   1.568   0.490  14.180 -0.3930 -0.1090  0.9209
  323TMC3     H 4909   1.707   0.864  14.213  1.6293  0.4294  0.6422
  323TMC3    H1 4910   1.619   0.484  14.403 -0.8625 -0.3032  1.8177
  323TMC3    H2 4911   1.744   0.819  14.617  0.6678  1.9554 -0.8625
  323TMC3    C7 4912   1.745   0.549  14.627  0.7450  1.2203  0.2902
  323TMC3    C8 4913   1.865   0.900  14.414 -0.1434 -0.1940  0.2930
  323TMC3    O1 4914   1.772   0.432  14.594 -0.0797 -0.1767  0.0673
  323TMC3    O2 4915   1.948   0.836  14.480  0.4399 -0.0123 -0.3722
  324MPD2     C 4916   3.027   1.734  14.825 -0.5125  0.4977  0.3468
  324MPD2    C1 4917   2.993   1.872  14.837  0.2704 -0.5121 -0.1905
  324MPD2    C2 4918   2.868   1.917  14.809  0.1128  0.4512 -0.0693
  324MPD2    C3 4919   2.772   1.830  14.768 -0.5352 -0.0322  0.3747
  324MPD2    C4 4920   2.800   1.698  14.767 -0.1312  0.2639  0.2672
  324MPD2    C5 4921   2.924   1.648  14.784 -1.3466  0.0595  0.0007
  324MPD2     H 4922   2.843   2.021  14.825  0.3697  0.3303  1.0831
  324MPD2    H1 4923   2.714   1.636  14.741  0.1250  0.3972 -0.8936
  324MPD2    H2 4924   3.128   1.701  14.845 -0.2413 -0.2597 -2.3152
  324MPD2    H3 4925   2.943   1.542  14.771 -1.5802  0.0818 -0.4904
  324MPD2     N 4926   2.640   1.876  14.723  1.0826  0.1316 -0.7729
  324MPD2    H5 4927   2.586   1.806  14.675 -2.1339  1.4748  0.9021
  324MPD2    N1 4928   3.088   1.975  14.860  0.0132  0.3954  0.1070
  324MPD2    H7 4929   3.052   2.068  14.841 -1.0667 -0.1757 -0.6694
  325TMC3    C1 4930   2.514   2.026  14.594 -0.2347  0.1306  0.2920
  325TMC3    C2 4931   2.381   2.012  14.628  0.0598  0.7656 -0.2198
  325TMC3    C3 4932   2.288   2.080  14.555 -0.9255 -0.3865 -0.1236
  325TMC3    C4 4933   2.553   2.101  14.488 -0.3373 -0.7366 -0.1060
  325TMC3    C5 4934   2.452   2.150  14.405  0.1826 -0.3835  0.3591
  325TMC3    C6 4935   2.316   2.145  14.435  0.0664 -0.2554 -0.4079
  325TMC3     C 4936   2.613   2.006  14.698 -0.2324  0.0565 -0.5887
  325TMC3     O 4937   2.679   2.110  14.723 -0.0832 -1.0360  0.6419
  325TMC3     H 4938   2.343   1.973  14.721  2.3720 -3.2730 -0.9961
  325TMC3    H1 4939   2.657   2.129  14.482 -0.0869 -1.3570  1.3003
  325TMC3    H2 4940   2.238   2.179  14.368  0.8854  2.2015 -0.1256
  325TMC3    C7 4941   2.501   2.236  14.295 -0.0380  0.3906  0.0877
  325TMC3    C8 4942   2.156   2.012  14.555  0.0433 -0.1121 -0.2993
  325TMC3    O1 4943   2.623   2.235  14.277  0.4547  0.1407  0.1552
  325TMC3    O2 4944   2.150   1.895  14.601 -0.2075 -0.0745 -0.1650
  326MPD2     C 4945   4.047   2.756  11.156 -0.3352  0.4945  0.8981
  326MPD2    C1 4946   4.053   2.795  11.025 -0.6561 -0.4415 -0.2109
  326MPD2    C2 4947   4.102   2.916  10.992  0.7991  0.1911  0.1408
  326MPD2    C3 4948   4.166   2.995  11.085  0.5834  0.4931 -0.6083
  326MPD2    C4 4949   4.160   2.952  11.218  0.5222  0.3251 -0.0286
  326MPD2    C5 4950   4.105   2.828  11.255 -0.3432 -0.6416  0.3942
  326MPD2     H 4951   4.094   2.941  10.886 -1.0941 -1.0187  0.0010
  326MPD2    H1 4952   4.209   3.005  11.300  2.6447 -0.7168 -0.6137
  326MPD2    H2 4953   3.989   2.671  11.190 -1.3018  0.9635  0.4091
  326MPD2    H3 4954   4.111   2.806  11.361  2.6917  1.1852  0.6012
  326MPD2     N 4955   4.213   3.122  11.060  0.3577  0.1897 -0.1819
  326MPD2    H5 4956   4.254   3.168  11.141 -0.7817  0.5738  0.1736
  326MPD2    N1 4957   4.000   2.718  10.922  0.2078 -0.1061 -0.0108
  326MPD2    H7 4958   4.003   2.772  10.836 -1.1166  1.0761  0.6825
  327TMC3    C1 4959   3.928   2.557  10.791 -0.0194 -0.4521  0.1127
  327TMC3    C2 4960   3.817   2.620  10.739 -0.0517 -0.1254 -0.2616
  327TMC3    C3 4961   3.816   2.689  10.620 -0.2275 -0.0930 -0.2835
  327TMC3    C4 4962   4.039   2.575  10.714 -0.3821  0.3643 -0.0753
  327TMC3    C5 4963   4.041   2.640  10.594 -0.3507  0.5202  0.4253
  327TMC3    C6 4964   3.928   2.693  10.542 -0.0293  0.0576 -0.4340
  327TMC3     C 4965   3.943   2.595  10.929 -0.1480 -0.1011 -0.0326
  327TMC3     O 4966   3.917   2.529  11.034  0.8301  0.2870  0.3841
  327TMC3     H 4967   3.728   2.628  10.801  1.1024 -3.2736  1.8058
  327TMC3    H1 4968   4.132   2.540  10.757 -1.3005 -1.2626  0.5723
  327TMC3    H2 4969   3.934   2.758  10.456 -2.6131 -0.3206 -0.9103
  327TMC3    C7 4970   4.156   2.728  10.576 -0.1133  0.0116 -0.7904
  327TMC3    C8 4971   3.702   2.765  10.576  0.8420 -0.5071  0.2607
  327TMC3    O1 4972   4.147   2.801  10.474  0.0509 -0.0093  0.1832
  327TMC3    O2 4973   3.721   2.855  10.497  0.1640  0.0466 -0.3831
  328MPD2     C 4974   2.267   2.805  17.567  0.3031  0.4909  0.6592
  328MPD2    C1 4975   2.142   2.756  17.580  0.0943  0.1362 -0.2264
  328MPD2    C2 4976   2.063   2.751  17.466 -0.0077 -0.5629  0.1073
  328MPD2    C3 4977   2.114   2.781  17.335  0.3021 -0.0523  0.2893
  328MPD2    C4 4978   2.247   2.820  17.325  0.4476 -0.4364 -0.1754
  328MPD2    C5 4979   2.319   2.835  17.445 -0.0373  0.4710 -0.6822
  328MPD2     H 4980   1.957   2.737  17.486 -0.4631 -0.7164 -2.4349
  328MPD2    H1 4981   2.292   2.851  17.231 -0.6693 -0.0710 -0.5997
  328MPD2    H2 4982   2.337   2.814  17.649 -0.3451  2.0214  1.0514
  328MPD2    H3 4983   2.414   2.886  17.439  0.6046 -0.6994 -0.4386
  328MPD2     N 4984   2.038   2.769  17.217  0.0388  0.3561  0.0363
  328MPD2    H5 4985   2.085   2.795  17.131 -0.8430  0.9558 -0.2602
  328MPD2    N1 4986   2.091   2.727  17.708  0.3413  0.0590 -0.3897
  328MPD2    H7 4987   2.163   2.735   0.035  0.8102  0.8727 -0.9532
  329TMC3    C1 4988   1.946   2.659   0.149  0.4595  0.3116 -0.5474
  329TMC3    C2 4989   2.024   2.727   0.245  0.0366 -0.2008  0.0791
  329TMC3    C3 4990   1.972   2.731   0.371  0.1098  0.6311 -0.3397
  329TMC3    C4 4991   1.837   2.582   0.182 -0.4942 -0.3590 -0.3169
  329TMC3    C5 4992   1.796   2.586   0.310 -0.1835 -0.2344 -0.6643
  329TMC3    C6 4993   1.859   2.664   0.397 -0.5875  0.0441 -0.1843
  329TMC3     C 4994   1.966   2.679   0.005  0.1809  0.5514  0.1252
  329TMC3     O 4995   1.864   2.663  17.678 -0.4173 -0.3265 -0.5456
  329TMC3     H 4996   2.094   2.806   0.219 -0.0351 -0.1150  0.1452
  329TMC3    H1 4997   1.782   2.514   0.117  2.4195 -1.4964 -1.5875
  329TMC3    H2 4998   1.828   2.677   0.500  0.4979  0.5722  0.0710
  329TMC3    C7 4999   1.663   2.550   0.340  0.6033 -0.5265  0.7398
  329TMC3    C8 5000   1.970   2.862   0.437  0.3223  0.3702 -0.1589
  329TMC3    O1 5001   1.637   2.512   0.455  0.0255 -0.3238  0.6465
  329TMC3    O2 5002   2.057   2.885   0.518 -0.5815 -0.2581 -0.3612
  330TMC3    C1 5003   4.661   2.183  10.097  0.5775 -0.7268  0.9350
  330TMC3    C2 5004   4.586   2.072  10.045 -0.2616  0.6952  0.5376
  330TMC3    C3 5005   4.625   1.952  10.078  0.1043  0.6296 -0.3862
  330TMC3    C4 5006   0.040   2.166  10.162 -0.1033 -1.3729 -0.0653
  330TMC3    C5 5007   0.081   2.044  10.174  0.3241 -0.4562  0.1239
  330TMC3    C6 5008   0.015   1.933  10.128  0.0863  0.1762  1.0491
  330TMC3     C 5009   4.626   2.313  10.045 -0.2015 -0.0007  0.1131
  330TMC3     O 5010   4.680   2.410  10.099 -0.1010  0.1027 -0.2790
  330TMC3     H 5011   4.484   2.091  10.012 -0.0896  1.2217  0.3087
  330TMC3    H1 5012   0.106   2.248  10.186 -1.3214  0.2491 -2.2368
  330TMC3    H2 5013   0.054   1.833  10.142  3.2341  1.0128 -1.7568
  330TMC3    C7 5014   0.150   2.021  10.298  0.2502 -0.9370 -0.3840
  330TMC3    C8 5015   4.575   1.846  10.003 -0.1066  0.0172  0.6733
  330TMC3    O1 5016   0.130   2.105  10.383  0.8736 -0.6184  0.4276
  330TMC3    O2 5017   4.514   1.872   9.901 -1.0342  0.2237  0.5049
  331MPD2     C 5018   2.395   1.168  13.012  0.4723  1.1677  0.8118
  331MPD2    C1 5019   2.525   1.206  12.984  0.6912  0.6694 -0.3567
  331MPD2    C2 5020   2.604   1.131  12.902 -0.6442  0.2454  0.8669
  331MPD2    C3 5021   2.556   1.011  12.847  0.2810  0.0786  0.2089
  331MPD2    C4 5022   2.438   0.967  12.893 -0.6464  0.4655  0.3461
  331MPD2    C5 5023   2.358   1.044  12.972  0.1658  0.0406  0.5831
  331MPD2     H 5024   2.705   1.168  12.886 -0.4555 -0.2492  0.9086
  331MPD2    H1 5025   2.396   0.873  12.859  0.9138 -0.3186  0.5731
  331MPD2    H2 5026   2.330   1.213  13.086 -1.5119  0.3656 -0.4293
  331MPD2    H3 5027   2.261   1.007  13.003  0.6657 -1.4097  0.4412
  331MPD2     N 5028   2.629   0.937  12.748  0.0544  0.0964  0.2883
  331MPD2    H5 5029   2.723   0.972  12.734  1.1530 -2.6751  0.6893
  331MPD2    N1 5030   2.563   1.326  13.046  0.4769  0.4240 -0.4365
  331MPD2    H7 5031   2.490   1.374  13.098  0.3467 -0.0088 -0.2182
  332TMC3    C1 5032   2.722   0.770  12.616  0.1168  0.0150 -0.1988
  332TMC3    C2 5033   2.753   0.871  12.532  0.0958  0.2274  1.0351
  332TMC3    C3 5034   2.880   0.866  12.486 -0.3164  0.1094  0.6379
  332TMC3    C4 5035   2.795   0.659  12.655 -0.2597  0.1497  0.0180
  332TMC3    C5 5036   2.917   0.661  12.596  0.5111  0.7847  0.0846
  332TMC3    C6 5037   2.966   0.761  12.519 -0.3333  0.4032 -0.5933
  332TMC3     C 5038   2.616   0.805  12.702 -0.4370 -0.2963 -0.1659
  332TMC3     O 5039   2.523   0.731  12.724 -0.1245 -0.9240 -0.0506
  332TMC3     H 5040   2.671   0.935  12.502  1.3734  1.7800  0.8521
  332TMC3    H1 5041   2.763   0.588  12.730 -0.5184 -0.6850 -0.8700
  332TMC3    H2 5042   3.066   0.752  12.478  0.3019 -0.3782  1.1184
  332TMC3    C7 5043   2.986   0.552  12.658 -0.9827 -0.3216  0.0183
  332TMC3    C8 5044   2.939   0.959  12.396 -0.2934  0.1421  0.7337
  332TMC3    O1 5045   2.929   0.445  12.651 -0.1165  0.3036 -0.2731
  332TMC3    O2 5046   3.061   0.967  12.382 -0.1625 -0.0892  0.0427
  333MPD2     C 5047   2.582   1.303  11.322 -0.8128 -0.0079  0.2597
  333MPD2    C1 5048   2.672   1.209  11.270  0.2164 -0.2648 -0.3697
  333MPD2    C2 5049   2.656   1.071  11.273  0.6079  0.3161  0.2994
  333MPD2    C3 5050   2.555   1.019  11.353  0.1341 -0.0699 -0.6608
  333MPD2    C4 5051   2.464   1.111  11.411 -0.1888  0.0799  0.9934
  333MPD2    C5 5052   2.481   1.246  11.392 -1.2734  0.2061  0.6135
  333MPD2     H 5053   2.728   1.006  11.224 -2.2051 -3.4734  1.1784
  333MPD2    H1 5054   2.377   1.080  11.468 -1.8652 -0.1904 -1.6543
  333MPD2    H2 5055   2.598   1.410  11.323 -0.4553 -0.0864  2.0312
  333MPD2    H3 5056   2.410   1.310  11.444 -0.3177  0.3889  1.6975
  333MPD2     N 5057   2.545   0.873  11.379 -0.1318 -0.2778 -0.2875
  333MPD2    H5 5058   2.596   0.804  11.325  0.3531  0.8158 -1.2282
  333MPD2    N1 5059   2.787   1.271  11.212 -0.0154 -0.3288 -1.0181
  333MPD2    H7 5060   2.806   1.370  11.222 -0.7203 -0.3941  1.0246
  334TMC3    C1 5061   3.016   1.290  11.146  0.1303  0.1724  0.5645
  334TMC3    C2 5062   3.137   1.228  11.179 -0.9003  0.1376 -0.1089
  334TMC3    C3 5063   3.247   1.312  11.183 -0.0184 -0.0116  0.0059
  334TMC3    C4 5064   3.005   1.425  11.120 -0.1491 -0.7345 -0.0592
  334TMC3    C5 5065   3.116   1.503  11.144  0.6506  0.3182 -0.1338
  334TMC3    C6 5066   3.240   1.448  11.172 -0.4781  0.4050 -0.2751
  334TMC3     C 5067   2.895   1.208  11.151 -0.4255  0.4416 -0.7086
  334TMC3     O 5068   2.909   1.088  11.118  0.2947  0.6563 -0.4944
  334TMC3     H 5069   3.139   1.120  11.189  0.1062  0.1954  0.3231
  334TMC3    H1 5070   2.910   1.464  11.085  1.3335  2.3055 -0.6805
  334TMC3    H2 5071   3.325   1.515  11.165 -0.2119 -0.1682 -2.5065
  334TMC3    C7 5072   3.116   1.640  11.093 -0.2581 -0.0249  0.3147
  334TMC3    C8 5073   3.371   1.246  11.209 -0.3060  0.0607  0.5246
  334TMC3    O1 5074   3.204   1.692  11.023  0.1252 -0.2210 -0.4775
  334TMC3    O2 5075   3.372   1.129  11.247 -0.5938  0.4089 -0.4012
  335TMC3    C1 5076   2.367   2.454  17.553  0.5305  0.5076 -0.6405
  335TMC3    C2 5077   2.278   2.455  17.449  0.2174  0.0904  0.2535
  335TMC3    C3 5078   2.329   2.466  17.325  0.1175  0.1535  0.3963
  335TMC3    C4 5079   2.502   2.471  17.545  0.5541  0.1899  0.0810
  335TMC3    C5 5080   2.555   2.474  17.418 -0.6057  0.1445  0.5951
  335TMC3    C6 5081   2.465   2.464  17.311 -0.9111 -0.1558 -0.4871
  335TMC3     C 5082   2.313   2.441  17.691  0.2162  0.6336 -0.1503
  335TMC3     O 5083   2.396   2.466   0.035 -0.5733  0.2742 -0.4192
  335TMC3     H 5084   2.171   2.470  17.454  0.2657 -0.0973  1.8824
  335TMC3    H1 5085   2.564   2.486  17.632 -0.4146  1.6316  0.5272
  335TMC3    H2 5086   2.511   2.467  17.213  0.6645  0.4128  0.2651
  335TMC3    C7 5087   2.697   2.471  17.398 -0.5811  0.1078 -0.1671
  335TMC3    C8 5088   2.246   2.487  17.203 -0.2211  0.2229  0.2348
  335TMC3    O1 5089   2.731   2.395  17.306  0.2749 -0.6380 -0.3730
  335TMC3    O2 5090   2.302   2.530  17.103  0.7952 -0.1298  0.0504
  336MPD2     C 5091   2.116   0.697  16.447 -0.1452  0.2435  0.4852
  336MPD2    C1 5092   2.190   0.631  16.350  0.1666  0.0265  0.2602
  336MPD2    C2 5093   2.232   0.501  16.371  0.4300  0.1089 -0.5788
  336MPD2    C3 5094   2.191   0.433  16.480 -0.1327 -0.2266  0.2584
  336MPD2    C4 5095   2.116   0.499  16.569  0.7565  0.0654  0.2130
  336MPD2    C5 5096   2.075   0.631  16.560 -0.3865 -0.7901 -0.8367
  336MPD2     H 5097   2.297   0.452  16.299  0.5388  0.5365 -0.7726
  336MPD2    H1 5098   2.093   0.446  16.661  1.3364  2.5284  1.7663
  336MPD2    H2 5099   2.078   0.798  16.447 -1.1427 -0.1375 -0.8217
  336MPD2    H3 5100   2.024   0.683  16.640 -0.0336 -2.3749  0.3997
  336MPD2     N 5101   2.204   0.297  16.487  0.4323  0.0815  0.2998
  336MPD2    H5 5102   2.161   0.243  16.561  1.6621  1.2005  1.8393
  336MPD2    N1 5103   2.238   0.692  16.228 -0.2659 -0.5360 -0.3470
  336MPD2    H7 5104   2.266   0.624  16.159 -1.4639  0.0871 -1.4500
  337TMC3    C1 5105   2.259   0.858  16.064  0.6231 -0.4576  0.5069
  337TMC3    C2 5106   2.181   0.950  16.010 -0.1116 -0.6077  0.0296
  337TMC3    C3 5107   2.143   0.932  15.879 -0.0568 -0.0634 -0.5672
  337TMC3    C4 5108   2.317   0.759  15.985 -0.7635  0.3568  0.3128
  337TMC3    C5 5109   2.295   0.765  15.849  0.6204  0.9793 -0.0977
  337TMC3    C6 5110   2.202   0.849  15.788 -0.2943 -0.6709 -0.5582
  337TMC3     C 5111   2.222   0.828  16.199  0.0747 -0.5863  0.1582
  337TMC3     O 5112   2.149   0.905  16.258 -0.4226 -0.2685  0.1526
  337TMC3     H 5113   2.138   1.027  16.073  0.9121  0.7508 -0.9388
  337TMC3    H1 5114   2.401   0.704  16.025 -1.8372 -0.6122  1.2490
  337TMC3    H2 5115   2.188   0.848  15.681 -0.7910  0.0640 -0.5058
  337TMC3    C7 5116   2.369   0.671  15.758  0.6846 -0.6018 -0.6857
  337TMC3    C8 5117   2.034   1.013  15.825  0.1218 -0.2207  0.4252
  337TMC3    O1 5118   2.305   0.637  15.662 -0.1109 -0.0797  0.4753
  337TMC3    O2 5119   2.014   1.116  15.892 -0.4476  0.0709  0.1045
  338MPD2     C 5120   2.869   0.533   0.798 -0.3089  0.4197  0.3709
  338MPD2    C1 5121   2.741   0.485   0.783 -0.0340  0.9334  0.0260
  338MPD2    C2 5122   2.636   0.549   0.850 -0.7475 -0.5681 -0.3618
  338MPD2    C3 5123   2.668   0.638   0.950  0.5247  1.1202  0.5119
  338MPD2    C4 5124   2.799   0.682   0.965  0.4321 -0.2153 -0.1254
  338MPD2    C5 5125   2.900   0.629   0.893 -0.2744  1.1243  0.1304
  338MPD2     H 5126   2.535   0.510   0.841 -0.2717 -1.7530 -0.5750
  338MPD2    H1 5127   2.831   0.761   1.032 -1.9316 -1.2975  2.2789
  338MPD2    H2 5128   2.953   0.478   0.758 -1.5949 -0.2284 -1.4187
  338MPD2    H3 5129   3.006   0.642   0.915  0.1018 -0.8344 -0.5455
  338MPD2     N 5130   2.557   0.686   1.017 -0.0327 -0.2696 -0.5715
  338MPD2    H5 5131   2.469   0.674   0.967  0.6610 -3.2289 -1.0330
  338MPD2    N1 5132   2.711   0.369   0.704 -0.1791 -0.0524 -0.6752
  338MPD2    H7 5133   2.614   0.355   0.679 -0.7782 -0.3597  1.8724
  339TMC3    C1 5134   2.425   0.788   1.183  0.1106  0.8850 -0.1166
  339TMC3    C2 5135   2.404   0.759   1.313  0.5343 -0.6511  0.2472
  339TMC3    C3 5136   2.305   0.672   1.349 -0.1903  0.1196 -0.2651
  339TMC3    C4 5137   2.336   0.748   1.089  0.7110  0.5000 -0.1906
  339TMC3    C5 5138   2.235   0.667   1.130  0.2780 -0.2959  0.4694
  339TMC3    C6 5139   2.219   0.625   1.254  0.4086 -0.2120  0.2052
  339TMC3     C 5140   2.563   0.767   1.133 -0.2708 -0.1745 -0.7068
  339TMC3     O 5141   2.656   0.791   1.205 -0.0052  0.1210  0.2147
  339TMC3     H 5142   2.468   0.804   1.388  0.2342 -0.7922  0.5898
  339TMC3    H1 5143   2.346   0.789   0.989  1.2259  0.5644 -0.1123
  339TMC3    H2 5144   2.133   0.566   1.284 -0.8446  0.2313 -2.5500
  339TMC3    C7 5145   2.188   0.583   1.019 -0.6085 -0.3882  0.1482
  339TMC3    C8 5146   2.269   0.660   1.490 -0.1263 -0.5920  0.0636
  339TMC3    O1 5147   2.262   0.579   0.925  0.5284 -0.3421  0.2681
  339TMC3    O2 5148   2.267   0.765   1.550 -0.0776 -0.3935  0.3666
  340MPD2     C 5149   2.838   2.426  10.646  0.0320  0.1450  0.1287
  340MPD2    C1 5150   2.812   2.294  10.647  0.0982 -0.1896  0.0867
  340MPD2    C2 5151   2.921   2.206  10.617  0.1380  1.1285  0.4956
  340MPD2    C3 5152   3.047   2.256  10.591 -0.1333  0.0281 -0.2308
  340MPD2    C4 5153   3.067   2.393  10.587  0.6396 -0.9583  0.0602
  340MPD2    C5 5154   2.966   2.478  10.604 -0.8079  0.7383 -0.0989
  340MPD2     H 5155   2.904   2.101  10.640  0.1208  1.2523  1.0431
  340MPD2    H1 5156   3.161   2.433  10.550 -0.5529  0.3289 -1.6195
  340MPD2    H2 5157   2.750   2.487  10.664 -1.5286 -1.9146 -0.5802
  340MPD2    H3 5158   2.971   2.586  10.602 -1.1615  0.8013  3.1318
  340MPD2     N 5159   3.154   2.179  10.543 -0.5851 -0.1450 -0.6141
  340MPD2    H5 5160   3.230   2.226  10.496  0.8222 -1.3239  0.4558
  340MPD2    N1 5161   2.673   2.263  10.670 -0.4637  0.4755  0.9215
  340MPD2    H7 5162   2.617   2.339  10.708 -1.7934  1.1365 -2.3622
  341TMC3    C1 5163   2.675   2.050  10.553  0.2600  0.2582  0.2861
  341TMC3    C2 5164   2.652   1.917  10.562  0.0679  0.1993 -0.2041
  341TMC3    C3 5165   2.701   1.831  10.465 -0.3343  0.5404  0.3259
  341TMC3    C4 5166   2.732   2.098  10.434  0.2699 -0.0454  0.4698
  341TMC3    C5 5167   2.785   2.008  10.344  0.5412 -0.0556  0.0404
  341TMC3    C6 5168   2.770   1.877  10.354  0.2155 -0.0711  0.1523
  341TMC3     C 5169   2.615   2.137  10.657 -0.4827 -0.1459 -0.5062
  341TMC3     O 5170   2.508   2.096  10.702 -0.0942  0.5356 -0.3459
  341TMC3     H 5171   2.609   1.874  10.652  0.5731  0.6802  0.2698
  341TMC3    H1 5172   2.722   2.204  10.413 -1.7465 -0.3461 -0.0581
  341TMC3    H2 5173   2.783   1.821  10.262  2.6116 -0.0009  0.4339
  341TMC3    C7 5174   2.875   2.054  10.244  0.3135 -1.0716 -0.5069
  341TMC3    C8 5175   2.615   1.713  10.449 -0.3788  0.3279 -0.3497
  341TMC3    O1 5176   2.898   1.978  10.148 -0.0541 -0.3075  0.5168
  341TMC3    O2 5177   2.504   1.725  10.491  0.6504 -0.1168 -0.1618
  342MPD2     C 5178   0.518   1.088   0.253  0.3364  0.0276 -0.0708
  342MPD2    C1 5179   0.584   1.110   0.132  0.5659  0.4632 -0.8685
  342MPD2    C2 5180   0.655   1.228   0.111  0.7106 -0.4312  0.2358
  342MPD2    C3 5181   0.631   1.335   0.202 -0.8178 -0.6850  0.1875
  342MPD2    C4 5182   0.569   1.308   0.318  0.0140  0.0549 -0.3102
  342MPD2    C5 5183   0.523   1.184   0.345 -0.3478 -0.4496 -0.5782
  342MPD2     H 5184   0.697   1.247   0.013  0.2423  0.5750  0.2243
  342MPD2    H1 5185   0.563   1.384   0.395 -0.8057 -0.3829  0.0659
  342MPD2    H2 5186   0.462   0.996   0.272  1.4462 -0.2790  1.6457
  342MPD2    H3 5187   0.466   1.169   0.436  0.1647  1.5289  0.0810
  342MPD2     N 5188   0.663   1.471   0.181  0.0332  0.3835 -0.4352
  342MPD2    H5 5189   0.637   1.534   0.255 -0.0387  0.4034 -0.4770
  342MPD2    N1 5190   0.585   1.016   0.021 -0.3499  0.4969 -0.4487
  342MPD2    H7 5191   0.646   1.045  17.691  0.0206 -0.2194 -0.4308
  343TMC3    C1 5192   0.553   0.823  17.640 -0.5201 -0.1713  0.0520
  343TMC3    C2 5193   0.646   0.855  17.551  0.3533  0.7806 -0.0523
  343TMC3    C3 5194   0.669   0.764  17.457 -0.0688 -0.2174  0.3917
  343TMC3    C4 5195   0.492   0.700  17.643  0.0199  0.2845 -0.8664
  343TMC3    C5 5196   0.518   0.608  17.545  0.2951  0.1412 -0.5477
  343TMC3    C6 5197   0.612   0.640  17.452  0.1761 -0.6669  0.0321
  343TMC3     C 5198   0.507   0.906   0.002  0.3513 -0.2592 -0.3655
  343TMC3     O 5199   0.413   0.872   0.075 -0.2363  0.2622 -0.7547
  343TMC3     H 5200   0.702   0.948  17.549 -1.0923  1.6361 -1.2837
  343TMC3    H1 5201   0.421   0.672  17.720  0.5077  0.5538 -0.3155
  343TMC3    H2 5202   0.606   0.579  17.363  0.3232 -0.6212 -0.0100
  343TMC3    C7 5203   0.446   0.481  17.528  0.4280 -0.0080 -0.5512
  343TMC3    C8 5204   0.781   0.804  17.369 -0.3867  0.3358 -0.2095
  343TMC3    O1 5205   0.441   0.441  17.414  0.2643  0.3512  0.1159
  343TMC3    O2 5206   0.797   0.923  17.353 -0.3582  0.5226  0.6283
  344MPD2     C 5207   1.628   0.651  11.238  0.9558  1.1584 -0.2627
  344MPD2    C1 5208   1.553   0.599  11.136 -0.5196 -0.6386 -0.0358
  344MPD2    C2 5209   1.566   0.647  11.008  0.1425 -0.4809 -0.6269
  344MPD2    C3 5210   1.655   0.754  10.984 -0.5197  0.3619  0.4369
  344MPD2    C4 5211   1.725   0.809  11.087  0.0326 -0.0999  0.4480
  344MPD2    C5 5212   1.714   0.757  11.212 -0.5762  0.6060  0.3570
  344MPD2     H 5213   1.501   0.605  10.933  0.5220 -0.1692 -1.1302
  344MPD2    H1 5214   1.791   0.894  11.074 -1.6250  0.8966 -1.5986
  344MPD2    H2 5215   1.621   0.625  11.342 -1.0049  0.4816 -0.5694
  344MPD2    H3 5216   1.778   0.787  11.294 -1.0787 -0.8784  1.2992
  344MPD2     N 5217   1.672   0.810  10.853 -1.0348  0.3030 -0.8497
  344MPD2    H5 5218   1.749   0.875  10.840 -0.9175  0.2298 -0.5084
  344MPD2    N1 5219   1.462   0.492  11.152 -0.7085 -0.1710  0.1398
  344MPD2    H7 5220   1.404   0.458  11.077 -1.8897  1.7766  0.1556
  345TMC3    C1 5221   1.640   0.872  10.635 -0.0306 -0.1722 -0.2699
  345TMC3    C2 5222   1.775   0.874  10.623  0.5591  0.1707 -0.3377
  345TMC3    C3 5223   1.832   0.962  10.538 -1.2298  0.1251  0.0838
  345TMC3    C4 5224   1.563   0.966  10.572 -0.1698  0.7402  0.5249
  345TMC3    C5 5225   1.621   1.060  10.484  0.1506 -0.4886 -0.3655
  345TMC3    C6 5226   1.757   1.054  10.468  0.1319 -0.5192 -0.4754
  345TMC3     C 5227   1.582   0.801  10.750 -0.1093  0.0044  0.4861
  345TMC3     O 5228   1.464   0.784  10.745  0.0754  0.2294  0.0311
  345TMC3     H 5229   1.842   0.799  10.664  1.4837  1.2111  0.0921
  345TMC3    H1 5230   1.457   0.977  10.593  0.1110  1.1872  1.7318
  345TMC3    H2 5231   1.796   1.113  10.386  1.2050 -0.0731  0.3498
  345TMC3    C7 5232   1.557   1.181  10.448  0.0846  0.1540  0.2142
  345TMC3    C8 5233   1.974   0.974  10.545 -0.0336  0.3460  0.3708
  345TMC3    O1 5234   1.635   1.263  10.401  0.2398  0.0252  0.6413
  345TMC3    O2 5235   2.045   0.889  10.598  0.1787  0.1952  0.3701
  346MPD2     C 5236   1.425   2.222  14.041 -0.7516 -0.7349 -0.3589
  346MPD2    C1 5237   1.547   2.231  13.987 -0.3160  0.0662 -0.6381
  346MPD2    C2 5238   1.633   2.328  14.041 -0.2370  0.5644 -0.0807
  346MPD2    C3 5239   1.594   2.406  14.151  0.1165  0.0133 -0.2392
  346MPD2    C4 5240   1.471   2.377  14.206 -0.0806  0.1962 -0.5268
  346MPD2    C5 5241   1.391   2.289  14.152  0.4024 -0.5807  0.2718
  346MPD2     H 5242   1.732   2.346  14.001 -0.1936  0.4284 -0.0353
  346MPD2    H1 5243   1.437   2.432  14.293 -2.2639 -0.2691 -1.0716
  346MPD2    H2 5244   1.358   2.143  14.011  0.7484 -0.7588 -3.6432
  346MPD2    H3 5245   1.294   2.268  14.196  0.2878  0.7625  0.6590
  346MPD2     N 5246   1.678   2.506  14.200  0.3534 -0.1535  0.6657
  346MPD2    H5 5247   1.759   2.528  14.142 -0.3192  1.9530  0.5270
  346MPD2    N1 5248   1.585   2.154  13.874 -0.4449 -0.2174  0.0199
  346MPD2    H7 5249   1.512   2.101  13.827 -1.1325  0.1023  0.7381
  347TMC3    C1 5250   1.787   2.673  14.327  0.5132  0.4170 -0.5763
  347TMC3    C2 5251   1.852   2.702  14.210 -0.6397 -0.7813 -0.2323
  347TMC3    C3 5252   1.988   2.703  14.211  0.0297 -0.5777 -0.4056
  347TMC3    C4 5253   1.852   2.655  14.443  0.0506  0.2528 -0.2017
  347TMC3    C5 5254   1.989   2.658  14.436 -0.4932 -0.1722  0.7241
  347TMC3    C6 5255   2.060   2.685  14.327  0.5070 -0.2365 -0.1364
  347TMC3     C 5256   1.672   2.583  14.315 -0.5036 -0.3712  0.5131
  347TMC3     O 5257   1.582   2.586  14.400  0.0282 -0.1970 -0.1554
  347TMC3     H 5258   1.796   2.720  14.119  1.8209  3.0752 -0.9832
  347TMC3    H1 5259   1.798   2.592  14.513  0.2603 -0.0783 -0.3358
  347TMC3    H2 5260   2.167   2.705  14.325  0.1430  1.9559  2.2917
  347TMC3    C7 5261   2.049   2.578  14.549  0.4244  0.4328  0.4733
  347TMC3    C8 5262   2.057   2.661  14.088  0.3118 -0.0683 -0.2839
  347TMC3    O1 5263   1.969   2.536  14.634  0.3442  0.3208  0.7748
  347TMC3    O2 5264   1.998   2.587  14.011 -0.1771  0.7476  0.0605
  348MPD2     C 5265   0.744   1.809  12.042  0.2284  0.7672 -0.0153
  348MPD2    C1 5266   0.610   1.809  12.038  0.1133  0.4077  0.0251
  348MPD2    C2 5267   0.540   1.919  12.002  0.6070  0.5128 -0.3051
  348MPD2    C3 5268   0.604   2.035  11.956  0.3908 -0.6056 -0.1081
  348MPD2    C4 5269   0.740   2.036  11.958  0.0667  0.6146  0.1795
  348MPD2    C5 5270   0.808   1.921  11.991 -0.5443  0.2722 -0.3417
  348MPD2     H 5271   0.433   1.903  11.990  0.5904  1.4502 -1.4255
  348MPD2    H1 5272   0.801   2.125  11.945  0.2984  0.3884 -0.2613
  348MPD2    H2 5273   0.808   1.725  12.066 -0.1634 -0.0574 -1.8212
  348MPD2    H3 5274   0.916   1.914  11.987 -0.6459 -2.4759  1.5675
  348MPD2     N 5275   0.527   2.148  11.920  0.1783  0.3792 -0.1410
  348MPD2    H5 5276   0.430   2.142  11.950  0.3381  2.8560  0.9086
  348MPD2    N1 5277   0.531   1.696  12.054 -0.5751  1.1374  0.2106
  348MPD2    H7 5278   0.435   1.704  12.023  0.0989 -0.1800 -2.2441
  349TMC3    C1 5279   0.482   1.464  12.063 -0.0315 -0.3071 -0.5822
  349TMC3    C2 5280   0.511   1.349  12.126  0.4989  0.2485  0.1367
  349TMC3    C3 5281   0.422   1.244  12.101  0.0406 -0.6047  0.4851
  349TMC3    C4 5282   0.378   1.483  11.978  0.1450  0.4742 -0.0598
  349TMC3    C5 5283   0.300   1.371  11.958 -0.1996 -0.2807  0.2347
  349TMC3    C6 5284   0.315   1.251  12.018 -0.4443 -0.5867  0.2638
  349TMC3     C 5285   0.583   1.568  12.067 -0.2664  0.3537 -0.7743
  349TMC3     O 5286   0.692   1.529  12.113  0.4965 -0.7368 -0.2105
  349TMC3     H 5287   0.605   1.333  12.179 -1.0413 -2.7766  1.9271
  349TMC3    H1 5288   0.363   1.578  11.928 -3.4635 -0.4315 -0.6993
  349TMC3    H2 5289   0.247   1.176  11.978  0.1892 -0.9990 -0.0404
  349TMC3    C7 5290   0.182   1.381  11.870  0.7007 -0.2256 -0.7041
  349TMC3    C8 5291   0.445   1.127  12.186 -0.2270  0.5374 -0.5408
  349TMC3    O1 5292   0.091   1.302  11.890 -0.6410 -0.4405 -0.2564
  349TMC3    O2 5293   0.550   1.115  12.254  0.6229  0.3165 -0.5160
  350MPD2     C 5294   3.501   4.131  10.604 -0.2489 -0.7332 -0.8376
  350MPD2    C1 5295   3.595   4.188  10.527  0.5888  0.6616  0.3170
  350MPD2    C2 5296   3.652   4.320  10.563 -0.5943  0.0275  0.2738
  350MPD2    C3 5297   3.597   4.380  10.676  0.0687  0.5700  0.3008
  350MPD2    C4 5298   3.485   4.318  10.745  0.1042 -0.1201  0.4023
  350MPD2    C5 5299   3.447   4.196  10.710 -0.2794  0.4219  0.1991
  350MPD2     H 5300   3.739   4.362  10.513 -1.4648 -1.8680 -2.8357
  350MPD2    H1 5301   3.446   4.365  10.834 -3.4334 -0.6629 -0.8680
  350MPD2    H2 5302   3.461   4.037  10.570 -1.3540 -1.3240  2.0735
  350MPD2    H3 5303   3.371   4.152  10.772 -0.0393 -1.8066 -1.0579
  350MPD2     N 5304   3.648   4.502  10.718  0.0441  0.5659 -0.0681
  350MPD2    H5 5305   3.718   4.534  10.651 -0.9021  2.1088 -0.3061
  350MPD2    N1 5306   3.651   4.116  10.431 -0.4021 -0.8135 -0.1968
  350MPD2    H7 5307   3.624   4.018  10.422  0.7094 -1.0326 -1.1152
  351TMC3    C1 5308   3.743   4.068  10.229 -0.4059  0.3902  0.3553
  351TMC3    C2 5309   3.778   3.939  10.277  0.0479 -0.0430 -0.6079
  351TMC3    C3 5310   3.785   3.845  10.175 -0.2917 -0.0355 -0.3966
  351TMC3    C4 5311   3.719   4.099  10.098 -1.2329  0.3875  0.2803
  351TMC3    C5 5312   3.723   3.996  10.007  0.1034 -0.2933  0.1553
  351TMC3    C6 5313   3.768   3.867  10.042  0.3841  0.1476 -0.4390
  351TMC3     C 5314   3.725   4.169  10.326 -0.5018  0.7715 -0.4287
  351TMC3     O 5315   3.733   4.287  10.289  0.7267  0.2060  0.1103
  351TMC3     H 5316   3.798   3.921  10.382 -0.1331 -0.7321 -0.6909
  351TMC3    H1 5317   3.695   4.201  10.073 -0.9301  0.1656 -0.8952
  351TMC3    H2 5318   3.774   3.787   9.969 -1.6012 -0.7948  0.4055
  351TMC3    C7 5319   3.682   4.032   9.873 -0.6596 -0.6504  0.7714
  351TMC3    C8 5320   3.825   3.721  10.222 -0.4415 -0.1783 -0.3248
  351TMC3    O1 5321   3.641   4.148   9.859  0.1582 -0.1882  0.0851
  351TMC3    O2 5322   3.770   3.671  10.319 -0.4658 -0.4278 -0.2520
  352MPD2     C 5323   2.110   2.460   1.210  0.3006  0.1612  0.9104
  352MPD2    C1 5324   2.054   2.355   1.153 -0.2373  0.5379  0.4237
  352MPD2    C2 5325   2.108   2.236   1.164 -0.1969 -0.1982 -0.1468
  352MPD2    C3 5326   2.224   2.219   1.233  0.5637 -0.2730 -0.1229
  352MPD2    C4 5327   2.280   2.326   1.299 -0.1689  0.8749 -0.5636
  352MPD2    C5 5328   2.224   2.444   1.285 -0.0561 -0.6200  0.6307
  352MPD2     H 5329   2.063   2.157   1.105  1.5267 -1.1209 -0.2503
  352MPD2    H1 5330   2.362   2.307   1.366 -0.3298  1.7764 -0.1168
  352MPD2    H2 5331   2.057   2.553   1.198 -0.2303 -0.2414  0.1680
  352MPD2    H3 5332   2.263   2.533   1.334 -2.6229  0.8390 -0.0019
  352MPD2     N 5333   2.280   2.090   1.251  0.0638 -0.0818  0.3869
  352MPD2    H5 5334   2.357   2.078   1.316  1.5972  1.0901 -1.2193
  352MPD2    N1 5335   1.933   2.375   1.089 -0.1707 -1.0009  0.4189
  352MPD2    H7 5336   1.898   2.471   1.093  1.1967 -0.4823 -0.1181
  353TMC3    C1 5337   2.312   1.856   1.231 -0.4650  0.8290  0.3013
  353TMC3    C2 5338   2.442   1.872   1.216 -0.4960  0.9834 -0.9273
  353TMC3    C3 5339   2.520   1.777   1.149  0.5415 -0.3694  0.5361
  353TMC3    C4 5340   2.248   1.747   1.178  0.0448 -0.2231 -1.0147
  353TMC3    C5 5341   2.320   1.659   1.095 -0.1795  0.2113  0.2845
  353TMC3    C6 5342   2.458   1.670   1.087  0.4833 -0.1288  0.3763
  353TMC3     C 5343   2.225   1.972   1.205  0.4787 -0.0926  0.4385
  353TMC3     O 5344   2.144   1.957   1.120  0.2973 -0.4795  0.3235
  353TMC3     H 5345   2.492   1.954   1.265  2.2547 -1.6310  0.6659
  353TMC3    H1 5346   2.142   1.733   1.193  0.2008 -1.4604 -1.0805
  353TMC3    H2 5347   2.512   1.620   1.008  1.4231  0.6047  0.5490
  353TMC3    C7 5348   2.261   1.565   1.003 -0.5405  0.2267  0.8909
  353TMC3    C8 5349   2.663   1.782   1.156 -0.7415 -0.0033  0.4754
  353TMC3    O1 5350   2.331   1.477   0.957  0.4274 -0.1155 -0.3620
  353TMC3    O2 5351   2.719   1.884   1.193  0.1000 -0.7167  0.1380
  354TMC3    C1 5352   4.135   3.252  13.650 -0.0647  0.1355 -0.4009
  354TMC3    C2 5353   4.096   3.383  13.629  0.1713 -0.7478  0.3493
  354TMC3    C3 5354   4.108   3.433  13.502  0.6531  0.2310  0.3093
  354TMC3    C4 5355   4.196   3.173  13.562 -0.1671  0.5043 -0.0308
  354TMC3    C5 5356   4.207   3.225  13.440  0.1193  0.1916  0.4220
  354TMC3    C6 5357   4.175   3.357  13.412 -0.8153  0.1130  0.0451
  354TMC3     C 5358   4.146   3.217  13.793  0.0880 -0.2714 -0.0064
  354TMC3     O 5359   4.201   3.107  13.816 -0.2583  0.5656  0.6049
  354TMC3     H 5360   4.033   3.436  13.700  1.2189 -1.7374  2.0373
  354TMC3    H1 5361   4.216   3.068  13.583  1.1334  0.6553 -0.5477
  354TMC3    H2 5362   4.190   3.392  13.311 -0.4504  0.3370  0.1779
  354TMC3    C7 5363   4.273   3.139  13.347  0.3223 -0.0773 -0.6988
  354TMC3    C8 5364   4.041   3.559  13.465 -0.6357  0.1423  1.0108
  354TMC3    O1 5365   4.238   3.023  13.338 -0.4573 -0.3704 -0.0408
  354TMC3    O2 5366   3.954   3.604  13.534  0.1224  0.1185  0.0458
  355MPD2     C 5367   4.707   3.716  11.862 -0.1438 -0.2842 -0.0129
  355MPD2    C1 5368   4.630   3.797  11.948  0.0120  0.1010 -0.0294
  355MPD2    C2 5369   4.684   3.826  12.074  0.5145  0.0305 -0.4857
  355MPD2    C3 5370   0.072   3.768  12.110  0.2624 -0.2416  0.3576
  355MPD2    C4 5371   0.147   3.702  12.015  0.2029 -0.3998 -0.5356
  355MPD2    C5 5372   0.093   3.668  11.896  0.0583 -0.0854 -0.1334
  355MPD2     H 5373   4.629   3.877  12.152 -0.5052 -0.3118 -0.9829
  355MPD2    H1 5374   0.241   3.661  12.049  0.2286  0.0808 -0.0376
  355MPD2    H2 5375   4.663   3.684  11.768  0.8740 -0.3639 -0.4630
  355MPD2    H3 5376   0.157   3.626  11.819  0.0712 -0.7199  0.2227
  355MPD2     N 5377   0.138   3.789  12.231  0.7924 -0.0467 -0.5584
  355MPD2    H5 5378   0.228   3.745  12.243  0.7385  0.5182  1.9334
  355MPD2    N1 5379   4.505   3.873  11.925 -0.3633  0.0222  0.3342
  355MPD2    H7 5380   4.462   3.924  12.001 -2.2238 -0.4768 -0.3978
  356TMC3    C1 5381   0.201   3.920  12.411 -0.0532 -0.3973 -0.7010
  356TMC3    C2 5382   0.304   3.974  12.339  0.0008  0.3814  0.2285
  356TMC3    C3 5383   0.358   4.086  12.398  0.1495 -0.0117 -0.0965
  356TMC3    C4 5384   0.171   3.962  12.538  0.1178 -0.2842 -0.0168
  356TMC3    C5 5385   0.234   4.067  12.604  1.0333  0.1564  0.4751
  356TMC3    C6 5386   0.332   4.135  12.530  0.4234  0.4137  0.4203
  356TMC3     C 5387   0.095   3.869  12.335 -0.0253  0.1384 -0.3664
  356TMC3     O 5388   4.718   3.920  12.355 -0.2854  0.1919 -0.4489
  356TMC3     H 5389   0.341   3.948  12.241  2.8634  1.0531  1.1142
  356TMC3    H1 5390   0.086   3.907  12.576  1.3984 -2.1019  0.1846
  356TMC3    H2 5391   0.381   4.225  12.566  0.5902  0.3412  0.3735
  356TMC3    C7 5392   0.178   4.120  12.731 -0.3148  0.4312 -0.3541
  356TMC3    C8 5393   0.434   4.162  12.304  0.4226 -1.3228  0.3056
  356TMC3    O1 5394   0.065   4.077  12.761 -0.4622 -0.2597 -0.4066
  356TMC3    O2 5395   0.403   4.150  12.185  0.3915  0.5091  0.0284
  357MPD2     C 5396   4.079   3.877   0.102  0.2175  0.3810  0.3198
  357MPD2    C1 5397   4.028   3.788   0.197  0.4130 -0.7696  0.2932
  357MPD2    C2 5398   3.901   3.732   0.186 -0.3108  1.0150  0.6273
  357MPD2    C3 5399   3.816   3.772   0.083 -0.7231 -0.6054 -0.6795
  357MPD2    C4 5400   3.866   3.868  17.744  0.3085  0.2728 -0.2067
  357MPD2    C5 5401   3.994   3.910   0.000  1.0811 -0.4614 -0.1452
  357MPD2     H 5402   3.861   3.659   0.255 -1.8564  0.7252 -0.5482
  357MPD2    H1 5403   3.803   3.909  17.667  0.8699 -2.0317 -1.8846
  357MPD2    H2 5404   4.173   3.927   0.121  0.8352 -1.5599  2.3600
  357MPD2    H3 5405   4.025   3.974  17.663  2.2331 -0.2701  0.4409
  357MPD2     N 5406   3.685   3.724   0.067  0.1144 -0.0300  0.6563
  357MPD2    H5 5407   3.632   3.765  17.736  0.8144  1.4430  0.9639
  357MPD2    N1 5408   4.119   3.749   0.291  0.6326 -0.0198  0.2490
  357MPD2    H7 5409   4.216   3.778   0.286  0.5419  0.4801  1.5788
  358TMC3    C1 5410   4.193   3.655   0.482 -0.5389  0.2843  0.3501
  358TMC3    C2 5411   4.263   3.565   0.413 -0.5311 -0.5022  0.6894
  358TMC3    C3 5412   4.310   3.453   0.486 -0.1995 -0.1764  1.0218
  358TMC3    C4 5413   4.203   3.664   0.618 -0.4346 -0.5866 -0.2860
  358TMC3    C5 5414   4.258   3.566   0.686 -0.4915  0.4041 -0.2223
  358TMC3    C6 5415   4.311   3.452   0.622  0.2914 -0.6647  0.3414
  358TMC3     C 5416   4.078   3.703   0.413  0.2342 -0.1415  0.1515
  358TMC3     O 5417   3.965   3.703   0.467  0.1635 -0.3490  0.4481
  358TMC3     H 5418   4.255   3.560   0.305 -0.3771 -1.0347  0.7023
  358TMC3    H1 5419   4.136   3.731   0.672  1.8613 -0.1153  1.9945
  358TMC3    H2 5420   4.322   3.359   0.678 -0.7351 -1.3887 -0.6744
  358TMC3    C7 5421   4.260   3.580   0.828 -0.1276 -0.4431  0.3517
  358TMC3    C8 5422   4.257   3.339   0.419 -0.2246  0.4129 -0.4356
  358TMC3    O1 5423   4.191   3.663   0.883 -0.2134  0.5000  0.0242
  358TMC3    O2 5424   4.282   3.320   0.302  0.1499  0.4150 -0.0394
  359MPD2     C 5425   4.344   2.420  12.570  0.3409 -0.5111  0.5804
  359MPD2    C1 5426   4.405   2.343  12.473  0.1113  0.3222 -0.0225
  359MPD2    C2 5427   4.362   2.216  12.443  0.4169 -0.2679 -0.3040
  359MPD2    C3 5428   4.264   2.157  12.525 -0.1408  0.3126 -0.5421
  359MPD2    C4 5429   4.210   2.234  12.630 -0.6835  0.4325 -0.1631
  359MPD2    C5 5430   4.250   2.362  12.644  0.5138 -1.0282 -0.6108
  359MPD2     H 5431   4.403   2.165  12.357  2.1827 -0.5118  0.6823
  359MPD2    H1 5432   4.129   2.199  12.693 -0.3477  2.1979  1.2316
  359MPD2    H2 5433   4.370   2.524  12.586 -1.2290 -0.1569  0.8153
  359MPD2    H3 5434   4.213   2.413  12.733 -1.2324  0.7682 -2.3546
  359MPD2     N 5435   4.224   2.021  12.516  0.5449 -0.0010  0.2466
  359MPD2    H5 5436   4.162   1.978  12.585  0.1666  0.3465  0.1197
  359MPD2    N1 5437   4.513   2.394  12.396 -0.7348 -0.1015  0.4807
  359MPD2    H7 5438   4.530   2.352  12.306 -1.2185  0.5168  0.1070
  360TMC3    C1 5439   4.717   2.517  12.363  0.5634 -0.0009 -0.5001
  360TMC3    C2 5440   0.096   2.572  12.409  0.2857  0.0320  0.7651
  360TMC3    C3 5441   0.186   2.603  12.312  0.0031 -0.3705  0.4682
  360TMC3    C4 5442   4.684   2.501  12.229 -0.6109 -0.0566 -0.1269
  360TMC3    C5 5443   0.051   2.522  12.139 -0.1422 -0.3299  0.1498
  360TMC3    C6 5444   0.170   2.573  12.177  0.2430 -0.2717 -0.5480
  360TMC3     C 5445   4.605   2.483  12.457 -0.1351  0.6726 -0.2989
  360TMC3     O 5446   4.621   2.505  12.577  0.2029  0.3061  0.5855
  360TMC3     H 5447   0.095   2.619  12.507 -0.6537 -1.0222  1.2619
  360TMC3    H1 5448   4.581   2.486  12.199 -1.4000  1.1886  1.9143
  360TMC3    H2 5449   0.240   2.584  12.094  0.0036 -3.4611 -1.1728
  360TMC3    C7 5450   0.030   2.517  11.994 -0.6919  0.1286  0.4616
  360TMC3    C8 5451   0.317   2.640  12.358  0.7833 -0.1227  0.1050
  360TMC3    O1 5452   0.091   2.593  11.923  0.3031  0.0804  0.4446
  360TMC3    O2 5453   0.333   2.632  12.479  0.2172 -0.3847  0.7293
  361MPD2     C 5454   1.566   1.572  16.466  0.5619  0.6906  0.5389
  361MPD2    C1 5455   1.476   1.531  16.558  0.2116  0.1923 -0.2487
  361MPD2    C2 5456   1.509   1.440  16.656  0.0316  0.1310 -0.1421
  361MPD2    C3 5457   1.633   1.373  16.645  0.1383  0.0460  0.5078
  361MPD2    C4 5458   1.721   1.415  16.551  0.1100 -0.0004  0.0862
  361MPD2    C5 5459   1.693   1.518  16.465 -0.1142 -0.3106  0.0873
  361MPD2     H 5460   1.438   1.405  16.730 -0.4447  0.5773 -0.3903
  361MPD2    H1 5461   1.825   1.388  16.567 -0.4593 -2.2617 -0.1055
  361MPD2    H2 5462   1.545   1.643  16.387 -0.7319 -1.3139 -0.9135
  361MPD2    H3 5463   1.776   1.544  16.401  0.7019 -0.4482  1.0746
  361MPD2     N 5464   1.662   1.264  16.734 -0.2196 -0.2504 -0.0338
  361MPD2    H5 5465   1.730   1.196  16.703  0.5482  1.0278 -1.2008
  361MPD2    N1 5466   1.345   1.580  16.579  0.2052 -0.3121 -0.0190
  361MPD2    H7 5467   1.291   1.538  16.655  0.0022 -0.7398 -0.3943
  362TMC3    C1 5468   1.157   1.709  16.550  0.3909  0.4008  0.1208
  362TMC3    C2 5469   1.110   1.675  16.678  0.1689  0.1607 -0.7815
  362TMC3    C3 5470   0.996   1.737  16.730  0.5047  0.0678  0.3235
  362TMC3    C4 5471   1.082   1.783  16.466  0.4891  0.2263  0.4262
  362TMC3    C5 5472   0.955   1.831  16.514  0.4061  0.4591 -0.4628
  362TMC3    C6 5473   0.915   1.813  16.646  0.1312 -0.5867  0.4168
  362TMC3     C 5474   1.282   1.668  16.496  0.2426 -0.2926 -0.4517
  362TMC3     O 5475   1.322   1.726  16.396  0.0325 -0.3180 -0.0023
  362TMC3     H 5476   1.174   1.621  16.746  0.2824 -2.4760 -2.9892
  362TMC3    H1 5477   1.123   1.821  16.373 -2.3619 -4.0371 -2.5614
  362TMC3    H2 5478   0.820   1.851  16.682 -0.2194 -1.1918  0.1265
  362TMC3    C7 5479   0.899   1.953  16.458  0.1428  0.7744 -0.6504
  362TMC3    C8 5480   0.944   1.693  16.850  1.0431  0.0254  0.0595
  362TMC3    O1 5481   0.848   2.032  16.541 -0.3431  0.0330  0.5487
  362TMC3    O2 5482   0.987   1.597  16.907  0.7448 -0.0187  0.1958
  363TMC3    C1 5483   4.574   4.155   9.776 -0.0890 -0.1199 -0.0721
  363TMC3    C2 5484   4.690   4.124   9.843 -0.4145 -0.0911  0.5850
  363TMC3    C3 5485   0.015   4.229   9.897  0.1442 -0.0114  0.0146
  363TMC3    C4 5486   4.528   4.283   9.765 -0.0845  0.1693  0.7175
  363TMC3    C5 5487   4.593   4.385   9.822 -0.2123  0.0574 -0.3914
  363TMC3    C6 5488   4.709   4.363   9.895  0.3463 -0.9418 -0.5872
  363TMC3     C 5489   4.493   4.042   9.754  1.1071 -0.2604  0.3357
  363TMC3     O 5490   4.520   3.942   9.824  0.2799  0.0754 -0.2271
  363TMC3     H 5491   4.718   4.020   9.853  0.7756  0.1003 -0.7080
  363TMC3    H1 5492   4.431   4.304   9.722  0.7530  4.2911  0.8373
  363TMC3    H2 5493   0.034   4.446   9.928 -1.0939 -0.1379  0.0678
  363TMC3    C7 5494   4.540   4.515   9.793  0.0429  0.6175  0.9827
  363TMC3    C8 5495   0.118   4.206   9.993  0.0160  0.2909  0.3770
  363TMC3    O1 5496   4.431   4.522   9.732  1.1425 -0.3259  0.6410
  363TMC3    O2 5497   0.174   4.308  10.037 -0.2964  0.0876  0.6060
  364MPD2     C 5498   3.207   2.888  10.616  0.6948  0.1243 -0.3072
  364MPD2    C1 5499   3.310   2.948  10.550  0.6243  1.2498 -0.7228
  364MPD2    C2 5500   3.438   2.897  10.554  0.4465  0.1157 -0.0553
  364MPD2    C3 5501   3.458   2.774  10.616  0.1299  0.3065 -0.4538
  364MPD2    C4 5502   3.347   2.713  10.680 -0.1717 -0.1535 -0.4359
  364MPD2    C5 5503   3.225   2.774  10.688 -0.8868  0.7763  0.1541
  364MPD2     H 5504   3.520   2.952  10.508 -0.1454  0.1273 -1.1139
  364MPD2    H1 5505   3.363   2.620  10.734  1.0158  0.8018  0.8788
  364MPD2    H2 5506   3.107   2.929  10.632  1.2364  2.1975 -2.2540
  364MPD2    H3 5507   3.138   2.738  10.743  0.7389 -2.0530  0.8379
  364MPD2     N 5508   3.581   2.717  10.632  0.5649  0.0206 -0.4601
  364MPD2    H5 5509   3.584   2.623  10.671  1.6008  0.8078  1.3106
  364MPD2    N1 5510   3.273   3.068  10.488  0.5354 -0.0301 -0.1074
  364MPD2    H7 5511   3.177   3.100  10.499  0.5030 -0.3728  0.6457
  365TMC3    C1 5512   3.286   3.247  10.344 -0.0575  0.0225 -0.4077
  365TMC3    C2 5513   3.333   3.278  10.224  0.0946 -0.6271  0.0882
  365TMC3    C3 5514   3.363   3.397  10.172 -0.6964  0.4500 -0.4056
  365TMC3    C4 5515   3.268   3.345  10.432 -0.1036 -0.0785 -0.5419
  365TMC3    C5 5516   3.303   3.477  10.386  0.1958 -0.3853 -0.3882
  365TMC3    C6 5517   3.347   3.499  10.259  0.0459  0.1995 -0.1813
  365TMC3     C 5518   3.357   3.128  10.394 -1.0382 -0.0192 -0.6500
  365TMC3     O 5519   3.470   3.110  10.353  0.2045 -0.2305 -0.6034
  365TMC3     H 5520   3.328   3.195  10.155 -0.0166 -1.9229  1.6716
  365TMC3    H1 5521   3.221   3.325  10.528 -1.4867 -2.2690 -1.6754
  365TMC3    H2 5522   3.377   3.600  10.234  0.2057 -0.0646 -1.0732
  365TMC3    C7 5523   3.311   3.580  10.485  0.0825 -0.3226  0.4702
  365TMC3    C8 5524   3.492   3.394  10.098 -0.5514 -0.3149 -0.1357
  365TMC3    O1 5525   3.328   3.691  10.440 -0.3461 -0.1308  0.0928
  365TMC3    O2 5526   3.535   3.494  10.044  0.0962  0.1409 -0.0422
  366MPD2     C 5527   2.487   4.303  15.494 -0.6827 -0.8584 -0.4201
  366MPD2    C1 5528   2.511   4.435  15.524 -0.7818 -0.0218 -0.1109
  366MPD2    C2 5529   2.636   4.469  15.546  0.1971  0.3902 -0.0103
  366MPD2    C3 5530   2.737   4.378  15.546 -0.3970  0.5067 -0.1766
  366MPD2    C4 5531   2.711   4.243  15.520  0.4464 -0.5687  0.2120
  366MPD2    C5 5532   2.588   4.204  15.475  0.2074  0.4663  0.5254
  366MPD2     H 5533   2.659   4.570  15.579 -0.3826  0.4786  0.1116
  366MPD2    H1 5534   2.788   4.167  15.524  0.2475 -0.6744  1.7542
  366MPD2    H2 5535   2.384   4.271  15.487 -0.2923 -1.8280 -1.6531
  366MPD2    H3 5536   2.563   4.100  15.455  0.2720  1.0412 -2.4857
  366MPD2     N 5537   2.865   4.429  15.573  0.0796 -0.0577  0.2497
  366MPD2    H5 5538   2.864   4.530  15.574 -2.9662 -0.0822  0.9169
  366MPD2    N1 5539   2.412   4.530  15.531  0.2612 -0.1438  0.4801
  366MPD2    H7 5540   2.442   4.622  15.561  2.1577 -0.9460  1.0259
  367TMC3    C1 5541   2.208   4.631  15.546  0.0006  0.2334 -0.6340
  367TMC3    C2 5542   2.265   4.710  15.640 -0.3960  0.8261 -0.4940
  367TMC3    C3 5543   2.217   0.100  15.663  0.6591  1.1107  0.2232
  367TMC3    C4 5544   2.118   4.683  15.465  0.2921 -0.5316  0.0825
  367TMC3    C5 5545   2.074   0.076  15.486  0.3602  0.4224 -0.9985
  367TMC3    C6 5546   2.123   0.153  15.585 -0.4928  0.6059  0.0995
  367TMC3     C 5547   2.280   4.513  15.505 -0.3293  0.0514 -0.9354
  367TMC3     O 5548   2.230   4.455  15.409 -0.2658  0.3336 -0.1103
  367TMC3     H 5549   2.339   4.676  15.712  3.1606  0.1189 -4.5257
  367TMC3    H1 5550   2.089   4.627  15.377 -3.0838 -1.3691  1.7136
  367TMC3    H2 5551   2.099   0.257  15.604 -0.2746  0.6037  0.3844
  367TMC3    C7 5552   2.002   0.155  15.385 -0.7506 -0.0277  0.4325
  367TMC3    C8 5553   2.259   0.190  15.773 -0.3593 -0.1902  0.2333
  367TMC3    O1 5554   1.955   0.260  15.426  0.4447 -0.5281  0.3334
  367TMC3    O2 5555   2.170   0.260  15.824 -0.2054  0.0239  0.6586
  368MPD2     C 5556   2.973   1.507  13.582 -0.4423  0.0623 -0.1658
  368MPD2    C1 5557   2.964   1.560  13.450  0.4312 -0.3149 -0.4135
  368MPD2    C2 5558   3.052   1.539  13.347 -0.1353  0.0820 -0.4719
  368MPD2    C3 5559   3.159   1.455  13.380 -0.4946 -0.1335 -0.2564
  368MPD2    C4 5560   3.186   1.415  13.511  0.2014 -0.0222  0.7936
  368MPD2    C5 5561   3.093   1.442  13.613 -0.4327 -0.2037 -0.5914
  368MPD2     H 5562   3.029   1.576  13.248 -0.9309 -0.8133 -0.6232
  368MPD2    H1 5563   3.279   1.368  13.539  1.5194  1.9806 -0.2024
  368MPD2    H2 5564   2.901   1.528  13.661 -0.3643  1.0014 -0.3462
  368MPD2    H3 5565   3.107   1.401  13.712 -3.8594 -1.6402 -0.6842
  368MPD2     N 5566   3.265   1.429  13.287  0.2088  0.0254 -0.7463
  368MPD2    H5 5567   3.351   1.383  13.315 -0.8252  0.2094  2.6298
  368MPD2    N1 5568   2.856   1.656  13.424 -0.3733 -0.1806 -0.1181
  368MPD2    H7 5569   2.788   1.671  13.498  0.4066  2.9535 -0.0277
  369TMC3    C1 5570   2.729   1.830  13.327  0.5307  0.3264  0.3666
  369TMC3    C2 5571   2.731   1.955  13.272  0.2511  0.5426 -0.4133
  369TMC3    C3 5572   2.614   2.027  13.282 -0.5225 -0.2305  0.0067
  369TMC3    C4 5573   2.614   1.767  13.362 -0.8922  1.1265 -1.2474
  369TMC3    C5 5574   2.493   1.831  13.346 -0.1995  0.3573 -0.6561
  369TMC3    C6 5575   2.492   1.962  13.301 -0.2120  0.3156 -0.7442
  369TMC3     C 5576   2.848   1.743  13.317  0.2589 -0.6941 -0.2291
  369TMC3     O 5577   2.930   1.782  13.233 -0.6839 -0.2382 -0.2249
  369TMC3     H 5578   2.825   1.998  13.240  0.9494 -1.7034 -1.4098
  369TMC3    H1 5579   2.617   1.662  13.386  1.2931  1.7611  1.3025
  369TMC3    H2 5580   2.401   2.021  13.304 -1.3047 -1.4082  0.1248
  369TMC3    C7 5581   2.372   1.766  13.397  0.4712 -0.1484  0.3456
  369TMC3    C8 5582   2.610   2.144  13.200 -0.0055 -0.0977 -0.1497
  369TMC3    O1 5583   2.392   1.679  13.480  0.1487  0.3937 -0.3109
  369TMC3    O2 5584   2.718   2.197  13.184 -0.0462  0.4109 -0.4082
  370TMC3    C1 5585   2.606   2.265  16.365  0.3622 -0.2908 -0.0997
  370TMC3    C2 5586   2.490   2.210  16.405  0.6187  0.2195 -0.6281
  370TMC3    C3 5587   2.457   2.086  16.352  0.7287 -0.6777  0.2117
  370TMC3    C4 5588   2.696   2.208  16.271  0.2139 -0.3495  0.3100
  370TMC3    C5 5589   2.660   2.079  16.231  0.7361  0.3035 -0.3678
  370TMC3    C6 5590   2.542   2.015  16.268  0.2614  0.0951 -0.4985
  370TMC3     C 5591   2.651   2.372  16.458  0.5557 -1.1438 -0.0461
  370TMC3     O 5592   2.607   2.382  16.573  0.2611 -0.1998  0.6201
  370TMC3     H 5593   2.430   2.258  16.481  0.8184  2.6138 -1.9721
  370TMC3    H1 5594   2.793   2.251  16.246 -1.8364  2.4247 -2.8414
  370TMC3    H2 5595   2.506   1.920  16.231  0.0619 -0.0901  0.1646
  370TMC3    C7 5596   2.743   2.024  16.121 -0.5447  1.1268  0.1376
  370TMC3    C8 5597   2.329   2.019  16.398  0.1464 -0.2278  0.9635
  370TMC3    O1 5598   2.820   2.101  16.069 -0.3002  0.3978  0.6095
  370TMC3    O2 5599   2.308   1.898  16.374  0.1065 -0.3718 -0.0332
  371TMC3    C1 5600   4.032   0.833  15.430  0.0110 -0.2010  0.7830
  371TMC3    C2 5601   3.941   0.781  15.522 -0.3040 -0.1356  0.3776
  371TMC3    C3 5602   3.862   0.871  15.588  0.2612 -0.1052 -0.5769
  371TMC3    C4 5603   4.024   0.964  15.393  1.1268  0.0301  0.1747
  371TMC3    C5 5604   3.936   1.047  15.460 -0.8941 -0.2992 -0.4904
  371TMC3    C6 5605   3.852   1.003  15.557 -0.0279  0.3225  0.0438
  371TMC3     C 5606   4.108   0.743  15.345 -0.5891  0.2371  0.1385
  371TMC3     O 5607   4.180   0.808  15.272  0.0783 -0.1153 -0.3434
  371TMC3     H 5608   3.947   0.680  15.561 -0.1621 -0.2726  0.0058
  371TMC3    H1 5609   4.100   1.014  15.334 -1.5548  0.1229 -3.2246
  371TMC3    H2 5610   3.777   1.068  15.600  0.0134  0.2626  0.2071
  371TMC3    C7 5611   3.944   1.193  15.434 -0.1719  0.0854  0.5709
  371TMC3    C8 5612   3.759   0.788  15.652 -0.1210 -0.7397  0.1602
  371TMC3    O1 5613   3.915   1.265  15.528  0.0800 -0.1263 -0.2472
  371TMC3    O2 5614   3.733   0.671  15.626 -0.0315  0.2417  0.1368
  372MPD2     C 5615   3.371   1.992  13.218  0.5188 -0.0213 -0.5193
  372MPD2    C1 5616   3.454   1.915  13.284 -0.0471 -0.1686  0.3568
  372MPD2    C2 5617   3.411   1.853  13.398 -0.4949 -0.6469 -0.1602
  372MPD2    C3 5618   3.285   1.875  13.445  0.5702 -0.2056 -0.6077
  372MPD2    C4 5619   3.202   1.964  13.381  0.3815 -0.5590  0.2597
  372MPD2    C5 5620   3.246   2.029  13.268  0.3277  0.3230  0.1371
  372MPD2     H 5621   3.477   1.785  13.450 -1.0693 -0.6217  0.5982
  372MPD2    H1 5622   3.101   1.989  13.411  0.5685  0.9798 -0.3966
  372MPD2    H2 5623   3.398   2.039  13.124  1.3949  3.0336  1.2575
  372MPD2    H3 5624   3.175   2.093  13.217 -0.5419  0.6373  1.7085
  372MPD2     N 5625   3.256   1.821  13.565 -0.3376  0.1348  0.5596
  372MPD2    H5 5626   3.333   1.771  13.606 -0.5967  0.4120  1.3841
  372MPD2    N1 5627   3.589   1.895  13.236  0.0923  0.1066 -0.1268
  372MPD2    H7 5628   3.654   1.848  13.299  0.6151  0.8984 -0.0760
  373TMC3    C1 5629   3.156   1.782  13.772  0.1753  0.6704 -0.4144
  373TMC3    C2 5630   3.079   1.839  13.866  0.1057 -0.4879  1.0146
  373TMC3    C3 5631   3.076   1.783  13.993  0.3464  0.5863 -0.6202
  373TMC3    C4 5632   3.244   1.681  13.793 -0.2392  0.0623 -0.5859
  373TMC3    C5 5633   3.233   1.621  13.912 -0.6800 -0.8678 -0.2298
  373TMC3    C6 5634   3.147   1.665  14.014 -0.1089  0.4329  0.5763
  373TMC3     C 5635   3.139   1.835  13.630  0.0328 -0.2414  0.2175
  373TMC3     O 5636   3.054   1.921  13.622 -0.1969 -0.3164 -0.1797
  373TMC3     H 5637   3.030   1.934  13.847  0.8031 -0.5820 -1.1932
  373TMC3    H1 5638   3.299   1.634  13.712 -1.9764 -0.3935 -1.4934
  373TMC3    H2 5639   3.139   1.611  14.108 -0.1001  1.8047  1.3695
  373TMC3    C7 5640   3.333   1.527  13.960  1.1132 -0.6759  0.5111
  373TMC3    C8 5641   2.978   1.835  14.089 -0.3252  0.1181 -0.0545
  373TMC3    O1 5642   3.406   1.484  13.870 -0.2733 -0.4728 -0.2509
  373TMC3    O2 5643   2.884   1.879  14.026  0.5438  0.2533 -0.1343
  374TMC3    C1 5644   4.157   1.314  10.188  0.6991 -0.4262  0.8209
  374TMC3    C2 5645   4.195   1.444  10.197  1.0965 -0.0909 -0.8269
  374TMC3    C3 5646   4.178   1.520  10.081 -0.0037 -0.0867  0.3009
  374TMC3    C4 5647   4.108   1.251  10.075 -0.7988  0.2479  0.5072
  374TMC3    C5 5648   4.082   1.340   9.971 -0.7633  0.1075 -0.0664
  374TMC3    C6 5649   4.116   1.472   9.967  0.0276 -0.1517 -0.2264
  374TMC3     C 5650   4.157   1.231  10.309  0.6687  0.1183 -0.2938
  374TMC3     O 5651   4.137   1.110  10.300  0.2260  0.2193 -0.3666
  374TMC3     H 5652   4.253   1.484  10.279 -1.2505 -0.3004  0.9499
  374TMC3    H1 5653   4.069   1.150  10.084 -0.9970  0.4513  1.9882
  374TMC3    H2 5654   4.089   1.548   9.894  1.0061 -0.2519 -0.6981
  374TMC3    C7 5655   4.030   1.283   9.846 -0.0511  0.6317  0.2171
  374TMC3    C8 5656   4.210   1.662  10.074 -0.0289  0.4223 -0.4370
  374TMC3    O1 5657   4.057   1.343   9.746  0.3777 -0.7879 -0.2118
  374TMC3    O2 5658   4.214   1.712   9.964 -0.3610  0.2051 -0.2801
  375MPD2     C 5659   3.919   1.941  17.107  0.8053  0.0680  0.6159
  375MPD2    C1 5660   3.856   2.052  17.047 -0.2798  0.2143  0.0208
  375MPD2    C2 5661   3.925   2.125  16.957 -0.7312  0.3207 -0.2518
  375MPD2    C3 5662   4.057   2.098  16.919  0.4912 -0.6934 -0.2422
  375MPD2    C4 5663   4.124   1.989  16.978 -0.8124  0.3898  0.0627
  375MPD2    C5 5664   4.050   1.917  17.070  0.1732 -0.1509  0.8195
  375MPD2     H 5665   3.877   2.215  16.920 -0.2280  0.8032  0.2747
  375MPD2    H1 5666   4.230   1.964  16.967 -0.6699  1.1240 -0.2106
  375MPD2    H2 5667   3.867   1.868  17.168 -0.0034 -0.4762 -0.7243
  375MPD2    H3 5668   4.092   1.829  17.119 -0.4853 -1.6015 -1.2312
  375MPD2     N 5669   4.128   2.183  16.837 -0.7049  0.0052  0.3453
  375MPD2    H5 5670   4.227   2.163  16.836 -0.7407 -0.1051 -0.7031
  375MPD2    N1 5671   3.724   2.095  17.066 -0.1767  0.4538 -0.3843
  375MPD2    H7 5672   3.691   2.181  17.022 -1.3648  0.4451  0.4781
  376TMC3    C1 5673   4.163   2.371  16.699  0.3436 -0.9508  0.3616
  376TMC3    C2 5674   4.289   2.387  16.750  0.4879 -0.0045 -0.7148
  376TMC3    C3 5675   4.370   2.479  16.691  0.0187 -0.6383  0.2135
  376TMC3    C4 5676   4.116   2.447  16.602  0.8457  0.3758 -0.3770
  376TMC3    C5 5677   4.208   2.528  16.534 -0.7991 -0.4558  0.0665
  376TMC3    C6 5678   4.339   2.542  16.575  0.0155  0.3657  0.6153
  376TMC3     C 5679   4.071   2.288  16.770 -0.0656  0.3101  0.0101
  376TMC3     O 5680   3.954   2.302  16.736 -0.3604 -0.0210  0.4108
  376TMC3     H 5681   4.310   2.338  16.845 -3.5549 -1.1939 -0.4208
  376TMC3    H1 5682   4.014   2.440  16.566  0.6629  0.9644  0.0171
  376TMC3    H2 5683   4.411   2.602  16.520  0.5791 -0.7851  0.0827
  376TMC3    C7 5684   4.170   2.607  16.420  0.6775  0.4283 -0.4347
  376TMC3    C8 5685   4.510   2.482  16.719  0.6932  0.3094 -0.6882
  376TMC3    O1 5686   4.237   2.701  16.382 -0.0208 -0.3358  0.2124
  376TMC3    O2 5687   4.580   2.570  16.665 -0.2378 -0.2550 -0.4170
  377MPD2     C 5688   1.896   2.447  12.622 -0.3961 -0.8012  0.3071
  377MPD2    C1 5689   1.943   2.322  12.658  0.5989 -0.4783  0.2215
  377MPD2    C2 5690   1.867   2.225  12.722  0.1856 -0.3986 -0.2715
  377MPD2    C3 5691   1.734   2.253  12.750  0.4286 -0.5129  0.6758
  377MPD2    C4 5692   1.679   2.372  12.707 -0.1108 -0.0560 -0.1877
  377MPD2    C5 5693   1.761   2.464  12.641  0.1424 -0.4100  0.4662
  377MPD2     H 5694   1.906   2.125  12.737  1.2600 -0.1418 -1.4015
  377MPD2    H1 5695   1.575   2.393  12.727  0.2120 -1.3328  2.8228
  377MPD2    H2 5696   1.957   2.526  12.579  1.8195 -2.8290 -0.3053
  377MPD2    H3 5697   1.723   2.555  12.596  0.4495 -0.1471  0.7433
  377MPD2     N 5698   1.651   2.175  12.834 -0.5712  0.1921  0.0518
  377MPD2    H5 5699   1.560   2.214  12.856 -1.2736  0.1282 -2.7711
  377MPD2    N1 5700   2.080   2.299  12.641 -0.1024  0.4292  0.4740
  377MPD2    H7 5701   2.138   2.358  12.582 -1.3471 -0.0992 -1.2772
  378TMC3    C1 5702   2.438   2.215  12.471  0.2197  0.1754  0.2487
  378TMC3    C2 5703   2.309   2.225  12.528 -0.0563 -0.2402  0.4221
  378TMC3    C3 5704   2.285   2.186  12.656  0.4031 -0.9392 -0.1659
  378TMC3    C4 5705   2.540   2.152  12.541 -0.9475 -0.6910 -0.2179
  378TMC3    C5 5706   2.508   2.121  12.670 -0.0632  0.2722 -0.4640
  378TMC3    C6 5707   2.384   2.130  12.727  0.5013 -0.0860 -0.5783
  378TMC3     C 5708   2.436   2.213  12.327  0.1458 -0.1516 -0.6830
  378TMC3     O 5709   2.336   2.197  12.260 -0.0649  0.0987  0.0685
  378TMC3     H 5710   2.230   2.270  12.469 -0.3646 -0.5173  0.6219
  378TMC3    H1 5711   2.640   2.141  12.501 -0.1607  0.3187  1.4553
  378TMC3    H2 5712   2.372   2.123  12.835 -0.8767  2.6241 -0.5339
  378TMC3    C7 5713   2.619   2.077  12.752  0.3013  0.0031  0.2097
  378TMC3    C8 5714   2.156   2.209  12.711  0.1367  0.4439  0.5358
  378TMC3    O1 5715   2.578   2.029  12.856 -0.1432  0.1923 -0.0269
  378TMC3    O2 5716   2.144   2.144  12.814 -0.0636  0.5876  0.6178
  379MPD2     C 5717   3.584   0.057  16.476 -0.3664  0.5411 -0.4968
  379MPD2    C1 5718   3.456   0.026  16.493 -0.3053 -0.0473 -0.8460
  379MPD2    C2 5719   3.403   4.714  16.613  0.3349  0.4555 -0.5882
  379MPD2    C3 5720   3.484   4.699  16.715 -0.1420  0.1237 -0.9384
  379MPD2    C4 5721   3.612   4.728  16.702  0.0466  0.4001 -0.0775
  379MPD2    C5 5722   3.664   0.035  16.584 -0.4267  0.4904 -0.4808
  379MPD2     H 5723   3.302   4.676  16.623  0.8812 -0.5796  0.9916
  379MPD2    H1 5724   3.684   4.709  16.781 -1.7837 -2.7621  0.8301
  379MPD2    H2 5725   3.625   0.105  16.388  1.3315 -0.5822 -0.3073
  379MPD2    H3 5726   3.771   0.049  16.577 -0.1097 -1.1179  1.2243
  379MPD2     N 5727   3.442   4.632  16.830 -0.1482  0.6085  0.1043
  379MPD2    H5 5728   3.515   4.591  16.887  0.0531  1.4065  0.4141
  379MPD2    N1 5729   3.366   0.035  16.379 -0.0276 -0.1899  0.3416
  379MPD2    H7 5730   3.417   0.066  16.297  0.4708 -0.9744  0.3527
  380TMC3    C1 5731   3.174   0.046  16.246 -0.8654 -0.8435 -0.1933
  380TMC3    C2 5732   3.252   0.070  16.134 -0.5470  0.4140 -0.0711
  380TMC3    C3 5733   3.201   0.151  16.033  0.2383 -0.7340 -0.1763
  380TMC3    C4 5734   3.044   0.089  16.255 -0.2012  0.3566  0.5920
  380TMC3    C5 5735   3.003   0.166  16.146 -0.3623  0.4696 -0.1603
  380TMC3    C6 5736   3.077   0.203  16.039  0.9213  0.2665  0.4693
  380TMC3     C 5737   3.236   4.736  16.368 -0.2052  0.0406  0.3948
  380TMC3     O 5738   3.154   4.720  16.455 -0.2415 -0.4256  0.2430
  380TMC3     H 5739   3.350   0.024  16.127 -0.7667 -0.2268  1.0074
  380TMC3    H1 5740   2.990   0.091  16.348 -0.3169  1.7811  0.5009
  380TMC3    H2 5741   3.038   0.284  15.978 -0.3413  0.6642  1.8010
  380TMC3    C7 5742   2.867   0.227  16.163  0.5028  0.3719 -0.2710
  380TMC3    C8 5743   3.252   0.146  15.898  0.1783  0.3535  0.1391
  380TMC3    O1 5744   2.824   0.269  16.271 -0.8716  0.0528 -0.3161
  380TMC3    O2 5745   3.191   0.216  15.821  0.9251 -0.1639 -0.1263
  381TMC3    C1 5746   2.406   1.342  16.319 -0.2696  0.0687 -0.0665
  381TMC3    C2 5747   2.468   1.457  16.296  0.2365 -0.7043  0.4458
  381TMC3    C3 5748   2.434   1.568  16.364 -0.3812  0.7257 -0.2967
  381TMC3    C4 5749   2.313   1.337  16.420  0.3449  0.1948  0.6455
  381TMC3    C5 5750   2.285   1.445  16.498  0.1800  0.3930  0.2978
  381TMC3    C6 5751   2.341   1.563  16.471 -0.2876 -0.3630 -0.4105
  381TMC3     C 5752   2.457   1.218  16.264 -0.3556 -0.0982  0.3566
  381TMC3     O 5753   2.505   1.234  16.154 -0.1186 -0.6242  0.2451
  381TMC3     H 5754   2.555   1.461  16.231  1.0339 -4.0079  1.3286
  381TMC3    H1 5755   2.257   1.247  16.447  0.1949 -0.2509 -1.1631
  381TMC3    H2 5756   2.317   1.651  16.530  2.1288 -1.3451  2.0330
  381TMC3    C7 5757   2.217   1.419  16.625 -0.5169 -0.1645  0.3567
  381TMC3    C8 5758   2.544   1.660  16.381  0.2585 -0.3344 -0.9804
  381TMC3    O1 5759   2.259   1.317  16.675 -0.6420  0.8246 -0.0040
  381TMC3    O2 5760   2.625   1.663  16.288 -0.3661  0.2317 -0.3695
  382MPD2     C 5761   2.120   3.635  16.888  0.0225  0.1792  0.0741
  382MPD2    C1 5762   2.125   3.673  17.026 -0.2336  0.0300 -0.1902
  382MPD2    C2 5763   2.110   3.576  17.126  0.4563 -0.4785  0.1815
  382MPD2    C3 5764   2.094   3.443  17.092 -0.1925 -0.5634  0.4879
  382MPD2    C4 5765   2.087   3.405  16.957  0.1111 -0.3062  0.3566
  382MPD2    C5 5766   2.107   3.503  16.859 -0.0908 -0.6084  0.2010
  382MPD2     H 5767   2.118   3.603  17.230 -1.1696 -2.2716  0.7663
  382MPD2    H1 5768   2.069   3.300  16.935  3.3291 -0.6185 -0.8362
  382MPD2    H2 5769   2.142   3.710  16.813  0.4502 -0.4774 -0.4542
  382MPD2    H3 5770   2.129   3.477  16.756  0.7408  0.0071  0.2177
  382MPD2     N 5771   2.073   3.344  17.190 -0.1657 -0.3873  0.5554
  382MPD2    H5 5772   2.059   3.248  17.161 -1.4636  0.1850 -0.6988
  382MPD2    N1 5773   2.160   3.806  17.068  0.2365  0.3917  0.3425
  382MPD2    H7 5774   2.167   3.815  17.169 -1.5944  1.5469  0.3571
  383TMC3    C1 5775   2.041   3.245  17.398 -0.3721  0.2644  0.8455
  383TMC3    C2 5776   1.987   3.136  17.332 -0.2869  0.6608  0.1937
  383TMC3    C3 5777   1.923   3.041  17.412 -0.6849  0.3379 -0.5413
  383TMC3    C4 5778   2.055   3.247  17.535  0.4555  0.0747 -0.0510
  383TMC3    C5 5779   2.013   3.140  17.608  0.6573  0.0806 -0.2716
  383TMC3    C6 5780   1.952   3.035  17.547 -0.2219  0.2545 -0.0578
  383TMC3     C 5781   2.088   3.360  17.325 -0.3259  0.0577 -0.0045
  383TMC3     O 5782   2.134   3.455  17.398 -0.0837 -0.3136  0.1987
  383TMC3     H 5783   1.966   3.142  17.226  0.7020 -0.2279 -0.0528
  383TMC3    H1 5784   2.095   3.337  17.582 -0.4645  1.4441 -1.8923
  383TMC3    H2 5785   1.904   2.959  17.607 -2.0587 -0.0185 -1.8644
  383TMC3    C7 5786   2.050   3.121   0.003  0.3730 -0.6323  0.4953
  383TMC3    C8 5787   1.780   3.017  17.382 -1.0588  0.6603 -0.2483
  383TMC3    O1 5788   1.997   3.035   0.075  0.1890  0.0825  0.1044
  383TMC3    O2 5789   1.737   3.090  17.296 -0.3003 -0.2135  0.2507
  384MPD2     C 5790   3.204   0.031  12.043 -0.3778  1.1000 -0.2637
  384MPD2    C1 5791   3.222   4.699  12.164  0.1646  0.1463 -0.6799
  384MPD2    C2 5792   3.256   4.567  12.163 -0.2909  0.8796  0.2276
  384MPD2    C3 5793   3.283   4.504  12.043  0.0338  0.0988  0.2168
  384MPD2    C4 5794   3.268   4.566  11.918 -0.1352  0.3489  0.5950
  384MPD2    C5 5795   3.237   4.701  11.927 -0.3538  0.1379  0.7007
  384MPD2     H 5796   3.256   4.517  12.259  1.5209  0.3634 -0.0491
  384MPD2    H1 5797   3.294   4.521  11.823 -1.2870  3.9079 -1.4049
  384MPD2    H2 5798   3.196   0.139  12.036  0.6830  1.2049  0.1027
  384MPD2    H3 5799   3.227   0.017  11.833  0.3294 -1.8005 -0.4503
  384MPD2     N 5800   3.313   4.367  12.050 -0.1581 -0.0744 -0.0262
  384MPD2    H5 5801   3.301   4.328  12.143 -1.3265 -3.0675 -1.4368
  384MPD2    N1 5802   3.201   0.025  12.285  0.3620  0.3666 -0.5444
  384MPD2    H7 5803   3.202   4.696  12.363  0.8045 -0.2894 -1.1038
  385TMC3    C1 5804   3.385   4.151  11.985  0.0999  0.6585 -0.2597
  385TMC3    C2 5805   3.512   4.103  11.964  0.6152  0.5497 -0.3926
  385TMC3    C3 5806   3.576   4.054  12.075  0.2728 -0.1315  0.6255
  385TMC3    C4 5807   3.322   4.125  12.098  0.7970  0.0343  0.3123
  385TMC3    C5 5808   3.402   4.095  12.208  0.3592 -0.4351  0.1581
  385TMC3    C6 5809   3.534   4.065  12.204 -0.1686  0.6226 -0.2172
  385TMC3     C 5810   3.364   4.286  11.954 -0.1228  0.5046 -0.5329
  385TMC3     O 5811   3.424   4.316  11.854  0.7109  0.6046  0.7125
  385TMC3     H 5812   3.550   4.123  11.865  0.8742  0.9127 -0.2186
  385TMC3    H1 5813   3.218   4.151  12.111  0.5145 -2.2100  2.5551
  385TMC3    H2 5814   3.594   4.041  12.291 -0.2403 -0.0312 -0.3443
  385TMC3    C7 5815   3.364   4.164  12.329 -0.2003 -0.0101 -0.3880
  385TMC3    C8 5816   3.684   3.955  12.061 -0.5672  0.1607 -0.1142
  385TMC3    O1 5817   3.298   4.262  12.301  0.6343  0.3958  0.0317
  385TMC3    O2 5818   3.751   3.931  12.160 -0.0716 -0.3191  0.1012
  386TMC3    C1 5819   3.821   2.208  11.933 -0.5636  0.1652  0.1270
  386TMC3    C2 5820   3.775   2.199  11.806 -0.4249  0.4847 -0.4414
  386TMC3    C3 5821   3.651   2.234  11.772  0.2532  0.0235 -0.0698
  386TMC3    C4 5822   3.735   2.236  12.035  0.0702  0.1063  0.3767
  386TMC3    C5 5823   3.610   2.287  11.998 -0.5442 -0.3162 -0.1344
  386TMC3    C6 5824   3.564   2.277  11.867  0.2541  0.1009  0.5723
  386TMC3     C 5825   3.942   2.136  11.958  1.0169 -0.2150 -0.0997
  386TMC3     O 5826   4.024   2.189  12.033 -0.6923 -0.5359 -0.0327
  386TMC3     H 5827   3.846   2.150  11.740 -2.6917  0.0789 -2.6006
  386TMC3    H1 5828   3.781   2.235  12.133  0.2776  1.0924  0.2917
  386TMC3    H2 5829   3.471   2.322  11.836 -0.0756  0.1282  1.5858
  386TMC3    C7 5830   3.516   2.321  12.103  0.0979  0.5480 -0.4993
  386TMC3    C8 5831   3.609   2.243  11.631  0.1160 -0.3838  0.3071
  386TMC3    O1 5832   3.395   2.315  12.077  0.1949  0.5251  0.3529
  386TMC3    O2 5833   3.511   2.309  11.611  0.5651 -0.6770  0.7307
  387MPD2     C 5834   1.161   2.706  10.305 -0.1717  0.6555  0.0226
  387MPD2    C1 5835   1.293   2.680  10.328 -0.1455 -0.1527 -0.3801
  387MPD2    C2 5836   1.336   2.560  10.382 -0.4914 -0.9935  0.7954
  387MPD2    C3 5837   1.249   2.453  10.374  0.0698  0.4201  0.7386
  387MPD2    C4 5838   1.118   2.474  10.325  0.2098  0.7283 -0.0261
  387MPD2    C5 5839   1.078   2.600  10.298  0.1565 -0.5619  0.6551
  387MPD2     H 5840   1.442   2.543  10.399  0.2440  2.4560 -0.2778
  387MPD2    H1 5841   1.048   2.394  10.304 -0.0718  1.0745 -0.3934
  387MPD2    H2 5842   1.127   2.805  10.277 -2.3848  0.4151  1.8339
  387MPD2    H3 5843   0.976   2.619  10.266  0.1427  1.7597  2.1283
  387MPD2     N 5844   1.305   2.323  10.385 -0.0830  0.2286  0.3801
  387MPD2    H5 5845   1.395   2.323  10.434 -0.1207  0.7189  0.4469
  387MPD2    N1 5846   1.394   2.766  10.298 -0.2840  0.7875  0.0049
  387MPD2    H7 5847   1.487   2.732  10.318 -0.2319 -0.1045 -1.7820
  388TMC3    C1 5848   1.523   2.909  10.167 -0.6453 -0.3758 -0.0758
  388TMC3    C2 5849   1.553   3.040  10.148 -0.2147 -0.7469  0.4185
  388TMC3    C3 5850   1.678   3.072  10.102  0.3657  0.4076 -0.0379
  388TMC3    C4 5851   1.614   2.808  10.149 -0.3991  0.2052  0.4641
  388TMC3    C5 5852   1.739   2.848  10.114  0.1333  0.1205 -0.0092
  388TMC3    C6 5853   1.775   2.980  10.087 -0.2796 -0.4455 -0.0667
  388TMC3     C 5854   1.389   2.880  10.222 -0.2531  0.1249 -0.5734
  388TMC3     O 5855   1.291   2.945  10.202 -0.7745  0.2904 -0.7045
  388TMC3     H 5856   1.480   3.119  10.153  0.9485  0.3529 -0.0419
  388TMC3    H1 5857   1.582   2.705  10.158 -0.4059  0.1066 -0.7561
  388TMC3    H2 5858   1.877   3.002  10.056 -0.3714  1.0375  0.7218
  388TMC3    C7 5859   1.845   2.749  10.120  0.4185 -0.1088  0.8109
  388TMC3    C8 5860   1.701   3.213  10.095  0.4107  0.9341 -0.1023
  388TMC3    O1 5861   1.947   2.769  10.054 -0.0771 -0.6276 -0.1227
  388TMC3    O2 5862   1.603   3.288  10.115 -0.0980  0.1302 -0.2872
  389MPD2     C 5863   0.779   0.574  11.943  0.3267 -0.0578 -0.4225
  389MPD2    C1 5864   0.713   0.485  11.866 -0.4470  0.8226 -0.6500
  389MPD2    C2 5865   0.679   0.362  11.925 -0.3205  0.1379  0.2038
  389MPD2    C3 5866   0.695   0.343  12.062  0.2605 -0.3097  0.1308
  389MPD2    C4 5867   0.747   0.446  12.138 -0.0852  1.0114  0.4772
  389MPD2    C5 5868   0.790   0.562  12.080  0.7673  0.1613  0.2619
  389MPD2     H 5869   0.634   0.286  11.863  0.8765  2.5357 -3.5590
  389MPD2    H1 5870   0.748   0.436  12.246 -0.3582  0.3918  0.4251
  389MPD2    H2 5871   0.801   0.674  11.907  1.5656 -0.1752  0.0153
  389MPD2    H3 5872   0.831   0.637  12.147 -1.2989 -0.0194  1.7141
  389MPD2     N 5873   0.646   0.221  12.119 -0.7985  0.1981 -0.3374
  389MPD2    H5 5874   0.659   0.223  12.219  0.6474 -1.5269 -0.4771
  389MPD2    N1 5875   0.702   0.517  11.731 -0.1569 -0.2260  0.4058
  389MPD2    H7 5876   0.743   0.607  11.711 -2.1144  0.3818 -0.7971
  390TMC3    C1 5877   0.547   0.010  12.139 -0.3179  0.4280  0.3435
  390TMC3    C2 5878   0.489   4.645  12.065  0.2056  0.5328 -0.2988
  390TMC3    C3 5879   0.388   4.574  12.128 -0.2672 -0.0729 -0.6273
  390TMC3    C4 5880   0.504   0.041  12.266 -0.4852  0.1197 -0.0682
  390TMC3    C5 5881   0.404   4.698  12.321  0.0152 -0.1249  0.0760
  390TMC3    C6 5882   0.341   4.599  12.254 -0.4061 -0.5430 -0.8294
  390TMC3     C 5883   0.603   0.107  12.057  0.0426 -0.4033  0.5409
  390TMC3     O 5884   0.612   0.075  11.941  0.2633  0.4217 -0.0405
  390TMC3     H 5885   0.542   4.605  11.979 -0.0721  0.8892 -0.6347
  390TMC3    H1 5886   0.528   0.135  12.314  0.5358 -0.7381  1.1256
  390TMC3    H2 5887   0.258   4.542  12.294  0.2498 -0.5564  0.5383
  390TMC3    C7 5888   0.330   0.016  12.432  0.5225  0.4171 -0.3069
  390TMC3    C8 5889   0.291   4.501  12.051 -0.8624 -0.2239 -0.6264
  390TMC3    O1 5890   0.207   0.017  12.427  0.2779  0.1501  0.2827
  390TMC3    O2 5891   0.190   4.473  12.112  0.1263 -0.5244  0.1182
  391MPD2     C 5892   4.709   2.055  11.483  0.0035 -0.5393 -0.0878
  391MPD2    C1 5893   0.077   2.128  11.428 -0.0466  0.3300 -1.3715
  391MPD2    C2 5894   0.089   2.134  11.289 -0.8402  0.7987  0.2006
  391MPD2    C3 5895   4.730   2.078  11.209  0.3751  0.4376  0.1639
  391MPD2    C4 5896   4.624   2.014  11.270 -1.1243  0.1294 -0.5601
  391MPD2    C5 5897   4.613   2.003  11.405 -0.1978  0.2026  0.0721
  391MPD2     H 5898   0.177   2.183  11.249 -0.8740  1.5977  1.1022
  391MPD2    H1 5899   4.540   1.989  11.206  0.7785 -0.6663 -2.7233
  391MPD2    H2 5900   4.700   2.040  11.590  1.8873  0.0138  0.1476
  391MPD2    H3 5901   4.523   1.968  11.455 -0.5558 -1.1185 -1.4614
  391MPD2     N 5902   0.008   2.073  11.067 -0.1634  0.1672  0.2522
  391MPD2    H5 5903   0.091   2.126  11.040 -0.2829 -0.7310 -1.9385
  391MPD2    N1 5904   0.166   2.201  11.511 -0.0834  0.7254  0.1264
  391MPD2    H7 5905   0.219   2.269  11.457 -0.4253  1.5119  0.7746
  392TMC3    C1 5906   4.711   2.038  10.837  0.0140 -1.0043 -0.4069
  392TMC3    C2 5907   4.627   1.983  10.749 -0.0300  0.0365  0.1406
  392TMC3    C3 5908   4.606   2.054  10.633 -0.3447  0.3559  0.3142
  392TMC3    C4 5909   0.052   2.145  10.808  0.1655 -0.2709  0.0395
  392TMC3    C5 5910   0.031   2.212  10.693  1.3122  0.7918  0.1716
  392TMC3    C6 5911   4.672   2.173  10.603 -0.3455 -0.5308  0.1094
  392TMC3     C 5912   4.668   2.012  10.972  0.7518  0.6555  0.3550
  392TMC3     O 5913   4.576   1.928  10.986  0.2802  0.0372 -0.2965
  392TMC3     H 5914   4.565   1.898  10.775 -0.0959  0.1245  0.2760
  392TMC3    H1 5915   0.118   2.196  10.877  1.4423  1.0025 -2.1194
  392TMC3    H2 5916   4.666   2.222  10.507 -2.4899 -0.9299  0.0505
  392TMC3    C7 5917   0.123   2.330  10.676  0.2524  0.0843 -0.6213
  392TMC3    C8 5918   4.524   1.995  10.532 -0.0008 -0.1147  0.6595
  392TMC3    O1 5919   0.169   2.379  10.778  0.3662 -0.6107 -0.7786
  392TMC3    O2 5920   4.506   1.878  10.557  0.2045  0.6912 -0.5041
  393TMC3    C1 5921   3.210   0.887  11.061  0.0055  0.1067  0.6157
  393TMC3    C2 5922   3.075   0.863  11.092 -0.3054 -0.9615  0.0316
  393TMC3    C3 5923   3.038   0.816  11.217  0.4302 -0.4607  0.3869
  393TMC3    C4 5924   3.304   0.864  11.147  0.0814 -0.5918  0.0219
  393TMC3    C5 5925   3.268   0.829  11.272  0.2132 -0.2787  0.0753
  393TMC3    C6 5926   3.144   0.793  11.313  0.3259  0.5111  0.5654
  393TMC3     C 5927   3.231   0.938  10.926 -0.5863  0.3668  0.2182
  393TMC3     O 5928   3.346   0.939  10.889 -0.3759 -0.0970 -0.3670
  393TMC3     H 5929   3.006   0.857  11.009  1.2177  0.9619 -1.3552
  393TMC3    H1 5930   3.403   0.904  11.129 -0.8997  1.3465 -1.0927
  393TMC3    H2 5931   3.130   0.737  11.405 -1.0600 -0.2666 -0.1176
  393TMC3    C7 5932   3.375   0.766  11.346  0.7129 -0.2177  0.7089
  393TMC3    C8 5933   2.918   0.728  11.214 -0.3137 -1.1793 -0.5242
  393TMC3    O1 5934   3.371   0.782  11.463  0.2429 -0.3899 -0.1646
  393TMC3    O2 5935   2.842   0.743  11.117 -0.4904  0.0705  0.8275
  394TMC3    C1 5936   0.611   0.511  11.510 -0.0618 -0.7805  0.2115
  394TMC3    C2 5937   0.487   0.504  11.452  0.1089 -0.2302 -0.2294
  394TMC3    C3 5938   0.477   0.559  11.328  0.1483  0.1868  0.0074
  394TMC3    C4 5939   0.716   0.575  11.462  0.7412 -0.0691  0.1334
  394TMC3    C5 5940   0.700   0.648  11.350  0.3846 -0.2395 -0.0510
  394TMC3    C6 5941   0.583   0.631  11.282 -0.1038 -0.0964 -0.3691
  394TMC3     C 5942   0.619   0.446  11.640  0.6762  0.5345 -0.2289
  394TMC3     O 5943   0.536   0.361  11.667  0.2846 -1.0509  0.0724
  394TMC3     H 5944   0.394   0.464  11.492  0.3630 -1.6620 -1.0718
  394TMC3    H1 5945   0.810   0.560  11.513  1.7526  0.3457 -1.6059
  394TMC3    H2 5946   0.577   0.682  11.187  0.7522 -0.9191 -0.8623
  394TMC3    C7 5947   0.816   0.692  11.277  0.3254  0.0529  0.3333
  394TMC3    C8 5948   0.341   0.581  11.276  0.1626  0.1400  0.5082
  394TMC3    O1 5949   0.799   0.723  11.160 -1.0772  0.6129  0.0180
  394TMC3    O2 5950   0.244   0.557  11.347  0.3185 -0.1550 -0.7892
  395TMC3    C1 5951   0.320   2.571  14.959  0.3314  0.3358 -0.6530
  395TMC3    C2 5952   0.307   2.447  14.892  0.4969 -0.6817 -0.2863
  395TMC3    C3 5953   0.427   2.389  14.857 -1.0034 -0.1235  0.1853
  395TMC3    C4 5954   0.441   2.628  14.978  0.0162  0.5441  0.3563
  395TMC3    C5 5955   0.551   2.571  14.941 -0.8599  0.7237  0.3838
  395TMC3    C6 5956   0.547   2.445  14.886 -0.2927 -0.2234  0.5153
  395TMC3     C 5957   0.211   2.645  15.007 -0.3683  0.4789  0.2416
  395TMC3     O 5958   0.225   2.735  15.090 -0.0066 -0.1646 -0.1051
  395TMC3     H 5959   0.210   2.402  14.872 -0.4731  1.8625 -1.3368
  395TMC3    H1 5960   0.442   2.725  15.028 -0.2142  1.0243 -0.5768
  395TMC3    H2 5961   0.640   2.398  14.856 -1.2120 -0.8930 -1.3055
  395TMC3    C7 5962   0.668   2.637  14.978 -0.3901 -0.2058  0.0706
  395TMC3    C8 5963   0.416   2.259  14.911 -0.1102  0.1896 -0.2760
  395TMC3    O1 5964   0.669   2.703  15.081 -0.9354 -0.4153 -0.0827
  395TMC3    O2 5965   0.474   2.230  15.016  0.1385 -0.0940  0.0401
  396MPD2     C 5966   0.325   3.375  17.164 -0.3740  0.3027 -0.3217
  396MPD2    C1 5967   0.436   3.439  17.201  0.0072  0.6310  0.4628
  396MPD2    C2 5968   0.469   3.560  17.143 -0.7055  0.2445  0.2711
  396MPD2    C3 5969   0.397   3.608  17.042  0.6447  0.5802  0.1590
  396MPD2    C4 5970   0.283   3.545  16.995  0.2545  0.3534  0.3606
  396MPD2    C5 5971   0.251   3.416  17.054 -0.0274 -0.0732 -0.5898
  396MPD2     H 5972   0.561   3.602  17.182 -0.4049 -0.8641  0.7641
  396MPD2    H1 5973   0.215   3.581  16.919 -0.6927 -2.4533 -0.1213
  396MPD2    H2 5974   0.291   3.289  17.221 -1.3410 -0.9175 -2.7426
  396MPD2    H3 5975   0.165   3.356  17.031  0.5358 -0.8220 -0.7300
  396MPD2     N 5976   0.434   3.728  16.981 -0.1227  0.0809  0.3046
  396MPD2    H5 5977   0.515   3.778  17.017  0.3033  0.2422 -0.8905
  396MPD2    N1 5978   0.507   3.379  17.310  0.6870  0.2231  0.0638
  396MPD2    H7 5979   0.480   3.285  17.339  1.4090  0.1036  0.3612
  397TMC3    C1 5980   0.680   3.323  17.463 -0.2254  0.8783 -0.1927
  397TMC3    C2 5981   0.815   3.304  17.440  0.0231  0.4054  0.0617
  397TMC3    C3 5982   0.870   3.177  17.435  0.3002 -0.6001 -0.2396
  397TMC3    C4 5983   0.600   3.216  17.486  0.1872 -0.3181  0.8460
  397TMC3    C5 5984   0.659   3.088  17.495 -0.1481  0.0747  1.0432
  397TMC3    C6 5985   0.791   3.070  17.462 -0.4542  0.5017 -0.3766
  397TMC3     C 5986   0.620   3.424  17.368 -0.3681  0.0056  0.1108
  397TMC3     O 5987   0.682   3.528  17.357 -0.2234 -0.3750  0.3875
  397TMC3     H 5988   0.880   3.391  17.447 -1.0762  1.2478 -0.3171
  397TMC3    H1 5989   0.495   3.224  17.513  0.1849  1.1713  0.4110
  397TMC3    H2 5990   0.831   2.970  17.468  0.7924  1.0317  0.2560
  397TMC3    C7 5991   0.589   2.975  17.547 -0.2178 -0.2229 -0.6326
  397TMC3    C8 5992   1.018   3.153  17.439 -0.4743  0.0047  0.6762
  397TMC3    O1 5993   0.617   2.860  17.520  0.6773  0.2889  0.2742
  397TMC3    O2 5994   1.056   3.083  17.533  0.0664 -0.0010  0.5491
  398MPD2     C 5995   2.721   4.562   0.210 -0.0957  0.6628 -0.1216
  398MPD2    C1 5996   2.839   4.553   0.281  0.6832 -0.5275 -1.0761
  398MPD2    C2 5997   2.915   4.667   0.305  0.4117  0.5246 -0.6707
  398MPD2    C3 5998   2.873   0.051   0.254 -0.7700 -0.3805  0.0451
  398MPD2    C4 5999   2.755   0.067   0.193  0.6969 -0.0061  0.2526
  398MPD2    C5 6000   2.683   4.686   0.167  0.0305 -0.2390 -0.2600
  398MPD2     H 6001   3.013   4.655   0.350 -0.6458 -0.1938  1.4376
  398MPD2    H1 6002   2.711   0.159   0.158 -0.1687  0.2322  1.9660
  398MPD2    H2 6003   2.663   4.473   0.188 -0.0579  0.9532 -1.3707
  398MPD2    H3 6004   2.593   4.689   0.107  0.2725 -0.4519 -0.6396
  398MPD2     N 6005   2.964   0.148   0.275  0.1467 -0.5835 -0.2049
  398MPD2    H5 6006   3.049   0.118   0.323 -0.7068 -1.1848  0.9265
  398MPD2    N1 6007   2.893   4.432   0.339 -0.2058 -0.7275  0.3791
  398MPD2    H7 6008   2.981   4.440   0.388  1.0622 -0.1513 -1.9997
  399TMC3    C1 6009   2.905   4.199   0.378 -0.4672 -0.1105 -0.0554
  399TMC3    C2 6010   3.029   4.220   0.432 -0.9046  0.1785 -0.4179
  399TMC3    C3 6011   3.105   4.109   0.465  0.3306  0.0619  0.0258
  399TMC3    C4 6012   2.851   4.074   0.350  0.1365 -0.2411 -0.2448
  399TMC3    C5 6013   2.924   3.970   0.401  0.2518 -0.4230 -0.4375
  399TMC3    C6 6014   3.050   3.984   0.455 -0.3665 -0.5599  0.2317
  399TMC3     C 6015   2.829   4.306   0.319 -0.3573  0.1080  0.2444
  399TMC3     O 6016   2.739   4.278   0.240 -0.5267 -0.9516 -0.1783
  399TMC3     H 6017   3.057   4.321   0.462 -0.6976  0.0357 -0.1374
  399TMC3    H1 6018   2.753   4.055   0.307  0.6812 -2.2276 -0.6290
  399TMC3    H2 6019   3.106   3.893   0.476  3.0012  1.0972 -1.5530
  399TMC3    C7 6020   2.875   3.836   0.379  0.6039 -0.4871 -0.3825
  399TMC3    C8 6021   3.249   4.126   0.435 -0.5592 -0.0415  0.1659
  399TMC3    O1 6022   2.922   3.753   0.453 -0.1030  0.1854  0.0515
  399TMC3    O2 6023   3.273   4.202   0.340 -0.1737  0.2903 -0.0600
  400TMC3    C1 6024   1.846   2.731  17.088  0.1057  0.0367  0.3047
  400TMC3    C2 6025   1.727   2.669  17.070 -0.6425  0.2769  0.4391
  400TMC3    C3 6026   1.614   2.731  17.017  0.3430  0.1281  0.2996
  400TMC3    C4 6027   1.847   2.865  17.049  0.5179  0.2089 -0.2110
  400TMC3    C5 6028   1.732   2.929  17.008 -0.3374 -1.1131 -0.0398
  400TMC3    C6 6029   1.616   2.866  16.995  0.0698  0.5841  0.2027
  400TMC3     C 6030   1.921   2.700  17.209  0.2556  0.2700 -0.6260
  400TMC3     O 6031   1.854   2.636  17.289 -0.3025 -0.3247  0.1568
  400TMC3     H 6032   1.711   2.567  17.101 -0.1206  1.0457  3.2497
  400TMC3    H1 6033   1.936   2.926  17.052  1.1245 -0.6729 -0.2535
  400TMC3    H2 6034   1.524   2.920  16.974 -0.4808 -0.7832 -0.8936
  400TMC3    C7 6035   1.754   3.065  16.960 -0.1514 -0.5824  0.4997
  400TMC3    C8 6036   1.489   2.669  17.011  0.2788  0.0866  0.4547
  400TMC3    O1 6037   1.861   3.081  16.906 -0.3367  0.4228  0.1304
  400TMC3    O2 6038   1.476   2.562  17.068 -0.2581 -0.2991 -0.2607
  401MPD2     C 6039   4.304   2.248   1.488 -0.1356  0.1205  0.0776
  401MPD2    C1 6040   4.393   2.178   1.390  0.2378  0.4792  0.5565
  401MPD2    C2 6041   4.341   2.083   1.308  0.1111 -0.2932 -0.1063
  401MPD2    C3 6042   4.210   2.040   1.326  0.5077 -0.0333  0.4915
  401MPD2    C4 6043   4.125   2.096   1.421  0.5609  0.2135 -0.3096
  401MPD2    C5 6044   4.176   2.205   1.492  0.5610 -0.2492  0.1060
  401MPD2     H 6045   4.412   2.030   1.244  1.6809 -0.6103  1.8743
  401MPD2    H1 6046   4.022   2.062   1.433  1.3219 -1.7063  0.7585
  401MPD2    H2 6047   4.339   2.328   1.552 -0.6437  0.9713 -0.7215
  401MPD2    H3 6048   4.111   2.258   1.560  0.1751  1.6203 -1.7229
  401MPD2     N 6049   4.174   1.932   1.249 -0.2455  0.2485  0.2854
  401MPD2    H5 6050   4.248   1.896   1.189 -1.2410  1.0245 -1.3995
  401MPD2    N1 6051   4.525   2.224   1.360 -0.3645 -0.2222 -0.2550
  401MPD2    H7 6052   4.573   2.185   1.280  2.0127 -2.5091  2.2842
  402TMC3    C1 6053   4.034   1.769   1.156  0.7208  0.5504 -0.1688
  402TMC3    C2 6054   4.128   1.673   1.201 -1.0440  0.1178 -0.0413
  402TMC3    C3 6055   4.116   1.544   1.156 -0.5172 -0.4612  0.0173
  402TMC3    C4 6056   3.931   1.744   1.075  0.1153 -1.1613 -0.2027
  402TMC3    C5 6057   3.938   1.616   1.027 -0.6724  0.6751  0.6372
  402TMC3    C6 6058   4.019   1.521   1.063  0.3115  0.0461 -0.1755
  402TMC3     C 6059   4.041   1.891   1.234  0.0795 -0.4952  0.5501
  402TMC3     O 6060   3.936   1.949   1.263  0.1850 -0.5727 -0.1625
  402TMC3     H 6061   4.191   1.695   1.287 -0.9087  0.5316 -0.2491
  402TMC3    H1 6062   3.869   1.823   1.034 -0.7289 -0.5966  2.1791
  402TMC3    H2 6063   3.997   1.424   1.021 -0.0155  0.4874 -1.0181
  402TMC3    C7 6064   3.830   1.579   0.931 -0.1751  0.1508 -0.1476
  402TMC3    C8 6065   4.171   1.429   1.217  0.0070  0.0490  0.9319
  402TMC3    O1 6066   3.721   1.637   0.955 -0.1231 -0.2148 -0.6497
  402TMC3    O2 6067   4.202   1.341   1.138 -0.5165 -0.0661 -0.0214
  403MPD2     C 6068   2.652   4.716  13.445  0.0448  0.0092 -0.2287
  403MPD2    C1 6069   2.756   4.626  13.438  0.0778 -0.4926  0.7999
  403MPD2    C2 6070   2.871   4.661  13.503  0.1225  0.5058 -0.3380
  403MPD2    C3 6071   2.885   0.050  13.560  0.0635 -0.3351  0.3393
  403MPD2    C4 6072   2.779   0.138  13.559 -0.2168 -0.2554 -0.4765
  403MPD2    C5 6073   2.665   0.103  13.497 -0.2216  0.5855 -0.1858
  403MPD2     H 6074   2.964   4.607  13.485  1.4543  2.3028  1.1538
  403MPD2    H1 6075   2.796   0.239  13.594  1.0256 -1.6681  2.9322
  403MPD2    H2 6076   2.561   4.696  13.391  0.6709 -2.1967 -0.4485
  403MPD2    H3 6077   2.583   0.171  13.480 -2.1414 -1.0723  2.4216
  403MPD2     N 6078   3.000   0.105  13.624  0.2478  0.6046 -0.7192
  403MPD2    H5 6079   2.989   0.198  13.663 -2.9126  0.8658 -2.1765
  403MPD2    N1 6080   2.743   4.497  13.376  0.4253  0.3679  0.2965
  403MPD2    H7 6081   2.662   4.499  13.315 -1.3195 -1.7962  2.5457
  404TMC3    C1 6082   2.758   4.257  13.357  0.0737  0.5316  0.2811
  404TMC3    C2 6083   2.772   4.170  13.458 -0.2113 -0.2532  0.0472
  404TMC3    C3 6084   2.802   4.037  13.431 -0.5369 -0.1139 -0.7970
  404TMC3    C4 6085   2.763   4.220  13.227  0.4477  0.4876 -0.0325
  404TMC3    C5 6086   2.778   4.082  13.206  0.1837 -0.0988  0.3401
  404TMC3    C6 6087   2.800   3.987  13.303 -0.0198  0.5114 -0.5245
  404TMC3     C 6088   2.814   4.382  13.404  0.4735 -0.2062 -0.4829
  404TMC3     O 6089   2.896   4.371  13.493  0.2409  0.2882  0.4362
  404TMC3     H 6090   2.757   4.202  13.561  1.3887  1.5374 -0.2869
  404TMC3    H1 6091   2.743   4.297  13.153  1.4467  1.1387  0.3753
  404TMC3    H2 6092   2.800   3.885  13.267  0.1371  0.7436 -1.1838
  404TMC3    C7 6093   2.798   4.034  13.071 -0.0896  0.2429 -0.4054
  404TMC3    C8 6094   2.894   3.967  13.520 -0.2854 -0.1218  0.2343
  404TMC3    O1 6095   2.854   3.926  13.061 -0.4429  0.2714  0.1857
  404TMC3    O2 6096   2.955   3.871  13.471  0.0159  0.7013 -0.5887
  405MPD2     C 6097   3.402   4.718  14.947  0.2340  0.5175  0.2026
  405MPD2    C1 6098   3.427   0.002  14.814 -0.1389  0.5773 -0.8571
  405MPD2    C2 6099   3.482   0.122  14.770 -0.2921 -0.2502 -0.0159
  405MPD2    C3 6100   3.519   0.217  14.861  0.7384 -0.2592 -1.1427
  405MPD2    C4 6101   3.502   0.190  14.992 -0.3728 -0.9155 -0.1176
  405MPD2    C5 6102   3.441   0.078  15.036 -0.6147 -0.1617 -0.0647
  405MPD2     H 6103   3.482   0.159  14.668  0.0947  0.0084  0.0746
  405MPD2    H1 6104   3.540   0.255  15.070  0.0633  1.2865 -2.1976
  405MPD2    H2 6105   3.350   4.630  14.983  0.2064 -0.5516 -2.4545
  405MPD2    H3 6106   3.439   0.068  15.143  0.7248  1.0988  0.0689
  405MPD2     N 6107   3.580   0.345  14.816  0.5537  0.4266 -0.1568
  405MPD2    H5 6108   3.600   0.344  14.717  2.4346 -2.9286  0.2449
  405MPD2    N1 6109   3.385   4.642  14.719  0.0581 -0.1555 -0.2102
  405MPD2    H7 6110   3.337   4.560  14.753  0.4763  0.0444  0.8859
  406TMC3    C1 6111   3.514   0.769  14.812  0.0341  0.0475 -0.2715
  406TMC3    C2 6112   3.473   0.748  14.685  0.4448  0.2465 -0.1292
  406TMC3    C3 6113   3.507   0.634  14.615 -0.4502  0.6804  0.0977
  406TMC3    C4 6114   3.604   0.683  14.872  0.4814 -0.7948 -0.1443
  406TMC3    C5 6115   3.621   0.568  14.806 -0.2449  0.5834 -0.6178
  406TMC3    C6 6116   3.586   0.544  14.673 -0.4275 -0.6993 -0.2442
  406TMC3     C 6117   3.415   0.819  14.900 -0.1106  0.2815 -0.0752
  406TMC3     O 6118   3.440   0.813  15.021 -0.5512  0.1811  0.2559
  406TMC3     H 6119   3.403   0.816  14.638  0.0814  1.0171  1.5554
  406TMC3    H1 6120   3.648   0.703  14.968 -0.1662  0.9845 -0.2231
  406TMC3    H2 6121   3.642   0.475  14.611 -0.8570 -2.2302  1.0681
  406TMC3    C7 6122   3.617   0.449  14.887  0.0773  0.3399 -0.3595
  406TMC3    C8 6123   3.432   0.594  14.500  0.6271 -0.0117  0.4541
  406TMC3    O1 6124   3.622   0.457  15.007  0.9209  0.8020  0.1720
  406TMC3    O2 6125   3.337   0.667  14.468  0.3316  0.4342 -0.7537
  407MPD2     C 6126   0.679   1.982  10.213 -0.8271  0.2357  0.0222
  407MPD2    C1 6127   0.781   2.069  10.225  0.2665 -0.4964  0.8338
  407MPD2    C2 6128   0.763   2.164  10.321 -0.5064 -0.5955 -0.0355
  407MPD2    C3 6129   0.654   2.172  10.407  0.0029  0.6307  0.0018
  407MPD2    C4 6130   0.565   2.069  10.409  0.9007 -0.7892  0.0874
  407MPD2    C5 6131   0.576   1.975  10.304  0.2510  0.1373  0.3361
  407MPD2     H 6132   0.841   2.239  10.324  0.6973 -1.8516 -0.1653
  407MPD2    H1 6133   0.473   2.076  10.465  0.9730 -1.7197  0.3233
  407MPD2    H2 6134   0.684   1.911  10.131 -0.5253 -0.6177  0.7809
  407MPD2    H3 6135   0.507   1.891  10.303  0.0588  0.2810  1.6386
  407MPD2     N 6136   0.643   2.292  10.486  0.3240 -0.3342  0.6560
  407MPD2    H5 6137   0.707   2.368  10.466  0.6362 -0.7340  0.1167
  407MPD2    N1 6138   0.903   2.078  10.155  0.5897 -0.2245  0.2614
  407MPD2    H7 6139   0.959   2.160  10.178 -0.3370  0.1675  1.1329
  408TMC3    C1 6140   1.086   2.011  10.026 -0.1300  0.2345  0.5293
  408TMC3    C2 6141   1.160   1.904   9.973  0.4168 -0.5086 -0.5041
  408TMC3    C3 6142   1.291   1.921   9.941 -0.0895  0.7406  0.5834
  408TMC3    C4 6143   1.141   2.139  10.041 -0.6556  0.7103  0.5316
  408TMC3    C5 6144   1.269   2.148  10.008 -1.0078  0.6004  0.1020
  408TMC3    C6 6145   1.349   2.045   9.961 -0.6761  0.1715 -0.0758
  408TMC3     C 6146   0.949   1.981  10.070  0.6924  0.3767  0.1307
  408TMC3     O 6147   0.904   1.870  10.049  0.4505 -0.4906  0.4310
  408TMC3     H 6148   1.101   1.818   9.944  0.8237 -0.4980 -1.3550
  408TMC3    H1 6149   1.077   2.220  10.074 -1.2830  1.4967 -2.6239
  408TMC3    H2 6150   1.452   2.070   9.937 -0.3607 -0.9758  0.0745
  408TMC3    C7 6151   1.338   2.271  10.029  0.4105 -0.1636 -1.0445
  408TMC3    C8 6152   1.373   1.812   9.882 -0.6062  0.5363 -0.6399
  408TMC3    O1 6153   1.453   2.256  10.066 -0.0296  0.0666 -0.0617
  408TMC3    O2 6154   1.314   1.718   9.837 -0.0871 -0.0148  0.2169
  409MPD2     C 6155   0.353   2.803  17.229 -0.2482  0.0106  0.2415
  409MPD2    C1 6156   0.466   2.722  17.211 -0.2192  0.6613  0.4752
  409MPD2    C2 6157   0.577   2.769  17.151 -0.6047  0.8070 -0.5080
  409MPD2    C3 6158   0.589   2.905  17.127  0.2551 -0.6889 -0.0471
  409MPD2    C4 6159   0.477   2.989  17.138 -0.1970 -0.7938  0.6594
  409MPD2    C5 6160   0.359   2.939  17.189 -0.2597  1.0340  0.0450
  409MPD2     H 6161   0.658   2.698  17.137 -1.2313  0.1951 -0.9933
  409MPD2    H1 6162   0.485   3.095  17.115  0.3678 -1.0898 -0.4982
  409MPD2    H2 6163   0.266   2.767  17.282 -0.9848  0.3792 -0.7247
  409MPD2    H3 6164   0.274   3.003  17.209 -0.2178  1.3458 -0.7854
  409MPD2     N 6165   0.714   2.954  17.076 -0.0421 -0.1206  0.5378
  409MPD2    H5 6166   0.715   3.050  17.043 -2.8141  0.4775  2.1806
  409MPD2    N1 6167   0.460   2.578  17.244 -0.0410  0.0800 -0.3935
  409MPD2    H7 6168   0.549   2.529  17.243 -1.0579 -1.7574 -1.1982
  410TMC3    C1 6169   0.942   2.976  17.047  0.1364  0.1200  0.6332
  410TMC3    C2 6170   1.059   2.979  17.127 -0.6819 -0.1835 -0.4741
  410TMC3    C3 6171   1.169   3.041  17.076  0.2563  0.2609  1.1262
  410TMC3    C4 6172   0.944   3.041  16.924  0.0065  0.1816 -0.6113
  410TMC3    C5 6173   1.061   3.115  16.885 -0.5718 -0.0849 -0.6932
  410TMC3    C6 6174   1.180   3.115  16.963 -0.0727  0.1308 -0.4570
  410TMC3     C 6175   0.835   2.895  17.096  0.3897 -0.2775 -0.1558
  410TMC3     O 6176   0.865   2.786  17.146 -0.1477 -0.0453 -0.0467
  410TMC3     H 6177   1.061   2.934  17.226  2.6378  2.7274  0.7795
  410TMC3    H1 6178   0.868   3.027  16.848 -2.8316 -0.4772  2.3370
  410TMC3    H2 6179   1.271   3.156  16.920  1.8601 -0.9962  2.5272
  410TMC3    C7 6180   1.080   3.132  16.745  0.2626  0.0458  0.1055
  410TMC3    C8 6181   1.289   3.015  17.145  0.1712 -0.1427 -0.2529
  410TMC3    O1 6182   1.023   3.063  16.668  0.0459 -0.0276  0.4767
  410TMC3    O2 6183   1.373   3.105  17.139 -0.2872 -0.2014 -0.2277
  411MPD2     C 6184   1.321   3.656  14.697  0.1621 -0.0040 -0.1183
  411MPD2    C1 6185   1.224   3.645  14.794 -0.0402  0.1998  0.4905
  411MPD2    C2 6186   1.148   3.530  14.804  0.1411 -0.6377 -0.3945
  411MPD2    C3 6187   1.173   3.420  14.717 -0.4191 -0.3677 -0.1614
  411MPD2    C4 6188   1.275   3.436  14.621  0.3240 -0.5389 -0.4505
  411MPD2    C5 6189   1.347   3.553  14.617 -0.8420 -0.5639  0.6114
  411MPD2     H 6190   1.061   3.529  14.868  1.4928 -1.6515  1.4282
  411MPD2    H1 6191   1.305   3.351  14.562 -1.2585 -1.2882 -0.1618
  411MPD2    H2 6192   1.380   3.746  14.685 -0.0964  0.1983  0.1233
  411MPD2    H3 6193   1.425   3.566  14.543  1.4242 -2.9497  2.5926
  411MPD2     N 6194   1.095   3.299  14.701 -0.0920 -0.2190  0.1235
  411MPD2    H5 6195   1.121   3.225  14.637  0.0017 -0.6400  0.6471
  411MPD2    N1 6196   1.177   3.761  14.864 -0.0271  0.0367 -0.2302
  411MPD2    H7 6197   1.197   3.856  14.834  2.1069 -0.0509  0.9301
  412TMC3    C1 6198   0.914   3.161  14.693  0.1385  0.2245  0.5348
  412TMC3    C2 6199   0.842   3.087  14.779  0.2897  0.0970  0.1840
  412TMC3    C3 6200   0.783   2.966  14.746  0.4028 -0.3473  0.7857
  412TMC3    C4 6201   0.941   3.116  14.561 -0.6929  0.7144 -1.4030
  412TMC3    C5 6202   0.874   2.997  14.516  0.2084 -0.1709 -0.4956
  412TMC3    C6 6203   0.792   2.930  14.611  0.2107 -0.1121  0.3061
  412TMC3     C 6204   0.980   3.275  14.765 -1.0261 -0.0830 -0.5332
  412TMC3     O 6205   0.937   3.338  14.864 -1.0428  0.5409 -0.1563
  412TMC3     H 6206   0.831   3.116  14.883 -1.4069 -1.3787  0.4166
  412TMC3    H1 6207   1.007   3.164  14.489 -0.0620 -1.5504 -2.3309
  412TMC3    H2 6208   0.757   2.832  14.582  2.0098 -0.2578 -1.3680
  412TMC3    C7 6209   0.802   3.007  14.395 -0.2100 -0.2874 -0.3118
  412TMC3    C8 6210   0.645   2.953  14.792 -0.9578 -0.4819 -0.6193
  412TMC3    O1 6211   0.690   2.957  14.412 -0.2447 -0.2630  0.2891
  412TMC3    O2 6212   0.620   2.966  14.912  0.7786  0.0726  0.1315
  413MPD2     C 6213   2.339   1.767  15.845 -0.1562 -0.2926 -0.5129
  413MPD2    C1 6214   2.360   1.760  15.712 -0.4130 -0.1301  0.0306
  413MPD2    C2 6215   2.464   1.698  15.660  0.6630  0.1719  0.1156
  413MPD2    C3 6216   2.555   1.639  15.742 -0.0207  0.1516 -1.0906
  413MPD2    C4 6217   2.539   1.644  15.883 -0.5480 -0.3828 -0.3212
  413MPD2    C5 6218   2.427   1.703  15.929  0.1424  0.2437  0.2569
  413MPD2     H 6219   2.467   1.684  15.552  0.4994  0.2841  0.0956
  413MPD2    H1 6220   2.611   1.605  15.954  0.0490  1.7245  0.2254
  413MPD2    H2 6221   2.256   1.824  15.884  0.7311  0.9262 -0.3931
  413MPD2    H3 6222   2.406   1.727  16.033  0.8080  0.7296  0.2815
  413MPD2     N 6223   2.656   1.559  15.679 -0.6416 -0.4565 -0.3602
  413MPD2    H5 6224   2.674   1.572  15.580  1.9397 -2.5961 -0.1593
  413MPD2    N1 6225   2.260   1.814  15.630  0.8061  0.0262 -0.6443
  413MPD2    H7 6226   2.172   1.832  15.679  1.8501 -0.9507  1.5624
  414TMC3    C1 6227   2.835   1.432  15.643  0.1666 -0.0645 -0.0975
  414TMC3    C2 6228   2.842   1.300  15.640  0.0246 -0.6623  0.5004
  414TMC3    C3 6229   2.872   1.234  15.522  0.0236 -0.3347 -0.0958
  414TMC3    C4 6230   2.855   1.500  15.525 -0.6046 -0.0241 -0.3795
  414TMC3    C5 6231   2.877   1.435  15.413  0.1042  0.0824  0.0699
  414TMC3    C6 6232   2.878   1.298  15.402  0.0355  0.0967  0.4394
  414TMC3     C 6233   2.739   1.475  15.739 -0.7538  0.3454 -0.0173
  414TMC3     O 6234   2.733   1.431  15.855 -0.1413  0.1878  0.5563
  414TMC3     H 6235   2.838   1.246  15.734 -1.0949 -1.4359  0.0119
  414TMC3    H1 6236   2.854   1.608  15.527  0.1561 -0.0199  0.0289
  414TMC3    H2 6237   2.921   1.240  15.322 -1.0084  1.9842 -1.4765
  414TMC3    C7 6238   2.964   1.509  15.324 -0.7549 -0.1811 -0.1889
  414TMC3    C8 6239   2.930   1.100  15.531  0.0004  0.3265 -0.1099
  414TMC3    O1 6240   3.018   1.612  15.362 -0.3796 -0.1330  0.5336
  414TMC3    O2 6241   2.917   1.027  15.435  0.5384 -0.2730  0.0719
  415TMC3    C1 6242   3.066   3.922  10.633  0.6182  0.4579 -0.2367
  415TMC3    C2 6243   3.098   4.053  10.622  0.4588 -0.0720 -0.0416
  415TMC3    C3 6244   3.143   4.102  10.502 -0.2382 -0.6785  0.7172
  415TMC3    C4 6245   3.068   3.836  10.522 -0.2700 -0.5403  0.3733
  415TMC3    C5 6246   3.092   3.897  10.401  0.4037 -0.2958  0.4332
  415TMC3    C6 6247   3.126   4.029  10.391 -0.3259 -0.5415 -0.1642
  415TMC3     C 6248   2.982   3.881  10.738  1.2114  0.2162  0.4675
  415TMC3     O 6249   2.958   3.762  10.740 -0.0030 -1.0729  0.4648
  415TMC3     H 6250   3.115   4.105  10.716  0.9424 -1.0830  0.4302
  415TMC3    H1 6251   3.058   3.729  10.534  3.9181 -0.6979  2.4652
  415TMC3    H2 6252   3.138   4.071  10.292  0.6784 -2.8956 -1.0264
  415TMC3    C7 6253   3.081   3.816  10.279 -0.1185 -0.3514  0.3072
  415TMC3    C8 6254   3.161   4.242  10.489  0.4307  0.3082 -1.0343
  415TMC3    O1 6255   3.134   3.875  10.182 -0.4061 -0.0028 -0.3725
  415TMC3    O2 6256   3.124   4.303  10.586  0.3421 -0.4909  0.1914
  416MPD2     C 6257   0.006   3.321  11.859 -0.0462  0.9340 -0.3466
  416MPD2    C1 6258   4.660   3.322  11.749 -0.7146  0.3153 -0.2599
  416MPD2    C2 6259   4.690   3.230  11.646  1.0738  0.3405 -0.1591
  416MPD2    C3 6260   0.060   3.137  11.646 -0.4199  0.0624 -0.0741
  416MPD2    C4 6261   0.135   3.135  11.761 -0.6534  0.4409 -0.4080
  416MPD2    C5 6262   0.107   3.221  11.863  0.4368  1.1514  0.3112
  416MPD2     H 6263   4.627   3.223  11.558  2.5384  1.6777 -1.3076
  416MPD2    H1 6264   0.219   3.066  11.772  0.0335  2.0103  3.9621
  416MPD2    H2 6265   4.720   3.383  11.945 -1.1101 -1.3951  1.0150
  416MPD2    H3 6266   0.163   3.218  11.956  1.1716 -0.4453 -0.1764
  416MPD2     N 6267   0.085   3.054  11.533  0.2355 -0.0495 -0.3308
  416MPD2    H5 6268   0.149   2.976  11.546 -0.8160 -0.6196  1.3500
  416MPD2    N1 6269   4.549   3.407  11.747 -0.5448 -0.3014 -0.4098
  416MPD2    H7 6270   4.523   3.460  11.830  3.2171 -0.7250  1.0558
  417TMC3    C1 6271   4.350   3.507  11.659  1.0197  0.1490 -0.4639
  417TMC3    C2 6272   4.321   3.560  11.783 -0.3087 -0.2727 -0.1854
  417TMC3    C3 6273   4.199   3.629  11.793 -1.0928  0.2124  0.4115
  417TMC3    C4 6274   4.265   3.522  11.553  0.4670  0.3756 -0.6945
  417TMC3    C5 6275   4.151   3.592  11.571 -0.0297 -0.2527 -0.0409
  417TMC3    C6 6276   4.119   3.657  11.687  0.5950  0.5075 -0.4734
  417TMC3     C 6277   4.458   3.422  11.636  0.6552 -0.4832  0.5168
  417TMC3     O 6278   4.469   3.367  11.526 -0.0534 -0.0590 -0.3558
  417TMC3     H 6279   4.398   3.553  11.859  1.3593 -0.9085 -1.9301
  417TMC3    H1 6280   4.285   3.481  11.455 -0.7321 -1.0981 -0.3100
  417TMC3    H2 6281   4.028   3.715  11.698 -0.2407 -0.5370 -2.0228
  417TMC3    C7 6282   4.056   3.600  11.462  0.0773 -0.1034 -0.1152
  417TMC3    C8 6283   4.178   3.678  11.932 -0.0485 -0.2697  0.1858
  417TMC3    O1 6284   3.986   3.705  11.453 -0.3891  0.4216  0.2420
  417TMC3    O2 6285   4.150   3.795  11.948 -0.1189 -0.3102 -0.4837
  418TMC3    C1 6286   3.294   0.396   0.160 -0.8794 -0.2715 -0.1859
  418TMC3    C2 6287   3.154   0.399   0.154 -0.8723  0.3869 -0.3780
  418TMC3    C3 6288   3.084   0.351   0.265  0.8680 -0.1006 -0.5246
  418TMC3    C4 6289   3.359   0.366   0.273 -0.2642 -0.5632 -0.2034
  418TMC3    C5 6290   3.282   0.329   0.380 -0.0755  0.0780 -0.8551
  418TMC3    C6 6291   3.148   0.309   0.380 -0.2519 -0.1304 -0.0468
  418TMC3     C 6292   3.367   0.384   0.031  1.0618 -0.1554 -0.2161
  418TMC3     O 6293   3.320   0.425  17.668  0.5451  0.4564  0.1775
  418TMC3     H 6294   3.106   0.412   0.058  0.4208 -0.6369 -1.1614
  418TMC3    H1 6295   3.464   0.389   0.275  0.1436 -2.5771  1.9726
  418TMC3    H2 6296   3.091   0.279   0.467  1.3834  0.5165  1.2603
  418TMC3    C7 6297   3.347   0.261   0.488 -0.8904 -0.4524  0.1524
  418TMC3    C8 6298   2.956   0.284   0.241  0.7505  0.0248 -0.1544
  418TMC3    O1 6299   3.286   0.174   0.550  0.1145 -0.2356  0.2832
  418TMC3    O2 6300   2.865   0.347   0.192  0.2136 -0.0406 -0.0899
  419MPD2     C 6301   2.437   3.301  12.095 -0.3311 -0.2802  0.2981
  419MPD2    C1 6302   2.302   3.345  12.106 -0.7222 -0.8330  0.0303
  419MPD2    C2 6303   2.240   3.359  12.230 -0.1083 -0.1429  0.0586
  419MPD2    C3 6304   2.311   3.337  12.347 -0.0706  1.2095 -0.8897
  419MPD2    C4 6305   2.447   3.290  12.333  0.4219  0.3580  0.3228
  419MPD2    C5 6306   2.509   3.275  12.205 -0.2863 -0.1770 -0.0670
  419MPD2     H 6307   2.135   3.386  12.233 -0.4011 -1.3823  0.7872
  419MPD2    H1 6308   2.510   3.280  12.421  1.2082 -0.3303 -0.3207
  419MPD2    H2 6309   2.487   3.291  11.999 -0.3545 -0.7602  0.3332
  419MPD2    H3 6310   2.613   3.245  12.208 -0.2556  0.2906  3.0667
  419MPD2     N 6311   2.237   3.365  12.464  0.4800  0.3897  0.2037
  419MPD2    H5 6312   2.151   3.418  12.452  1.1312  1.4109  0.0332
  419MPD2    N1 6313   2.215   3.359  11.995 -0.1380  0.0623  0.3726
  419MPD2    H7 6314   2.118   3.381  12.018  0.1243 -0.1724  1.7014
  420TMC3    C1 6315   2.187   3.416  12.682  0.1088 -0.7058  0.3642
  420TMC3    C2 6316   2.128   3.533  12.651 -0.4550 -0.2321 -0.0670
  420TMC3    C3 6317   2.078   3.616  12.753  0.0510  0.0757  0.4932
  420TMC3    C4 6318   2.193   3.371  12.815 -0.1620  0.1414  0.1215
  420TMC3    C5 6319   2.136   3.450  12.905 -0.0868  0.4320 -0.1085
  420TMC3    C6 6320   2.085   3.570  12.877  0.1322  0.2585  0.2998
  420TMC3     C 6321   2.265   3.336  12.593 -1.1680 -0.3216  0.8121
  420TMC3     O 6322   2.353   3.261  12.635 -0.8277  0.3425  0.5924
  420TMC3     H 6323   2.133   3.574  12.551 -1.9055 -1.9144 -0.8363
  420TMC3    H1 6324   2.241   3.277  12.840 -0.0357  0.4490  1.0354
  420TMC3    H2 6325   2.048   3.639  12.952  0.7947  1.0975 -0.1506
  420TMC3    C7 6326   2.164   3.424  13.045  0.0607  0.8801 -0.4082
  420TMC3    C8 6327   1.979   3.715  12.714  0.0274 -0.2087  0.5778
  420TMC3    O1 6328   2.186   3.305  13.069  0.4495 -0.3172 -0.0278
  420TMC3    O2 6329   1.992   3.760  12.599 -0.2865 -0.0100  0.2249
  421TMC3    C1 6330   3.213   0.100  13.728 -0.1605 -0.5074  0.4082
  421TMC3    C2 6331   3.217   0.232  13.748 -0.2773  0.6443 -0.5848
  421TMC3    C3 6332   3.327   0.284  13.818  0.0434 -0.0837  0.6039
  421TMC3    C4 6333   3.314   0.014  13.784  0.2541 -0.0508  0.8243
  421TMC3    C5 6334   3.424   0.077  13.843  0.3096 -1.0823  0.3593
  421TMC3    C6 6335   3.433   0.208  13.861 -0.1008  0.2996  0.1226
  421TMC3     C 6336   3.111   0.032  13.658  0.3817 -0.4557 -0.5716
  421TMC3     O 6337   3.125   4.647  13.658 -0.5053 -0.0308 -0.5726
  421TMC3     H 6338   3.173   0.297  13.673 -0.1790  0.7282 -0.5708
  421TMC3    H1 6339   3.315   4.644  13.764 -0.1082 -0.2173  1.7015
  421TMC3    H2 6340   3.506   0.259  13.922  1.9390 -1.6533 -0.6981
  421TMC3    C7 6341   3.512   0.010  13.934  0.5671 -0.4173 -0.3512
  421TMC3    C8 6342   3.327   0.420  13.872  0.4029  0.2180 -0.4042
  421TMC3    O1 6343   3.601   0.068  13.993  0.3888 -0.3122  0.4452
  421TMC3    O2 6344   3.421   0.450  13.940  0.1458  0.1796  0.1126
  422TMC3    C1 6345   0.631   1.785  12.470 -0.5421 -0.6590 -0.3914
  422TMC3    C2 6346   0.672   1.806  12.595  0.1593 -0.2815  0.2031
  422TMC3    C3 6347   0.669   1.711  12.688  0.7363  0.1366 -0.4539
  422TMC3    C4 6348   0.618   1.656  12.434  0.0621 -0.2970  0.2688
  422TMC3    C5 6349   0.616   1.557  12.529  0.0023 -0.9176  0.6012
  422TMC3    C6 6350   0.641   1.585  12.655 -0.8705 -0.3194  0.6039
  422TMC3     C 6351   0.713   1.869  12.390 -0.0208 -0.5340  0.3084
  422TMC3     O 6352   0.822   1.824  12.357 -0.5268  0.3343  0.3357
  422TMC3     H 6353   0.697   1.905  12.631 -2.0228 -1.6756  5.4792
  422TMC3    H1 6354   0.595   1.631  12.331  1.9115  1.1230 -0.4756
  422TMC3    H2 6355   0.642   1.499  12.721  1.5273  1.6251  3.0919
  422TMC3    C7 6356   0.505   1.461  12.508 -0.5549 -0.1599 -1.0662
  422TMC3    C8 6357   0.730   1.746  12.822  0.1111  0.9599  0.2565
  422TMC3    O1 6358   0.530   1.379  12.422 -0.6132 -0.0781 -0.8609
  422TMC3    O2 6359   0.758   1.863  12.838 -0.1748 -0.0781 -0.0990
  423MPD2     C 6360   1.402   2.211   0.458 -0.7786 -0.3732 -0.0693
  423MPD2    C1 6361   1.519   2.168   0.508  0.3118 -0.3302 -0.0859
  423MPD2    C2 6362   1.601   2.086   0.434 -0.4931 -0.6745 -0.3088
  423MPD2    C3 6363   1.572   2.054   0.307  0.2928  0.3526  0.6055
  423MPD2    C4 6364   1.455   2.093   0.255 -0.0991 -0.4166 -0.2138
  423MPD2    C5 6365   1.370   2.169   0.331  0.2735 -0.0633 -0.3302
  423MPD2     H 6366   1.697   2.052   0.471  0.8069  0.0351 -3.0353
  423MPD2    H1 6367   1.425   2.081   0.151 -2.9831 -0.2647  0.5920
  423MPD2    H2 6368   1.331   2.278   0.506  0.1474  1.0966 -0.7719
  423MPD2    H3 6369   1.284   2.217   0.285  0.0497  0.2711  0.4319
  423MPD2     N 6370   1.668   1.991   0.219  0.8753  0.3976  0.2643
  423MPD2    H5 6371   1.650   2.011   0.121  2.5854  0.5167 -0.0424
  423MPD2    N1 6372   1.559   2.204   0.641 -0.1534 -1.1797 -0.1753
  423MPD2    H7 6373   1.642   2.157   0.676  0.1174 -0.9738 -0.5382
  424TMC3    C1 6374   1.549   2.291   0.858 -0.3309  0.0429 -0.4361
  424TMC3    C2 6375   1.685   2.296   0.868  0.1777 -0.3795 -0.6830
  424TMC3    C3 6376   1.737   2.353   0.977 -0.2488  0.3553 -0.2914
  424TMC3    C4 6377   1.475   2.351   0.948 -0.2614 -0.5183  0.2732
  424TMC3    C5 6378   1.526   2.408   1.064 -0.2345 -0.6748  0.2611
  424TMC3    C6 6379   1.661   2.406   1.076  0.1748 -0.2093  0.0555
  424TMC3     C 6380   1.494   2.291   0.723 -0.6006 -0.2260  0.8151
  424TMC3     O 6381   1.393   2.352   0.708 -0.1213 -0.0827  0.2216
  424TMC3     H 6382   1.745   2.247   0.793 -1.4214 -1.5068 -1.2197
  424TMC3    H1 6383   1.369   2.333   0.935 -0.4659  0.0939  1.1192
  424TMC3    H2 6384   1.703   2.444   1.168  0.0592 -0.1777  0.0945
  424TMC3    C7 6385   1.446   2.411   1.185 -0.0687 -0.2713  0.4605
  424TMC3    C8 6386   1.864   2.285   1.019 -0.0533 -0.0666  0.4267
  424TMC3    O1 6387   1.509   2.387   1.289 -0.7231 -0.0519  0.7039
  424TMC3    O2 6388   1.887   2.177   0.972  0.6708  0.4745  0.1884
  425MPD2     C 6389   1.160   1.718  17.155 -0.1617  0.1804 -0.6169
  425MPD2    C1 6390   1.172   1.627  17.254  0.2710  0.0571 -0.9764
  425MPD2    C2 6391   1.097   1.654  17.369  0.5945  0.0939 -0.2575
  425MPD2    C3 6392   1.024   1.775  17.401  0.2031 -0.1600 -0.0950
  425MPD2    C4 6393   1.023   1.868  17.297  0.5719 -0.0371  0.1791
  425MPD2    C5 6394   1.090   1.837  17.179 -0.7111 -0.1757  0.2892
  425MPD2     H 6395   1.100   1.588  17.455  0.1792  0.8003  0.2989
  425MPD2    H1 6396   0.986   1.969  17.310 -4.4283 -2.0309  1.4898
  425MPD2    H2 6397   1.225   1.706  17.069  2.1967  1.9208  0.9105
  425MPD2    H3 6398   1.089   1.915  17.103 -2.5517 -0.2421  0.2526
  425MPD2     N 6399   0.944   1.788  17.519  0.2059  0.6163 -0.5800
  425MPD2    H5 6400   0.957   1.710  17.582  2.4053  0.3770 -1.3035
  425MPD2    N1 6401   1.235   1.507  17.224 -0.2561  0.0575  0.0196
  425MPD2    H7 6402   1.264   1.486  17.129  1.4945 -0.9983  0.7860
  426TMC3    C1 6403   1.278   1.275  17.264 -0.3246 -0.2926 -0.3197
  426TMC3    C2 6404   1.292   1.246  17.132  0.3626 -0.2904 -0.2990
  426TMC3    C3 6405   1.289   1.111  17.091 -0.0367  0.3159 -0.6142
  426TMC3    C4 6406   1.264   1.173  17.357 -0.9670 -0.7612  0.1842
  426TMC3    C5 6407   1.262   1.043  17.312 -0.4709 -0.7861  0.5541
  426TMC3    C6 6408   1.282   1.009  17.182 -0.1504 -0.2664  0.6369
  426TMC3     C 6409   1.259   1.408  17.320  0.5731 -0.6803  0.3243
  426TMC3     O 6410   1.278   1.427  17.442 -0.4286 -0.5289  0.4607
  426TMC3     H 6411   1.302   1.324  17.056  0.6837 -0.5446 -0.5208
  426TMC3    H1 6412   1.253   1.198  17.462 -2.7756 -2.1015  0.3214
  426TMC3    H2 6413   1.282   0.906  17.149 -1.5067  0.0846 -0.4797
  426TMC3    C7 6414   1.215   0.936  17.394  0.6229 -0.0585  0.2912
  426TMC3    C8 6415   1.291   1.072  16.953  0.1300  0.3795 -0.3215
  426TMC3    O1 6416   1.235   0.820  17.351 -0.4814  0.1734  0.4707
  426TMC3    O2 6417   1.331   0.960  16.928  0.0398 -0.0422 -0.6337
  427MPD2     C 6418   0.311   3.648  14.886 -0.2593 -0.5827  0.2061
  427MPD2    C1 6419   0.261   3.562  14.980  0.0549  0.6329  0.2766
  427MPD2    C2 6420   0.125   3.551  14.984  0.6714 -0.3290 -0.3233
  427MPD2    C3 6421   0.037   3.614  14.893  0.0696 -0.0883  0.3984
  427MPD2    C4 6422   0.093   3.705  14.813  0.1137  0.5980  0.5698
  427MPD2    C5 6423   0.227   3.726  14.816  0.6537  0.0799 -0.0159
  427MPD2     H 6424   0.091   3.478  15.055  0.7027 -0.9889 -0.9890
  427MPD2    H1 6425   0.039   3.767  14.743  4.2552  2.0443 -1.3398
  427MPD2    H2 6426   0.419   3.652  14.879 -0.2557 -0.0563  0.6659
  427MPD2    H3 6427   0.269   3.813  14.766  0.9742  0.8842  1.6540
  427MPD2     N 6428   4.631   3.589  14.893  0.0969 -0.2235 -0.6884
  427MPD2    H5 6429   4.576   3.656  14.840 -0.5743 -0.7397 -0.6494
  427MPD2    N1 6430   0.333   3.495  15.073  0.3815 -0.4546 -0.0021
  427MPD2    H7 6431   0.273   3.440  15.133 -0.3963  0.0981 -0.2807
  428TMC3    C1 6432   0.504   3.424  15.214  0.5160  0.1104 -0.1543
  428TMC3    C2 6433   0.425   3.331  15.277  0.6633  0.6004  0.1372
  428TMC3    C3 6434   0.477   3.241  15.367  0.3250  0.7826 -0.7041
  428TMC3    C4 6435   0.636   3.436  15.255  0.1098 -0.3343  0.2216
  428TMC3    C5 6436   0.688   3.343  15.348  0.0162 -0.3922  0.2107
  428TMC3    C6 6437   0.608   3.246  15.398  0.5394  0.0069 -0.9963
  428TMC3     C 6438   0.466   3.506  15.099 -0.0013 -0.1492  0.0028
  428TMC3     O 6439   0.555   3.562  15.031  0.6566 -0.2292 -0.2557
  428TMC3     H 6440   0.320   3.324  15.251  0.7571  2.1299 -0.6392
  428TMC3    H1 6441   0.697   3.520  15.223 -1.4651  0.4617 -0.7024
  428TMC3    H2 6442   0.644   3.178  15.474 -0.8420  1.8576  1.3032
  428TMC3    C7 6443   0.785   3.384  15.451  0.6556  0.4374 -0.6448
  428TMC3    C8 6444   0.387   3.165  15.448  0.2440  0.0854 -0.4413
  428TMC3    O1 6445   0.748   3.376  15.566 -0.7448  0.1417 -0.2300
  428TMC3    O2 6446   0.275   3.141  15.408  0.0510  0.0362 -0.0308
  429MPD2     C 6447   0.800   3.459   0.060  0.0234  0.5908 -0.5153
  429MPD2    C1 6448   0.922   3.390   0.047  1.0674 -0.4839 -0.2498
  429MPD2    C2 6449   1.027   3.453  17.720  0.1050 -0.0506  0.2622
  429MPD2    C3 6450   1.013   3.579  17.664 -0.2073  0.0967 -0.4008
  429MPD2    C4 6451   0.894   3.641  17.682  0.0819  0.4298  0.2855
  429MPD2    C5 6452   0.789   3.581   0.002 -0.9430  0.4228  0.1933
  429MPD2     H 6453   1.122   3.401  17.722 -0.5059 -1.2824 -2.7394
  429MPD2    H1 6454   0.874   3.741  17.645 -0.3411  0.4314  0.5157
  429MPD2    H2 6455   0.708   3.415   0.097  0.3131  1.1105  0.7905
  429MPD2    H3 6456   0.696   3.635   0.002 -0.8586  0.5698  0.2803
  429MPD2     N 6457   1.125   3.641  17.609 -0.2109 -0.2162  0.2580
  429MPD2    H5 6458   1.213   3.592  17.616  0.0704  0.1108 -1.0317
  429MPD2    N1 6459   0.942   3.260   0.096  0.0507 -0.3514  0.3017
  429MPD2    H7 6460   1.035   3.219   0.103  0.0047 -0.5184 -0.0902
  430TMC3    C1 6461   1.263   3.769  17.475 -0.1899 -0.7881  0.4192
  430TMC3    C2 6462   1.301   3.892  17.428  0.8341 -0.0974 -0.4665
  430TMC3    C3 6463   1.408   3.907  17.349 -0.3866  0.7831  0.4008
  430TMC3    C4 6464   1.336   3.651  17.455  0.5274  0.3223 -0.9667
  430TMC3    C5 6465   1.452   3.670  17.382 -0.2108 -0.5337 -0.2747
  430TMC3    C6 6466   1.487   3.796  17.336 -0.6143 -0.1563  0.6806
  430TMC3     C 6467   1.129   3.757  17.528 -0.2959  0.1792  0.1639
  430TMC3     O 6468   1.046   3.833  17.479 -0.3774 -0.1278  0.6622
  430TMC3     H 6469   1.231   3.973  17.441  1.5325 -0.0259  3.0873
  430TMC3    H1 6470   1.307   3.547  17.467 -0.6583  0.9597  1.5127
  430TMC3    H2 6471   1.571   3.804  17.267 -0.5275 -0.7857  0.7197
  430TMC3    C7 6472   1.503   3.551  17.321  0.9150 -0.0389  0.6803
  430TMC3    C8 6473   1.386   3.962  17.216  0.4295 -0.1316  0.7412
  430TMC3    O1 6474   1.488   3.444  17.381  0.3665  0.6481 -0.2571
  430TMC3    O2 6475   1.418   3.892  17.116  0.2463 -0.2113 -0.3070
  431MPD2     C 6476   1.791   3.821  12.287 -0.1812  0.3584  0.0178
  431MPD2    C1 6477   1.896   3.872  12.217 -0.3130  0.0813 -0.1390
  431MPD2    C2 6478   1.929   3.820  12.094  0.4866  0.4232  0.0098
  431MPD2    C3 6479   1.867   3.698  12.049 -0.1194 -0.8827 -0.0276
  431MPD2    C4 6480   1.772   3.647  12.122  0.8148 -0.1018 -0.1156
  431MPD2    C5 6481   1.732   3.705  12.245 -0.0130  0.7108 -0.1020
  431MPD2     H 6482   2.011   3.867  12.041  0.6793 -0.8860 -0.8472
  431MPD2    H1 6483   1.706   3.563  12.102 -0.9460  1.3207 -0.2160
  431MPD2    H2 6484   1.751   3.871  12.375 -0.1344  1.6954 -0.7267
  431MPD2    H3 6485   1.647   3.669  12.300 -0.0789 -0.1126 -0.7375
  431MPD2     N 6486   1.902   3.633  11.929  0.9587  0.4931 -0.2247
  431MPD2    H5 6487   1.846   3.551  11.909 -2.2416  2.2590  1.5134
  431MPD2    N1 6488   1.972   3.985  12.254 -0.5386 -0.2925 -0.2782
  431MPD2    H7 6489   2.056   4.004  12.199 -2.2458 -0.0577 -2.7974
  432TMC3    C1 6490   2.025   3.563  11.744  0.1210  0.7134 -0.4847
  432TMC3    C2 6491   2.089   3.603  11.632  0.7218  0.8981  0.6444
  432TMC3    C3 6492   2.196   3.525  11.588 -0.8879 -0.3232  1.0691
  432TMC3    C4 6493   2.046   3.442  11.802  0.4726 -0.1471  0.0449
  432TMC3    C5 6494   2.153   3.370  11.757 -0.4175  0.5124 -0.9316
  432TMC3    C6 6495   2.222   3.398  11.640  0.2467 -0.5087 -0.3408
  432TMC3     C 6496   2.001   3.667  11.840 -0.0449 -0.1537 -1.6913
  432TMC3     O 6497   2.066   3.771  11.826  0.0235  0.3197  0.4299
  432TMC3     H 6498   2.078   3.702  11.591  1.8022  0.5734 -0.4165
  432TMC3    H1 6499   1.977   3.393  11.870 -1.2138  1.2319 -0.6761
  432TMC3    H2 6500   2.307   3.339  11.606 -0.7175 -1.8230 -0.4887
  432TMC3    C7 6501   2.251   3.343  11.862  0.2441 -0.4246 -0.9154
  432TMC3    C8 6502   2.304   3.590  11.514 -0.2463 -0.3623 -0.4970
  432TMC3    O1 6503   2.364   3.316  11.823  0.0450 -0.1965  0.3669
  432TMC3    O2 6504   2.287   3.685  11.435  0.0123 -0.0176  0.5300
  433MPD2     C 6505   0.688   2.141  11.150  0.1327 -0.8878 -0.2374
  433MPD2    C1 6506   0.783   2.092  11.228  0.1357 -0.4350  0.2122
  433MPD2    C2 6507   0.834   2.167  11.333  0.2606 -0.3205  0.0007
  433MPD2    C3 6508   0.787   2.301  11.351  0.4372  0.2658  0.2577
  433MPD2    C4 6509   0.693   2.348  11.266 -0.1236 -0.5043  0.1597
  433MPD2    C5 6510   0.641   2.271  11.160  0.4282  0.4286 -0.3653
  433MPD2     H 6511   0.912   2.125  11.397 -0.5516 -1.7851  0.0195
  433MPD2    H1 6512   0.650   2.447  11.278  2.2836  1.0119 -3.5957
  433MPD2    H2 6513   0.636   2.086  11.072 -1.8474 -1.3648  1.3954
  433MPD2    H3 6514   0.569   2.321  11.097 -0.3599 -0.5449 -0.2260
  433MPD2     N 6515   0.842   2.384  11.450 -0.5624 -0.1951  0.0628
  433MPD2    H5 6516   0.915   2.342  11.506 -0.3602  0.8576  0.5875
  433MPD2    N1 6517   0.836   1.964  11.192  0.6711 -0.0503  0.5376
  433MPD2    H7 6518   0.828   1.931  11.096  0.0476 -0.2932  0.6742
  434TMC3    C1 6519   1.000   1.802  11.218  0.0033  0.7046 -0.2920
  434TMC3    C2 6520   1.070   1.735  11.314  0.4304  0.2810  0.0208
  434TMC3    C3 6521   1.204   1.726  11.297  0.9771 -0.8691  0.5645
  434TMC3    C4 6522   1.062   1.850  11.109  0.8054 -0.3352  0.0397
  434TMC3    C5 6523   1.199   1.825  11.089  0.0595 -0.0878  0.6477
  434TMC3    C6 6524   1.276   1.770  11.187  0.0972  0.9151 -0.5161
  434TMC3     C 6525   0.920   1.896  11.282  0.7337  0.1124  0.5884
  434TMC3     O 6526   0.925   1.901  11.406 -0.7166  0.0101  0.1682
  434TMC3     H 6527   1.014   1.691  11.395  0.5147 -0.9189 -0.5715
  434TMC3    H1 6528   1.008   1.905  11.033  2.1243 -0.2484 -0.8264
  434TMC3    H2 6529   1.381   1.746  11.189  0.0137  0.5101 -1.0922
  434TMC3    C7 6530   1.228   1.749  10.965  0.1586 -0.1981 -0.0652
  434TMC3    C8 6531   1.275   1.674  11.411  0.0082 -0.3529  0.3078
  434TMC3    O1 6532   1.323   1.674  10.978 -0.3977  0.7565  0.1089
  434TMC3    O2 6533   1.389   1.712  11.434  1.1737  0.7523  0.3031
  435MPD2     C 6534   3.065   2.287  15.548  0.5660 -0.3375 -0.1179
  435MPD2    C1 6535   2.953   2.245  15.625  0.1007  0.9552 -0.5189
  435MPD2    C2 6536   2.981   2.186  15.746  0.1299  0.3093  0.2398
  435MPD2    C3 6537   3.109   2.169  15.805 -0.4475  1.2823  0.7614
  435MPD2    C4 6538   3.215   2.208  15.719  0.2938  0.1703  0.2775
  435MPD2    C5 6539   3.189   2.272  15.599 -0.3176  0.4675  0.6171
  435MPD2     H 6540   2.891   2.156  15.797  1.1221 -1.6233  0.8449
  435MPD2    H1 6541   3.317   2.200  15.757  0.3586  2.3389  0.5248
  435MPD2    H2 6542   3.055   2.347  15.459 -2.1577  1.0778  1.1419
  435MPD2    H3 6543   3.269   2.322  15.547  0.5179  0.0913  1.5281
  435MPD2     N 6544   3.116   2.110  15.932 -0.6980  0.1025 -0.0080
  435MPD2    H5 6545   3.030   2.081  15.978 -0.6278  0.3538  0.2810
  435MPD2    N1 6546   2.819   2.255  15.583  0.1574 -0.0621 -0.1880
  435MPD2    H7 6547   2.755   2.206  15.645  0.0524  0.0140 -0.2381
  436TMC3    C1 6548   2.415   2.308  15.562  0.0234  0.7039  0.3703
  436TMC3    C2 6549   2.550   2.313  15.580  0.3390  0.0499  0.4014
  436TMC3    C3 6550   2.626   2.301  15.467  0.3148 -0.3053  0.0747
  436TMC3    C4 6551   2.362   2.283  15.439  0.2190  0.3948  0.3138
  436TMC3    C5 6552   2.439   2.267  15.331 -0.2259  0.4130  0.0550
  436TMC3    C6 6553   2.577   2.286  15.341 -0.4911 -0.0689  0.0323
  436TMC3     C 6554   2.334   2.255  15.666  0.8981 -0.0423  0.1507
  436TMC3     O 6555   2.230   2.193  15.638  0.1770  0.0966  0.2492
  436TMC3     H 6556   2.589   2.326  15.681 -0.8483  0.9630  0.7378
  436TMC3    H1 6557   2.256   2.273  15.418  0.0899 -0.8778  1.5815
  436TMC3    H2 6558   2.641   2.265  15.256 -0.4330  0.7600 -0.1354
  436TMC3    C7 6559   2.392   2.181  15.226 -0.0745  0.4235  0.1753
  436TMC3    C8 6560   2.765   2.321  15.470 -0.4189  0.0025  0.0601
  436TMC3    O1 6561   2.287   2.204  15.175 -0.0538  0.1126 -0.3271
  436TMC3    O2 6562   2.826   2.398  15.397 -0.0071  1.0516  0.5138
  437TMC3    C1 6563   1.268   4.217  13.115 -0.0286 -0.3362  0.8852
  437TMC3    C2 6564   1.154   4.246  13.183  0.5995  0.1551  0.6329
  437TMC3    C3 6565   1.104   4.375  13.174 -0.8984 -0.6127 -0.1027
  437TMC3    C4 6566   1.339   4.314  13.044  0.3695  0.2600  0.1593
  437TMC3    C5 6567   1.285   4.440  13.032 -0.2118 -1.1712 -0.2834
  437TMC3    C6 6568   1.173   4.474  13.103 -0.0657  0.1695 -0.2902
  437TMC3     C 6569   1.339   4.097  13.145 -0.3364  0.3471 -0.3768
  437TMC3     O 6570   1.426   4.056  13.065 -0.2965  0.3879  0.0418
  437TMC3     H 6571   1.090   4.166  13.220 -0.3447  0.1210 -1.1105
  437TMC3    H1 6572   1.417   4.286  12.974  0.0343 -1.9080  0.6536
  437TMC3    H2 6573   1.141   4.578  13.096  0.4382  0.4144  0.9892
  437TMC3    C7 6574   1.347   4.540  12.940 -0.0895  0.6514 -0.3342
  437TMC3    C8 6575   0.987   4.411  13.254  0.1354  0.4713  0.5604
  437TMC3    O1 6576   1.283   4.637  12.908 -0.1639  0.1554 -0.1889
  437TMC3    O2 6577   0.905   4.321  13.254  0.0155  0.3455  0.0868
  438MPD2     C 6578   3.845   0.378  16.321  1.3299  0.9727  0.0022
  438MPD2    C1 6579   3.909   0.298  16.412  0.0859 -0.5774 -0.5461
  438MPD2    C2 6580   3.857   0.287  16.543  0.2431 -0.9419  0.1529
  438MPD2    C3 6581   3.756   0.377  16.586  0.8882 -0.2259 -0.1404
  438MPD2    C4 6582   3.714   0.472  16.495  0.5138 -0.1136 -0.5556
  438MPD2    C5 6583   3.757   0.472  16.367  0.5223 -0.0847  0.2863
  438MPD2     H 6584   3.895   0.207  16.605  3.1937 -0.3566 -0.9198
  438MPD2    H1 6585   3.638   0.543  16.526 -0.4652 -0.8371 -1.2875
  438MPD2    H2 6586   3.877   0.371  16.218 -0.3431 -1.2757 -0.3468
  438MPD2    H3 6587   3.728   0.553  16.301  1.9049 -0.5875 -0.9580
  438MPD2     N 6588   3.697   0.378  16.714 -0.0047 -0.3854 -0.6476
  438MPD2    H5 6589   3.616   0.437  16.728  0.2138 -0.4333  0.8162
  438MPD2    N1 6590   4.000   0.197  16.369 -0.0803 -0.1046 -0.7396
  438MPD2    H7 6591   4.049   0.141  16.439  0.6303  1.4140 -0.0268
  439TMC3    C1 6592   4.149   0.080  16.246 -0.5255  0.5429  0.2377
  439TMC3    C2 6593   4.168   4.736  16.136  0.3207  0.2286  0.7536
  439TMC3    C3 6594   4.236   4.613  16.150  0.4158  0.2641 -0.1307
  439TMC3    C4 6595   4.212   0.056  16.357 -0.2084  0.0685  0.0333
  439TMC3    C5 6596   4.276   4.671  16.367  0.0378 -0.0593 -0.1033
  439TMC3    C6 6597   4.292   4.579  16.272  0.3063 -0.1467  0.2500
  439TMC3     C 6598   4.053   0.181  16.238 -0.0073  0.2151  0.3335
  439TMC3     O 6599   4.018   0.220  16.133  0.2615 -0.0447 -0.3416
  439TMC3     H 6600   4.104   0.020  16.050  1.2523 -1.7768 -0.4258
  439TMC3    H1 6601   4.216   0.118  16.445 -1.8356  1.0676 -0.6065
  439TMC3    H2 6602   4.329   4.482  16.303  0.5891  0.1987  1.0125
  439TMC3    C7 6603   4.359   4.661  16.490  0.2080 -0.1095 -0.3835
  439TMC3    C8 6604   4.307   4.545  16.042 -0.3542  0.3596  0.4446
  439TMC3    O1 6605   4.328   4.582  16.577  0.1380  0.5800  0.7195
  439TMC3    O2 6606   4.361   4.436  16.072  0.0821  0.2701  0.8954
  440MPD2     C 6607   2.521   0.494  15.154  0.3402  0.8957  0.0192
  440MPD2    C1 6608   2.611   0.570  15.230 -0.2583  0.0680  0.4854
  440MPD2    C2 6609   2.749   0.556  15.212 -0.0287 -0.9749  0.5371
  440MPD2    C3 6610   2.806   0.461  15.130  0.4317  0.1709  0.0536
  440MPD2    C4 6611   2.716   0.384  15.065 -0.1336  0.4001 -0.0119
  440MPD2    C5 6612   2.578   0.398  15.076  0.2384 -0.1221  0.3436
  440MPD2     H 6613   2.805   0.625  15.274 -3.4272  2.8845 -0.7401
  440MPD2    H1 6614   2.755   0.319  14.987 -1.2189 -1.1457  0.7256
  440MPD2    H2 6615   2.413   0.509  15.151  0.4084  1.7805  2.3693
  440MPD2    H3 6616   2.519   0.329  15.016  0.2879  0.2164 -0.0942
  440MPD2     N 6617   2.945   0.439  15.126  0.4635  0.2563  0.1347
  440MPD2    H5 6618   2.976   0.363  15.067 -0.8539  2.3542 -3.2972
  440MPD2    N1 6619   2.570   0.671  15.317 -0.5437  0.6418  0.7171
  440MPD2    H7 6620   2.646   0.722  15.360 -0.0140 -0.5256  1.1572
  441TMC3    C1 6621   3.170   0.489  15.151  0.3273  0.0684 -0.2829
  441TMC3    C2 6622   3.249   0.594  15.177 -0.9353 -0.1594 -0.4700
  441TMC3    C3 6623   3.359   0.584  15.249  0.1214  0.9836  0.1719
  441TMC3    C4 6624   3.208   0.368  15.206 -0.7114 -0.1297 -0.6429
  441TMC3    C5 6625   3.326   0.349  15.272 -0.4451 -0.0845 -0.1780
  441TMC3    C6 6626   3.406   0.465  15.291 -0.2689 -1.0559 -0.4819
  441TMC3     C 6627   3.035   0.508  15.201  0.0281  0.1709 -0.0944
  441TMC3     O 6628   3.022   0.595  15.287  0.4618 -0.1709  0.1917
  441TMC3     H 6629   3.216   0.690  15.139 -1.6577 -0.7939 -1.4501
  441TMC3    H1 6630   3.139   0.285  15.214 -1.4268  0.4925 -0.2614
  441TMC3    H2 6631   3.485   0.467  15.365 -0.5356  0.5850 -0.2454
  441TMC3    C7 6632   3.334   0.249  15.373 -0.7453 -0.4397 -0.2435
  441TMC3    C8 6633   3.396   0.688  15.336 -0.1228 -0.5919  0.3515
  441TMC3    O1 6634   3.233   0.188  15.409 -0.0681  0.1471  0.7469
  441TMC3    O2 6635   3.513   0.707  15.366  0.3260 -0.0571 -0.4315
  442MPD2     C 6636   0.868   1.061  16.610 -0.3415 -0.3633 -0.2715
  442MPD2    C1 6637   0.828   0.960  16.688 -0.1366 -0.0343  0.3437
  442MPD2    C2 6638   0.834   0.832  16.640  0.1581 -0.5264 -0.4107
  442MPD2    C3 6639   0.889   0.806  16.517 -0.6978 -0.2990  0.6782
  442MPD2    C4 6640   0.920   0.913  16.436  0.2093 -0.4576  0.4064
  442MPD2    C5 6641   0.919   1.039  16.488 -0.3891 -0.6124  0.0104
  442MPD2     H 6642   0.791   0.745  16.689  1.4500 -2.3384 -2.4672
  442MPD2    H1 6643   0.949   0.901  16.332 -1.2520  0.0863 -0.0688
  442MPD2    H2 6644   0.850   1.166  16.632  2.5275  0.3273 -1.2465
  442MPD2    H3 6645   0.937   1.127  16.428 -0.9503 -3.5709 -4.5433
  442MPD2     N 6646   0.871   0.680  16.449 -0.0791 -0.3224 -0.6162
  442MPD2    H5 6647   0.882   0.679  16.348  0.9632 -0.8883 -0.4871
  442MPD2    N1 6648   0.772   0.978  16.820 -0.6526 -0.2195  0.2454
  442MPD2    H7 6649   0.742   0.897  16.872 -0.1026  0.1240  1.1013
  443TMC3    C1 6650   0.686   1.089  17.005 -0.0232  0.0053  0.3685
  443TMC3    C2 6651   0.632   1.207  17.049 -1.0171 -0.1275  0.8472
  443TMC3    C3 6652   0.504   1.213  17.104 -0.0225  0.2633 -0.0382
  443TMC3    C4 6653   0.617   0.973  17.039  0.0005 -0.6806  0.0722
  443TMC3    C5 6654   0.504   0.978  17.116  0.3607  0.2137 -0.9149
  443TMC3    C6 6655   0.441   1.096  17.146 -0.2026  0.6739  0.5387
  443TMC3     C 6656   0.765   1.099  16.886 -0.1171 -0.7453  0.1155
  443TMC3     O 6657   0.834   1.200  16.861 -0.2416 -0.7996  0.1849
  443TMC3     H 6658   0.677   1.297  17.008 -1.0008 -0.4759  0.0913
  443TMC3    H1 6659   0.655   0.877  17.005  2.1438  0.7500 -1.5993
  443TMC3    H2 6660   0.345   1.099  17.196 -1.7314 -1.0911 -2.2269
  443TMC3    C7 6661   0.450   0.860  17.177 -0.0820 -0.2509  0.0211
  443TMC3    C8 6662   0.421   1.334  17.118  0.5148  0.2888  0.7515
  443TMC3    O1 6663   0.469   0.757  17.113  0.1113  0.5484 -0.0129
  443TMC3    O2 6664   0.357   1.335  17.224  0.4018  0.4854 -0.6022
  444MPD2     C 6665   0.935   0.841  17.112 -0.4471  0.0058 -0.0451
  444MPD2    C1 6666   0.914   0.719  17.176 -0.4646  0.5184 -0.3282
  444MPD2    C2 6667   0.969   0.601  17.125  0.0988  0.0785  0.0648
  444MPD2    C3 6668   1.045   0.601  17.008  0.7685 -0.3387 -1.0444
  444MPD2    C4 6669   1.062   0.723  16.943  0.5978 -0.0955  0.3795
  444MPD2    C5 6670   1.014   0.838  17.001 -0.2464  0.3597 -0.5751
  444MPD2     H 6671   0.958   0.507  17.177  2.2956 -0.4627 -0.4302
  444MPD2    H1 6672   1.122   0.738  16.854  2.0598 -0.2650  1.3343
  444MPD2    H2 6673   0.896   0.938  17.137  0.3118 -0.1027  1.5992
  444MPD2    H3 6674   1.039   0.929  16.948  0.4855  0.8198  0.5720
  444MPD2     N 6675   1.098   0.476  16.970  0.0236  0.2358  0.3610
  444MPD2    H5 6676   1.064   0.393  17.018  0.0519 -0.6897 -1.2067
  444MPD2    N1 6677   0.832   0.700  17.293 -0.8437 -0.2392  0.0800
  444MPD2    H7 6678   0.811   0.606  17.322 -0.6900  0.0835  1.2363
  445TMC3    C1 6679   1.224   0.330  16.835  0.1334  0.6816  0.0024
  445TMC3    C2 6680   1.129   0.230  16.845  0.3026  0.0604 -0.0461
  445TMC3    C3 6681   1.146   0.121  16.772  0.3984 -0.0834  0.1151
  445TMC3    C4 6682   1.336   0.325  16.755  0.8958  1.1628 -0.0472
  445TMC3    C5 6683   1.348   0.212  16.683 -0.0634  0.5645 -0.5868
  445TMC3    C6 6684   1.257   0.110  16.691 -0.0911 -0.0960  0.1425
  445TMC3     C 6685   1.196   0.467  16.876 -0.5885  0.1792 -0.1694
  445TMC3     O 6686   1.271   0.548  16.828  0.2840  0.0345  0.1641
  445TMC3     H 6687   1.036   0.244  16.899  0.8150 -0.3348  0.9258
  445TMC3    H1 6688   1.408   0.404  16.739 -1.0440  2.8086 -0.7549
  445TMC3    H2 6689   1.265   0.011  16.646 -3.7257 -0.8473  1.1325
  445TMC3    C7 6690   1.459   0.187  16.589 -0.6216 -0.3271  0.3547
  445TMC3    C8 6691   1.053   0.009  16.768  0.3243 -0.3192  0.8082
  445TMC3    O1 6692   1.568   0.229  16.627 -0.6141  0.6304  0.1228
  445TMC3    O2 6693   1.041   4.687  16.659 -0.5026 -0.4120  0.0060
  446MPD2     C 6694   0.897   1.563  11.874  0.3527 -0.8859 -0.6612
  446MPD2    C1 6695   0.849   1.592  11.749 -0.3955 -0.0521  0.4506
  446MPD2    C2 6696   0.915   1.696  11.684 -0.2430 -0.4037 -0.5012
  446MPD2    C3 6697   1.021   1.762  11.751 -0.9011 -0.7799  0.0581
  446MPD2    C4 6698   1.062   1.721  11.874 -0.1851 -0.2520  0.0144
  446MPD2    C5 6699   1.002   1.622  11.937 -0.2463 -0.4753  0.0755
  446MPD2     H 6700   0.885   1.727  11.585 -1.5603 -2.1474 -0.6442
  446MPD2    H1 6701   1.136   1.765  11.940  0.3835  0.6896 -1.2678
  446MPD2    H2 6702   0.841   1.492  11.934 -0.5008  1.7458  1.6360
  446MPD2    H3 6703   1.035   1.577  12.030  0.2014  0.4620  0.3710
  446MPD2     N 6704   1.086   1.869  11.686  0.2526 -0.1763 -0.0352
  446MPD2    H5 6705   1.057   1.888  11.590 -1.1545  0.3248  0.4861
  446MPD2    N1 6706   0.738   1.521  11.693  0.4427  0.3239 -0.4689
  446MPD2    H7 6707   0.673   1.564  11.628 -1.4397 -0.1500  1.1105
  447TMC3    C1 6708   1.254   2.026  11.653  0.5174  0.3962  0.5848
  447TMC3    C2 6709   1.186   2.079  11.545 -0.4432  0.4883  0.1699
  447TMC3    C3 6710   1.260   2.153  11.460 -0.0206 -0.3341 -0.2076
  447TMC3    C4 6711   1.389   2.039  11.674  0.0912 -0.4093 -0.2935
  447TMC3    C5 6712   1.456   2.105  11.572  0.3655  0.2913  0.0057
  447TMC3    C6 6713   1.395   2.161  11.462  0.4343 -0.0133  0.7712
  447TMC3     C 6714   1.185   1.947  11.744  0.1040 -0.2032 -0.4174
  447TMC3     O 6715   1.229   1.954  11.857 -0.5103  0.2052  0.5478
  447TMC3     H 6716   1.081   2.080  11.518 -0.9660 -1.1304  2.1305
  447TMC3    H1 6717   1.439   1.984  11.753 -0.6090 -0.3967  0.1528
  447TMC3    H2 6718   1.449   2.215  11.385 -0.1528 -0.5696 -0.0280
  447TMC3    C7 6719   1.591   2.088  11.565 -0.2632  0.5360  0.5837
  447TMC3    C8 6720   1.196   2.205  11.344 -0.0695 -0.3744 -0.5538
  447TMC3    O1 6721   1.643   2.070  11.453  0.5610  0.0126 -0.0925
  447TMC3    O2 6722   1.102   2.280  11.358 -0.8805 -0.5985 -0.2405
  448TMC3    C1 6723   3.647   1.239  17.480 -0.3143 -0.3937  0.8652
  448TMC3    C2 6724   3.661   1.179  17.354 -0.0553  0.3694 -0.2149
  448TMC3    C3 6725   3.784   1.136  17.317  0.5233  0.2177  0.1604
  448TMC3    C4 6726   3.757   1.248  17.565  0.2063 -0.0817 -0.4858
  448TMC3    C5 6727   3.877   1.196  17.523 -0.1485  0.0657 -0.0001
  448TMC3    C6 6728   3.897   1.142  17.395  0.0274 -0.0088 -0.3261
  448TMC3     C 6729   3.522   1.314  17.517 -0.3274 -0.1382 -0.4865
  448TMC3     O 6730   3.529   1.385  17.617  0.0063  0.2775 -0.7776
  448TMC3     H 6731   3.577   1.170  17.285 -0.8199  0.0581  0.7583
  448TMC3    H1 6732   3.746   1.289  17.664 -0.0011 -1.5258  0.0916
  448TMC3    H2 6733   3.995   1.107  17.365  0.5945  0.1046  1.3677
  448TMC3    C7 6734   3.987   1.207  17.614  0.8149  0.1381  0.4653
  448TMC3    C8 6735   3.821   1.107  17.177 -0.8043  0.1032 -0.2145
  448TMC3    O1 6736   4.095   1.243  17.566 -0.1570 -0.2184  0.3515
  448TMC3    O2 6737   3.917   1.036  17.167  0.6988  0.1331  0.3423
  449MPD2     C 6738   0.833   4.243  13.862  0.6812  0.4627  0.2179
  449MPD2    C1 6739   0.757   4.350  13.893  0.2038  0.5879 -0.2311
  449MPD2    C2 6740   0.623   4.322  13.899 -0.3542  0.0370  0.1858
  449MPD2    C3 6741   0.559   4.199  13.865  0.3911  0.0172 -0.1309
  449MPD2    C4 6742   0.642   4.097  13.830  0.6007 -0.0889 -0.0829
  449MPD2    C5 6743   0.778   4.116  13.838  0.6375  0.3395 -0.3273
  449MPD2     H 6744   0.562   4.405  13.930 -0.7736 -0.0251 -0.4849
  449MPD2    H1 6745   0.599   4.006  13.791  2.3671 -1.2233  0.6112
  449MPD2    H2 6746   0.941   4.254  13.850  1.0099 -1.5021  1.5150
  449MPD2    H3 6747   0.839   4.029  13.818 -1.0241 -1.0805  0.7976
  449MPD2     N 6748   0.420   4.200  13.847  0.1690  0.1128 -0.5223
  449MPD2    H5 6749   0.375   4.290  13.861 -2.1281 -0.8430 -1.9379
  449MPD2    N1 6750   0.808   4.481  13.925  0.3821  0.2061 -0.2158
  449MPD2    H7 6751   0.738   4.551  13.951  1.2326  1.6825 -1.9113
  450TMC3    C1 6752   0.953   4.659  13.978 -0.4227 -0.1619 -0.1728
  450TMC3    C2 6753   1.017   4.727  13.879  0.2388  0.5063 -0.2220
  450TMC3    C3 6754   0.956   0.105  13.823 -0.4970 -0.3610  0.4926
  450TMC3    C4 6755   0.836   4.702  14.037  0.0820 -0.4759  0.4431
  450TMC3    C5 6756   0.774   0.070  13.974  0.2700 -0.4798 -0.1348
  450TMC3    C6 6757   0.831   0.137  13.870 -0.7000 -0.2968  0.3683
  450TMC3     C 6758   0.940   4.522  13.931 -0.0837 -0.2053 -0.5746
  450TMC3     O 6759   1.043   4.458  13.917 -0.1025 -0.2020  0.1090
  450TMC3     H 6760   1.118   4.694  13.856  0.6669  1.3380  0.4854
  450TMC3    H1 6761   0.800   4.644  14.121 -1.3489  0.2294  0.3158
  450TMC3    H2 6762   0.784   0.223  13.822 -0.7624 -0.1576  0.6786
  450TMC3    C7 6763   0.633   0.049  13.958  0.5331 -0.0247 -0.1548
  450TMC3    C8 6764   1.035   0.190  13.735  0.1158  0.9689 -0.1619
  450TMC3    O1 6765   0.595   4.680  13.998 -0.2115  0.6624  0.1013
  450TMC3    O2 6766   0.985   0.300  13.730 -0.1160 -0.2297 -0.2194
  451MPD2     C 6767   1.719   3.871   1.722  0.1133 -0.6550 -0.4047
  451MPD2    C1 6768   1.742   3.827   1.590 -0.2171 -0.1744 -0.2289
  451MPD2    C2 6769   1.863   3.765   1.560 -0.1273 -0.5513  0.1622
  451MPD2    C3 6770   1.944   3.732   1.668  1.2705  0.4145 -0.0573
  451MPD2    C4 6771   1.916   3.768   1.797  0.1150 -0.2793  0.7417
  451MPD2    C5 6772   1.800   3.838   1.826 -0.5158  0.0676  0.6482
  451MPD2     H 6773   1.875   3.735   1.456  0.2512  2.8480 -0.7903
  451MPD2    H1 6774   1.982   3.732   1.875  0.9887  1.4221  0.8026
  451MPD2    H2 6775   1.621   3.911   1.748  0.5208  0.0158  0.0990
  451MPD2    H3 6776   1.778   3.859   1.930 -2.8022  1.0136 -0.0128
  451MPD2     N 6777   2.049   3.637   1.657 -0.5383  0.4839  0.3761
  451MPD2    H5 6778   2.093   3.603   1.742  1.0056  3.9070  0.9504
  451MPD2    N1 6779   1.636   3.855   1.501  0.0328 -0.4742  0.0525
  451MPD2    H7 6780   1.567   3.917   1.542 -1.1043 -0.7758 -1.4270
  452TMC3    C1 6781   2.138   3.446   1.543  0.2543  0.2695  0.6654
  452TMC3    C2 6782   2.052   3.365   1.615  0.2871  0.1714  0.1851
  452TMC3    C3 6783   2.021   3.243   1.562  0.5764  0.5063 -0.0524
  452TMC3    C4 6784   2.196   3.398   1.430 -0.0515 -0.6384  1.1009
  452TMC3    C5 6785   2.159   3.277   1.383  0.9285 -0.3278 -0.4276
  452TMC3    C6 6786   2.070   3.192   1.446 -0.6148  0.0885 -0.0314
  452TMC3     C 6787   2.108   3.588   1.541 -0.0631 -0.6955 -0.3781
  452TMC3     O 6788   2.101   3.642   1.432 -0.2995 -0.2950  0.3367
  452TMC3     H 6789   1.984   3.407   1.688 -1.0914 -0.4988 -0.7157
  452TMC3    H1 6790   2.269   3.462   1.381 -1.3339 -0.7659 -0.9757
  452TMC3    H2 6791   2.020   3.111   1.395 -0.2177  0.2516 -0.6875
  452TMC3    C7 6792   2.243   3.216   1.284  0.0199  0.4598 -0.6197
  452TMC3    C8 6793   1.887   3.197   1.587  1.2826  0.3828 -0.0800
  452TMC3    O1 6794   2.309   3.288   1.213  0.9064  0.1729 -0.7301
  452TMC3    O2 6795   1.854   3.168   1.704  0.3749  0.4607 -0.3512
  453TMC3    C1 6796   3.253   1.072  12.079  0.6406 -0.2452 -0.2733
  453TMC3    C2 6797   3.159   0.975  12.077  0.0928  0.5084 -0.7135
  453TMC3    C3 6798   3.053   0.985  11.991 -0.3381  0.0117  0.5673
  453TMC3    C4 6799   3.255   1.173  11.989  0.0118  0.4375  0.1825
  453TMC3    C5 6800   3.153   1.179  11.900  0.2463  0.8781 -0.5902
  453TMC3    C6 6801   3.046   1.095  11.912  0.1916 -0.3972 -0.6443
  453TMC3     C 6802   3.374   1.053  12.164 -0.0906 -0.3765 -0.2187
  453TMC3     O 6803   3.477   1.099  12.116 -0.6367  0.0827  0.2157
  453TMC3     H 6804   3.167   0.885  12.138  1.5044  0.9925 -0.1908
  453TMC3    H1 6805   3.348   1.227  11.976  0.4921 -0.7535 -1.2759
  453TMC3    H2 6806   2.960   1.101  11.846  0.0143 -1.5815 -0.5266
  453TMC3    C7 6807   3.159   1.279  11.791  0.0789  0.6255  0.2537
  453TMC3    C8 6808   2.941   0.898  12.010  0.3906 -0.4867 -0.0519
  453TMC3    O1 6809   3.054   1.326  11.756  1.0151  0.0946 -0.3451
  453TMC3    O2 6810   2.832   0.939  11.981 -0.1298 -0.4914 -0.2953
  454MPD2     C 6811   1.947   0.504  15.666  0.8969  0.1250 -0.2002
  454MPD2    C1 6812   1.811   0.523  15.653 -0.2475  0.1580  0.2437
  454MPD2    C2 6813   1.746   0.585  15.755 -0.4099  0.6017  0.1309
  454MPD2    C3 6814   1.812   0.617  15.872 -0.7361  0.0622 -0.5198
  454MPD2    C4 6815   1.947   0.601  15.881  0.3384  0.1391 -0.8344
  454MPD2    C5 6816   2.012   0.545  15.776  0.6469 -0.7522 -0.5171
  454MPD2     H 6817   1.641   0.611  15.748 -0.6957 -0.6897 -0.3347
  454MPD2    H1 6818   1.998   0.627  15.973 -2.0538  1.6288  0.0782
  454MPD2    H2 6819   2.003   0.451  15.590  0.6341 -2.4589  1.4159
  454MPD2    H3 6820   2.120   0.535  15.779  0.7117 -0.3307 -1.2334
  454MPD2     N 6821   1.740   0.657  15.988  0.0400  0.1843  1.2018
  454MPD2    H5 6822   1.806   0.672  16.063 -0.4865  0.7602  1.5473
  454MPD2    N1 6823   1.750   0.447  15.553  0.4511  0.7128  0.4663
  454MPD2    H7 6824   1.815   0.378  15.518 -0.4180 -1.0302  2.3245
  455TMC3    C1 6825   1.564   0.652  16.141  0.7085 -0.4018  0.1698
  455TMC3    C2 6826   1.558   0.773  16.199 -0.1500  0.4819  0.4150
  455TMC3    C3 6827   1.473   0.780  16.312  0.1328 -0.3379 -0.5719
  455TMC3    C4 6828   1.488   0.546  16.188 -0.0781 -0.0324  0.2917
  455TMC3    C5 6829   1.397   0.565  16.283  0.1391 -0.4663  0.0997
  455TMC3    C6 6830   1.398   0.679  16.357  0.1706 -0.4335  0.2529
  455TMC3     C 6831   1.604   0.651  16.005 -0.1094 -0.6498 -0.5736
  455TMC3     O 6832   1.512   0.610  15.932 -0.4640  0.7188 -0.7424
  455TMC3     H 6833   1.602   0.857  16.147  0.8521  0.9860  2.1075
  455TMC3    H1 6834   1.499   0.443  16.154 -0.2458  0.9683 -2.8248
  455TMC3    H2 6835   1.313   0.703  16.419 -2.5000  0.0124 -3.5934
  455TMC3    C7 6836   1.305   0.460  16.318 -0.4642  0.8593  0.6895
  455TMC3    C8 6837   1.418   0.912  16.333 -0.3028 -0.1094 -0.2435
  455TMC3    O1 6838   1.274   0.451  16.433  0.7852 -0.7437 -0.3674
  455TMC3    O2 6839   1.432   0.996  16.242 -0.1854 -0.3829 -0.2436
  456MPD2     C 6840   4.365   0.496  16.021 -0.0284 -0.5061  0.1626
  456MPD2    C1 6841   4.391   0.395  16.111 -0.1344  0.0939  0.4134
  456MPD2    C2 6842   4.335   0.412  16.237  0.3155 -0.2726 -0.3299
  456MPD2    C3 6843   4.263   0.522  16.265 -0.8725  0.1852 -0.5108
  456MPD2    C4 6844   4.249   0.625  16.173  0.1148 -0.1490 -0.2013
  456MPD2    C5 6845   4.303   0.607  16.052 -0.2156  0.3980  0.0280
  456MPD2     H 6846   4.354   0.339  16.315 -1.5160 -0.6055 -0.1889
  456MPD2    H1 6847   4.189   0.714  16.181 -0.8378 -0.5998 -2.2824
  456MPD2    H2 6848   4.422   0.490  15.929 -2.7944  0.1311 -1.5909
  456MPD2    H3 6849   4.299   0.691  15.983 -0.9809  0.6231  0.3540
  456MPD2     N 6850   4.220   0.542  16.401  0.5504 -0.0380 -0.4109
  456MPD2    H5 6851   4.245   0.471  16.469  3.2055 -1.5054 -2.9303
  456MPD2    N1 6852   4.479   0.294  16.077  0.1494 -0.2328 -0.4754
  456MPD2    H7 6853   4.514   0.304  15.982  1.3926 -0.7488 -0.0643
  457TMC3    C1 6854   4.083   0.637  16.573  0.2443 -0.6720  0.3067
  457TMC3    C2 6855   3.953   0.657  16.615  0.2284  0.9225 -0.2100
  457TMC3    C3 6856   3.919   0.618  16.743 -0.0939  0.2154  0.1844
  457TMC3    C4 6857   4.182   0.591  16.663  0.5719  0.6519  0.0047
  457TMC3    C5 6858   4.145   0.565  16.792  0.2540  0.2890  0.1152
  457TMC3    C6 6859   4.014   0.563  16.824 -0.3473 -0.8067 -0.2437
  457TMC3     C 6860   4.113   0.625  16.433  0.4899 -0.1495  0.5513
  457TMC3     O 6861   4.049   0.699  16.360 -0.4534 -0.1816 -0.6355
  457TMC3     H 6862   3.881   0.679  16.537  1.6768  0.2129 -1.7546
  457TMC3    H1 6863   4.287   0.589  16.633  0.3427  0.1881 -0.7736
  457TMC3    H2 6864   3.992   0.542  16.928  0.9779 -0.9800  0.0059
  457TMC3    C7 6865   4.246   0.556  16.892  0.3320 -0.1133 -0.2103
  457TMC3    C8 6866   3.857   0.724  16.816  0.6736  0.0243 -0.0207
  457TMC3    O1 6867   4.214   0.499  16.996 -0.1941  0.4152  0.7592
  457TMC3    O2 6868   3.830   0.701  16.935 -0.5355  0.1889  0.0160
  458MPD2     C 6869   1.783   4.706  12.706  0.0421 -0.4856  0.0195
  458MPD2    C1 6870   1.812   4.602  12.790  0.1904  0.7474  0.1170
  458MPD2    C2 6871   1.707   4.542  12.851 -0.4826  0.4566  0.0971
  458MPD2    C3 6872   1.571   4.585  12.838  0.2551  0.9897  0.0201
  458MPD2    C4 6873   1.540   4.690  12.756  0.3533 -0.5366  0.4985
  458MPD2    C5 6874   1.652   0.008  12.690 -0.0055  0.2377 -0.3913
  458MPD2     H 6875   1.730   4.456  12.913  0.9843  1.6533  1.1828
  458MPD2    H1 6876   1.438   4.710  12.726  1.0879 -0.8578 -2.2486
  458MPD2    H2 6877   1.866   0.014  12.653  0.0199 -0.2107  0.2157
  458MPD2    H3 6878   1.621   0.092  12.629 -1.5717 -0.6574 -0.8402
  458MPD2     N 6879   1.482   4.514  12.919  0.4401  0.5458 -0.4030
  458MPD2    H5 6880   1.517   4.431  12.964  0.8950 -0.1829 -2.1180
  458MPD2    N1 6881   1.949   4.565  12.795  0.4339 -0.0569 -0.0831
  458MPD2    H7 6882   2.018   4.626  12.753  2.1467 -2.2703 -0.4594
  459TMC3    C1 6883   2.129   4.448  12.899 -0.1653  0.3201  0.1113
  459TMC3    C2 6884   2.205   4.557  12.878 -0.1233  0.4592  0.0796
  459TMC3    C3 6885   2.339   4.552  12.918 -0.0468 -1.2658 -0.0603
  459TMC3    C4 6886   2.178   4.335  12.959 -0.1235  0.0115  0.0843
  459TMC3    C5 6887   2.301   4.334  13.014  0.6673  0.3739  0.3531
  459TMC3    C6 6888   2.384   4.440  12.977 -1.0017  0.1618  0.0010
  459TMC3     C 6889   1.987   4.451  12.861 -0.0589 -0.0266  0.2545
  459TMC3     O 6890   1.928   4.354  12.902  0.3708  0.1965  0.3530
  459TMC3     H 6891   2.169   4.648  12.833  1.1659  2.2647  2.7130
  459TMC3    H1 6892   2.117   4.247  12.974 -1.7719  1.1206 -0.0663
  459TMC3    H2 6893   2.486   4.435  13.013 -0.9546 -0.5110 -0.2274
  459TMC3    C7 6894   2.368   4.213  13.060 -0.0812 -0.1089 -0.0616
  459TMC3    C8 6895   2.443   4.649  12.883  0.1765 -0.0559  0.6234
  459TMC3    O1 6896   2.470   4.231  13.125  0.1820 -0.5800  0.1741
  459TMC3    O2 6897   2.546   4.629  12.939 -0.0177  0.5079  0.0238
  460MPD2     C 6898   1.284   2.124  11.000 -0.2205 -0.3492 -0.5085
  460MPD2    C1 6899   1.204   2.170  11.099  0.3397 -0.6199 -0.1056
  460MPD2    C2 6900   1.099   2.250  11.066  0.4547 -0.2134  0.4165
  460MPD2    C3 6901   1.070   2.273  10.931 -0.5893  0.0043 -0.4654
  460MPD2    C4 6902   1.151   2.215  10.835  0.1852 -0.0731  0.5198
  460MPD2    C5 6903   1.260   2.146  10.870 -0.5858  0.2034  0.4316
  460MPD2     H 6904   1.031   2.296  11.136  0.7104  0.4294  0.2461
  460MPD2    H1 6905   1.137   2.229  10.728 -0.2153 -0.5331  0.5115
  460MPD2    H2 6906   1.375   2.073  11.031 -0.0830 -0.2199 -0.7038
  460MPD2    H3 6907   1.339   2.125  10.798 -0.8498  0.0527  0.1840
  460MPD2     N 6908   0.968   2.368  10.899 -0.2971  0.9319  0.2878
  460MPD2    H5 6909   0.893   2.390  10.964 -0.3027 -1.6396  1.1428
  460MPD2    N1 6910   1.254   2.157  11.228  0.1361  0.4711  0.4466
  460MPD2    H7 6911   1.331   2.094  11.245 -0.1484 -0.4009 -1.4065
  461TMC3    C1 6912   0.824   2.476  10.744  0.4955 -0.2337  0.1659
  461TMC3    C2 6913   0.710   2.398  10.744  1.0692  0.5092 -0.2459
  461TMC3    C3 6914   0.613   2.427  10.659  0.0172  0.1240 -0.3845
  461TMC3    C4 6915   0.846   2.581  10.662 -0.2980  0.2239 -0.3849
  461TMC3    C5 6916   0.747   2.606  10.577  0.2806 -0.4207 -0.9437
  461TMC3    C6 6917   0.634   2.530  10.574 -0.0078  0.0391  0.6864
  461TMC3     C 6918   0.950   2.410  10.769  0.2502 -0.3993 -0.2087
  461TMC3     O 6919   1.021   2.398  10.669  0.1548  0.2689 -0.0666
  461TMC3     H 6920   0.712   2.309  10.806 -1.3936 -0.0863 -1.0589
  461TMC3    H1 6921   0.945   2.627  10.665 -0.5225  0.7387 -0.8132
  461TMC3    H2 6922   0.559   2.553  10.500 -0.1323 -2.3300  0.0816
  461TMC3    C7 6923   0.752   2.724  10.492  0.4017 -0.7332  0.0826
  461TMC3    C8 6924   0.562   2.307  10.594  0.1835  0.1779  0.1209
  461TMC3    O1 6925   0.653   2.766  10.440 -0.2302 -0.2129  0.1359
  461TMC3    O2 6926   0.500   2.225  10.662  0.0375 -0.0838  0.2843
  462TMC3    C1 6927   1.314   3.666   0.208  0.1495  0.3465 -0.4409
  462TMC3    C2 6928   1.448   3.641   0.241 -0.6808 -0.8498  0.0586
  462TMC3    C3 6929   1.469   3.515   0.297  0.2021 -0.2711  0.1482
  462TMC3    C4 6930   1.206   3.584   0.236 -0.3044 -0.1675 -0.2844
  462TMC3    C5 6931   1.238   3.461   0.286  0.0545 -0.1308 -0.2928
  462TMC3    C6 6932   1.369   3.425   0.321 -1.0385  1.3063 -0.1020
  462TMC3     C 6933   1.305   3.780   0.122 -0.7947  0.4931 -0.5883
  462TMC3     O 6934   1.395   3.808   0.046 -0.0344  0.1854 -0.0750
  462TMC3     H 6935   1.529   3.675   0.178 -1.5711 -1.7087 -1.5268
  462TMC3    H1 6936   1.103   3.599   0.208 -1.0605 -0.1686  2.5710
  462TMC3    H2 6937   1.384   3.348   0.396 -0.6199  0.3089 -1.2010
  462TMC3    C7 6938   1.143   3.387   0.362  0.1972 -0.4813 -0.2363
  462TMC3    C8 6939   1.606   3.485   0.338  0.5498 -0.0308 -0.1380
  462TMC3    O1 6940   1.171   3.271   0.386  0.0332  0.2724 -0.4289
  462TMC3    O2 6941   1.690   3.573   0.334 -0.5268 -0.1040  0.6103
  463MPD2     C 6942   2.716   1.179   1.277  0.1951 -0.4256 -0.3746
  463MPD2    C1 6943   2.621   1.272   1.315  0.0047  0.1251  0.1516
  463MPD2    C2 6944   2.668   1.388   1.374  0.2664  0.0795 -0.5121
  463MPD2    C3 6945   2.804   1.407   1.395 -0.0255 -0.1658 -0.5004
  463MPD2    C4 6946   2.895   1.315   1.355 -1.1039  0.6671 -0.0516
  463MPD2    C5 6947   2.855   1.201   1.293  0.0345 -0.0979  0.0730
  463MPD2     H 6948   2.590   1.463   1.383 -1.3833 -1.7064  0.0593
  463MPD2    H1 6949   3.001   1.328   1.375 -0.9718  0.3787 -0.5548
  463MPD2    H2 6950   2.691   1.091   1.219 -1.9729  0.4196 -0.7324
  463MPD2    H3 6951   2.923   1.129   1.250 -0.4676 -1.8987  2.3216
  463MPD2     N 6952   2.856   1.536   1.438 -0.2984 -0.0930  0.0395
  463MPD2    H5 6953   2.957   1.548   1.430 -0.1913 -1.3223 -0.5829
  463MPD2    N1 6954   2.481   1.264   1.296  0.3815  0.4189 -0.9591
  463MPD2    H7 6955   2.433   1.334   1.352  0.1525 -0.4547 -0.0785
  464TMC3    C1 6956   2.277   1.202   1.209  0.4632 -0.2090 -0.0086
  464TMC3    C2 6957   2.221   1.320   1.257 -0.3171  0.3155 -0.2350
  464TMC3    C3 6958   2.085   1.320   1.267  0.2956 -0.6110  0.1418
  464TMC3    C4 6959   2.204   1.098   1.159 -0.2573 -0.6944 -0.3125
  464TMC3    C5 6960   2.068   1.108   1.169  0.1977 -0.3210 -0.0964
  464TMC3    C6 6961   2.007   1.213   1.230  0.0520 -0.3024 -0.9357
  464TMC3     C 6962   2.419   1.171   1.218  0.0759 -0.2855  0.4431
  464TMC3     O 6963   2.451   1.075   1.147 -0.5298  0.4859 -0.0067
  464TMC3     H 6964   2.277   1.411   1.272  1.3879 -0.2957 -2.9634
  464TMC3    H1 6965   2.249   1.012   1.112  0.9547 -2.0120  3.2987
  464TMC3    H2 6966   1.901   1.235   1.238  0.1266 -0.0791 -0.5633
  464TMC3    C7 6967   1.988   0.996   1.124 -0.3289 -0.1889 -0.2912
  464TMC3    C8 6968   2.016   1.442   1.296  0.6904 -0.4984 -0.4421
  464TMC3    O1 6969   2.046   0.909   1.063 -0.1602  0.6846  0.0973
  464TMC3    O2 6970   1.904   1.457   1.241  0.3124  0.2617  0.3929
  465MPD2     C 6971   3.418   0.900  17.121  0.3601 -0.3125  0.1755
  465MPD2    C1 6972   3.289   0.859  17.150  0.1601  0.0035  0.1097
  465MPD2    C2 6973   3.213   0.786  17.062  0.1466 -0.4655  0.4339
  465MPD2    C3 6974   3.266   0.761  16.937  0.8452 -0.2891  0.4631
  465MPD2    C4 6975   3.394   0.799  16.906  0.5447  0.0187 -0.0201
  465MPD2    C5 6976   3.472   0.869  16.994  0.9152  0.3466 -0.7946
  465MPD2     H 6977   3.107   0.766  17.078 -0.0516  0.6574  0.4935
  465MPD2    H1 6978   3.437   0.774  16.809 -0.0620  3.4922 -1.1992
  465MPD2    H2 6979   3.484   0.955  17.187  0.2636  0.6437 -0.5135
  465MPD2    H3 6980   3.575   0.900  16.983  0.6796  1.4866  0.2850
  465MPD2     N 6981   3.185   0.706  16.832  0.9481 -0.1932 -0.4417
  465MPD2    H5 6982   3.101   0.660  16.864  1.8513 -0.6544  1.2872
  465MPD2    N1 6983   3.229   0.892  17.274  0.0222  0.6808  0.0550
  465MPD2    H7 6984   3.134   0.859  17.286  0.0846  0.7486  0.7072
  466TMC3    C1 6985   2.865   0.581  16.697 -0.2322 -0.1436  0.3395
  466TMC3    C2 6986   2.819   0.686  16.617 -0.4168  0.0669 -1.2255
  466TMC3    C3 6987   2.907   0.756  16.544  0.2940  0.3260  0.3082
  466TMC3    C4 6988   2.999   0.564  16.713 -0.0151 -0.0448  0.0878
  466TMC3    C5 6989   3.083   0.640  16.637  0.1859 -0.2062  0.8144
  466TMC3    C6 6990   3.039   0.728  16.542  0.1121  0.0558  0.4828
  466TMC3     C 6991   2.786   0.548  16.810 -0.0449 -0.8385 -0.1302
  466TMC3     O 6992   2.851   0.561  16.912  0.4881  0.7182 -0.1208
  466TMC3     H 6993   2.713   0.702  16.602 -0.7566 -0.4795  0.6039
  466TMC3    H1 6994   3.026   0.481  16.777 -4.6561 -0.5182  1.3797
  466TMC3    H2 6995   3.111   0.794  16.494  1.7117 -0.6876  1.8418
  466TMC3    C7 6996   3.205   0.699  16.698  0.1565 -0.3314  0.3973
  466TMC3    C8 6997   2.881   0.886  16.494 -0.0869 -0.0371  0.9955
  466TMC3    O1 6998   3.296   0.737  16.624  0.0986 -0.1398 -0.3638
  466TMC3    O2 6999   2.968   0.939  16.429  0.1835 -0.3450  0.1132
  467TMC3    C1 7000   4.317   3.880  13.901 -0.0957 -0.4046  0.7239
  467TMC3    C2 7001   4.273   4.011  13.891  0.5355 -0.3922 -0.3711
  467TMC3    C3 7002   4.138   4.028  13.884 -0.4212  0.0714  0.2416
  467TMC3    C4 7003   4.238   3.771  13.908  0.5656  0.7731  0.0826
  467TMC3    C5 7004   4.103   3.801  13.912 -0.7983 -0.2615  0.1981
  467TMC3    C6 7005   4.055   3.919  13.898  0.3564 -0.2766  0.0745
  467TMC3     C 7006   4.464   3.864  13.924  0.3019  0.1692 -0.8236
  467TMC3     O 7007   4.522   3.965  13.958 -0.6004  0.0954 -0.0654
  467TMC3     H 7008   4.341   4.094  13.876  1.2430 -1.1124 -1.1228
  467TMC3    H1 7009   4.269   3.669  13.927 -0.2350  0.8743  1.9475
  467TMC3    H2 7010   3.948   3.938  13.889 -0.0684 -3.1751 -0.8947
  467TMC3    C7 7011   4.015   3.689  13.904 -0.1879  0.3843  0.2882
  467TMC3    C8 7012   4.088   4.146  13.807 -0.1318 -0.0757  0.1627
  467TMC3    O1 7013   4.059   3.582  13.855  0.0191 -0.6237 -0.3829
  467TMC3    O2 7014   4.152   4.251  13.811 -0.3828 -0.8108  0.2767
  468MPD2     C 7015   2.833   2.066  11.022 -0.3364 -0.0212 -0.0544
  468MPD2    C1 7016   2.965   2.045  10.987  0.2130 -0.1944  0.1172
  468MPD2    C2 7017   3.022   1.922  11.017 -0.3135  0.1015 -0.3064
  468MPD2    C3 7018   2.944   1.817  11.057 -0.1814  0.3472  0.0723
  468MPD2    C4 7019   2.806   1.840  11.069 -0.7336  0.1927 -0.0950
  468MPD2    C5 7020   2.751   1.967  11.059  0.7899  0.4654 -0.3392
  468MPD2     H 7021   3.130   1.913  11.006 -0.3245  1.4993 -1.6908
  468MPD2    H1 7022   2.756   1.759  11.120  1.1670 -1.6574 -1.1851
  468MPD2    H2 7023   2.785   2.163  11.031  1.1399  0.4569  2.6431
  468MPD2    H3 7024   2.645   1.983  11.076  0.7750 -2.1161  1.9365
  468MPD2     N 7025   2.988   1.690  11.106  0.3353  0.7780  0.0802
  468MPD2    H5 7026   2.919   1.625  11.142  2.2729  0.1150  2.5789
  468MPD2    N1 7027   3.051   2.145  10.948  0.1481 -0.3475 -0.3073
  468MPD2    H7 7028   3.151   2.130  10.948  0.1223 -0.4956 -1.3359
  469TMC3    C1 7029   3.127   2.379  10.925 -0.2525 -0.3310  0.1461
  469TMC3    C2 7030   3.250   2.327  10.913  0.8509 -0.4242  0.3455
  469TMC3    C3 7031   3.349   2.394  10.967  0.0777 -0.0253 -0.3484
  469TMC3    C4 7032   3.106   2.507  10.971  0.1736  0.7006  0.4129
  469TMC3    C5 7033   3.211   2.569  11.037 -0.7709  1.2401 -0.1360
  469TMC3    C6 7034   3.333   2.512  11.025 -0.3887  0.3208  0.3100
  469TMC3     C 7035   3.011   2.276  10.932  0.0456 -0.0754  0.1384
  469TMC3     O 7036   2.897   2.326  10.933  0.0649 -0.2356  0.1320
  469TMC3     H 7037   3.262   2.225  10.876  2.6168 -1.1168  2.8646
  469TMC3    H1 7038   3.008   2.552  10.984  0.0888  0.4938  0.4820
  469TMC3    H2 7039   3.421   2.559  11.067 -0.9287  0.8641  0.8481
  469TMC3    C7 7040   3.193   2.711  11.075  0.1517  0.1543 -0.0397
  469TMC3    C8 7041   3.475   2.324  10.997  0.4189  0.3730  0.1715
  469TMC3    O1 7042   3.118   2.779  11.009 -0.0529 -0.2307 -0.0052
  469TMC3    O2 7043   3.516   2.237  10.917 -0.1510 -0.2314 -0.3667
  470TMC3    C1 7044   0.095   2.918   0.638 -1.1957  0.1763 -0.2320
  470TMC3    C2 7045   0.159   3.012   0.562 -0.5370 -0.1386 -0.1256
  470TMC3    C3 7046   0.196   3.127   0.618 -1.0137  1.0955 -0.2557
  470TMC3    C4 7047   0.056   2.941   0.767  0.4149  0.1806  0.9935
  470TMC3    C5 7048   0.072   3.068   0.814 -0.0309  0.2997 -0.7537
  470TMC3    C6 7049   0.155   3.159   0.744  0.2253 -0.3014 -1.0378
  470TMC3     C 7050   0.061   2.799   0.563  0.0280  0.5413 -0.0463
  470TMC3     O 7051   0.129   2.774   0.461 -0.0350  0.3556 -0.3122
  470TMC3     H 7052   0.197   2.991   0.463  0.9561  1.4874  0.1039
  470TMC3    H1 7053   4.727   2.875   0.822  1.1290 -1.0512  0.3736
  470TMC3    H2 7054   0.198   3.244   0.796  0.2227  0.7826 -2.8106
  470TMC3    C7 7055   0.101   3.063   0.958 -0.4032  0.5195 -0.2302
  470TMC3    C8 7056   0.225   3.237   0.534  0.4756  0.0249  0.2134
  470TMC3    O1 7057   0.214   3.089   0.987 -0.2733 -0.5275  0.4108
  470TMC3    O2 7058   0.216   3.213   0.415  0.1106  0.1456 -0.1939
  471MPD2     C 7059   1.226   4.328  16.910  0.4122 -0.4391 -0.0918
  471MPD2    C1 7060   1.247   4.195  16.889  0.6337  0.2844  0.3499
  471MPD2    C2 7061   1.282   4.108  16.995  0.2303  0.2207 -0.0930
  471MPD2    C3 7062   1.285   4.160  17.122  0.0156 -0.1665  0.7252
  471MPD2    C4 7063   1.269   4.294  17.147 -0.4230 -0.5414  1.0884
  471MPD2    C5 7064   1.232   4.371  17.042  0.1420  0.2741 -0.8020
  471MPD2     H 7065   1.294   4.004  16.967 -2.5866 -0.3629  0.8788
  471MPD2    H1 7066   1.282   4.338  17.245  0.8131  2.6820 -0.5348
  471MPD2    H2 7067   1.192   4.398  16.835 -1.7735  0.4956  1.7739
  471MPD2    H3 7068   1.218   4.478  17.056 -0.3904 -0.1834  2.3375
  471MPD2     N 7069   1.329   4.088  17.228  0.1544 -0.0978 -0.6559
  471MPD2    H5 7070   1.329   4.126  17.323  1.5803 -1.0445 -0.2761
  471MPD2    N1 7071   1.224   4.131  16.765 -0.0672  0.4818  0.1033
  471MPD2    H7 7072   1.230   4.030  16.759 -0.9598  0.3813  0.7610
  472TMC3    C1 7073   1.188   4.095  16.541 -0.0666  0.2988 -0.4252
  472TMC3    C2 7074   1.108   4.116  16.437 -0.2598  0.3697 -0.4435
  472TMC3    C3 7075   1.096   4.016  16.341 -0.6859  0.0529  0.3949
  472TMC3    C4 7076   1.256   3.973  16.553 -0.1805 -0.3597 -1.2223
  472TMC3    C5 7077   1.238   3.876  16.463 -0.9030 -0.3812  0.2491
  472TMC3    C6 7078   1.157   3.893  16.356 -0.5221 -0.3364 -0.1486
  472TMC3     C 7079   1.182   4.191  16.651 -0.3423  0.8300 -0.3588
  472TMC3     O 7080   1.146   4.307  16.626 -0.4104  0.9721 -0.3382
  472TMC3     H 7081   1.068   4.216  16.423 -1.4746 -0.0805 -0.1717
  472TMC3    H1 7082   1.311   3.949  16.643 -0.0742  0.3599 -1.0920
  472TMC3    H2 7083   1.130   3.810  16.291  3.0943 -0.0745 -1.9836
  472TMC3    C7 7084   1.243   3.736  16.512  0.8079 -0.4755 -0.2119
  472TMC3    C8 7085   0.970   4.002  16.278  0.0357  0.3073  0.1493
  472TMC3    O1 7086   1.275   3.722  16.628 -0.1074  0.2294  0.4573
  472TMC3    O2 7087   0.971   3.992  16.153 -0.4551 -1.1172  0.1112
  473MPD2     C 7088   1.424   1.325  13.949 -0.7024 -0.4501  0.0217
  473MPD2    C1 7089   1.310   1.396  13.982 -0.1656  0.2313 -0.1678
  473MPD2    C2 7090   1.317   1.490  14.082  0.3088  0.1544  0.1899
  473MPD2    C3 7091   1.431   1.505  14.160  0.1834 -0.2229  0.2295
  473MPD2    C4 7092   1.533   1.420  14.136 -0.4961  0.0656 -0.6893
  473MPD2    C5 7093   1.531   1.330  14.032 -0.8960 -0.8095  0.2719
  473MPD2     H 7094   1.229   1.553  14.095  1.3047  1.4995  0.3539
  473MPD2    H1 7095   1.617   1.419  14.205 -1.3187  0.7959  0.3272
  473MPD2    H2 7096   1.441   1.251  13.871 -2.2982 -0.2304 -0.5405
  473MPD2    H3 7097   1.618   1.268  14.012  1.3507  2.6505 -0.6590
  473MPD2     N 7098   1.441   1.597  14.266  0.0409 -0.0191  0.0933
  473MPD2    H5 7099   1.516   1.584  14.334  0.4330  0.3074 -0.2794
  473MPD2    N1 7100   1.192   1.384  13.910 -0.1216 -0.8865 -0.2332
  473MPD2    H7 7101   1.117   1.450  13.928  2.1971  1.6330  0.2896
  474TMC3    C1 7102   1.384   1.800  14.368 -0.2165 -0.7173  0.3237
  474TMC3    C2 7103   1.298   1.905  14.371 -0.6907  0.5023 -0.4542
  474TMC3    C3 7104   1.327   1.990  14.471  0.3374 -0.7616  0.3932
  474TMC3    C4 7105   1.486   1.768  14.461 -0.2357 -0.1164 -0.5313
  474TMC3    C5 7106   1.499   1.859  14.567 -0.1452 -0.8358  0.5922
  474TMC3    C6 7107   1.413   1.969  14.571 -0.3461 -0.6919 -0.1671
  474TMC3     C 7108   1.351   1.705  14.273 -0.2096  1.0387 -0.4088
  474TMC3     O 7109   1.274   1.752  14.189 -0.1340  0.0886  0.5871
  474TMC3     H 7110   1.207   1.914  14.314 -1.5400 -4.4730  0.1395
  474TMC3    H1 7111   1.558   1.688  14.448 -1.3441 -1.3472  0.8508
  474TMC3    H2 7112   1.410   2.050  14.643 -1.5843  0.8516 -1.9415
  474TMC3    C7 7113   1.628   1.867  14.637  0.2405  0.5843  0.7472
  474TMC3    C8 7114   1.220   2.079  14.493  0.2758  0.4613 -0.1769
  474TMC3    O1 7115   1.707   1.780  14.602 -0.3568 -0.2150  0.0036
  474TMC3    O2 7116   1.107   2.035  14.496 -0.6182 -0.1022 -0.1047
  475MPD2     C 7117   3.741   0.419  11.382 -0.4823 -0.2994 -0.9476
  475MPD2    C1 7118   3.692   0.413  11.254 -0.1017  0.3618  0.1589
  475MPD2    C2 7119   3.597   0.511  11.221 -0.0724  0.0871  0.0510
  475MPD2    C3 7120   3.547   0.596  11.318 -0.2999 -0.0087 -0.1602
  475MPD2    C4 7121   3.579   0.583  11.453  0.0970 -0.4944  0.3523
  475MPD2    C5 7122   3.685   0.496  11.482 -0.2686  0.8135  0.3931
  475MPD2     H 7123   3.558   0.506  11.119 -1.3580 -0.9897  0.5859
  475MPD2    H1 7124   3.533   0.638  11.535  0.7052 -0.9989  1.0384
  475MPD2    H2 7125   3.820   0.352  11.414  0.5680  0.4748 -1.9081
  475MPD2    H3 7126   3.726   0.493  11.582  1.1542  1.8635 -0.1508
  475MPD2     N 7127   3.443   0.674  11.266  0.5643  0.4194  0.0169
  475MPD2    H5 7128   3.418   0.670  11.167  2.1209 -0.5376 -0.3333
  475MPD2    N1 7129   3.738   0.317  11.164  0.0144 -0.3102  0.0385
  475MPD2    H7 7130   3.824   0.266  11.185 -0.0213  0.2074  1.4261
  476TMC3    C1 7131   3.717   0.150  10.989  0.0944 -0.1199 -0.2573
  476TMC3    C2 7132   3.641   0.072  10.909 -0.3332  0.3119  0.4647
  476TMC3    C3 7133   3.688   4.695  10.844  0.0812 -0.9845  0.3681
  476TMC3    C4 7134   3.848   0.117  11.006 -0.2062 -0.0885  0.0604
  476TMC3    C5 7135   3.902   0.013  10.932 -0.1424  0.0209  0.0612
  476TMC3    C6 7136   3.823   4.661  10.855  0.1137 -0.5724 -0.4511
  476TMC3     C 7137   3.669   0.274  11.052 -0.2815 -0.8883 -0.5727
  476TMC3     O 7138   3.556   0.302  11.019  0.5985  0.0285  0.0620
  476TMC3     H 7139   3.540   0.101  10.882 -0.2376 -0.6307 -0.8758
  476TMC3    H1 7140   3.914   0.191  11.050  0.4181 -0.2257 -0.6384
  476TMC3    H2 7141   3.863   4.574  10.804  0.8026  0.0203 -0.9196
  476TMC3    C7 7142   4.034   4.700  10.953 -0.2541 -0.2736 -0.6824
  476TMC3    C8 7143   3.590   4.593  10.809 -0.7233 -0.3677  0.1799
  476TMC3    O1 7144   4.088   4.636  10.867  0.3100 -0.2539 -0.5541
  476TMC3    O2 7145   3.479   4.604  10.853 -0.0149  0.0635  0.0378
  477MPD2     C 7146   2.073   1.597  12.287  0.2171  0.1552  0.0553
  477MPD2    C1 7147   1.956   1.535  12.322  0.5788  0.1702  0.2926
  477MPD2    C2 7148   1.953   1.405  12.375 -0.5350 -0.4921  0.7673
  477MPD2    C3 7149   2.073   1.339  12.379  1.2143  0.1413 -0.2992
  477MPD2    C4 7150   2.191   1.399  12.349  0.0317 -0.1988  0.9835
  477MPD2    C5 7151   2.186   1.529  12.304  0.0885 -0.0177 -0.6851
  477MPD2     H 7152   1.861   1.355  12.404 -2.0364  2.8098  1.6956
  477MPD2    H1 7153   2.290   1.360  12.373 -0.7490 -0.3864  3.8850
  477MPD2    H2 7154   2.071   1.701  12.258 -1.0227  0.4063  1.0739
  477MPD2    H3 7155   2.274   1.586  12.279  0.0963 -0.4073 -1.5501
  477MPD2     N 7156   2.081   1.214  12.433  0.5761  0.1199 -0.5702
  477MPD2    H5 7157   2.005   1.187  12.494 -0.0745 -1.1291 -1.9302
  477MPD2    N1 7158   1.841   1.618  12.304  0.0900 -0.0307 -0.7363
  477MPD2    H7 7159   1.856   1.705  12.253 -2.2679  1.3121  0.8480
  478TMC3    C1 7160   1.619   1.683  12.290 -0.4829  0.0121  0.3335
  478TMC3    C2 7161   1.654   1.809  12.249 -0.1643 -0.2503 -0.5088
  478TMC3    C3 7162   1.583   1.873  12.151 -0.3339  0.2580 -0.7306
  478TMC3    C4 7163   1.510   1.626  12.231 -0.2551 -0.0320  0.2050
  478TMC3    C5 7164   1.448   1.686  12.131 -0.4367 -0.2679  0.8325
  478TMC3    C6 7165   1.483   1.811  12.089 -0.3072 -0.2508  0.6488
  478TMC3     C 7166   1.714   1.583  12.336  0.1961  0.3226  0.3664
  478TMC3     O 7167   1.667   1.478  12.376 -0.6103  0.0876  0.4502
  478TMC3     H 7168   1.731   1.864  12.302  0.8161 -0.4084 -1.7940
  478TMC3    H1 7169   1.482   1.525  12.257 -2.8063  0.9581  1.3071
  478TMC3    H2 7170   1.418   1.852  12.013 -0.8486 -1.1086  0.6371
  478TMC3    C7 7171   1.375   1.596  12.040  0.3358  1.0254  0.3504
  478TMC3    C8 7172   1.600   2.018  12.135 -1.1536 -0.3604  0.9286
  478TMC3    O1 7173   1.306   1.513  12.103  0.5568  0.5434  0.5383
  478TMC3    O2 7174   1.706   2.062  12.179  0.1635 -0.2579  0.0751
  479MPD2     C 7175   0.992   3.675  15.399  0.8253  0.0731 -0.0739
  479MPD2    C1 7176   0.938   3.578  15.475 -0.5243 -0.2010  0.2063
  479MPD2    C2 7177   0.945   3.588  15.610  0.2868 -0.2673 -0.4169
  479MPD2    C3 7178   0.994   3.702  15.670  0.6174 -0.3711  0.5063
  479MPD2    C4 7179   1.056   3.796  15.595 -0.4259 -0.1123 -0.5706
  479MPD2    C5 7180   1.056   3.784  15.460  0.2824 -0.1059 -0.1879
  479MPD2     H 7181   0.914   3.496  15.659  1.8621 -1.0302 -0.8581
  479MPD2    H1 7182   1.105   3.883  15.638  1.8106 -0.2670 -2.8580
  479MPD2    H2 7183   0.990   3.686  15.291  0.8650  1.4104  0.0695
  479MPD2    H3 7184   1.097   3.857  15.390  0.0056  3.5888  3.5219
  479MPD2     N 7185   1.006   3.717  15.808  0.6697 -0.5232  0.4210
  479MPD2    H5 7186   1.067   3.795  15.828 -1.1679  1.5132 -1.8375
  479MPD2    N1 7187   0.885   3.467  15.400  0.0880 -0.2402  0.0641
  479MPD2    H7 7188   0.901   3.468  15.299  0.8976 -0.0006  0.1956
  480TMC3    C1 7189   0.668   3.429  15.997 -0.0522 -0.5350  0.0535
  480TMC3    C2 7190   0.566   3.481  15.921 -0.1533  0.4581  0.2719
  480TMC3    C3 7191   0.600   3.590  15.838  0.7140 -0.5011  0.6581
  480TMC3    C4 7192   0.798   3.463  15.982 -0.2340  0.4306  0.1182
  480TMC3    C5 7193   0.831   3.567  15.899 -0.3997 -0.0829 -0.6953
  480TMC3    C6 7194   0.731   3.625  15.823 -0.5779  0.5675 -0.2038
  480TMC3     C 7195   0.627   3.353  16.109 -0.7378  0.4546 -0.7757
  480TMC3     O 7196   0.511   3.307  16.111  0.1945 -0.6930  0.1896
  480TMC3     H 7197   0.461   3.459  15.937 -0.4034 -0.2024 -2.3186
  480TMC3    H1 7198   0.882   3.414  16.029 -1.1675 -1.2771 -0.0141
  480TMC3    H2 7199   0.757   3.720  15.777  1.1303  0.3057  0.2242
  480TMC3    C7 7200   0.969   3.621  15.901  0.3148  0.4186  0.0530
  480TMC3    C8 7201   0.512   3.612  15.726 -0.4907  0.3296 -0.1959
  480TMC3    O1 7202   1.030   3.591  16.005  0.0038  0.1940 -0.0623
  480TMC3    O2 7203   0.396   3.569  15.734 -0.1217  0.4999  0.2720
  481MPD2     C 7204   2.703   3.015  14.136  0.5057  0.3006 -0.5562
  481MPD2    C1 7205   2.568   3.001  14.167 -0.4997 -0.1650 -0.2879
  481MPD2    C2 7206   2.530   2.930  14.284 -0.1483 -0.5181  0.1928
  481MPD2    C3 7207   2.630   2.876  14.362 -0.2748 -0.4195  0.0808
  481MPD2    C4 7208   2.767   2.887  14.322  0.1762 -0.2997  0.0619
  481MPD2    C5 7209   2.797   2.958  14.212  0.0390 -0.2494 -0.4355
  481MPD2     H 7210   2.426   2.915  14.311 -0.5148  0.7809 -0.4998
  481MPD2    H1 7211   2.851   2.832  14.364  1.7886  1.4109 -0.9362
  481MPD2    H2 7212   2.749   3.078  14.060  0.1000  1.3815  0.0962
  481MPD2    H3 7213   2.902   2.961  14.187  0.1125  1.0836  0.0488
  481MPD2     N 7214   2.605   2.813  14.493 -0.3757 -0.6256  0.0137
  481MPD2    H5 7215   2.690   2.798  14.547 -1.6100 -1.0551  1.8287
  481MPD2    N1 7216   2.478   3.059  14.079  0.4637  0.1330 -1.0080
  481MPD2    H7 7217   2.525   3.119  14.011 -0.1971  0.3502 -1.2707
  482TMC3    C1 7218   2.284   3.083  13.951  0.0366  0.2388 -0.0987
  482TMC3    C2 7219   2.172   3.021  13.923 -0.4162  0.0039  0.0406
  482TMC3    C3 7220   2.103   3.047  13.804 -0.6943 -1.0449 -0.5201
  482TMC3    C4 7221   2.342   3.165  13.854  0.1419  0.1036 -0.4750
  482TMC3    C5 7222   2.281   3.177  13.731  0.6738  0.1625 -0.2028
  482TMC3    C6 7223   2.161   3.115  13.705  0.4284 -0.2248 -0.6858
  482TMC3     C 7224   2.346   3.035  14.076  0.2379 -0.1057  0.2054
  482TMC3     O 7225   2.272   2.970  14.145 -0.5118 -0.1223  0.1356
  482TMC3     H 7226   2.113   2.960  13.991 -1.5370  0.8549 -0.1654
  482TMC3    H1 7227   2.431   3.223  13.875 -0.9139  1.2409  0.8539
  482TMC3    H2 7228   2.105   3.134  13.614 -0.9076 -1.6665 -0.1514
  482TMC3    C7 7229   2.327   3.289  13.659  0.0893  0.3868  0.2880
  482TMC3    C8 7230   2.011   2.937  13.761  0.5720 -0.6844  0.7368
  482TMC3    O1 7231   2.414   3.365  13.705 -0.0661 -0.1722  0.4617
  482TMC3    O2 7232   1.994   2.842  13.836 -0.4551  0.0674  0.6955
  483TMC3    C1 7233   0.002   2.290   1.397 -0.1808 -0.9143 -0.2518
  483TMC3    C2 7234   0.016   2.307   1.262 -0.4033  0.1796  0.0341
  483TMC3    C3 7235   0.139   2.270   1.208 -0.4075 -1.3428  0.3675
  483TMC3    C4 7236   0.099   2.247   1.479  0.1050  0.1490  0.1199
  483TMC3    C5 7237   0.211   2.202   1.417 -0.8436  0.1886  0.2530
  483TMC3    C6 7238   0.240   2.224   1.287  0.5029  0.5908  0.0306
  483TMC3     C 7239   4.600   2.300   1.444 -0.5590 -0.2624 -0.2034
  483TMC3     O 7240   4.567   2.336   1.556  0.0456  0.1328  0.0645
  483TMC3     H 7241   4.672   2.348   1.203  0.4622  0.4072 -1.0029
  483TMC3    H1 7242   0.074   2.240   1.585  2.6192  1.2966  0.7913
  483TMC3    H2 7243   0.336   2.204   1.240 -0.5753  2.0879 -2.8561
  483TMC3    C7 7244   0.291   2.092   1.472  0.0592 -0.0604 -0.6765
  483TMC3    C8 7245   0.178   2.329   1.082  1.1556 -1.0959 -0.0360
  483TMC3    O1 7246   0.380   2.036   1.410  0.4545  0.3668 -0.6742
  483TMC3    O2 7247   0.296   2.352   1.063 -0.0264 -0.7804 -0.3225
  484MPD2     C 7248   2.421   0.246  12.742 -0.6302 -0.0562 -0.0931
  484MPD2    C1 7249   2.480   0.127  12.777  0.6021 -0.3345  0.1417
  484MPD2    C2 7250   2.614   0.107  12.758 -0.6154  0.3034 -0.3298
  484MPD2    C3 7251   2.692   0.211  12.707 -0.5642 -0.2129  0.4056
  484MPD2    C4 7252   2.630   0.326  12.657  0.5467 -0.6078 -0.1272
  484MPD2    C5 7253   2.493   0.345  12.678 -0.7039  0.5971 -0.1197
  484MPD2     H 7254   2.663   0.019  12.798 -2.3230 -0.7041 -0.4113
  484MPD2    H1 7255   2.676   0.401  12.593 -0.1765 -0.2245 -0.2030
  484MPD2    H2 7256   2.317   0.267  12.761 -0.6944  2.4900 -3.3680
  484MPD2    H3 7257   2.451   0.439  12.646  0.7964  0.9326 -1.0979
  484MPD2     N 7258   2.834   0.191  12.680  0.7071  0.3688 -0.5384
  484MPD2    H5 7259   2.881   0.273  12.644  0.8930 -0.5131 -2.2970
  484MPD2    N1 7260   2.395   0.023  12.824 -0.4708 -0.3891  0.4453
  484MPD2    H7 7261   2.295   0.040  12.820 -0.1033  1.1439 -1.8039
  485TMC3    C1 7262   3.034   0.094  12.644  0.1616 -0.3777  0.1312
  485TMC3    C2 7263   3.128   0.004  12.682  0.7366  0.4629 -0.5751
  485TMC3    C3 7264   3.242   4.726  12.607 -0.4184 -0.2759  0.1342
  485TMC3    C4 7265   3.051   0.167  12.532  0.1602 -0.0220 -0.2269
  485TMC3    C5 7266   3.176   0.161  12.464  0.0237  0.6950  0.2513
  485TMC3    C6 7267   3.281   0.078  12.514 -0.4719  0.4107 -0.7551
  485TMC3     C 7268   2.907   0.079  12.703  0.1052 -0.3153  0.5571
  485TMC3     O 7269   2.882   4.716  12.769  0.1250 -0.2346  0.2089
  485TMC3     H 7270   3.117   4.665  12.759 -1.3312 -1.2669 -2.5337
  485TMC3    H1 7271   2.969   0.214  12.479  0.2227  1.5054  1.0447
  485TMC3    H2 7272   3.369   0.068  12.451 -0.2605 -1.4286 -0.1668
  485TMC3    C7 7273   3.170   0.151  12.323  0.2646 -0.6523 -0.2351
  485TMC3    C8 7274   3.304   4.595  12.590 -0.5657  0.1874 -0.0280
  485TMC3    O1 7275   3.138   0.246  12.255 -0.2015  0.3009 -0.1013
  485TMC3    O2 7276   3.357   4.576  12.482 -0.2015 -0.3783  0.1708
  486MPD2     C 7277   0.151   3.740  13.540 -0.2447 -0.2307  0.0167
  486MPD2    C1 7278   0.119   3.742  13.407 -0.3234  0.2679  0.0395
  486MPD2    C2 7279   0.002   3.806  13.367  0.0544  0.0928  0.2069
  486MPD2    C3 7280   4.655   3.876  13.451 -0.1608  0.4821  0.0618
  486MPD2    C4 7281   4.689   3.877  13.586  0.2812 -0.2934 -0.6308
  486MPD2    C5 7282   0.068   3.808  13.621  0.0117 -0.4634 -0.2104
  486MPD2     H 7283   4.705   3.800  13.264 -0.0951  1.3540  0.1808
  486MPD2    H1 7284   4.625   3.920  13.663 -0.9302 -3.6608  0.2873
  486MPD2    H2 7285   0.240   3.682  13.563 -0.4789 -0.9787 -0.9715
  486MPD2    H3 7286   0.076   3.792  13.728 -1.6705  0.7118  0.0926
  486MPD2     N 7287   4.544   3.937  13.392  0.6141 -0.6525  0.3003
  486MPD2    H5 7288   4.524   3.918  13.294  1.3856  1.3654 -0.2514
  486MPD2    N1 7289   0.196   3.668  13.324 -0.3692 -0.4446  0.4401
  486MPD2    H7 7290   0.279   3.634  13.371 -0.3887 -2.5926 -1.0655
  487TMC3    C1 7291   0.232   3.501  13.159 -0.4669  0.6384 -0.2804
  487TMC3    C2 7292   0.204   3.447  13.035 -0.5161 -0.1364 -0.4257
  487TMC3    C3 7293   0.245   3.323  13.006  0.2242  0.3633 -0.7130
  487TMC3    C4 7294   0.303   3.430  13.250 -0.2928 -0.8857  0.1941
  487TMC3    C5 7295   0.352   3.309  13.213  0.2234  0.6391  0.5199
  487TMC3    C6 7296   0.339   3.258  13.083 -0.2323  0.1863  0.4390
  487TMC3     C 7297   0.174   3.626  13.198 -0.3307 -0.1563 -0.4668
  487TMC3     O 7298   0.096   3.678  13.117  0.0160 -0.6198  0.3687
  487TMC3     H 7299   0.147   3.502  12.961 -0.7571  3.0152  2.1054
  487TMC3    H1 7300   0.293   3.443  13.358  0.8932 -1.3719  0.3674
  487TMC3    H2 7301   0.373   3.156  13.069  0.9262  0.8660 -1.6825
  487TMC3    C7 7302   0.343   3.210  13.320  0.4654 -0.7446 -0.0173
  487TMC3    C8 7303   0.147   3.229  12.951 -0.0691 -0.2823  0.1638
  487TMC3    O1 7304   0.391   3.236  13.425  0.0321  0.3079  0.7084
  487TMC3    O2 7305   0.180   3.115  12.916  0.6114  0.3092  0.3372
  488MPD2     C 7306   4.727   0.709  16.347  0.3338  0.2255  0.7967
  488MPD2    C1 7307   0.104   0.682  16.416  0.4726  0.5055 -0.4681
  488MPD2    C2 7308   0.090   0.588  16.518 -0.2512  0.1930  0.1731
  488MPD2    C3 7309   4.708   0.522  16.551 -1.0212 -0.6106  0.3327
  488MPD2    C4 7310   4.609   0.543  16.463 -0.8293  0.2785  0.4261
  488MPD2    C5 7311   4.613   0.638  16.363  0.3207 -0.8125  0.5538
  488MPD2     H 7312   0.175   0.553  16.576 -0.8047 -2.0653 -0.3799
  488MPD2    H1 7313   4.516   0.487  16.461 -0.5525 -0.1396 -0.6982
  488MPD2    H2 7314   4.731   0.783  16.269 -0.6409 -2.9885 -2.3149
  488MPD2    H3 7315   4.524   0.660  16.307  1.5412  0.5035 -0.8709
  488MPD2     N 7316   4.708   0.439  16.671 -0.2722 -0.7086 -0.2032
  488MPD2    H5 7317   0.063   0.420  16.712  0.3850  1.7847 -0.5420
  488MPD2    N1 7318   0.222   0.755  16.399  0.0015  0.3350 -0.4487
  488MPD2    H7 7319   0.303   0.735  16.457 -0.6403 -0.0616  0.3056
  489TMC3    C1 7320   4.623   0.328  16.853 -0.8397  1.1031  0.6558
  489TMC3    C2 7321   0.007   0.344  16.920  0.2504 -0.1182  0.0109
  489TMC3    C3 7322   0.013   0.365  17.058  0.0237  0.6623  0.5063
  489TMC3    C4 7323   4.508   0.310  16.924 -0.1738  0.3872  0.1616
  489TMC3    C5 7324   4.523   0.303  17.057 -0.4607  0.4848 -0.6005
  489TMC3    C6 7325   4.636   0.335  17.127  0.5806 -0.0467 -0.1183
  489TMC3     C 7326   4.601   0.370  16.717  0.3884  0.1690  0.6499
  489TMC3     O 7327   4.488   0.363  16.668 -0.4012 -0.1956 -0.1856
  489TMC3     H 7328   0.104   0.355  16.873  1.2729  2.7389  2.7930
  489TMC3    H1 7329   4.418   0.277  16.873 -0.7562 -0.6333  1.8711
  489TMC3    H2 7330   4.640   0.315  17.234  3.2849 -2.9796 -0.7298
  489TMC3    C7 7331   4.431   0.214  17.122 -0.1594 -0.3379  0.6098
  489TMC3    C8 7332   0.107   0.461  17.114 -0.5424  0.0316  0.2617
  489TMC3    O1 7333   4.471   0.143  17.212  0.0348 -0.0065  0.7232
  489TMC3    O2 7334   0.198   0.493  17.037 -0.4119 -0.0199  0.1942
  490MPD2     C 7335   1.015   0.433  17.422  0.0247  0.1269 -0.1525
  490MPD2    C1 7336   0.994   0.347  17.530 -0.1273  0.0781 -0.0161
  490MPD2    C2 7337   1.102   0.280  17.594  0.8583 -0.8339 -0.1533
  490MPD2    C3 7338   1.227   0.302  17.549  0.0675 -0.1433  0.7417
  490MPD2    C4 7339   1.246   0.389  17.442  0.5120  0.5354 -0.2105
  490MPD2    C5 7340   1.144   0.461  17.387  0.0332  0.2724 -0.3347
  490MPD2     H 7341   1.084   0.211  17.676  0.8818 -0.3333  0.2743
  490MPD2    H1 7342   1.344   0.430  17.418  1.4380 -2.9154 -2.2543
  490MPD2    H2 7343   0.935   0.495  17.384 -0.1119 -1.6468 -2.7202
  490MPD2    H3 7344   1.155   0.529  17.303 -0.9106  0.1450 -0.5684
  490MPD2     N 7345   1.331   0.222  17.586 -0.5299  0.2996 -0.2604
  490MPD2    H5 7346   1.423   0.242  17.549 -1.0024 -2.7494 -3.1286
  490MPD2    N1 7347   0.870   0.306  17.570 -0.0302 -0.0001 -0.2287
  490MPD2    H7 7348   0.858   0.245  17.650  1.1655  0.8544  0.6035
  491TMC3    C1 7349   0.668   0.210  17.530  0.0517  0.2306  0.0690
  491TMC3    C2 7350   0.685   0.165  17.660  0.3516  0.2487 -0.3797
  491TMC3    C3 7351   0.668   0.030  17.681 -0.8543 -0.4383 -0.0552
  491TMC3    C4 7352   0.628   0.121  17.427 -0.2951 -0.1746 -0.1336
  491TMC3    C5 7353   0.614   4.727  17.458  0.0798  0.6361  0.4945
  491TMC3    C6 7354   0.627   4.678  17.590  0.2010 -0.5322  0.3992
  491TMC3     C 7355   0.757   0.319  17.493  0.1130  0.6926 -0.4582
  491TMC3     O 7356   0.734   0.377  17.387 -0.2630  0.2888 -0.3221
  491TMC3     H 7357   0.718   0.231  17.740 -2.7445  0.9768  0.3058
  491TMC3    H1 7358   0.644   0.167  17.331 -0.8904  0.0619 -0.1217
  491TMC3    H2 7359   0.611   4.575  17.616 -0.8600 -0.0814  1.5003
  491TMC3    C7 7360   0.563   4.634  17.354 -0.2493 -0.3652 -0.1988
  491TMC3    C8 7361   0.688   4.720   0.070 -0.2176 -0.2853  0.5946
  491TMC3    O1 7362   0.541   4.514  17.379  0.1457 -0.0546 -0.0236
  491TMC3    O2 7363   0.693   0.068   0.155  0.6123 -0.4261  0.5884
  492MPD2     C 7364   1.392   0.267  11.840  0.4936  0.8030 -0.6653
  492MPD2    C1 7365   1.301   0.186  11.777  0.5232 -0.0756 -0.4625
  492MPD2    C2 7366   1.255   0.076  11.840 -0.2575  1.2151 -0.1286
  492MPD2    C3 7367   1.304   0.038  11.958  0.2726  0.4293 -0.0356
  492MPD2    C4 7368   1.404   0.110  12.016 -0.2013 -0.4385 -0.5467
  492MPD2    C5 7369   1.441   0.224  11.961 -0.1632 -0.1794  0.2098
  492MPD2     H 7370   1.196   0.005  11.782  1.0088 -0.2925  0.4328
  492MPD2    H1 7371   1.451   0.063  12.101 -0.2939 -1.7280 -1.2079
  492MPD2    H2 7372   1.433   0.357  11.796 -1.0465  1.9776  0.2907
  492MPD2    H3 7373   1.526   0.269  12.011 -0.8712  2.7960 -1.2936
  492MPD2     N 7374   1.270   4.653  12.023 -0.3128  0.0007 -0.0764
  492MPD2    H5 7375   1.349   4.617  12.074 -0.5888  0.5445  0.7288
  492MPD2    N1 7376   1.284   0.221  11.639  0.5703  0.1290  0.1901
  492MPD2    H7 7377   1.334   0.298  11.596  0.0221 -0.2941 -1.2288
  493TMC3    C1 7378   1.214   0.202  11.421 -0.2216  0.3740  0.8484
  493TMC3    C2 7379   1.337   0.258  11.389  0.1077 -0.1659 -0.7914
  493TMC3    C3 7380   1.327   0.350  11.286 -0.1750 -0.8627  0.7308
  493TMC3    C4 7381   1.097   0.215  11.351  0.0247  0.2167  0.0722
  493TMC3    C5 7382   1.097   0.314  11.262 -0.3315  0.3336 -0.3032
  493TMC3    C6 7383   1.207   0.374  11.217  0.5843 -0.3456  0.0619
  493TMC3     C 7384   1.200   0.154  11.555 -0.0577  0.0623  0.2886
  493TMC3     O 7385   1.097   0.097  11.586  0.1666  0.0337  0.7192
  493TMC3     H 7386   1.429   0.227  11.438  0.7397  1.7054 -0.7989
  493TMC3    H1 7387   1.005   0.172  11.388  1.9912 -0.2090  4.4851
  493TMC3    H2 7388   1.196   0.458  11.150 -1.2851 -1.0447 -0.5026
  493TMC3    C7 7389   0.976   0.365  11.201  0.4438 -0.3062 -0.3894
  493TMC3    C8 7390   1.432   0.442  11.281  0.8921  0.6513 -0.2765
  493TMC3    O1 7391   0.981   0.407  11.083  0.1718 -0.4085  0.2968
  493TMC3    O2 7392   1.478   0.458  11.390 -0.1891  0.2829  0.0102
  494TMC3    C1 7393   1.528   1.688   0.468  0.4277 -0.1530  0.2801
  494TMC3    C2 7394   1.591   1.567   0.473 -0.5044  0.0615 -0.3109
  494TMC3    C3 7395   1.585   1.485   0.361  0.5769 -0.1849 -0.9640
  494TMC3    C4 7396   1.478   1.736   0.353  0.7799  0.1469  0.6159
  494TMC3    C5 7397   1.484   1.657   0.240 -0.0172 -0.0034  0.1953
  494TMC3    C6 7398   1.540   1.531   0.242  0.6928 -0.0880 -0.1028
  494TMC3     C 7399   1.486   1.751   0.590  0.5017  0.0429  0.7894
  494TMC3     O 7400   1.550   1.749   0.692 -0.1830  0.4827 -0.4335
  494TMC3     H 7401   1.628   1.535   0.570  1.0077 -1.2978 -1.3431
  494TMC3    H1 7402   1.460   1.842   0.346  1.2842  0.2181  0.4158
  494TMC3    H2 7403   1.543   1.459   0.161  0.9392  1.6037 -1.5711
  494TMC3    C7 7404   1.453   1.707   0.106 -0.0399  0.1512 -0.2583
  494TMC3    C8 7405   1.607   1.341   0.390 -0.3469  0.4476 -0.2633
  494TMC3    O1 7406   1.508   1.651   0.012 -0.2380  0.3003  0.6211
  494TMC3    O2 7407   1.657   1.321   0.498 -0.3403 -0.4678 -0.1172
  495TMC3    C1 7408   0.998   3.885  14.934  0.1462 -0.1897  0.0306
  495TMC3    C2 7409   0.930   3.872  14.819  0.1081 -0.4639  0.1269
  495TMC3    C3 7410   0.792   3.876  14.818 -0.7211  0.0338  0.4971
  495TMC3    C4 7411   0.932   3.912  15.047 -0.1571 -0.1629  0.8600
  495TMC3    C5 7412   0.795   3.917  15.045  0.2933 -0.3117  0.2497
  495TMC3    C6 7413   0.721   3.905  14.930  0.4133 -0.2233 -0.9369
  495TMC3     C 7414   1.079   3.770  14.960 -0.3434  0.3769  0.4885
  495TMC3     O 7415   1.029   3.683  15.030  0.5533 -0.1557  1.0059
  495TMC3     H 7416   0.989   3.850  14.730  1.4665 -0.4902  1.0385
  495TMC3    H1 7417   0.982   3.900  15.143  0.1304  0.4165  0.7818
  495TMC3    H2 7418   0.613   3.912  14.942  0.7884  1.9561  1.2215
  495TMC3    C7 7419   0.736   3.882  15.170  0.3870 -0.3464 -0.9855
  495TMC3    C8 7420   0.721   3.793  14.722 -0.4089 -0.6588  0.3991
  495TMC3    O1 7421   0.797   3.919  15.267  0.0794  0.0353  0.0151
  495TMC3    O2 7422   0.601   3.814  14.707  0.2342 -0.5272  0.1687
  496MPD2     C 7423   2.846   4.140  15.885 -0.3412  0.1526 -0.0536
  496MPD2    C1 7424   2.758   4.063  15.820 -0.0127  0.0564 -0.0005
  496MPD2    C2 7425   2.627   4.094  15.805 -0.8898  0.1317  0.3332
  496MPD2    C3 7426   2.578   4.213  15.868 -0.2052  0.7191 -0.6053
  496MPD2    C4 7427   2.667   4.291  15.942 -0.7411  0.6797  0.4773
  496MPD2    C5 7428   2.794   4.249  15.957  0.2705  0.2151 -1.0373
  496MPD2     H 7429   2.567   4.038  15.734  1.2040 -0.0323 -1.3072
  496MPD2    H1 7430   2.640   4.384  15.989 -2.0117  0.5321  0.0454
  496MPD2    H2 7431   2.952   4.115  15.889 -0.5177 -0.8294 -1.7266
  496MPD2    H3 7432   2.867   4.301  16.018  0.5147  0.2318 -1.3483
  496MPD2     N 7433   2.442   4.259  15.861 -0.3122  0.9410 -0.4557
  496MPD2    H5 7434   2.427   4.351  15.901 -1.1789 -0.0443  1.4640
  496MPD2    N1 7435   2.809   3.944  15.765 -0.2258  0.1280  0.2320
  496MPD2    H7 7436   2.911   3.946  15.761 -0.2387 -0.5934 -0.5338
  497TMC3    C1 7437   2.210   4.230  15.853 -0.1538  0.3213  0.6650
  497TMC3    C2 7438   2.177   4.362  15.849 -0.2325  0.2631  0.1869
  497TMC3    C3 7439   2.055   4.400  15.906  0.5249  0.3470 -0.0814
  497TMC3    C4 7440   2.135   4.143  15.925  0.6974  0.2009  0.0760
  497TMC3    C5 7441   2.028   4.188  15.990 -0.4049  0.5275  0.1910
  497TMC3    C6 7442   1.984   4.311  15.985 -0.0179 -0.6681  0.3438
  497TMC3     C 7443   2.339   4.187  15.810  0.4991 -0.6636  0.1522
  497TMC3     O 7444   2.334   4.093  15.736  0.1822  0.3944 -0.0458
  497TMC3     H 7445   2.225   4.424  15.774 -1.6575  1.5761  0.3512
  497TMC3    H1 7446   2.168   4.040  15.918 -1.1508 -0.2382 -2.3915
  497TMC3    H2 7447   1.900   4.338  16.048  1.3136  0.3459  1.6937
  497TMC3    C7 7448   1.996   4.111  16.108 -0.1867 -0.2560 -0.6520
  497TMC3    C8 7449   2.014   4.537  15.884  0.5142 -0.0518  0.0237
  497TMC3    O1 7450   1.888   4.120  16.169  0.2831  0.2735  0.1291
  497TMC3    O2 7451   2.100   4.616  15.837 -0.6267 -0.2356  0.1217
  498MPD2     C 7452   3.413   4.667  10.350  0.2123 -0.4931 -0.6566
  498MPD2    C1 7453   3.494   4.561  10.313  0.0851  0.3785  0.2653
  498MPD2    C2 7454   3.438   4.432  10.327 -0.2424  0.6182 -0.2525
  498MPD2    C3 7455   3.310   4.413  10.381 -0.3812  0.4327 -0.4687
  498MPD2    C4 7456   3.243   4.522  10.419  0.1578 -1.2341 -0.0159
  498MPD2    C5 7457   3.293   4.646  10.403 -0.6548 -0.3647  0.4443
  498MPD2     H 7458   3.491   4.341  10.298 -0.7939  0.7684 -1.7382
  498MPD2    H1 7459   3.142   4.528  10.459  0.6229 -0.8364  1.0858
  498MPD2    H2 7460   3.438   0.033  10.323  0.4625  0.0759  1.7748
  498MPD2    H3 7461   3.222   4.724  10.427 -1.6548 -1.0504 -0.2993
  498MPD2     N 7462   3.260   4.276  10.399 -0.4941 -1.1404 -0.3205
  498MPD2    H5 7463   3.320   4.203  10.361  1.2987  1.8613 -3.1913
  498MPD2    N1 7464   3.624   4.578  10.256 -0.2601 -0.8912 -0.1479
  498MPD2    H7 7465   3.669   4.488  10.242 -0.8292 -1.1924 -0.0260
  499TMC3    C1 7466   3.791   4.665  10.118  0.2922 -0.6969  0.2997
  499TMC3    C2 7467   3.849   4.541  10.111 -0.8977  0.1738  0.5795
  499TMC3    C3 7468   3.967   4.538  10.046  0.6570 -0.5862  0.3335
  499TMC3    C4 7469   3.856   0.038  10.056 -1.0448  1.0722 -0.1152
  499TMC3    C5 7470   3.974   0.022   9.995  0.4066 -1.1254 -0.0293
  499TMC3    C6 7471   4.040   4.641   9.989  0.4616 -1.0561 -0.1000
  499TMC3     C 7472   3.683   4.693  10.210 -0.1386 -0.7664 -0.4954
  499TMC3     O 7473   3.645   0.072  10.214 -0.0872  1.2381  0.1087
  499TMC3     H 7474   3.786   4.456  10.131 -1.0655  0.1227 -0.1689
  499TMC3    H1 7475   3.817   0.138  10.063 -0.2983  1.1661  2.7295
  499TMC3    H2 7476   4.138   4.618   9.948  0.5550  0.9681 -0.9799
  499TMC3    C7 7477   4.061   0.144   9.984 -0.1258  0.2742  0.0359
  499TMC3    C8 7478   4.027   4.407  10.026 -0.1148 -0.4543  0.1920
  499TMC3    O1 7479   4.184   0.129   9.980 -0.0597  0.0833 -0.5798
  499TMC3    O2 7480   4.068   4.372   9.915 -0.2055  0.1076  0.0722
  500MPD2     C 7481   0.548   0.958  11.419 -0.0270  0.8019 -0.3324
  500MPD2    C1 7482   0.590   1.075  11.351 -0.3590 -0.0679  0.3886
  500MPD2    C2 7483   0.511   1.124  11.257  0.9697  0.5539  0.6155
  500MPD2    C3 7484   0.383   1.071  11.218 -0.5932  0.0928  0.1913
  500MPD2    C4 7485   0.341   0.960  11.290 -0.2190  0.3642  0.5894
  500MPD2    C5 7486   0.425   0.902  11.382 -0.8059  0.7339 -0.1442
  500MPD2     H 7487   0.549   1.209  11.201  1.6934  0.5360  1.0846
  500MPD2    H1 7488   0.250   0.908  11.263 -0.8648  1.4110  0.7195
  500MPD2    H2 7489   0.602   0.910  11.500 -1.0317 -0.0964 -0.2039
  500MPD2    H3 7490   0.398   0.809  11.431  0.0353 -0.8918 -2.7553
  500MPD2     N 7491   0.300   1.127  11.121  0.0288  0.4060 -0.2088
  500MPD2    H5 7492   0.205   1.092  11.119  0.0206  0.4714 -0.8733
  500MPD2    N1 7493   0.718   1.131  11.373 -0.0536 -0.6640  0.7975
  500MPD2    H7 7494   0.754   1.206  11.316 -0.3047 -0.7926  0.4674
  501TMC3    C1 7495   0.948   1.118  11.431 -0.3926 -0.4011  0.2131
  501TMC3    C2 7496   0.974   1.172  11.306 -0.4385  0.0501  0.4514
  501TMC3    C3 7497   1.104   1.219  11.284 -0.1126 -0.0736  0.2297
  501TMC3    C4 7498   1.042   1.084  11.521  0.2366  0.0857 -0.3170
  501TMC3    C5 7499   1.170   1.131  11.494  0.0842  0.2287  0.0731
  501TMC3    C6 7500   1.206   1.200  11.377 -0.1056 -0.7642  0.3811
  501TMC3     C 7501   0.808   1.090  11.463  0.3443  0.0079 -0.6191
  501TMC3     O 7502   0.801   1.007  11.553  0.0280 -0.0646 -0.0563
  501TMC3     H 7503   0.897   1.190  11.231  1.4509 -0.8399 -1.7051
  501TMC3    H1 7504   1.019   1.033  11.615  1.7178  0.1384  0.0737
  501TMC3    H2 7505   1.305   1.242  11.367 -0.6662 -0.4427 -3.8775
  501TMC3    C7 7506   1.275   1.078  11.581  0.3088 -0.6100 -0.0195
  501TMC3    C8 7507   1.134   1.294  11.166  0.6403  0.2690  0.3799
  501TMC3    O1 7508   1.240   1.000  11.673  0.4184  0.0079  0.5282
  501TMC3    O2 7509   1.219   1.382  11.179 -0.4440 -0.0028  0.2317
  502TMC3    C1 7510   0.522   4.663  14.983 -0.1328 -1.0729  0.0084
  502TMC3    C2 7511   0.512   0.052  14.923 -0.4393  0.0698 -0.1415
  502TMC3    C3 7512   0.397   0.082  14.850  0.3149 -0.1376 -0.1681
  502TMC3    C4 7513   0.432   4.565  14.961  0.1051 -0.8893 -0.7864
  502TMC3    C5 7514   0.320   4.600  14.885 -0.8470 -0.2186 -0.3519
  502TMC3    C6 7515   0.300   4.725  14.834  1.4208  0.1898  0.6393
  502TMC3     C 7516   0.635   4.645  15.077 -0.5853 -0.4867 -0.1845
  502TMC3     O 7517   0.727   4.723  15.090  0.4492 -0.1967  0.3832
  502TMC3     H 7518   0.596   0.116  14.948 -0.4552 -0.0843  0.3077
  502TMC3    H1 7519   0.423   4.474  15.020 -0.3701 -0.6700 -0.5221
  502TMC3    H2 7520   0.201   0.007  14.793  1.7607  0.5181 -0.0386
  502TMC3    C7 7521   0.208   4.509  14.909 -0.8921 -0.1892  0.3371
  502TMC3    C8 7522   0.384   0.211  14.793  0.6905  0.7404 -0.5013
  502TMC3    O1 7523   0.248   4.396  14.930  0.0517  0.7498  0.0141
  502TMC3    O2 7524   0.299   0.229  14.711 -0.0366  0.2501  0.5618
  503MPD2     C 7525   1.813   0.490  16.785  0.1672  0.1449  0.3950
  503MPD2    C1 7526   1.847   0.565  16.896  0.3143 -0.0941 -0.6678
  503MPD2    C2 7527   1.934   0.511  16.990 -0.3837  0.5961 -0.2113
  503MPD2    C3 7528   1.982   0.382  16.980  0.1395  0.8145  0.7358
  503MPD2    C4 7529   1.944   0.305  16.875 -0.5369 -0.2945  0.2970
  503MPD2    C5 7530   1.857   0.355  16.779  0.2364  0.1968  0.1379
  503MPD2     H 7531   1.970   0.563  17.079 -0.2711 -1.2005  0.7869
  503MPD2    H1 7532   1.977   0.202  16.868 -0.3624 -0.2255  0.1216
  503MPD2    H2 7533   1.743   0.527  16.711 -1.2216 -0.2737  1.4956
  503MPD2    H3 7534   1.823   0.296  16.695  1.9929 -3.2984  1.8954
  503MPD2     N 7535   2.085   0.339  17.073 -0.0140  0.8205  0.8425
  503MPD2    H5 7536   2.100   0.409  17.145  1.2167  0.4633  0.9261
  503MPD2    N1 7537   1.804   0.693  16.927 -0.2654  0.2368 -0.0991
  503MPD2    H7 7538   1.830   0.729  17.018  1.4812 -0.3488 -0.3727
  504TMC3    C1 7539   2.250   0.233  17.188 -0.5107 -0.1786  0.0677
  504TMC3    C2 7540   2.188   0.269  17.309 -0.1973 -0.1459 -0.3463
  504TMC3    C3 7541   2.268   0.247  17.425  0.4001  0.5799 -0.1729
  504TMC3    C4 7542   2.383   0.198  17.176  0.0366 -0.1469  0.3877
  504TMC3    C5 7543   2.456   0.190  17.291 -0.6233 -0.9258 -0.2841
  504TMC3    C6 7544   2.402   0.222  17.417 -0.6304  0.2671  0.8558
  504TMC3     C 7545   2.164   0.222  17.073 -0.3477 -0.0692 -0.2088
  504TMC3     O 7546   2.181   0.125  17.002 -0.3990 -0.6216 -0.1034
  504TMC3     H 7547   2.080   0.267  17.316 -0.1485  1.5602  0.9739
  504TMC3    H1 7548   2.427   0.168  17.082  0.4977 -2.7094  1.4179
  504TMC3    H2 7549   2.460   0.203  17.506  0.4668  3.1410  0.7357
  504TMC3    C7 7550   2.575   0.110  17.279 -0.1291 -0.1727 -0.3967
  504TMC3    C8 7551   2.192   0.186  17.528  0.1795  0.3320 -1.0079
  504TMC3    O1 7552   2.649   0.138  17.188 -0.1571  0.5437  0.5048
  504TMC3    O2 7553   2.067   0.173  17.520  0.3305 -0.0281 -0.4367
  505MPD2     C 7554   2.212   3.414  10.369  0.1864  0.3720 -0.5626
  505MPD2    C1 7555   2.288   3.318  10.431  0.7808  0.3683 -0.1854
  505MPD2    C2 7556   2.309   3.324  10.569 -1.1165  0.3450 -0.6441
  505MPD2    C3 7557   2.242   3.424  10.638 -0.0231 -0.4072  0.0180
  505MPD2    C4 7558   2.161   3.512  10.580 -1.1298  0.4126  0.3141
  505MPD2    C5 7559   2.149   3.509  10.442 -0.5804  1.2107  0.3422
  505MPD2     H 7560   2.371   3.255  10.624 -0.0288  1.3027 -0.6670
  505MPD2    H1 7561   2.098   3.580  10.637  0.0139  0.8876  1.0134
  505MPD2    H2 7562   2.208   3.429  10.262  0.9664 -2.5893 -1.0041
  505MPD2    H3 7563   2.085   3.583  10.394 -1.4148  0.1926 -0.1042
  505MPD2     N 7564   2.253   3.416  10.772  0.1385 -0.2452 -0.3346
  505MPD2    H5 7565   2.303   3.337  10.811 -1.1326  0.1511  2.1124
  505MPD2    N1 7566   2.367   3.225  10.358  0.3793  0.1635 -0.0608
  505MPD2    H7 7567   2.370   3.242  10.258 -2.1654 -1.6540 -0.4620
  506TMC3    C1 7568   2.520   3.045  10.318  0.1486 -0.1517 -0.4003
  506TMC3    C2 7569   2.602   3.128  10.249 -0.1068 -0.1040 -0.1319
  506TMC3    C3 7570   2.736   3.100  10.231  0.2724  0.5444  0.0775
  506TMC3    C4 7571   2.573   2.935  10.378 -0.2886 -0.2657 -0.0342
  506TMC3    C5 7572   2.712   2.917  10.368 -0.2240 -1.2241  0.2073
  506TMC3    C6 7573   2.793   2.993  10.281  0.2275  0.6869 -0.0234
  506TMC3     C 7574   2.427   3.116  10.409 -0.1243 -0.5175  0.1219
  506TMC3     O 7575   2.424   3.067  10.523 -0.2393 -0.4224 -0.0557
  506TMC3     H 7576   2.576   3.229  10.221 -1.1565 -0.1431  0.7194
  506TMC3    H1 7577   2.515   2.860  10.430 -0.0990 -0.7477 -0.5172
  506TMC3    H2 7578   2.902   2.994  10.279  0.2816 -2.7098  0.1647
  506TMC3    C7 7579   2.768   2.898  10.499  0.1243 -0.3634  0.6453
  506TMC3    C8 7580   2.803   3.221  10.247  0.5230  0.2078 -0.4388
  506TMC3    O1 7581   2.876   2.836  10.507  0.2814  0.1681 -0.0677
  506TMC3    O2 7582   2.762   3.300  10.334 -0.1131 -0.2504 -0.7199
  507TMC3    C1 7583   3.135   4.480  14.450 -0.0844  0.8734 -0.1739
  507TMC3    C2 7584   3.174   4.491  14.316 -0.1438 -0.5651  0.1120
  507TMC3    C3 7585   3.296   4.544  14.289  0.1436 -0.2695  0.6698
  507TMC3    C4 7586   3.228   4.504  14.553 -0.2268 -0.3452 -0.3694
  507TMC3    C5 7587   3.357   4.533  14.510 -0.1710 -0.1199  0.1481
  507TMC3    C6 7588   3.393   4.549  14.384  0.0977 -0.5970  0.2710
  507TMC3     C 7589   2.993   4.473  14.487  0.2852  0.2455  0.3075
  507TMC3     O 7590   2.968   4.467  14.607 -0.7257  0.5264 -0.0253
  507TMC3     H 7591   3.099   4.488  14.238  0.4879 -2.7193 -0.4310
  507TMC3    H1 7592   3.201   4.492  14.658 -1.4405 -0.3609 -0.6791
  507TMC3    H2 7593   3.490   4.579  14.348 -0.0810  1.5632  1.5992
  507TMC3    C7 7594   3.421   4.641  14.590 -0.6317  0.1142 -0.3906
  507TMC3    C8 7595   3.284   4.676  14.222 -0.2436  0.2003  0.5822
  507TMC3    O1 7596   3.502   4.716  14.538  0.4665  0.3775 -0.2049
  507TMC3    O2 7597   3.201   4.684  14.132  0.1916  0.2208  0.5362
  508MPD2     C 7598   3.870   2.558  16.209 -0.0965  0.2027  0.2432
  508MPD2    C1 7599   3.973   2.628  16.258  0.5742 -0.4342  0.0081
  508MPD2    C2 7600   4.005   2.747  16.200 -0.4981  0.6008  0.4833
  508MPD2    C3 7601   3.936   2.810  16.102  0.5049 -0.1876  0.0427
  508MPD2    C4 7602   3.825   2.738  16.053  0.0395  0.0269 -0.3264
  508MPD2    C5 7603   3.786   2.619  16.111 -0.0859 -0.5701 -0.1936
  508MPD2     H 7604   4.094   2.794  16.242  0.5721 -0.8457 -0.1655
  508MPD2    H1 7605   3.751   2.770  15.979  0.5107  0.2842 -0.6869
  508MPD2    H2 7606   3.842   2.461  16.249  3.0778 -0.7017  0.2364
  508MPD2    H3 7607   3.697   2.563  16.084 -2.3393  2.0557  1.8256
  508MPD2     N 7608   3.964   2.941  16.050 -0.6787  0.2377  0.0184
  508MPD2    H5 7609   4.048   2.982  16.089  0.0658 -1.2408 -0.0350
  508MPD2    N1 7610   4.047   2.562  16.364  0.2758  0.0950  0.4972
  508MPD2    H7 7611   4.014   2.473  16.398  1.8617 -0.5309  0.4140
  509TMC3    C1 7612   3.971   3.309  15.765  0.1337 -0.1854  0.2720
  509TMC3    C2 7613   4.034   3.389  15.854  0.6352 -0.5971  0.5007
  509TMC3    C3 7614   4.043   3.344  15.986 -1.2423 -0.0585  0.0414
  509TMC3    C4 7615   3.936   3.179  15.796  0.9435 -0.0478  0.1921
  509TMC3    C5 7616   3.937   3.144  15.928 -0.3298 -0.5953  0.3649
  509TMC3    C6 7617   3.989   3.220  16.028 -0.4581 -0.0609 -0.2109
  509TMC3     C 7618   3.957   3.349  15.623 -0.5251  0.3167  0.0805
  509TMC3     O 7619   4.041   3.426  15.573 -0.2483  0.4520  0.0998
  509TMC3     H 7620   4.056   3.491  15.824  1.6001 -1.5807 -2.1766
  509TMC3    H1 7621   3.894   3.106  15.728  0.8651  1.4882 -1.4014
  509TMC3    H2 7622   3.981   3.187  16.131 -1.4624 -0.4162 -0.3966
  509TMC3    C7 7623   3.886   3.011  15.959 -0.6190 -0.6447 -0.0403
  509TMC3    C8 7624   4.149   3.402  16.075  0.2615  0.0786 -0.0980
  509TMC3    O1 7625   3.805   2.969  15.877  0.2463  0.2674  0.4217
  509TMC3    O2 7626   4.135   3.381  16.194  0.2998 -0.4726 -0.4983
  510MPD2     C 7627   2.108   4.025  14.639  0.2090  0.3888  0.1058
  510MPD2    C1 7628   2.187   3.953  14.730  0.2118  0.5164  0.7288
  510MPD2    C2 7629   2.325   3.952  14.705 -0.6000 -0.5742  0.4424
  510MPD2    C3 7630   2.377   4.021  14.597 -0.2914 -0.4081  0.5995
  510MPD2    C4 7631   2.293   4.087  14.505 -0.0917  0.6735  1.2295
  510MPD2    C5 7632   2.159   4.092  14.532  0.4738  0.2829 -0.1615
  510MPD2     H 7633   2.395   3.894  14.763 -0.1406 -0.2044  0.2519
  510MPD2    H1 7634   2.330   4.146  14.423  0.2679 -2.7781 -1.1206
  510MPD2    H2 7635   2.001   4.013  14.637  0.0381  1.7265  1.3088
  510MPD2    H3 7636   2.090   4.126  14.455 -1.1502  1.3925  1.7844
  510MPD2     N 7637   2.519   4.024  14.575 -0.1179  0.2711 -0.3632
  510MPD2    H5 7638   2.577   3.996  14.653 -1.6921  0.9360  1.0503
  510MPD2    N1 7639   2.132   3.887  14.840  0.1764 -0.0006  0.2046
  510MPD2    H7 7640   2.192   3.813  14.876 -0.3018  0.5463  2.1079
  511TMC3    C1 7641   1.996   3.856  15.026  0.5148 -0.0979  0.0465
  511TMC3    C2 7642   1.917   3.923  15.119  0.0381  0.0429 -0.7250
  511TMC3    C3 7643   1.837   3.847  15.196 -0.7621  0.3451  0.7949
  511TMC3    C4 7644   1.986   3.716  15.017 -0.3739 -0.3965 -0.0895
  511TMC3    C5 7645   1.898   3.648  15.102  0.0461  0.0289  0.3902
  511TMC3    C6 7646   1.829   3.709  15.197 -0.4087  0.2634  0.1820
  511TMC3     C 7647   2.019   3.930  14.905 -0.0594  0.1571 -0.2932
  511TMC3     O 7648   1.952   4.036  14.891  0.1795  0.2375  0.1947
  511TMC3     H 7649   1.933   4.030  15.124 -2.3870  0.3739  0.0730
  511TMC3    H1 7650   2.031   3.661  14.936  2.4070  1.8287 -0.0294
  511TMC3    H2 7651   1.769   3.646  15.263  1.0207  0.6285  1.8302
  511TMC3    C7 7652   1.887   3.509  15.066  0.9263  0.3374  0.8488
  511TMC3    C8 7653   1.755   3.915  15.286 -0.2206 -0.4806 -0.9603
  511TMC3    O1 7654   1.979   3.468  15.000 -0.3193 -0.2733 -0.5774
  511TMC3    O2 7655   1.736   4.037  15.272  0.0386  0.1297  0.0865
  512TMC3    C1 7656   0.703   3.272  13.286 -0.3351 -0.1252 -0.3638
  512TMC3    C2 7657   0.749   3.276  13.412 -0.4479  0.3637 -0.5831
  512TMC3    C3 7658   0.758   3.154  13.477 -0.5522 -0.0693 -0.1776
  512TMC3    C4 7659   0.675   3.162  13.211  0.0787  0.7928  1.2386
  512TMC3    C5 7660   0.688   3.044  13.280  0.2014  0.6777 -0.1298
  512TMC3    C6 7661   0.727   3.036  13.417  0.2346  0.7563  0.5125
  512TMC3     C 7662   0.680   3.397  13.218 -0.3840  0.4472  0.1044
  512TMC3     O 7663   0.664   3.490  13.295 -0.0246  0.1379 -0.9464
  512TMC3     H 7664   0.770   3.370  13.462  1.3048  0.9088 -2.3632
  512TMC3    H1 7665   0.626   3.163  13.114  2.4045 -2.1276  0.0561
  512TMC3    H2 7666   0.711   2.949  13.479 -1.2335  2.2505  2.2425
  512TMC3    C7 7667   0.639   2.930  13.208  0.0622 -0.1551 -0.1755
  512TMC3    C8 7668   0.834   3.131  13.599  0.3126  0.4575 -0.0979
  512TMC3    O1 7669   0.558   2.945  13.121  0.0869 -0.4687 -0.0678
  512TMC3    O2 7670   0.815   3.033  13.671  0.1911  0.0253 -0.3950
  513MPD2     C 7671   2.568   3.348  13.301 -0.4333  0.5564  0.1887
  513MPD2    C1 7672   2.638   3.252  13.227 -0.6944  0.1529  0.1302
  513MPD2    C2 7673   2.732   3.178  13.289  0.1090 -1.3815 -0.2393
  513MPD2    C3 7674   2.771   3.207  13.423  0.1845 -0.3135 -0.0743
  513MPD2    C4 7675   2.710   3.306  13.498 -0.0862 -0.7386  0.0051
  513MPD2    C5 7676   2.608   3.377  13.436  0.1673  0.3563  0.3476
  513MPD2     H 7677   2.788   3.095  13.246  1.3125 -1.6030  1.7640
  513MPD2    H1 7678   2.717   3.322  13.605  0.0223  1.9103 -0.3814
  513MPD2    H2 7679   2.492   3.411  13.256  0.3756  1.3616 -0.0609
  513MPD2    H3 7680   2.558   3.453  13.495 -0.4495  0.0884  0.1712
  513MPD2     N 7681   2.872   3.127  13.480  0.3597 -0.3461 -0.4266
  513MPD2    H5 7682   2.915   3.059  13.418 -0.3946 -0.4174 -0.8638
  513MPD2    N1 7683   2.609   3.228  13.096 -0.6356  0.2885  0.1478
  513MPD2    H7 7684   2.665   3.155  13.051  1.6181  2.2919 -0.2807
  514TMC3    C1 7685   2.544   3.273  12.876 -0.1151  0.4512 -0.8556
  514TMC3    C2 7686   2.572   3.377  12.801  0.7331 -0.7299 -0.2385
  514TMC3    C3 7687   2.700   3.377  12.741 -0.2666  0.4960 -0.0925
  514TMC3    C4 7688   2.617   3.158  12.864  1.0313  0.0113  0.2819
  514TMC3    C5 7689   2.737   3.152  12.799 -0.0232 -0.0633 -0.4131
  514TMC3    C6 7690   2.782   3.271  12.748 -0.3629  0.0900  0.1223
  514TMC3     C 7691   2.522   3.304  13.015  0.0378 -0.0512  0.0836
  514TMC3     O 7692   2.469   3.410  13.039 -0.4891 -0.4211  0.1401
  514TMC3     H 7693   2.504   3.462  12.796  0.8139 -0.6503  0.0159
  514TMC3    H1 7694   2.587   3.069  12.918  0.9741 -1.3289 -1.9606
  514TMC3    H2 7695   2.881   3.280  12.705  0.7367 -0.8217  2.4308
  514TMC3    C7 7696   2.836   3.087  12.874 -0.6604 -0.4905  0.3059
  514TMC3    C8 7697   2.719   3.483  12.649 -0.2221  0.0938  0.2864
  514TMC3    O1 7698   2.802   3.044  12.985 -0.2217 -0.0274 -0.1262
  514TMC3    O2 7699   2.645   3.578  12.661 -0.0460  0.1978  0.1983
  515MPD2     C 7700   0.965   0.816  14.696 -0.2980 -0.2996  0.1039
  515MPD2    C1 7701   0.994   0.677  14.724  0.0507 -0.2787  0.0146
  515MPD2    C2 7702   1.070   0.654  14.839 -0.3366 -0.5772 -0.4109
  515MPD2    C3 7703   1.118   0.756  14.914 -0.6583 -0.0900 -0.0328
  515MPD2    C4 7704   1.080   0.889  14.892  0.1985  0.7899  0.1489
  515MPD2    C5 7705   1.003   0.916  14.783  0.6781 -0.6437 -0.1314
  515MPD2     H 7706   1.082   0.549  14.862 -1.0029 -0.5245  0.1678
  515MPD2    H1 7707   1.124   0.975  14.941  1.5884  0.6390 -0.8092
  515MPD2    H2 7708   0.916   0.845  14.604 -0.0490 -2.8512 -0.8192
  515MPD2    H3 7709   0.979   1.020  14.765  0.4235 -0.6748  0.0233
  515MPD2     N 7710   1.191   0.728  15.031  0.7340 -0.5106 -0.2437
  515MPD2    H5 7711   1.223   0.812  15.077  2.2765 -1.1060 -0.2540
  515MPD2    N1 7712   0.962   0.561  14.649 -0.4072  0.1042 -0.1366
  515MPD2    H7 7713   1.014   0.480  14.680 -0.8421 -0.6508 -1.3696
  516TMC3    C1 7714   0.858   0.435  14.481 -0.4655 -0.0670 -0.2127
  516TMC3    C2 7715   0.814   0.424  14.353 -0.4243 -0.4860 -0.2994
  516TMC3    C3 7716   0.739   0.314  14.310 -0.5185 -0.2224  0.5130
  516TMC3    C4 7717   0.826   0.339  14.574 -0.3219  0.0016  0.0877
  516TMC3    C5 7718   0.752   0.228  14.528 -0.1746  0.1643 -0.1256
  516TMC3    C6 7719   0.704   0.218  14.398  0.8317  0.2770  0.2741
  516TMC3     C 7720   0.900   0.559  14.529 -0.5348 -0.3257  0.7606
  516TMC3     O 7721   0.880   0.656  14.456 -0.2478 -0.3969  0.0097
  516TMC3     H 7722   0.845   0.507  14.291 -0.1158  0.1405  0.6976
  516TMC3    H1 7723   0.841   0.359  14.680 -0.7382 -0.0227  0.1505
  516TMC3    H2 7724   0.635   0.139  14.370  0.6130  0.1996  1.0223
  516TMC3    C7 7725   0.750   0.119  14.618  0.1218 -0.0659  1.0820
  516TMC3    C8 7726   0.656   0.325  14.196 -0.4759 -0.3989 -0.5403
  516TMC3    O1 7727   0.822   0.120  14.718 -0.4650  0.3169 -0.8769
  516TMC3    O2 7728   0.549   0.267  14.192 -0.1780  0.0127 -0.5306
  517MPD2     C 7729   0.972   2.147   0.414 -0.2628  0.5387  0.1610
  517MPD2    C1 7730   0.856   2.159   0.344 -0.1257  1.0410 -0.6782
  517MPD2    C2 7731   0.796   2.280   0.343 -0.0030  0.2440  0.0808
  517MPD2    C3 7732   0.847   2.391   0.416  0.2549 -0.3286  0.0064
  517MPD2    C4 7733   0.964   2.375   0.491  0.9440 -0.5522 -0.5651
  517MPD2    C5 7734   1.027   2.250   0.484 -0.2107 -0.4293 -0.3770
  517MPD2     H 7735   0.698   2.292   0.297 -0.6383  0.3633  1.4634
  517MPD2    H1 7736   0.991   2.446   0.568 -0.6473 -0.4875 -0.0655
  517MPD2    H2 7737   1.024   2.053   0.426 -1.6636 -0.4227 -1.3792
  517MPD2    H3 7738   1.108   2.235   0.555 -1.0074 -1.2463  0.3608
  517MPD2     N 7739   0.767   2.506   0.431  0.6333  0.0781  0.0758
  517MPD2    H5 7740   0.668   2.504   0.404  0.5693  0.9164  0.2622
  517MPD2    N1 7741   0.808   2.055   0.260  0.0008  0.7826 -0.7047
  517MPD2    H7 7742   0.736   2.070   0.190 -0.2795 -0.6964 -0.7332
  518TMC3    C1 7743   0.790   1.854   0.157 -0.5195  0.1714  0.3914
  518TMC3    C2 7744   0.783   1.713   0.169 -0.8048  0.3998 -0.1014
  518TMC3    C3 7745   0.772   1.644   0.061 -0.3269  0.0802  0.0087
  518TMC3    C4 7746   0.785   1.921   0.037  0.4285 -0.0044 -0.0044
  518TMC3    C5 7747   0.784   1.838  17.673 -0.3068 -0.1617 -0.5209
  518TMC3    C6 7748   0.778   1.700  17.682  0.5745  0.5035  0.5027
  518TMC3     C 7749   0.849   1.924   0.268 -0.6677 -0.4085  0.2909
  518TMC3     O 7750   0.903   1.858   0.354 -0.5570  0.4388 -0.1195
  518TMC3     H 7751   0.792   1.662   0.265 -2.3952 -1.6784 -1.0736
  518TMC3    H1 7752   0.816   2.024   0.029 -0.6401  0.4792  1.9664
  518TMC3    H2 7753   0.734   1.647  17.598  3.8226 -1.5688  0.1266
  518TMC3    C7 7754   0.862   1.889  17.559 -0.0871 -0.3315  0.0141
  518TMC3    C8 7755   0.734   1.506   0.066 -0.5851  0.1004 -0.4980
  518TMC3    O1 7756   0.838   2.000  17.509 -0.1155 -0.1541 -0.2226
  518TMC3    O2 7757   0.774   1.445  17.712 -0.4079  0.4817 -0.2402
  519MPD2     C 7758   2.610   0.441  14.377 -0.5519 -0.2278  0.0712
  519MPD2    C1 7759   2.501   0.383  14.316 -0.1910  0.2986 -0.1510
  519MPD2    C2 7760   2.510   0.258  14.259  0.1749 -0.5987  0.1908
  519MPD2    C3 7761   2.635   0.199  14.245  0.3365  0.0749 -0.2385
  519MPD2    C4 7762   2.741   0.263  14.300 -0.5374  0.2405 -0.3445
  519MPD2    C5 7763   2.728   0.377  14.373  0.4616 -0.4546  0.3056
  519MPD2     H 7764   2.426   0.207  14.214  0.4252 -0.1632 -0.7783
  519MPD2    H1 7765   2.839   0.218  14.286 -1.1914 -1.1119 -0.5467
  519MPD2    H2 7766   2.607   0.540  14.421 -3.2822 -0.1573 -0.2705
  519MPD2    H3 7767   2.819   0.426  14.404 -0.3863  1.8634 -0.8483
  519MPD2     N 7768   2.664   0.082  14.165 -0.0449  0.2220 -0.2690
  519MPD2    H5 7769   2.763   0.056  14.166  0.4019  1.9036 -0.9581
  519MPD2    N1 7770   2.374   0.437  14.321  0.3985 -0.0353  0.0426
  519MPD2    H7 7771   2.315   0.369  14.275  1.0645  0.1813 -1.1539
  520TMC3    C1 7772   2.650   4.668  13.988  0.2814 -0.1466 -0.8113
  520TMC3    C2 7773   2.578   4.643  13.876  0.3342 -1.3696 -0.4610
  520TMC3    C3 7774   2.624   4.554  13.780 -0.1561  0.6786 -0.4085
  520TMC3    C4 7775   2.761   4.589  14.015  1.0194 -0.5123 -0.4657
  520TMC3    C5 7776   2.808   4.508  13.913 -0.5955 -0.3521  0.0490
  520TMC3    C6 7777   2.741   4.490  13.794 -0.0434 -0.2326 -0.5651
  520TMC3     C 7778   2.581   0.012  14.083  0.0062  0.8290  0.2552
  520TMC3     O 7779   2.465   0.027  14.063 -0.4485 -0.0116  0.0433
  520TMC3     H 7780   2.504   4.719  13.852 -1.4950 -2.9174  0.2106
  520TMC3    H1 7781   2.813   4.598  14.110  1.5744 -2.2691 -0.6010
  520TMC3    H2 7782   2.781   4.429  13.714 -0.3314  1.0953 -1.7087
  520TMC3    C7 7783   2.927   4.423  13.949 -0.0227 -0.2509 -0.1587
  520TMC3    C8 7784   2.535   4.489  13.686  0.1260 -0.7077 -0.3618
  520TMC3    O1 7785   2.961   4.396  14.063  0.5016  0.2706 -0.7389
  520TMC3    O2 7786   2.570   4.384  13.631 -0.6011 -0.4899 -0.0565
  521MPD2     C 7787   2.952   2.593  17.631  0.0591  0.4093  0.0286
  521MPD2    C1 7788   2.903   2.524  17.518  0.1560 -0.2137 -0.1441
  521MPD2    C2 7789   2.989   2.457  17.432  0.2198  0.1860  0.0551
  521MPD2    C3 7790   3.125   2.454  17.460  0.0528 -0.4333 -0.3643
  521MPD2    C4 7791   3.173   2.519  17.573  0.2079  0.3461 -0.0394
  521MPD2    C5 7792   3.086   2.587  17.655  0.1416  0.0081 -0.0576
  521MPD2     H 7793   2.955   2.416  17.338  0.0331 -0.2112  0.2931
  521MPD2    H1 7794   3.278   2.522  17.600 -0.1074  3.0256  0.8225
  521MPD2    H2 7795   2.890   2.664  17.686 -2.0499 -2.9431  1.9877
  521MPD2    H3 7796   3.129   2.649  17.733  0.3354  0.1640 -0.2887
  521MPD2     N 7797   3.210   2.380  17.377  0.1412 -0.3506  0.4341
  521MPD2    H5 7798   3.170   2.348  17.290  2.6669 -0.0656 -0.8476
  521MPD2    N1 7799   2.771   2.544  17.496  0.5167 -0.1002  0.0318
  521MPD2    H7 7800   2.715   2.596  17.563 -0.9969 -1.1065 -0.4429
  522TMC3    C1 7801   3.386   2.299  17.263  0.3295  0.6052  0.8040
  522TMC3    C2 7802   3.489   2.210  17.281 -0.5330  0.4765 -0.3639
  522TMC3    C3 7803   3.529   2.148  17.166  1.1931  0.3904  0.3550
  522TMC3    C4 7804   3.319   2.327  17.144  0.4492 -0.3204 -0.2682
  522TMC3    C5 7805   3.370   2.259  17.032  0.0185  0.1190 -0.5357
  522TMC3    C6 7806   3.469   2.163  17.043  0.2117  0.3388  0.1010
  522TMC3     C 7807   3.348   2.379  17.372  0.3502  0.5796 -0.3643
  522TMC3     O 7808   3.426   2.414  17.463  0.5076  0.5755 -0.3562
  522TMC3     H 7809   3.532   2.199  17.380 -2.1114  0.8863  0.3626
  522TMC3    H1 7810   3.250   2.410  17.140 -0.1720 -0.9413 -2.3173
  522TMC3    H2 7811   3.504   2.109  16.956  0.6177 -0.3635  0.7001
  522TMC3    C7 7812   3.355   2.327  16.896  0.4735 -0.8772 -0.0966
  522TMC3    C8 7813   3.644   2.059  17.164  0.0947  0.1747  0.1970
  522TMC3    O1 7814   3.382   2.258  16.798 -0.4188 -0.0621 -0.2125
  522TMC3    O2 7815   3.672   1.993  17.261 -0.4048  0.7158 -0.1444
  523MPD2     C 7816   1.020   2.971  10.521  0.1249 -0.7092  0.4472
  523MPD2    C1 7817   0.903   2.920  10.461 -0.6180  0.0037  0.7356
  523MPD2    C2 7818   0.826   2.991  10.371 -0.6732  1.0676 -0.6689
  523MPD2    C3 7819   0.854   3.118  10.350 -0.4000  0.4912  0.1682
  523MPD2    C4 7820   0.958   3.180  10.416  0.0507  0.4199 -0.2317
  523MPD2    C5 7821   1.038   3.110  10.495  0.0011 -0.1153 -0.6558
  523MPD2     H 7822   0.736   2.949  10.327  1.7942 -1.9777 -2.8205
  523MPD2    H1 7823   0.995   3.280  10.395 -3.2303  1.7529  0.2686
  523MPD2    H2 7824   1.090   2.920  10.585  2.5038  1.5225 -0.3671
  523MPD2    H3 7825   1.118   3.162  10.546 -1.9988  0.5978  1.7435
  523MPD2     N 7826   0.785   3.197  10.254  0.0462 -0.5182 -0.4117
  523MPD2    H5 7827   0.819   3.291  10.237  0.9047 -1.0962 -1.8150
  523MPD2    N1 7828   0.872   2.787  10.502  0.0796 -0.2005  0.0777
  523MPD2    H7 7829   0.927   2.741  10.574 -1.0572 -2.0568 -0.2238
  524TMC3    C1 7830   0.645   3.262  10.080 -0.1912 -0.3228 -0.1957
  524TMC3    C2 7831   0.601   3.235   9.955 -0.0611 -0.4364  0.0250
  524TMC3    C3 7832   0.523   3.334   9.893  0.0823  0.3217  0.2979
  524TMC3    C4 7833   0.622   3.380  10.140 -0.7004  0.6803  1.0581
  524TMC3    C5 7834   0.546   3.475  10.077 -0.1412 -0.4370 -0.7805
  524TMC3    C6 7835   0.494   3.456   9.953  0.0183  0.0617  0.4973
  524TMC3     C 7836   0.707   3.154  10.150 -0.0149 -0.3196  0.4577
  524TMC3     O 7837   0.678   3.040  10.116  0.0001 -0.2993 -0.2354
  524TMC3     H 7838   0.614   3.138   9.909  1.4220  1.3249 -3.2417
  524TMC3    H1 7839   0.637   3.388  10.247 -0.4239 -1.7302  1.1788
  524TMC3    H2 7840   0.436   3.530   9.899  0.4630 -0.4466 -0.6899
  524TMC3    C7 7841   0.510   3.599  10.149  0.0536  0.8833  0.0418
  524TMC3    C8 7842   0.431   3.289   9.793  0.5662 -0.7036 -0.3080
  524TMC3    O1 7843   0.551   3.615  10.262  0.1161  0.0089 -0.2564
  524TMC3    O2 7844   0.411   3.169   9.781 -0.4161 -0.4371 -0.2560
  525MPD2     C 7845   3.778   4.610  14.323  0.6356 -0.3449  0.0660
  525MPD2    C1 7846   3.910   4.603  14.364  1.1367 -0.0316  0.4263
  525MPD2    C2 7847   3.979   4.720  14.359 -0.3164 -0.2660 -0.4692
  525MPD2    C3 7848   3.921   0.108  14.329 -0.5140 -0.4412 -0.4329
  525MPD2    C4 7849   3.791   0.110  14.284 -0.0438  0.1737 -0.3827
  525MPD2    C5 7850   3.720   4.725  14.288 -0.0854  0.2875  0.2953
  525MPD2     H 7851   4.080   4.712  14.397 -0.9765  2.6652  1.8693
  525MPD2    H1 7852   3.736   0.199  14.255  2.0049  1.6072  0.1324
  525MPD2    H2 7853   3.714   4.523  14.321 -1.1590  0.9324  1.4771
  525MPD2    H3 7854   3.612   4.719  14.278 -0.0880  1.9608 -0.7327
  525MPD2     N 7855   3.980   0.237  14.336 -0.3953 -0.2159 -0.3096
  525MPD2    H5 7856   3.929   0.321  14.311 -1.2779 -0.0451  2.0937
  525MPD2    N1 7857   3.967   4.480  14.400 -0.0283 -0.4322  0.3614
  525MPD2    H7 7858   4.068   4.480  14.408 -0.2521  0.0989  3.0768
  526TMC3    C1 7859   3.986   4.267  14.497  0.2807 -0.0383  0.4288
  526TMC3    C2 7860   3.960   4.203  14.615 -0.5790 -0.5254 -0.1274
  526TMC3    C3 7861   4.062   4.135  14.682 -0.8756  0.3556 -0.4997
  526TMC3    C4 7862   4.118   4.264  14.443 -0.2828 -0.4473 -0.1413
  526TMC3    C5 7863   4.210   4.200  14.516 -0.2341  0.1931  1.0605
  526TMC3    C6 7864   4.190   4.132  14.633  0.9175  0.5608 -0.0320
  526TMC3     C 7865   3.895   4.369  14.443  0.5412  0.7436  0.2803
  526TMC3     O 7866   3.774   4.360  14.463  0.4041 -0.0126  1.1041
  526TMC3     H 7867   3.866   4.224  14.665 -0.8503  1.2163 -1.3864
  526TMC3    H1 7868   4.146   4.296  14.344 -1.3376  1.2415  0.0936
  526TMC3    H2 7869   4.275   4.107  14.695 -0.4449 -1.6673  0.9321
  526TMC3    C7 7870   4.346   4.190  14.453  0.0521  0.2988  0.3709
  526TMC3    C8 7871   4.051   4.110  14.822  0.0850  0.1660  0.0205
  526TMC3    O1 7872   4.383   4.276  14.370 -0.0118 -0.9113 -0.4965
  526TMC3    O2 7873   4.151   4.124  14.893  0.0018 -0.2489  0.1403
  527MPD2     C 7874   0.979   2.450   1.411  0.6447 -0.0449 -0.0417
  527MPD2    C1 7875   0.965   2.485   1.277 -0.3378  0.5844  0.5663
  527MPD2    C2 7876   1.078   2.471   1.198  0.7747  0.4529  0.2278
  527MPD2    C3 7877   1.205   2.435   1.244 -0.1157  0.3899  0.0124
  527MPD2    C4 7878   1.214   2.406   1.375  0.4703  0.8320  0.4210
  527MPD2    C5 7879   1.104   2.402   1.453  0.2586  0.0028  0.4931
  527MPD2     H 7880   1.071   2.496   1.093 -1.9907 -0.5115  0.1697
  527MPD2    H1 7881   1.305   2.365   1.416  0.6570 -0.0456 -0.8846
  527MPD2    H2 7882   0.908   2.475   1.489  0.0419 -1.9377  0.0291
  527MPD2    H3 7883   1.116   2.370   1.556  1.6299 -0.1734  0.2709
  527MPD2     N 7884   1.314   2.425   1.161 -0.1324 -0.4064 -0.3067
  527MPD2    H5 7885   1.300   2.436   1.061  1.5279  0.6213 -0.4247
  527MPD2    N1 7886   0.848   2.537   1.221 -0.4905 -0.2304 -0.2671
  527MPD2    H7 7887   0.858   2.578   1.129  0.6666 -0.8658 -0.4342
  528TMC3    C1 7888   0.630   2.611   1.204  0.0834  0.3087 -0.1022
  528TMC3    C2 7889   0.671   2.719   1.124 -0.0463 -0.4579  0.2297
  528TMC3    C3 7890   0.575   2.805   1.073 -0.0593  0.0826 -0.1720
  528TMC3    C4 7891   0.495   2.596   1.231  0.8539  0.9458 -0.0609
  528TMC3    C5 7892   0.401   2.673   1.171 -0.0099 -0.2799 -0.9108
  528TMC3    C6 7893   0.437   2.781   1.093  0.5419  0.0499  0.4167
  528TMC3     C 7894   0.723   2.530   1.268  0.7775  0.4307  0.3080
  528TMC3     O 7895   0.678   2.458   1.355  0.1583  0.2059 -0.1188
  528TMC3     H 7896   0.776   2.724   1.100 -0.3647 -0.2878 -1.1110
  528TMC3    H1 7897   0.461   2.512   1.290  0.1231  0.8015 -0.6852
  528TMC3    H2 7898   0.365   2.851   1.054  0.7188  0.2225  0.4022
  528TMC3    C7 7899   0.261   2.640   1.192  0.1694 -0.0606 -0.0270
  528TMC3    C8 7900   0.627   2.919   0.996  0.4246 -0.3731  0.3742
  528TMC3    O1 7901   0.233   2.600   1.303 -0.0080  0.0229 -0.2020
  528TMC3    O2 7902   0.741   2.909   0.957  0.1310  0.2203 -0.0401
  529MPD2     C 7903   4.026   0.985   1.580  0.0434 -0.1625  0.2774
  529MPD2    C1 7904   4.118   0.945   1.486  0.4232 -0.1326  0.3113
  529MPD2    C2 7905   4.096   0.977   1.354 -0.9232  0.2189 -0.6703
  529MPD2    C3 7906   3.992   1.063   1.322 -0.1924  0.0640 -0.0078
  529MPD2    C4 7907   3.906   1.104   1.422 -0.3653 -0.9125 -0.5131
  529MPD2    C5 7908   3.916   1.056   1.548  0.2340  0.1903 -0.0968
  529MPD2     H 7909   4.162   0.949   1.273  0.7332 -2.6768  1.7336
  529MPD2    H1 7910   3.820   1.162   1.390  0.7603 -0.1794 -2.2157
  529MPD2    H2 7911   4.039   0.957   1.684 -0.0451 -0.0247  0.3262
  529MPD2    H3 7912   3.840   1.075   1.623 -1.7387 -2.5126 -1.4136
  529MPD2     N 7913   3.959   1.110   1.193 -0.0009 -0.7775 -0.1421
  529MPD2    H5 7914   3.887   1.180   1.176 -0.3422 -0.7284  1.5619
  529MPD2    N1 7915   4.227   0.866   1.516 -0.3197 -0.2265 -0.0362
  529MPD2    H7 7916   4.278   0.833   1.435 -0.3905  1.8702 -0.9151
  530TMC3    C1 7917   4.381   0.743   1.643  0.8777  0.3587  0.2732
  530TMC3    C2 7918   4.478   0.774   1.736  0.0769 -0.1647  0.3171
  530TMC3    C3 7919   4.571   0.676   1.751  0.3342 -0.5333 -0.2635
  530TMC3    C4 7920   4.365   0.622   1.576  0.2869 -0.3117  0.0906
  530TMC3    C5 7921   4.458   0.525   1.610 -0.3643 -0.8602  0.1881
  530TMC3    C6 7922   4.561   0.554   1.690  0.2434  0.7559  0.3653
  530TMC3     C 7923   4.271   0.837   1.647  0.4123  0.8104 -0.5443
  530TMC3     O 7924   4.239   0.882   1.753  0.1456 -0.0797  0.4789
  530TMC3     H 7925   4.497   0.876   1.765 -1.2973 -0.1310  1.1093
  530TMC3    H1 7926   4.266   0.609   1.534  0.5370 -0.6647 -0.3895
  530TMC3    H2 7927   4.619   0.471   1.727  0.2353  0.3206 -0.6306
  530TMC3    C7 7928   4.404   0.387   1.604 -0.1719 -0.8906  0.3528
  530TMC3    C8 7929   4.668   0.693   1.854 -0.1181 -0.3125 -0.7333
  530TMC3    O1 7930   4.430   0.314   1.697  0.5091  0.0992  0.3002
  530TMC3    O2 7931   4.649   0.777   1.939 -0.1396  0.2508 -0.0954
  531MPD2     C 7932   3.338   3.013  12.984  0.0571 -0.0191  0.4085
  531MPD2    C1 7933   3.231   3.008  13.061  0.6017  0.4673 -0.4375
  531MPD2    C2 7934   3.101   3.022  12.997  0.5496  0.2291 -0.3001
  531MPD2    C3 7935   3.083   3.040  12.860  0.5222 -0.0038 -0.7260
  531MPD2    C4 7936   3.197   3.046  12.785  0.0763  0.4693 -0.1311
  531MPD2    C5 7937   3.321   3.036  12.850 -0.2657  0.1485  0.1296
  531MPD2     H 7938   3.016   3.023  13.064  0.1800  1.6321 -0.7900
  531MPD2    H1 7939   3.188   3.073  12.680 -1.9421  1.0224  0.1930
  531MPD2    H2 7940   3.441   3.012  13.018  1.0503 -0.0979 -2.5953
  531MPD2    H3 7941   3.416   3.045  12.799 -0.6147  2.2404 -0.1616
  531MPD2     N 7942   2.954   3.070  12.803  0.0220  0.6581 -0.0968
  531MPD2    H5 7943   2.961   3.100  12.706 -0.4444  0.3177 -0.2365
  531MPD2    N1 7944   3.241   2.979  13.200 -0.3947  0.5965  0.0692
  531MPD2    H7 7945   3.337   2.975  13.231 -0.6338 -0.6391  0.6575
  532TMC3    C1 7946   3.183   2.953  13.426  0.3704  0.1931  0.8138
  532TMC3    C2 7947   3.067   2.967  13.500 -0.0975 -0.4760 -0.1420
  532TMC3    C3 7948   3.062   3.066  13.591 -0.3934 -0.6618 -0.2908
  532TMC3    C4 7949   3.302   3.013  13.453  0.4484  0.1295  0.0137
  532TMC3    C5 7950   3.287   3.113  13.552 -0.2418 -0.3814 -0.3685
  532TMC3    C6 7951   3.170   3.143  13.617 -0.0816  0.1469 -0.1728
  532TMC3     C 7952   3.139   2.963  13.290 -0.1572 -0.0867 -0.3929
  532TMC3     O 7953   3.017   2.966  13.282  0.1413  0.4968  0.0454
  532TMC3     H 7954   2.983   2.900  13.487 -0.6793  0.2420 -0.0801
  532TMC3    H1 7955   3.395   3.005  13.398  0.6089  1.8574  0.0268
  532TMC3    H2 7956   3.161   3.229  13.682  2.5871 -0.1316  0.5420
  532TMC3    C7 7957   3.407   3.146  13.622 -0.2999 -0.7694 -0.9962
  532TMC3    C8 7958   2.945   3.148  13.592  0.1894  0.2845  0.5887
  532TMC3    O1 7959   3.410   3.260  13.674 -0.1713  0.2961  0.0957
  532TMC3    O2 7960   2.930   3.237  13.681 -0.3519 -0.4416 -0.2843
  533TMC3    C1 7961   4.134   0.395  14.378  0.1615 -0.1707  0.4011
  533TMC3    C2 7962   4.257   0.448  14.344 -0.6453 -0.2100  0.0200
  533TMC3    C3 7963   4.269   0.584  14.367 -0.0183  1.2920  0.2007
  533TMC3    C4 7964   4.042   0.465  14.454 -0.3976 -0.6903  0.4935
  533TMC3    C5 7965   4.056   0.599  14.474 -0.4725  0.3547  0.4119
  533TMC3    C6 7966   4.168   0.656  14.433 -0.8275  0.4685 -0.0538
  533TMC3     C 7967   4.115   0.255  14.366 -0.2321 -0.0759  0.4130
  533TMC3     O 7968   4.202   0.175  14.360 -0.0953 -0.0863  0.2360
  533TMC3     H 7969   4.329   0.390  14.286 -1.7657 -0.2066 -1.3832
  533TMC3    H1 7970   3.944   0.421  14.468  0.2823 -3.0188 -2.0439
  533TMC3    H2 7971   4.177   0.758  14.470 -0.4616 -0.0322  1.2578
  533TMC3    C7 7972   4.020   0.628  14.613 -0.3325 -1.1641 -0.2590
  533TMC3    C8 7973   4.391   0.648  14.323 -0.7453  1.1555  0.9341
  533TMC3    O1 7974   4.025   0.740  14.662  0.3557 -0.7064  0.3812
  533TMC3    O2 7975   4.488   0.582  14.301  0.0716  0.3721  0.1204
  534MPD2     C 7976   1.781   0.782   1.095  0.3308 -0.0206 -0.4442
  534MPD2    C1 7977   1.749   0.911   1.116 -0.4036 -0.0841 -0.0601
  534MPD2    C2 7978   1.623   0.948   1.144 -0.1147 -0.6301 -0.5219
  534MPD2    C3 7979   1.516   0.860   1.135 -0.8141 -0.4551  0.4943
  534MPD2    C4 7980   1.545   0.731   1.094 -0.4192 -0.8890 -0.4180
  534MPD2    C5 7981   1.676   0.692   1.087 -0.0894 -0.1388  0.5533
  534MPD2     H 7982   1.600   1.047   1.182  4.4899 -0.3946  1.6562
  534MPD2    H1 7983   1.478   0.646   1.084 -0.2092 -0.7879 -2.5390
  534MPD2    H2 7984   1.883   0.750   1.079  0.4674 -0.1765  0.7339
  534MPD2    H3 7985   1.693   0.587   1.064  1.0740 -0.0774  1.1311
  534MPD2     N 7986   1.380   0.892   1.166  0.2923  0.0984 -0.1460
  534MPD2    H5 7987   1.314   0.816   1.167  0.2122  0.1481 -1.4626
  534MPD2    N1 7988   1.852   1.015   1.134  0.2433 -0.3909  0.2326
  534MPD2    H7 7989   1.826   1.107   1.167  0.5579  0.4355 -1.8831
  535TMC3    C1 7990   1.186   1.007   1.183 -0.6623 -0.4251  0.7092
  535TMC3    C2 7991   1.109   0.905   1.236  0.3517 -0.0270 -0.1057
  535TMC3    C3 7992   0.999   0.875   1.161 -0.4634  0.1249 -0.1407
  535TMC3    C4 7993   1.143   1.080   1.075  0.9007  0.1851  0.3250
  535TMC3    C5 7994   1.045   1.023   0.995  0.1165 -0.7595 -0.4345
  535TMC3    C6 7995   0.969   0.925   1.041 -0.0556  0.0468  0.0110
  535TMC3     C 7996   1.327   1.015   1.212  0.3105  0.2325  0.5262
  535TMC3     O 7997   1.378   1.120   1.253  0.0290  0.6548  0.0293
  535TMC3     H 7998   1.134   0.855   1.329 -1.5636  0.8710  0.8919
  535TMC3    H1 7999   1.216   1.149   1.035  0.2334  0.0136 -1.2074
  535TMC3    H2 8000   0.889   0.886   0.978  0.6181 -0.7485 -0.3599
  535TMC3    C7 8001   1.041   1.047   0.853  0.2488  0.9079  0.4579
  535TMC3    C8 8002   0.882   0.851   1.234  0.0934  0.1092 -0.5166
  535TMC3    O1 8003   0.996   0.959   0.782  0.5572  0.0771  0.3001
  535TMC3    O2 8004   0.783   0.798   1.184 -0.0853 -0.1317  0.0347
  536MPD2     C 8005   0.798   4.336  16.446 -0.0176 -0.9461 -0.3436
  536MPD2    C1 8006   0.697   4.249  16.440  0.4428 -0.0035 -0.1408
  536MPD2    C2 8007   0.633   4.232  16.321  0.1378  0.0908  0.3406
  536MPD2    C3 8008   0.665   4.301  16.207  0.5252  0.1295 -0.2021
  536MPD2    C4 8009   0.775   4.380  16.212  0.1553  0.0412 -0.6269
  536MPD2    C5 8010   0.843   4.402  16.331  0.1324  0.0907  0.4396
  536MPD2     H 8011   0.546   4.168  16.312 -0.7741  1.2200  1.1757
  536MPD2    H1 8012   0.801   4.434  16.122 -0.9362  0.8827 -0.4332
  536MPD2    H2 8013   0.846   4.343  16.543  0.9044  0.2450 -0.8799
  536MPD2    H3 8014   0.932   4.464  16.332  0.3261 -0.1413 -1.8029
  536MPD2     N 8015   0.585   4.300  16.088 -0.0883 -0.3816  0.0987
  536MPD2    H5 8016   0.627   4.330  16.001 -1.0198 -0.5175 -0.3960
  536MPD2    N1 8017   0.648   4.185  16.563 -0.3015  0.3335 -0.1445
  536MPD2    H7 8018   0.688   4.217  16.651 -1.7337  1.7665 -0.0134
  537TMC3    C1 8019   0.506   4.073  16.701 -0.1190  0.5524  0.4211
  537TMC3    C2 8020   0.528   4.168  16.792  0.2644  0.6789 -0.6989
  537TMC3    C3 8021   0.488   4.135  16.921  0.3680 -0.5611 -0.1829
  537TMC3    C4 8022   0.441   3.956  16.728  0.3389 -0.2176 -0.0414
  537TMC3    C5 8023   0.421   3.924  16.860  0.5383  0.9266  0.0334
  537TMC3    C6 8024   0.439   4.015  16.963 -0.5484  0.5097  0.0083
  537TMC3     C 8025   0.557   4.088  16.568 -0.2956  0.5118 -0.1509
  537TMC3     O 8026   0.511   4.018  16.482 -0.2251  0.0295 -0.0848
  537TMC3     H 8027   0.548   4.271  16.766 -0.2600  0.8784 -0.2815
  537TMC3    H1 8028   0.425   3.870  16.664 -0.2748  0.0673 -0.2731
  537TMC3    H2 8029   0.418   3.989  17.066  2.3702 -0.6380  0.3305
  537TMC3    C7 8030   0.364   3.793  16.885 -0.6895 -0.7993 -0.2246
  537TMC3    C8 8031   0.446   4.250  17.004 -0.6208 -0.8938 -0.3107
  537TMC3    O1 8032   0.278   3.760  16.806  0.5661  0.0926  0.2550
  537TMC3    O2 8033   0.437   4.230  17.125 -0.2376  0.2941  0.0463
  538TMC3    C1 8034   1.442   2.487  11.062 -0.4284  0.3776  0.4247
  538TMC3    C2 8035   1.491   2.402  10.960 -0.4482 -0.4857 -0.5780
  538TMC3    C3 8036   1.438   2.420  10.836 -0.3250 -0.1626  0.0230
  538TMC3    C4 8037   1.348   2.587  11.033  0.4875 -0.0530  0.0477
  538TMC3    C5 8038   1.321   2.607  10.898  0.3067 -0.3205  0.0763
  538TMC3    C6 8039   1.357   2.526  10.800  0.3200 -0.5648  0.1283
  538TMC3     C 8040   1.469   2.452  11.198 -0.2348 -0.7758  0.2862
  538TMC3     O 8041   1.367   2.465  11.263 -0.2603 -0.2874 -0.1130
  538TMC3     H 8042   1.549   2.315  10.986 -1.0724 -0.7688 -0.1490
  538TMC3    H1 8043   1.299   2.647  11.108 -0.2614 -0.4418 -0.1363
  538TMC3    H2 8044   1.325   2.547  10.698 -0.1010 -0.0438  0.3700
  538TMC3    C7 8045   1.238   2.717  10.865 -0.1815 -0.2113  0.5867
  538TMC3    C8 8046   1.519   2.363  10.732  0.0364 -0.1862 -0.6601
  538TMC3    O1 8047   1.149   2.692  10.782  0.1082  0.3102  0.5053
  538TMC3    O2 8048   1.479   2.296  10.637 -0.5708 -0.8821  0.2145
  539MPD2     C 8049   1.611   2.287  12.026 -0.0923 -0.1313  0.1169
  539MPD2    C1 8050   1.503   2.207  12.011  0.8204 -0.2068 -0.3343
  539MPD2    C2 8051   1.396   2.258  11.940  0.5152  0.7472  0.4534
  539MPD2    C3 8052   1.385   2.394  11.901  0.1986 -0.4541 -0.3220
  539MPD2    C4 8053   1.501   2.469  11.917  0.2834  0.1400 -0.3740
  539MPD2    C5 8054   1.610   2.416  11.978 -0.1632 -1.1052  0.4733
  539MPD2     H 8055   1.309   2.194  11.929  1.6465 -0.6451 -0.3756
  539MPD2    H1 8056   1.512   2.570  11.879  0.8253 -0.1275 -0.9210
  539MPD2    H2 8057   1.693   2.268  12.095 -1.4443  0.8326  1.9846
  539MPD2    H3 8058   1.693   2.484  11.988 -1.6894  0.6937  0.8399
  539MPD2     N 8059   1.274   2.458  11.840 -0.0729 -0.2609 -0.0475
  539MPD2    H5 8060   1.263   2.556  11.817  1.0409  0.1185  1.0277
  539MPD2    N1 8061   1.495   2.075  12.070 -0.0093 -0.5700  0.0365
  539MPD2    H7 8062   1.408   2.024  12.060 -0.7955  0.8234 -0.2938
  540TMC3    C1 8063   1.060   2.492  11.764 -0.1245  0.5625  0.3526
  540TMC3    C2 8064   1.007   2.473  11.639  0.0641 -0.4715  0.7374
  540TMC3    C3 8065   0.895   2.548  11.608 -0.2539 -0.9641 -0.3674
  540TMC3    C4 8066   0.997   2.570  11.856 -0.7758 -0.4203  0.5022
  540TMC3    C5 8067   0.904   2.656  11.807  0.3330  0.5235  0.4402
  540TMC3    C6 8068   0.848   2.648  11.684  1.0394 -0.4307 -0.3318
  540TMC3     C 8069   1.157   2.396  11.818 -0.4331  0.3544  0.0048
  540TMC3     O 8070   1.120   2.280  11.809  0.4761 -0.7507  0.0841
  540TMC3     H 8071   1.048   2.406  11.564  0.9208 -0.5747  1.2928
  540TMC3    H1 8072   1.034   2.565  11.958 -0.6868 -0.2175  0.4799
  540TMC3    H2 8073   0.767   2.715  11.657 -0.6027 -2.1535  0.3162
  540TMC3    C7 8074   0.800   2.693  11.906 -0.2685 -0.0051  0.8145
  540TMC3    C8 8075   0.814   2.514  11.488 -0.7965 -0.2083  0.0733
  540TMC3    O1 8076   0.688   2.727  11.864  0.0073 -0.6273  0.4040
  540TMC3    O2 8077   0.729   2.591  11.450 -0.1391 -0.1432  0.2945
  541MPD2     C 8078   3.894   3.755  13.299 -0.0917  0.3177  0.1384
  541MPD2    C1 8079   4.026   3.713  13.270 -0.0863  0.4120 -0.4639
  541MPD2    C2 8080   4.095   3.776  13.170  0.8604  0.2946 -0.1680
  541MPD2    C3 8081   4.040   3.884  13.100  0.6918 -0.1746  1.0345
  541MPD2    C4 8082   3.914   3.925  13.134 -0.0422 -0.0169  0.0789
  541MPD2    C5 8083   3.838   3.861  13.227 -0.3217 -0.3095  0.0190
  541MPD2     H 8084   4.198   3.745  13.158  0.9703  0.3719  0.6204
  541MPD2    H1 8085   3.869   4.007  13.079  0.6397 -0.5052 -1.1803
  541MPD2    H2 8086   3.830   3.703  13.370 -1.0785  0.1299 -0.8845
  541MPD2    H3 8087   3.736   3.892  13.244  0.7165  2.7523  0.6950
  541MPD2     N 8088   4.101   3.947  12.994 -0.0060 -0.4202  0.0779
  541MPD2    H5 8089   4.038   4.017  12.955  2.4389 -0.3206 -3.6932
  541MPD2    N1 8090   4.089   3.609  13.345  0.1535  0.5772  0.2496
  541MPD2    H7 8091   4.172   3.567  13.305  0.2083  0.9008  0.0280
  542TMC3    C1 8092   4.207   3.967  12.789  0.6395  0.0974 -0.2505
  542TMC3    C2 8093   4.232   3.892  12.681 -0.1568  0.3238  0.5624
  542TMC3    C3 8094   4.220   3.949  12.561 -0.4520 -0.5448  0.2279
  542TMC3    C4 8095   4.162   4.098  12.784  0.1811 -0.4131 -1.0321
  542TMC3    C5 8096   4.152   4.141  12.655  0.4018  0.2541  0.3105
  542TMC3    C6 8097   4.182   4.076  12.543  0.1899  0.3112 -0.2906
  542TMC3     C 8098   4.210   3.906  12.919 -0.3140  0.7174 -0.0208
  542TMC3     O 8099   4.276   3.807  12.945 -0.2993  0.6433  0.1247
  542TMC3     H 8100   4.262   3.789  12.697  1.8174  1.1165  1.9070
  542TMC3    H1 8101   4.135   4.161  12.868 -1.3645  1.1692 -2.6938
  542TMC3    H2 8102   4.173   4.122  12.445 -0.4717  1.2138  0.1924
  542TMC3    C7 8103   4.105   4.272  12.630  0.0061 -0.3325 -0.2649
  542TMC3    C8 8104   4.227   3.877  12.437  0.1576 -0.7267 -0.7378
  542TMC3    O1 8105   4.051   4.331  12.726 -0.2589 -0.5112  0.1945
  542TMC3    O2 8106   4.244   3.940  12.336 -0.1934 -0.4052  0.0899
  543TMC3    C1 8107   3.662   0.308  16.938 -0.9552 -0.1277  0.4951
  543TMC3    C2 8108   3.648   0.194  17.006 -0.0646  0.4324 -1.4479
  543TMC3    C3 8109   3.581   0.194  17.125 -0.5989  0.7311  0.4574
  543TMC3    C4 8110   3.636   0.430  16.995  0.4218 -0.0281  0.3275
  543TMC3    C5 8111   3.566   0.427  17.113 -0.7516 -0.5552  0.3776
  543TMC3    C6 8112   3.540   0.312  17.183 -0.6696  0.1942  0.4108
  543TMC3     C 8113   3.750   0.306  16.821  0.3961 -0.5829  0.2159
  543TMC3     O 8114   3.838   0.222  16.824  0.0899 -0.5010  0.1078
  543TMC3     H 8115   3.694   0.106  16.962 -1.0446 -1.8237  2.0398
  543TMC3    H1 8116   3.653   0.520  16.937  2.3658  0.0529  1.0348
  543TMC3    H2 8117   3.520   0.317  17.289 -1.3878 -1.8826  0.3692
  543TMC3    C7 8118   3.583   0.542  17.204 -0.0565  0.1108 -0.8414
  543TMC3    C8 8119   3.585   0.067  17.198 -0.1657  0.9874 -0.2200
  543TMC3    O1 8120   3.511   0.548  17.303  0.7206 -0.3247 -0.1133
  543TMC3    O2 8121   3.632   4.709  17.130 -0.1072  0.1657  0.4442
  544MPD2     C 8122   3.575   4.464  17.586  0.0822 -0.1588  0.3733
  544MPD2    C1 8123   3.653   4.466  17.470  0.8774  0.3275  0.0110
  544MPD2    C2 8124   3.636   4.580  17.389  0.1359 -0.2483  0.2959
  544MPD2    C3 8125   3.545   4.685  17.414 -0.1444 -0.2864  0.3997
  544MPD2    C4 8126   3.464   4.671  17.518  0.2361  0.1707  0.3677
  544MPD2    C5 8127   3.482   4.560  17.600  0.2355  0.0914 -0.3442
  544MPD2     H 8128   3.713   4.586  17.313 -2.4018 -4.1944 -2.5773
  544MPD2    H1 8129   3.389   0.010  17.538  0.9286  0.7823  0.6548
  544MPD2    H2 8130   3.582   4.380  17.654 -2.1543  0.0716  0.8834
  544MPD2    H3 8131   3.411   4.558  17.681  0.2591 -0.8030 -0.3514
  544MPD2     N 8132   3.530   0.061  17.326 -0.6317  0.1522  0.1007
  544MPD2    H5 8133   3.474   0.138  17.360  1.0520  0.6171  1.8210
  544MPD2    N1 8134   3.752   4.369  17.452  0.6612  0.7211  0.6614
  544MPD2    H7 8135   3.758   4.305  17.531  0.2809 -0.7989 -0.5320
  545TMC3    C1 8136   3.900   4.225  17.336 -0.1567 -0.1927 -0.0112
  545TMC3    C2 8137   4.013   4.206  17.257 -0.1472 -0.0587  0.2795
  545TMC3    C3 8138   4.070   4.074  17.241  0.1754  0.2545  0.6292
  545TMC3    C4 8139   3.842   4.114  17.395  0.3679  0.6820 -0.5147
  545TMC3    C5 8140   3.896   3.990  17.366  0.8046 -0.0027 -0.2982
  545TMC3    C6 8141   4.013   3.970  17.301  1.1364 -0.2014  0.6121
  545TMC3     C 8142   3.847   4.361  17.352 -0.6305  0.3598 -0.2439
  545TMC3     O 8143   3.890   4.444  17.273 -0.1229  0.3212 -0.1156
  545TMC3     H 8144   4.057   4.287  17.201  0.4245 -0.5834 -0.0310
  545TMC3    H1 8145   3.740   4.118  17.432  0.9107 -2.2048  1.2799
  545TMC3    H2 8146   4.054   3.873  17.277  1.2391  0.0310 -0.1568
  545TMC3    C7 8147   3.804   3.877  17.386 -0.2781  0.3739  0.3006
  545TMC3    C8 8148   4.185   4.047  17.157  0.2282  0.1567  0.3341
  545TMC3    O1 8149   3.687   3.907  17.411  0.0463  0.6004 -0.0173
  545TMC3    O2 8150   4.240   3.939  17.166  0.1297 -0.8035  0.2423
  546MPD2     C 8151   0.245   0.053  17.691 -0.5460  0.6811 -0.5708
  546MPD2    C1 8152   0.262   0.102  17.568 -0.7337  0.0117 -0.0581
  546MPD2    C2 8153   0.327   0.220  17.550  0.4664  0.2084 -0.0732
  546MPD2    C3 8154   0.370   0.295  17.658 -0.2247  0.0792 -0.3256
  546MPD2    C4 8155   0.345   0.250   0.040 -0.4862 -0.3020  0.0808
  546MPD2    C5 8156   0.286   0.131   0.056 -0.3553  0.7791  0.3953
  546MPD2     H 8157   0.321   0.262  17.451 -1.9521  0.8892  0.3586
  546MPD2    H1 8158   0.371   0.296   0.135  0.4826 -0.4439 -0.1168
  546MPD2    H2 8159   0.181   4.703  17.703 -2.0082  1.8612  0.1010
  546MPD2    H3 8160   0.259   0.097   0.155 -1.3401  0.9469  0.1889
  546MPD2     N 8161   0.425   0.422  17.641  0.3420  0.4635 -0.4039
  546MPD2    H5 8162   0.471   0.465  17.721 -1.9950 -0.1501  1.2935
  546MPD2    N1 8163   0.216   0.022  17.466  0.2214  0.1402 -0.1163
  546MPD2    H7 8164   0.184   4.665  17.491 -1.3290  0.5742 -0.4622
  547TMC3    C1 8165   0.136   4.689  17.255 -0.8269 -0.2996 -0.0201
  547TMC3    C2 8166   0.044   4.729  17.162  0.7101 -0.1607 -0.4427
  547TMC3    C3 8167   4.681   4.640  17.133  0.2553 -0.1007  0.5295
  547TMC3    C4 8168   0.127   4.560  17.315 -0.3545 -0.5537 -0.0586
  547TMC3    C5 8169   0.026   4.481  17.286  0.3998  0.1042 -0.0784
  547TMC3    C6 8170   4.670   4.518  17.195  0.4115  0.8582  0.3291
  547TMC3     C 8171   0.192   0.059  17.332 -0.6076  0.3701 -0.4893
  547TMC3     O 8172   0.193   0.167  17.275 -0.3814  0.5505  0.3047
  547TMC3     H 8173   0.044   0.096  17.127 -2.0323  0.7140  2.1274
  547TMC3    H1 8174   0.191   4.523  17.395 -0.9156  0.2799  0.7683
  547TMC3    H2 8175   4.588   4.451  17.171  3.7279 -1.9787 -3.1204
  547TMC3    C7 8176   4.705   4.414  17.399 -0.1557 -0.1340 -0.1397
  547TMC3    C8 8177   4.616   4.652  17.001 -0.5184 -0.3762 -0.0649
  547TMC3    O1 8178   0.003   4.472  17.505  0.3788  0.5011  0.0334
  547TMC3    O2 8179   4.498   4.623  16.985  0.1422 -0.2699  0.2739
  548MPD2     C 8180   0.185   0.564  13.483 -0.2185 -0.7659 -0.5335
  548MPD2    C1 8181   0.121   0.462  13.420  0.0463 -0.4872 -0.1817
  548MPD2    C2 8182   0.193   0.357  13.371 -0.5041 -0.2649 -0.2294
  548MPD2    C3 8183   0.329   0.356  13.392  0.0469 -0.1235 -0.1226
  548MPD2    C4 8184   0.393   0.449  13.472  0.2390  0.9306  0.0772
  548MPD2    C5 8185   0.318   0.558  13.513  0.1386  0.1560 -0.7449
  548MPD2     H 8186   0.151   0.278  13.310  1.8601 -1.3124 -0.5122
  548MPD2    H1 8187   0.498   0.455  13.496 -0.4385 -0.3283  3.3866
  548MPD2    H2 8188   0.124   0.648  13.516  0.3655 -0.1181 -1.0871
  548MPD2    H3 8189   0.360   0.639  13.572 -1.4069 -0.0925  0.6943
  548MPD2     N 8190   0.402   0.264  13.319  0.0448  0.0069  0.1827
  548MPD2    H5 8191   0.355   0.216  13.243 -0.7753 -0.3570  0.9187
  548MPD2    N1 8192   4.717   0.479  13.400  0.3324 -0.1984 -0.5091
  548MPD2    H7 8193   4.687   0.575  13.410 -1.6700 -0.9096  0.5942
  549TMC3    C1 8194   4.502   0.431  13.329 -0.1524  1.1535 -0.2601
  549TMC3    C2 8195   4.484   0.564  13.302 -0.2468  0.2118  0.2814
  549TMC3    C3 8196   4.367   0.603  13.250  0.2622 -0.1625 -0.4455
  549TMC3    C4 8197   4.402   0.344  13.315 -0.5939  0.6636 -0.3226
  549TMC3    C5 8198   4.286   0.380  13.268  0.1815  0.0786  0.1716
  549TMC3    C6 8199   4.264   0.511  13.236  0.5062  0.3679 -0.2044
  549TMC3     C 8200   4.631   0.380  13.362  0.2107  0.5704  0.6310
  549TMC3     O 8201   4.656   0.260  13.343  0.2912  0.1995  0.8691
  549TMC3     H 8202   4.561   0.640  13.299 -1.4018  1.2841 -1.5786
  549TMC3    H1 8203   4.426   0.238  13.318 -2.7554  0.0954 -3.3989
  549TMC3    H2 8204   4.188   0.540  13.164  1.7618  1.9446 -0.9076
  549TMC3    C7 8205   4.179   0.281  13.229  0.0837 -0.5021  0.3192
  549TMC3    C8 8206   4.375   0.689  13.133 -0.9240 -0.6447  0.8972
  549TMC3    O1 8207   4.095   0.316  13.148  0.1767 -0.2059 -0.9795
  549TMC3    O2 8208   4.275   0.737  13.084 -0.3486 -0.0510  0.5820
  550TMC3    C1 8209   3.973   3.029  12.500 -0.0490  0.2381  0.9265
  550TMC3    C2 8210   3.939   3.087  12.620 -0.2584  0.3785  0.2903
  550TMC3    C3 8211   3.905   3.221  12.622 -0.6093  0.0208 -0.3469
  550TMC3    C4 8212   3.940   3.086  12.377 -0.6284  0.1356 -0.5758
  550TMC3    C5 8213   3.903   3.221  12.383  1.1487  0.5473 -0.4035
  550TMC3    C6 8214   3.871   3.279  12.506 -0.3609  0.7141 -1.0191
  550TMC3     C 8215   4.004   2.887  12.503  0.6873 -0.1174  0.3971
  550TMC3     O 8216   3.980   2.827  12.608 -0.0248  0.4060 -0.3865
  550TMC3     H 8217   3.953   3.041  12.718 -1.8960  0.8866  0.7574
  550TMC3    H1 8218   3.932   3.031  12.284  1.8399  1.7838 -1.7540
  550TMC3    H2 8219   3.862   3.387  12.510 -3.3336  0.3164  2.6279
  550TMC3    C7 8220   3.849   3.281  12.263  0.1757  0.1580 -0.3796
  550TMC3    C8 8221   3.826   3.254  12.734 -0.2007 -0.2399  0.2321
  550TMC3    O1 8222   3.761   3.364  12.269 -0.0556 -0.2069  0.0358
  550TMC3    O2 8223   3.875   3.231  12.844 -0.5382  0.1298  0.0538
  551TMC3    C1 8224   1.355   1.001  13.579  0.4393 -0.0873 -0.3867
  551TMC3    C2 8225   1.460   1.075  13.529 -0.1532  0.5704  0.0841
  551TMC3    C3 8226   1.579   1.078  13.593 -0.0283  0.3650  0.6333
  551TMC3    C4 8227   1.363   0.929  13.697 -0.8887  0.0851  0.2680
  551TMC3    C5 8228   1.485   0.938  13.768  0.0835  0.9330 -0.3293
  551TMC3    C6 8229   1.588   1.017  13.718  0.3777  0.3962  0.4499
  551TMC3     C 8230   1.233   0.994  13.501 -0.8493  1.0235  0.3108
  551TMC3     O 8231   1.151   0.904  13.526  0.1212 -0.8178 -0.3581
  551TMC3     H 8232   1.459   1.111  13.427  1.9903  2.6764  0.8089
  551TMC3    H1 8233   1.272   0.880  13.729 -1.9707  1.0690 -1.2424
  551TMC3    H2 8234   1.685   1.025  13.766 -1.6084 -0.9554  4.6901
  551TMC3    C7 8235   1.472   0.947  13.918 -0.5868  0.3043 -0.1393
  551TMC3    C8 8236   1.686   1.166  13.556 -0.3675 -0.8835 -0.7099
  551TMC3    O1 8237   1.558   1.007  13.981 -0.4635 -0.3072 -0.3492
  551TMC3    O2 8238   1.803   1.148  13.597  0.0309  0.6209  0.1391
  552MPD2     C 8239   3.626   3.152  14.155  0.8990  0.1244  0.3362
  552MPD2    C1 8240   3.554   3.063  14.233  0.0451  0.5503  0.5215
  552MPD2    C2 8241   3.594   3.044  14.366  0.1632  0.7338  0.6498
  552MPD2    C3 8242   3.709   3.109  14.416  0.1875  0.1716  0.4945
  552MPD2    C4 8243   3.770   3.196  14.335 -0.1327  0.5856  0.0402
  552MPD2    C5 8244   3.736   3.214  14.207 -0.0745  1.5621  0.3684
  552MPD2     H 8245   3.568   2.956  14.423 -2.2503 -0.5148 -2.4041
  552MPD2    H1 8246   3.854   3.257  14.366  0.1313  0.7208 -0.9568
  552MPD2    H2 8247   3.602   3.166  14.050  0.1875 -1.8474  0.2454
  552MPD2    H3 8248   3.788   3.282  14.142 -2.5046 -0.4037 -3.6044
  552MPD2     N 8249   3.760   3.102  14.550  0.5207  0.4175 -0.0375
  552MPD2    H5 8250   3.843   3.155  14.575  0.5686 -0.4218  1.6354
  552MPD2    N1 8251   3.442   2.997  14.181 -0.0200 -0.2988 -0.3258
  552MPD2    H7 8252   3.415   2.910  14.226  0.8797  0.1217  1.0187
  553TMC3    C1 8253   3.273   2.941  14.019  0.7975  0.4616 -0.0882
  553TMC3    C2 8254   3.254   2.928  13.884  0.2844 -0.5681 -0.2325
  553TMC3    C3 8255   3.163   2.834  13.848  0.2172  1.2088  0.1010
  553TMC3    C4 8256   3.217   2.863  14.116 -0.8452 -0.1609  0.1302
  553TMC3    C5 8257   3.128   2.765  14.072  0.0070 -0.6019  0.4735
  553TMC3    C6 8258   3.089   2.757  13.942 -0.3000 -0.3288  0.7131
  553TMC3     C 8259   3.381   3.034  14.063 -0.1130  0.4910  0.1198
  553TMC3     O 8260   3.389   3.137  13.993  0.0404 -0.5130 -0.5853
  553TMC3     H 8261   3.308   2.992  13.816  2.1728 -1.0451  0.8267
  553TMC3    H1 8262   3.241   2.861  14.222  2.5249 -1.3249 -0.6396
  553TMC3    H2 8263   3.009   2.691  13.913  0.3265 -0.8434  0.1622
  553TMC3    C7 8264   3.102   2.641  14.143 -0.5629 -0.0320 -0.3180
  553TMC3    C8 8265   3.208   2.757  13.735  0.1489 -1.0139  0.7707
  553TMC3    O1 8266   2.983   2.609  14.143 -0.4828  0.1404 -0.3654
  553TMC3    O2 8267   3.317   2.797  13.701 -1.1954 -0.4745 -0.1090
  554TMC3    C1 8268   0.455   2.337  11.808 -0.3779  0.0656 -0.2782
  554TMC3    C2 8269   0.335   2.271  11.801  0.5161 -0.1739  0.4543
  554TMC3    C3 8270   0.246   2.305  11.703  0.4293 -0.2386  0.3957
  554TMC3    C4 8271   0.488   2.440  11.716  0.3935 -0.1698 -0.1489
  554TMC3    C5 8272   0.389   2.473  11.627 -0.1864  0.2906 -0.2165
  554TMC3    C6 8273   0.265   2.408  11.616  0.2681 -0.0676  0.3829
  554TMC3     C 8274   0.570   2.258  11.852 -0.0618  0.0031  0.6513
  554TMC3     O 8275   0.682   2.276  11.810 -0.1834 -0.0020  0.4373
  554TMC3     H 8276   0.300   2.192  11.866 -1.5306  0.8613  0.6069
  554TMC3    H1 8277   0.587   2.484  11.707  1.1086 -1.4227  1.4919
  554TMC3    H2 8278   0.206   2.446  11.533  1.0094 -0.8719 -0.5260
  554TMC3    C7 8279   0.414   2.578  11.527 -0.3672 -0.0506 -0.3844
  554TMC3    C8 8280   0.175   2.189  11.650 -0.4402  0.4170  1.2191
  554TMC3    O1 8281   0.377   2.549  11.415  0.3205  0.2147  0.2706
  554TMC3    O2 8282   0.135   2.104  11.728 -0.0148  0.3669  0.0730
  555TMC3    C1 8283   4.226   2.076  15.412  0.6224  0.3029 -0.2675
  555TMC3    C2 8284   4.268   2.106  15.541  0.4651 -0.2024  0.1222
  555TMC3    C3 8285   4.253   2.003  15.633  0.2270 -0.1735 -0.3272
  555TMC3    C4 8286   4.189   1.947  15.368 -0.4546 -0.2857 -0.4153
  555TMC3    C5 8287   4.183   1.855  15.466 -0.1852  0.0265  0.2969
  555TMC3    C6 8288   4.209   1.883  15.594  0.6351 -0.1466  0.3778
  555TMC3     C 8289   4.198   2.188  15.326  0.6628  0.0401 -0.1465
  555TMC3     O 8290   4.259   2.293  15.349  0.0661  0.0617 -0.0150
  555TMC3     H 8291   4.292   2.208  15.569 -1.0149 -0.1094  1.0608
  555TMC3    H1 8292   4.170   1.925  15.264  0.2878  1.7961 -0.9870
  555TMC3    H2 8293   4.215   1.800  15.663  0.7106  1.4105  2.2831
  555TMC3    C7 8294   4.151   1.717  15.433  0.1467  0.5962 -0.1233
  555TMC3    C8 8295   4.277   2.020  15.771  0.1405  0.1753  0.4542
  555TMC3    O1 8296   4.135   1.638  15.524 -0.3401 -0.4377  0.9331
  555TMC3    O2 8297   4.337   1.937  15.831  0.0117 -0.0237  0.3974
  556MPD2     C 8298   1.772   3.488  10.577 -0.6634 -0.6682  1.0217
  556MPD2    C1 8299   1.840   3.417  10.676 -0.2272 -0.6166  0.3083
  556MPD2    C2 8300   1.901   3.299  10.642  0.5845 -0.2198  0.4903
  556MPD2    C3 8301   1.916   3.252  10.512  0.4764  0.5318 -0.0912
  556MPD2    C4 8302   1.850   3.318  10.417 -0.7185  0.7623 -0.6895
  556MPD2    C5 8303   1.779   3.435  10.444 -0.5277 -0.2347  0.2785
  556MPD2     H 8304   1.967   3.260  10.719  1.8970  0.3843 -0.3327
  556MPD2    H1 8305   1.844   3.281  10.316 -0.8848 -0.2690 -0.3016
  556MPD2    H2 8306   1.720   3.581  10.598  0.7487  0.1638  0.8844
  556MPD2    H3 8307   1.749   3.489  10.356 -0.6043 -1.2852 -0.3437
  556MPD2     N 8308   1.989   3.128  10.491  0.4065  0.4447  0.2261
  556MPD2    H5 8309   2.016   3.076  10.574 -0.8047  0.4611  0.6384
  556MPD2    N1 8310   1.843   3.466  10.807 -0.2051  0.1727 -0.5974
  556MPD2    H7 8311   1.873   3.408  10.884 -2.4595  1.8576  1.5272
  557TMC3    C1 8312   2.082   2.949  10.375 -0.3458  0.2094 -0.7032
  557TMC3    C2 8313   2.147   2.907  10.260 -0.5625 -0.2505 -0.2160
  557TMC3    C3 8314   2.195   2.781  10.264 -0.2601 -0.0274 -0.0326
  557TMC3    C4 8315   2.070   2.871  10.484 -0.2773 -0.4425  0.0647
  557TMC3    C5 8316   2.125   2.750  10.479 -0.1634  0.3907  0.3586
  557TMC3    C6 8317   2.195   2.700  10.371  0.8677  0.0636 -0.1324
  557TMC3     C 8318   2.023   3.076  10.370  0.0230 -0.0295 -0.6072
  557TMC3     O 8319   2.005   3.125  10.260  0.2152 -0.1163 -0.4713
  557TMC3     H 8320   2.144   2.971  10.172  1.5346 -0.7201 -0.6355
  557TMC3    H1 8321   2.005   2.887  10.570  0.5898  2.0499  0.2612
  557TMC3    H2 8322   2.245   2.604  10.369  0.9768  0.1256 -0.3219
  557TMC3    C7 8323   2.067   2.645  10.565  0.2159  0.4912 -0.1608
  557TMC3    C8 8324   2.267   2.744  10.147 -0.2827  0.1691 -0.7565
  557TMC3    O1 8325   2.038   2.676  10.679 -0.1892  0.5935 -0.5648
  557TMC3    O2 8326   2.282   2.835  10.063  0.2621 -0.1813  0.3357
  558TMC3    C1 8327   0.213   1.281  10.953 -0.5900 -0.1420  0.5783
  558TMC3    C2 8328   0.083   1.262  11.000  0.2053 -1.1717 -0.5642
  558TMC3    C3 8329   4.720   1.320  10.930 -0.6436  0.2071  0.3082
  558TMC3    C4 8330   0.232   1.363  10.841  0.4214 -0.2643 -0.6387
  558TMC3    C5 8331   0.124   1.426  10.780 -0.0674  0.4410 -0.0304
  558TMC3    C6 8332   4.732   1.402  10.824 -0.7473 -0.9064 -0.2349
  558TMC3     C 8333   0.325   1.227  11.029  0.0666  0.3194 -0.5998
  558TMC3     O 8334   0.436   1.272  10.995 -0.4214  0.6824  0.4302
  558TMC3     H 8335   0.070   1.215  11.097  1.3642 -0.6402 -0.1393
  558TMC3    H1 8336   0.332   1.390  10.809  0.0961  0.7290 -0.7992
  558TMC3    H2 8337   4.642   1.433  10.772 -1.5357 -0.2702  1.5339
  558TMC3    C7 8338   0.135   1.452  10.637 -0.4449 -0.6987  0.2064
  558TMC3    C8 8339   4.582   1.291  10.970 -0.1105 -0.4578 -0.5313
  558TMC3    O1 8340   0.055   1.535  10.589  0.1308 -0.1592 -0.4453
  558TMC3    O2 8341   4.487   1.363  10.943 -0.0379 -0.2882 -0.3525
  559MPD2     C 8342   0.090   1.680  11.028 -0.5235 -0.2363  0.4588
  559MPD2    C1 8343   0.011   1.615  11.123 -0.7225  0.7236 -0.1695
  559MPD2    C2 8344   0.074   1.541  11.226  0.0060  0.1525  0.2604
  559MPD2    C3 8345   0.210   1.526  11.223 -0.3343  0.5738  0.5425
  559MPD2    C4 8346   0.282   1.590  11.126  0.4256  0.4826  0.2942
  559MPD2    C5 8347   0.224   1.664  11.030  0.0631  0.9950  0.5961
  559MPD2     H 8348   0.011   1.475  11.285  1.2052 -0.1825  1.1494
  559MPD2    H1 8349   0.389   1.602  11.124  0.5250 -0.4085  0.3363
  559MPD2    H2 8350   0.045   1.738  10.949 -1.8984  1.9385  2.8144
  559MPD2    H3 8351   0.277   1.715  10.950 -1.1519  1.2224 -0.0696
  559MPD2     N 8352   0.266   1.453  11.326 -0.3329  0.3401  0.0597
  559MPD2    H5 8353   0.210   1.414  11.401 -1.3695  1.5256 -0.1049
  559MPD2    N1 8354   4.608   1.647  11.124 -0.6985  0.0137  0.1321
  559MPD2    H7 8355   4.570   1.719  11.063  1.3363  0.5526 -0.4738
  560TMC3    C1 8356   0.426   1.393  11.480 -0.0737 -0.3957  0.5251
  560TMC3    C2 8357   0.345   1.294  11.525  0.5053 -0.0432 -0.9888
  560TMC3    C3 8358   0.395   1.218  11.630  0.0780  0.4308  0.3392
  560TMC3    C4 8359   0.551   1.412  11.533  0.5129 -0.4942 -0.4807
  560TMC3    C5 8360   0.595   1.338  11.640 -0.2305 -0.0961 -0.2994
  560TMC3    C6 8361   0.512   1.248  11.697 -0.5754 -0.4372 -0.2282
  560TMC3     C 8362   0.398   1.448  11.351 -0.4774  0.0894  0.1598
  560TMC3     O 8363   0.497   1.491  11.289  0.0478 -0.5431 -0.6001
  560TMC3     H 8364   0.252   1.264  11.479  0.0973 -0.6629  0.2336
  560TMC3    H1 8365   0.614   1.477  11.473  0.1010  1.5765  1.3403
  560TMC3    H2 8366   0.542   1.202  11.790 -1.4855 -1.2136 -0.3229
  560TMC3    C7 8367   0.695   1.393  11.726 -0.1545 -0.2414  0.0145
  560TMC3    C8 8368   0.315   1.102  11.671 -0.1257  0.2569  0.1479
  560TMC3    O1 8369   0.743   1.309  11.797 -0.2882 -0.1429 -0.2073
  560TMC3    O2 8370   0.195   1.110  11.648 -0.7484 -0.0719 -0.3166
  561TMC3    C1 8371   2.394   0.498  11.378  0.3787  0.3805 -0.3271
  561TMC3    C2 8372   2.367   0.432  11.500  0.0562  0.2960 -0.0895
  561TMC3    C3 8373   2.405   0.500  11.612 -0.4296 -0.0408  0.2704
  561TMC3    C4 8374   2.459   0.623  11.376  1.1706 -0.0139  0.0076
  561TMC3    C5 8375   2.501   0.679  11.492 -0.5016  0.2777  0.0761
  561TMC3    C6 8376   2.475   0.622  11.611  0.3250 -0.7240 -0.1481
  561TMC3     C 8377   2.322   0.447  11.264 -0.1371  0.4690  0.0134
  561TMC3     O 8378   2.226   0.379  11.295  0.0650 -0.1151 -0.5908
  561TMC3     H 8379   2.326   0.331  11.499  1.2557 -0.1846 -2.1597
  561TMC3    H1 8380   2.460   0.672  11.280 -1.4908 -0.3482 -0.2181
  561TMC3    H2 8381   2.501   0.678  11.700  1.1172 -0.0747 -0.7897
  561TMC3    C7 8382   2.490   0.821  11.491 -0.3088  0.6209 -0.3476
  561TMC3    C8 8383   2.405   0.432  11.741  0.5541 -0.6454  0.3087
  561TMC3    O1 8384   2.465   0.882  11.593 -0.2341  0.2626 -0.1437
  561TMC3    O2 8385   2.419   0.311  11.738 -0.1260  0.3190  0.0915
  562TMC3    C1 8386   3.572   1.790  16.530 -0.0446 -0.8764  0.5110
  562TMC3    C2 8387   3.468   1.873  16.521  0.4722  0.4324 -0.3219
  562TMC3    C3 8388   3.468   1.969  16.423 -0.4322 -0.4768  0.4015
  562TMC3    C4 8389   3.678   1.796  16.442 -0.8422 -0.5182 -0.4778
  562TMC3    C5 8390   3.671   1.884  16.336  0.9730 -0.2739  1.1947
  562TMC3    C6 8391   3.571   1.981  16.323  0.4944  1.0111 -0.2717
  562TMC3     C 8392   3.538   1.655  16.594 -0.2454 -0.9337  0.8498
  562TMC3     O 8393   3.609   1.562  16.567  0.4875  0.1413 -0.0669
  562TMC3     H 8394   3.375   1.861  16.575  0.0892  2.1268 -0.6115
  562TMC3    H1 8395   3.762   1.730  16.457  0.4607  1.7273  2.0335
  562TMC3    H2 8396   3.586   2.056  16.246  1.3115 -0.6646 -1.7724
  562TMC3    C7 8397   3.753   1.864  16.213 -0.0870 -0.2252  0.0733
  562TMC3    C8 8398   3.353   2.058  16.426  0.1094  0.4030 -0.4719
  562TMC3    O1 8399   3.710   1.918  16.113 -0.1857  0.0327  0.2460
  562TMC3    O2 8400   3.256   2.028  16.498 -0.0922  0.3947  0.2977
  563MPD2     C 8401   1.906   3.402  15.488  0.0214  0.1535 -0.0629
  563MPD2    C1 8402   1.879   3.460  15.613  0.4806 -0.3661  0.5169
  563MPD2    C2 8403   1.985   3.519  15.682  0.2022  0.0676 -0.0824
  563MPD2    C3 8404   2.116   3.503  15.643  0.1053  0.4014 -0.2691
  563MPD2    C4 8405   2.143   3.441  15.522  0.5718 -0.7627  0.4196
  563MPD2    C5 8406   2.042   3.399  15.445 -0.1816 -0.7180 -0.4645
  563MPD2     H 8407   1.954   3.560  15.777 -0.2705  1.0039 -0.6331
  563MPD2    H1 8408   2.240   3.429  15.475 -1.3159 -1.8203 -3.1554
  563MPD2    H2 8409   1.825   3.352  15.437  0.1543  0.3241 -0.4438
  563MPD2    H3 8410   2.066   3.343  15.355 -1.6022  0.8326 -1.8135
  563MPD2     N 8411   2.212   3.527  15.745 -0.0669  0.8722 -0.1068
  563MPD2    H5 8412   2.167   3.552  15.833  1.9554 -1.0382  1.4506
  563MPD2    N1 8413   1.765   3.430  15.686 -1.1098  0.6093 -0.2478
  563MPD2    H7 8414   1.759   3.463  15.782 -1.4517 -1.5931  0.4994
  564TMC3    C1 8415   1.618   3.280  15.771 -1.0398 -0.0125 -0.0771
  564TMC3    C2 8416   1.489   3.284  15.797 -0.1371  0.6100 -0.0536
  564TMC3    C3 8417   1.445   3.266  15.921  0.2718  0.5491  0.3136
  564TMC3    C4 8418   1.710   3.254  15.868  0.3883  0.1339  0.1498
  564TMC3    C5 8419   1.666   3.248  15.997  0.2221  0.3429 -0.2998
  564TMC3    C6 8420   1.532   3.254  16.029 -0.4900  0.5451 -0.9448
  564TMC3     C 8421   1.661   3.350  15.654 -0.1526 -0.0612 -0.3560
  564TMC3     O 8422   1.610   3.324  15.546  0.0597 -0.2425  0.2987
  564TMC3     H 8423   1.423   3.288  15.711 -2.6053 -1.1011  1.7754
  564TMC3    H1 8424   1.816   3.231  15.858  0.0966 -1.1751 -0.0029
  564TMC3    H2 8425   1.489   3.224  16.124  3.7346 -0.9943  0.4979
  564TMC3    C7 8426   1.760   3.202  16.101 -0.7430 -0.3722 -0.0326
  564TMC3    C8 8427   1.308   3.276  15.959  0.2559 -0.6301  0.3776
  564TMC3    O1 8428   1.862   3.148  16.065 -0.2965  0.5288 -0.4039
  564TMC3    O2 8429   1.289   3.269  16.081 -0.3260 -0.1999  0.0479
  565TMC3    C1 8430   1.085   0.072  10.533 -0.3259  0.2382  0.3757
  565TMC3    C2 8431   1.109   0.020  10.657 -0.1072  0.2796  0.2825
  565TMC3    C3 8432   1.026   4.658  10.700 -0.2073  0.4445  1.2211
  565TMC3    C4 8433   0.995   0.012  10.447  0.1628  0.5230 -0.2135
  565TMC3    C5 8434   0.921   4.644  10.491 -0.1381 -0.5507 -0.3631
  565TMC3    C6 8435   0.927   4.600  10.623  0.2188 -0.3822  0.5713
  565TMC3     C 8436   1.179   0.148  10.458 -0.2928 -0.0816 -0.2639
  565TMC3     O 8437   1.139   0.204  10.355 -0.1250 -0.2967 -0.5909
  565TMC3     H 8438   1.194   0.047  10.718 -0.0902  1.3127 -0.1953
  565TMC3    H1 8439   0.990   0.042  10.343 -3.2440  1.6223  0.2666
  565TMC3    H2 8440   0.847   4.534  10.654  0.1833 -0.5027  0.2326
  565TMC3    C7 8441   0.823   4.573  10.410  0.2637  0.1524 -0.0540
  565TMC3    C8 8442   1.045   4.607  10.840  0.7225  0.1283 -0.0103
  565TMC3    O1 8443   0.772   4.471  10.456  0.4082 -0.3531  0.0135
  565TMC3    O2 8444   1.120   4.660  10.921 -0.3585 -0.3616 -0.2211
  566MPD2     C 8445   3.321   1.733  14.456  0.4561 -0.1858  0.0416
  566MPD2    C1 8446   3.334   1.816  14.350  0.1007 -0.0460 -0.2067
  566MPD2    C2 8447   3.220   1.838  14.268 -0.0139  0.2660 -0.0409
  566MPD2    C3 8448   3.101   1.781  14.300 -0.2425 -0.3868 -0.1471
  566MPD2    C4 8449   3.088   1.701  14.413  0.5875 -0.2351 -1.0068
  566MPD2    C5 8450   3.202   1.679  14.494  0.5102 -0.0284  0.1638
  566MPD2     H 8451   3.230   1.905  14.183  0.8469 -0.3616 -0.4383
  566MPD2    H1 8452   2.990   1.664  14.438  0.6527  0.9026  0.9291
  566MPD2    H2 8453   3.410   1.706  14.511  0.3925 -0.8474 -0.1857
  566MPD2    H3 8454   3.183   1.637  14.592 -1.6299 -1.2698 -0.7724
  566MPD2     N 8455   2.989   1.786  14.221 -0.0903 -0.7050 -0.2784
  566MPD2    H5 8456   2.902   1.781  14.273 -0.2155  1.5561 -0.2684
  566MPD2    N1 8457   3.466   1.866  14.320  1.1094  0.3068 -0.1480
  566MPD2    H7 8458   3.540   1.849  14.387  1.4301 -0.8148 -0.7902
  567TMC3    C1 8459   3.632   1.979  14.198  0.9349 -0.0972  0.1234
  567TMC3    C2 8460   3.682   1.975  14.075 -0.0151 -0.0769 -0.5823
  567TMC3    C3 8461   3.821   1.980  14.063 -0.3763  0.3038  0.1926
  567TMC3    C4 8462   3.710   1.992  14.315 -0.3059  0.0484  0.1307
  567TMC3    C5 8463   3.846   1.989  14.295  0.2983 -0.3659  0.1089
  567TMC3    C6 8464   3.908   1.997  14.168  0.8885  0.1066 -0.6474
  567TMC3     C 8465   3.492   1.942  14.211 -0.5781  0.3456  0.1827
  567TMC3     O 8466   3.431   1.961  14.104 -0.1229 -0.2566 -0.6112
  567TMC3     H 8467   3.633   1.944  13.984  0.2419  3.1313 -1.7784
  567TMC3    H1 8468   3.671   2.005  14.415  1.0573  1.4662  0.4735
  567TMC3    H2 8469   4.011   1.976  14.141  1.2779 -0.5374  1.3391
  567TMC3    C7 8470   3.939   1.992  14.409 -0.6804  0.7503 -0.1492
  567TMC3    C8 8471   3.876   1.980  13.930 -0.3382 -0.2507  0.8807
  567TMC3    O1 8472   4.056   2.021  14.387  0.4513 -0.1894  0.2546
  567TMC3    O2 8473   3.813   1.914  13.844  0.2481  0.5814  0.3700
  568MPD2     C 8474   0.863   2.039  16.099 -0.1473 -0.2680  0.0411
  568MPD2    C1 8475   0.856   2.060  16.237  0.1712 -0.3500  0.4954
  568MPD2    C2 8476   0.821   2.186  16.281  0.6039 -0.9002 -0.4732
  568MPD2    C3 8477   0.804   2.292  16.188  0.9909 -0.4363  0.2809
  568MPD2    C4 8478   0.817   2.264  16.053  0.1924  0.0894  0.2882
  568MPD2    C5 8479   0.843   2.140  16.012 -0.8590  0.2478 -0.3744
  568MPD2     H 8480   0.817   2.220  16.384  2.1526 -1.3565 -0.2541
  568MPD2    H1 8481   0.795   2.341  15.980 -2.7355 -1.0907 -0.1070
  568MPD2    H2 8482   0.893   1.942  16.061  0.1045 -0.8455  1.7224
  568MPD2    H3 8483   0.857   2.123  15.906 -0.1478  0.8126 -0.3699
  568MPD2     N 8484   0.778   2.414  16.245  0.4199  0.0457  0.7817
  568MPD2    H5 8485   0.752   2.422  16.342 -0.1959 -0.4051  0.6537
  568MPD2    N1 8486   0.895   1.952  16.317 -0.0208  0.7523 -0.6770
  568MPD2    H7 8487   0.932   1.866  16.277 -3.2300 -0.8838 -0.1129
  569TMC3    C1 8488   0.796   2.650  16.267  0.3265 -0.5355 -0.3624
  569TMC3    C2 8489   0.827   2.632  16.398  0.2339  0.4448 -0.3640
  569TMC3    C3 8490   0.885   2.726  16.471 -0.1334 -0.6768 -0.5627
  569TMC3    C4 8491   0.835   2.768  16.209  0.1842  0.8808 -0.0867
  569TMC3    C5 8492   0.881   2.865  16.284 -0.3913  0.0537 -0.5727
  569TMC3    C6 8493   0.903   2.854  16.417  0.1711 -0.2671  0.4736
  569TMC3     C 8494   0.792   2.538  16.179 -0.1370 -0.2613  0.5877
  569TMC3     O 8495   0.804   2.560  16.063 -0.3772 -0.3339 -0.0823
  569TMC3     H 8496   0.807   2.541  16.454  0.9979  1.2724  1.2680
  569TMC3    H1 8497   0.839   2.780  16.102 -1.2950 -2.1955 -0.5027
  569TMC3    H2 8498   0.943   2.938  16.471  0.7149 -0.9538  1.1373
  569TMC3    C7 8499   0.942   2.982  16.224  0.0477  1.1262 -0.0250
  569TMC3    C8 8500   0.900   2.692  16.613 -0.6702 -0.9777  0.2416
  569TMC3    O1 8501   1.060   2.994  16.251  0.0645 -0.1686  0.0541
  569TMC3    O2 8502   0.823   2.608  16.654 -0.4733 -0.6325 -0.1261
  570TMC3    C1 8503   0.387   0.894  16.321  0.4948  0.0452  0.5462
  570TMC3    C2 8504   0.459   0.943  16.215 -0.2661 -0.4369 -0.0762
  570TMC3    C3 8505   0.550   1.039  16.237 -0.2419 -0.1811 -0.2549
  570TMC3    C4 8506   0.403   0.954  16.441  0.2218  0.4486  0.0332
  570TMC3    C5 8507   0.491   1.055  16.462  0.8581 -0.3616 -0.0587
  570TMC3    C6 8508   0.569   1.099  16.355 -0.3696  0.1444  0.1555
  570TMC3     C 8509   0.255   0.836  16.295  0.4517 -0.1833  0.2832
  570TMC3     O 8510   0.199   0.849  16.187 -0.2030 -0.1731  0.1112
  570TMC3     H 8511   0.429   0.918  16.113  2.0467  0.0611 -0.8750
  570TMC3    H1 8512   0.347   0.923  16.528  2.8164 -1.0488  1.1813
  570TMC3    H2 8513   0.645   1.172  16.379 -1.3111  0.8488  1.0063
  570TMC3    C7 8514   0.502   1.119  16.591  0.0282  0.0685  0.0778
  570TMC3    C8 8515   0.639   1.086  16.131  0.6344  0.2899 -0.1422
  570TMC3    O1 8516   0.440   1.067  16.681  0.2318 -0.3953 -0.2200
  570TMC3    O2 8517   0.705   1.191  16.150  0.3502 -0.1748 -0.3860
  571MPD2     C 8518   3.141   2.402   0.306  0.4976 -0.2382  0.3623
  571MPD2    C1 8519   3.037   2.458   0.239  0.1004  0.0777 -0.0075
  571MPD2    C2 8520   3.000   2.594   0.260  0.3486  0.5007 -0.3952
  571MPD2    C3 8521   3.064   2.667   0.354  0.7188  0.1660 -0.2010
  571MPD2    C4 8522   3.158   2.599   0.431  0.5824 -0.4886 -0.3438
  571MPD2    C5 8523   3.206   2.476   0.401  0.3985 -0.1070 -0.5203
  571MPD2     H 8524   2.922   2.646   0.207 -0.4818 -0.9041 -0.5524
  571MPD2    H1 8525   3.214   2.652   0.507 -1.1530 -0.5362  0.9681
  571MPD2    H2 8526   3.165   2.299   0.279 -0.8129 -0.3348 -0.4381
  571MPD2    H3 8527   3.294   2.443   0.455  0.9372 -1.1199 -2.0367
  571MPD2     N 8528   3.040   2.808   0.378  0.3914  0.3124  0.0512
  571MPD2    H5 8529   3.093   2.862   0.446 -2.2240  2.7892  0.1510
  571MPD2    N1 8530   2.963   2.372   0.145 -0.0884  0.0685 -0.1036
  571MPD2    H7 8531   2.994   2.279   0.121  0.7953 -0.0399  1.4168
  572TMC3    C1 8532   2.989   3.036   0.343 -0.4345  0.0707 -0.3013
  572TMC3    C2 8533   3.028   3.062   0.467  0.1805 -0.2620 -1.4275
  572TMC3    C3 8534   3.075   3.188   0.499 -0.2614 -0.0836 -0.3726
  572TMC3    C4 8535   2.986   3.128   0.243 -0.0483  0.2399  0.3120
  572TMC3    C5 8536   3.047   3.252   0.274 -0.0346  0.1381 -0.3923
  572TMC3    C6 8537   3.079   3.289   0.400 -0.7564  0.4718  0.0084
  572TMC3     C 8538   2.968   2.900   0.304 -0.7318  0.0125  0.0672
  572TMC3     O 8539   2.914   2.874   0.195 -0.0187 -0.7936 -0.2804
  572TMC3     H 8540   3.007   2.993   0.548  3.0682 -1.1941 -1.4733
  572TMC3    H1 8541   2.958   3.095   0.144  2.2897  1.8498 -0.8969
  572TMC3    H2 8542   3.114   3.387   0.431 -1.7884  1.3566 -1.6366
  572TMC3    C7 8543   3.040   3.359   0.180  0.4311 -0.8322  0.2214
  572TMC3    C8 8544   3.134   3.225   0.633 -0.0977 -0.1145  1.2031
  572TMC3    O1 8545   2.971   3.344   0.079  0.1477  0.6845 -0.1838
  572TMC3    O2 8546   3.215   3.313   0.629  0.8712  0.6723 -0.4146
  573MPD2     C 8547   3.971   3.145   0.528  0.7229  0.2222  0.5415
  573MPD2    C1 8548   4.074   3.180   0.444  0.0708  0.2240 -0.5029
  573MPD2    C2 8549   4.093   3.108   0.330  0.4945 -0.2223 -0.0622
  573MPD2    C3 8550   4.001   3.009   0.307  0.7266 -0.0517 -0.1143
  573MPD2    C4 8551   3.891   2.987   0.380  0.0653 -0.0785  0.0008
  573MPD2    C5 8552   3.880   3.052   0.500  0.2427 -0.4248 -0.1350
  573MPD2     H 8553   4.168   3.133   0.255  0.2379  3.2323  0.8317
  573MPD2    H1 8554   3.816   2.913   0.356 -0.1026 -0.8025  2.7803
  573MPD2    H2 8555   3.943   3.204   0.615  0.9051  1.1468 -0.0246
  573MPD2    H3 8556   3.788   3.045   0.556  0.1541 -0.1681 -0.2478
  573MPD2     N 8557   4.013   2.952   0.179 -0.1497 -0.1392 -0.5079
  573MPD2    H5 8558   3.928   2.929   0.129  0.8140 -0.1550 -2.1370
  573MPD2    N1 8559   4.153   3.285   0.485  0.2722  0.1103 -0.4439
  573MPD2    H7 8560   4.129   3.324   0.576  2.1502 -2.8249  1.2970
  574TMC3    C1 8561   4.119   2.923  17.720 -0.1174 -0.8111  0.6830
  574TMC3    C2 8562   4.009   2.991  17.665  0.6886 -0.5672  1.0505
  574TMC3    C3 8563   4.035   3.087  17.575  0.2679  0.0538  0.2852
  574TMC3    C4 8564   4.238   2.919  17.649 -0.2280  0.0065  0.0369
  574TMC3    C5 8565   4.251   3.017  17.550 -0.5477  0.3847  0.4772
  574TMC3    C6 8566   4.153   3.106  17.514 -0.0970 -0.4489  0.2165
  574TMC3     C 8567   4.129   2.928   0.118  0.3150  0.2066  0.0738
  574TMC3     O 8568   4.245   2.932   0.148 -0.1568 -0.6173 -0.1347
  574TMC3     H 8569   3.909   2.984  17.707  0.0124 -0.7651 -0.5863
  574TMC3    H1 8570   4.323   2.860  17.679  2.1585  2.9619 -0.8240
  574TMC3    H2 8571   4.162   3.162  17.422 -1.4186 -3.2464 -1.5902
  574TMC3    C7 8572   4.374   3.021  17.469  0.9498 -0.0979 -1.0194
  574TMC3    C8 8573   3.927   3.170  17.528 -0.3830  0.1775 -0.1461
  574TMC3    O1 8574   4.445   2.922  17.489 -0.1070  0.1079  0.3002
  574TMC3    O2 8575   3.817   3.127  17.546  0.1609  0.1881  0.4662
  575TMC3    C1 8576   1.574   4.283  11.477 -0.2829  0.4480  0.2178
  575TMC3    C2 8577   1.606   4.150  11.468 -0.1113 -0.3933  0.3778
  575TMC3    C3 8578   1.534   4.077  11.380  0.6488 -0.0682  0.4017
  575TMC3    C4 8579   1.459   4.343  11.424 -0.3621  0.0551  0.1251
  575TMC3    C5 8580   1.383   4.256  11.350  0.6431  0.3402  0.0255
  575TMC3    C6 8581   1.418   4.128  11.326 -0.0923  0.2775  0.2834
  575TMC3     C 8582   1.642   4.352  11.585 -0.0443 -0.2948  0.1955
  575TMC3     O 8583   1.703   4.285  11.668 -0.5499 -0.2050  0.4198
  575TMC3     H 8584   1.695   4.108  11.513 -0.6299  0.1864  1.9744
  575TMC3    H1 8585   1.421   4.444  11.433 -1.5018 -0.1620 -2.1976
  575TMC3    H2 8586   1.351   4.081  11.255  1.2506 -1.1475 -0.0369
  575TMC3    C7 8587   1.291   4.324  11.259  0.4321 -0.1710 -0.5424
  575TMC3    C8 8588   1.558   3.938  11.351 -0.2380 -0.5649 -0.0402
  575TMC3    O1 8589   1.324   4.440  11.229 -0.5798 -0.2423  0.6549
  575TMC3    O2 8590   1.654   3.881  11.408 -0.1184 -0.3634 -0.0162
  576MPD2     C 8591   1.916   0.903  13.046  0.1055 -0.4198  0.2289
  576MPD2    C1 8592   1.916   0.996  12.941 -0.3251  0.5908  0.8898
  576MPD2    C2 8593   1.824   1.103  12.942  0.5786 -0.4903 -0.6587
  576MPD2    C3 8594   1.730   1.109  13.036 -0.2008 -0.4052  0.0479
  576MPD2    C4 8595   1.732   1.020  13.144 -0.2594 -0.5858  0.5017
  576MPD2    C5 8596   1.821   0.915  13.146 -0.3192 -0.2523  0.0524
  576MPD2     H 8597   1.823   1.169  12.856  0.5921  0.0432 -0.2486
  576MPD2    H1 8598   1.666   1.022  13.230 -0.3770 -0.5682  0.4110
  576MPD2    H2 8599   1.984   0.818  13.050  2.2292  1.2380 -0.2655
  576MPD2    H3 8600   1.805   0.830  13.211 -1.2134 -0.5097 -0.4925
  576MPD2     N 8601   1.631   1.213  13.021 -0.5140 -0.3620  0.1708
  576MPD2    H5 8602   1.647   1.273  12.941 -1.5346  1.9970  1.7027
  576MPD2    N1 8603   2.002   0.989  12.825  0.6547  0.0779  0.0469
  576MPD2    H7 8604   2.003   1.072  12.766 -2.1588  0.1514  0.1051
  577TMC3    C1 8605   2.166   0.902  12.680 -0.0272 -0.2571 -0.4736
  577TMC3    C2 8606   2.218   0.782  12.629  0.1379 -0.4906 -0.1252
  577TMC3    C3 8607   2.243   0.775  12.494 -0.2981 -0.0810  0.1954
  577TMC3    C4 8608   2.147   1.017  12.600  0.7960 -0.0982  0.4013
  577TMC3    C5 8609   2.175   1.000  12.470  0.1764 -0.5033 -0.3204
  577TMC3    C6 8610   2.225   0.884  12.412  0.0321  0.3607 -0.2728
  577TMC3     C 8611   2.073   0.881  12.784  0.1336 -0.4967 -0.7559
  577TMC3     O 8612   2.067   0.766  12.829  0.6693  0.1315 -0.1204
  577TMC3     H 8613   2.236   0.696  12.693  0.4428 -0.9676 -0.8568
  577TMC3    H1 8614   2.114   1.112  12.641 -0.3908 -0.5483  0.4918
  577TMC3    H2 8615   2.256   0.887  12.308  1.4617 -0.5535  0.1290
  577TMC3    C7 8616   2.174   1.118  12.390  0.3033  0.0057  0.8598
  577TMC3    C8 8617   2.283   0.648  12.434  0.1856 -0.0512 -0.7684
  577TMC3    O1 8618   2.244   1.122  12.291  0.1916  1.0033  0.1011
  577TMC3    O2 8619   2.301   0.554  12.511 -0.2332  0.0792 -0.0945
  578MPD2     C 8620   4.210   1.367   1.582 -0.1291  0.1319 -0.0481
  578MPD2    C1 8621   4.242   1.351   1.448 -0.4872 -0.6498 -0.6479
  578MPD2    C2 8622   4.338   1.264   1.408  0.6676  0.0470 -0.0824
  578MPD2    C3 8623   4.411   1.192   1.510 -0.1239  0.2023  0.3822
  578MPD2    C4 8624   4.375   1.207   1.647  0.2925 -0.5218  0.4553
  578MPD2    C5 8625   4.269   1.289   1.678 -0.3871  0.0799 -0.6974
  578MPD2     H 8626   4.360   1.244   1.303  1.4678  0.7688 -0.0550
  578MPD2    H1 8627   4.429   1.159   1.727  1.2673  0.8671  0.6276
  578MPD2    H2 8628   4.135   1.440   1.612 -0.6041 -1.1745  1.9152
  578MPD2    H3 8629   4.240   1.303   1.781  1.6810 -1.0965  0.0407
  578MPD2     N 8630   4.524   1.115   1.472  0.6405  0.3818 -0.3049
  578MPD2    H5 8631   4.542   1.101   1.373  1.2386 -2.3208  0.1806
  578MPD2    N1 8632   4.170   1.439   1.358 -0.4708  0.5265  0.1943
  578MPD2    H7 8633   4.110   1.510   1.399 -0.8419  0.7651 -0.7713
  579TMC3    C1 8634   4.720   0.985   1.490 -0.0136  0.1593  0.4271
  579TMC3    C2 8635   0.093   0.942   1.563 -0.5449  0.2369  0.7472
  579TMC3    C3 8636   0.206   0.896   1.501  0.2785 -0.6241  0.6889
  579TMC3    C4 8637   4.705   0.944   1.355  0.1867 -0.0443  0.5254
  579TMC3    C5 8638   0.084   0.892   1.294  0.0677  0.7937 -0.6885
  579TMC3    C6 8639   0.196   0.864   1.370 -0.7585  0.2802 -0.7204
  579TMC3     C 8640   4.623   1.069   1.561  0.5645  0.6049  0.2047
  579TMC3     O 8641   4.646   1.106   1.679  0.4406  0.2064 -0.0910
  579TMC3     H 8642   0.102   0.975   1.666  2.6667 -0.0400  0.5846
  579TMC3    H1 8643   4.624   0.980   1.293 -0.6821 -0.0703  1.6623
  579TMC3    H2 8644   0.287   0.848   1.314 -1.2086  0.5552 -1.5364
  579TMC3    C7 8645   0.056   0.822   1.166 -0.7140  0.2932  0.3143
  579TMC3    C8 8646   0.335   0.930   1.561 -0.2926 -0.3501 -0.9757
  579TMC3    O1 8647   4.688   0.856   1.118 -0.2224  0.2177 -0.1518
  579TMC3    O2 8648   0.329   0.992   1.669 -0.2864 -0.0093 -0.0951
  580TMC3    C1 8649   4.456   0.394  12.728  0.7238  0.1012  0.1251
  580TMC3    C2 8650   4.583   0.435  12.750  0.1124 -0.2876 -0.7939
  580TMC3    C3 8651   4.640   0.414  12.871  0.7428 -0.2652  0.2238
  580TMC3    C4 8652   4.398   0.303  12.805 -0.3907 -0.0811 -0.4217
  580TMC3    C5 8653   4.456   0.279  12.927 -0.1189 -0.0581  0.2547
  580TMC3    C6 8654   4.579   0.334  12.964 -0.5925  0.0473  0.2519
  580TMC3     C 8655   4.381   0.447  12.619 -0.8694 -0.5834  0.6489
  580TMC3     O 8656   4.443   0.498  12.523 -0.5337 -0.2916  0.0145
  580TMC3     H 8657   4.622   0.507  12.678  2.2326  2.4477  3.0626
  580TMC3    H1 8658   4.303   0.256  12.783 -0.2986  0.0733 -1.1578
  580TMC3    H2 8659   4.643   0.277  13.031 -1.0442 -1.0218 -0.2278
  580TMC3    C7 8660   4.453   0.136  12.950  0.2586 -0.4387  0.8031
  580TMC3    C8 8661   0.045   0.416  12.870  0.7244  0.0841  0.2825
  580TMC3    O1 8662   4.476   0.090  13.060 -0.4279  0.4859  0.0932
  580TMC3    O2 8663   0.106   0.442  12.977 -0.5715 -0.6264 -0.6921
  581MPD2     C 8664   3.061   0.009  15.111 -0.2561 -0.2274  0.4117
  581MPD2    C1 8665   2.976   0.011  15.217 -0.2003  0.1165  0.0966
  581MPD2    C2 8666   2.840   0.021  15.197  0.0994 -0.0647  1.0434
  581MPD2    C3 8667   2.790   0.016  15.069  0.1975  0.0270  0.4994
  581MPD2    C4 8668   2.879   0.005  14.960 -0.1366  0.2007  0.3152
  581MPD2    C5 8669   3.014   0.005  14.984 -0.4316  0.5667 -0.1178
  581MPD2     H 8670   2.769   0.015  15.279  1.3759 -0.0796  2.1375
  581MPD2    H1 8671   2.841   4.731  14.859  0.9761  1.4640 -0.2217
  581MPD2    H2 8672   3.169   0.009  15.122 -0.2440 -3.2918  0.2063
  581MPD2    H3 8673   3.085   4.731  14.902  1.2506 -1.2002  1.5390
  581MPD2     N 8674   2.649   0.014  15.049  0.1357  0.1546 -0.3083
  581MPD2    H5 8675   2.589   0.040  15.126  1.2512  2.4748 -0.2201
  581MPD2    N1 8676   3.035   4.733  15.347  0.0401  0.5022 -0.8329
  581MPD2    H7 8677   3.136   4.718  15.347  0.0078  0.3004  0.3906
  582TMC3    C1 8678   3.048   4.684  15.584 -0.0360  0.0551 -0.1704
  582TMC3    C2 8679   2.998   4.716  15.705 -0.3416  0.0807  0.5912
  582TMC3    C3 8680   3.009   4.623  15.804 -0.7257  0.0831 -0.2396
  582TMC3    C4 8681   3.080   4.554  15.554 -0.2099  0.0488 -0.3808
  582TMC3    C5 8682   3.073   4.457  15.649 -0.4882  0.2407 -0.4111
  582TMC3    C6 8683   3.040   4.486  15.776  0.2252  0.9181 -0.3288
  582TMC3     C 8684   2.972   0.004  15.471  0.3306  0.1222  0.6107
  582TMC3     O 8685   2.857   0.038  15.495 -0.4513  0.3240  0.9004
  582TMC3     H 8686   2.963   0.081  15.719 -0.5611  0.2362 -1.0685
  582TMC3    H1 8687   3.091   4.509  15.456 -1.9890 -0.6113 -0.2681
  582TMC3    H2 8688   3.001   4.404  15.835  1.2665  0.7231  0.0742
  582TMC3    C7 8689   2.976   4.358  15.601 -0.7079  0.1843  0.6532
  582TMC3    C8 8690   2.934   4.645  15.919 -0.1568  0.0685  0.3007
  582TMC3    O1 8691   2.989   4.233  15.609 -0.5379  0.4334  0.4889
  582TMC3    O2 8692   2.849   4.730  15.912  0.0253  0.0421 -0.3531
  583MPD2     C 8693   2.043   1.380  16.857  0.2343 -0.2417 -0.0485
  583MPD2    C1 8694   2.027   1.485  16.773  0.7258 -0.8889  0.3193
  583MPD2    C2 8695   1.935   1.582  16.799 -0.5967  0.7024  0.1044
  583MPD2    C3 8696   1.847   1.584  16.902 -0.0334 -0.1147  0.1646
  583MPD2    C4 8697   1.857   1.469  16.985 -0.3485 -0.8780 -0.3644
  583MPD2    C5 8698   1.957   1.374  16.963  0.4450  0.1073  0.1939
  583MPD2     H 8699   1.933   1.675  16.743  1.7104 -0.7028 -2.2839
  583MPD2    H1 8700   1.787   1.451  17.066 -0.8905  0.8488 -0.4534
  583MPD2    H2 8701   2.106   1.293  16.840  0.5720  0.5718 -2.9665
  583MPD2    H3 8702   1.954   1.288  17.029 -1.3916  1.0385  1.3214
  583MPD2     N 8703   1.753   1.688  16.919 -0.8017 -0.7267  0.4699
  583MPD2    H5 8704   1.754   1.753  16.841  0.2098  1.7368  2.5445
  583MPD2    N1 8705   2.109   1.501  16.655 -0.2312  0.1367  1.0097
  583MPD2    H7 8706   2.089   1.584  16.601 -3.9893 -0.8056  0.9114
  584TMC3    C1 8707   1.618   1.836  17.038  0.0905 -0.4025 -0.2288
  584TMC3    C2 8708   1.638   1.934  16.944 -0.6036 -0.7597  0.2816
  584TMC3    C3 8709   1.580   2.054  16.973 -0.3481 -0.4267 -0.5561
  584TMC3    C4 8710   1.532   1.854  17.149 -0.2433  0.5287  0.1954
  584TMC3    C5 8711   1.475   1.974  17.166  0.2285 -0.5974 -0.4995
  584TMC3    C6 8712   1.505   2.080  17.085 -0.0376 -0.3545  0.3022
  584TMC3     C 8713   1.667   1.700  17.019 -0.5073  0.2000 -0.2102
  584TMC3     O 8714   1.651   1.620  17.113  0.4902  0.0713  0.9089
  584TMC3     H 8715   1.708   1.928  16.862 -0.4075  1.3189  0.3021
  584TMC3    H1 8716   1.506   1.772  17.215 -1.4003  0.5716 -0.2136
  584TMC3    H2 8717   1.454   2.175  17.101  0.8406 -0.0067  0.9848
  584TMC3    C7 8718   1.372   1.997  17.263 -0.0885  0.5848  0.1955
  584TMC3    C8 8719   1.648   2.167  16.920  0.2147 -0.0820 -0.2115
  584TMC3    O1 8720   1.303   2.096  17.252 -0.3595 -0.1490 -0.1253
  584TMC3    O2 8721   1.665   2.176  16.798 -0.9301  0.4607  0.3529
  585MPD2     C 8722   1.441   0.438   0.505 -0.6616 -0.3293 -0.4806
  585MPD2    C1 8723   1.338   0.408   0.421  0.4375  0.3588 -0.3070
  585MPD2    C2 8724   1.334   0.286   0.359 -0.6619 -0.0293  0.4551
  585MPD2    C3 8725   1.437   0.192   0.376 -0.8369 -0.7596 -0.5934
  585MPD2    C4 8726   1.541   0.225   0.460 -0.0478  0.5301 -0.1250
  585MPD2    C5 8727   1.539   0.344   0.530  0.0405  0.8498 -0.1687
  585MPD2     H 8728   1.251   0.265   0.293  0.8474 -2.6755 -0.5984
  585MPD2    H1 8729   1.626   0.162   0.483 -0.3973 -0.7124 -2.2804
  585MPD2    H2 8730   1.433   0.535   0.551  2.5836 -0.8782  1.2143
  585MPD2    H3 8731   1.614   0.366   0.605 -2.2960  2.2513  1.7715
  585MPD2     N 8732   1.450   0.093   0.278  0.2815 -0.3299 -0.8668
  585MPD2    H5 8733   1.367   0.085   0.220  0.8052  2.0271 -1.9800
  585MPD2    N1 8734   1.264   0.519   0.371 -0.0694 -0.0225 -0.0228
  585MPD2    H7 8735   1.277   0.603   0.427 -0.0874  0.0150 -0.0744
  586TMC3    C1 8736   1.549   4.680   0.130  0.5569 -0.6410  0.3677
  586TMC3    C2 8737   1.669   4.693   0.061 -0.1373 -0.3415 -0.3887
  586TMC3    C3 8738   1.665   4.735  17.677  0.0339 -0.2740 -0.0956
  586TMC3    C4 8739   1.433   4.719   0.061 -0.0469 -0.3556 -0.2228
  586TMC3    C5 8740   1.447   0.043  17.687  0.1116 -0.4549  0.8467
  586TMC3    C6 8741   1.555   0.051  17.612  0.0169  0.2509 -0.1599
  586TMC3     C 8742   1.553   0.004   0.261  0.2266  0.1111 -0.3158
  586TMC3     O 8743   1.652   4.728   0.330  0.0331 -0.3552  0.2140
  586TMC3     H 8744   1.764   4.675   0.110 -0.6201 -0.1279  0.6500
  586TMC3    H1 8745   1.334   4.706   0.103  0.1799 -0.2114  0.3717
  586TMC3    H2 8746   1.542   0.080  17.509  1.6140 -1.4017 -0.8154
  586TMC3    C7 8747   1.318   0.095  17.645 -0.0761  0.6004  0.0336
  586TMC3    C8 8748   1.781   4.697  17.596  0.5672  0.2593  0.2771
  586TMC3    O1 8749   1.212   0.030  17.654  0.6224 -0.2153 -0.6496
  586TMC3    O2 8750   1.842   4.598  17.629 -0.1183  0.8919 -0.2490
  587TMC3    C1 8751   3.596   3.426  17.144  0.0758  0.1905  0.4024
  587TMC3    C2 8752   3.631   3.548  17.091 -0.2730 -0.2870 -0.3304
  587TMC3    C3 8753   3.765   3.566  17.059 -0.0167  0.2236  0.3006
  587TMC3    C4 8754   3.684   3.319  17.162 -0.0609 -0.0270  0.1681
  587TMC3    C5 8755   3.811   3.339  17.129 -0.3469 -0.4082 -0.0431
  587TMC3    C6 8756   3.858   3.467  17.094  0.5560  0.0271  0.4518
  587TMC3     C 8757   3.456   3.397  17.160  0.1442  0.8428  0.5396
  587TMC3     O 8758   3.423   3.324  17.252  0.4436 -0.7059  0.3677
  587TMC3     H 8759   3.551   3.618  17.069 -2.1146 -2.3553 -0.1942
  587TMC3    H1 8760   3.641   3.233  17.213  0.0590  0.3176  0.8513
  587TMC3    H2 8761   3.965   3.475  17.080  0.5290  1.2997  0.9493
  587TMC3    C7 8762   3.913   3.250  17.169  0.7080  0.5983 -0.4530
  587TMC3    C8 8763   3.821   3.699  17.027  0.4581  0.1038 -0.1916
  587TMC3    O1 8764   4.029   3.294  17.174  0.5476 -0.4708 -0.0459
  587TMC3    O2 8765   3.947   3.704  17.023 -0.1125 -0.0619 -0.1221
  588TMC3    C1 8766   1.335   2.085  10.383  0.3059  0.7967 -0.5712
  588TMC3    C2 8767   1.278   1.977  10.339 -0.2322 -0.6047 -0.5569
  588TMC3    C3 8768   1.365   1.880  10.300 -0.7828  0.8136  0.1459
  588TMC3    C4 8769   1.466   2.122  10.370  0.4050  0.5117  0.2650
  588TMC3    C5 8770   1.548   2.022  10.322  0.9223 -0.3528 -0.0819
  588TMC3    C6 8771   1.504   1.899  10.278 -0.3781 -0.0745  0.4674
  588TMC3     C 8772   1.238   2.202  10.380 -0.3277  0.7748  0.4137
  588TMC3     O 8773   1.123   2.183  10.340  0.6232  1.0206 -0.5210
  588TMC3     H 8774   1.172   1.958  10.350 -0.0573 -0.9213  0.6071
  588TMC3    H1 8775   1.504   2.206  10.427 -1.8032  1.1554  0.7784
  588TMC3    H2 8776   1.566   1.826  10.228 -0.0914  0.3198  0.2488
  588TMC3    C7 8777   1.672   2.059  10.260 -0.4649 -0.6627 -0.5382
  588TMC3    C8 8778   1.295   1.745  10.286  0.0666  0.1203  0.5926
  588TMC3    O1 8779   1.738   1.980  10.196  0.6139  0.1869  0.2542
  588TMC3    O2 8780   1.174   1.757  10.275 -0.0363  0.2324 -0.0362
  589TMC3    C1 8781   0.216   4.144   0.943  0.4673  0.1177  0.4379
  589TMC3    C2 8782   0.272   4.145   1.073  0.4871  0.3174  1.1170
  589TMC3    C3 8783   0.364   4.054   1.122  0.0092 -0.1917 -1.0026
  589TMC3    C4 8784   0.246   4.033   0.864 -0.7401 -0.4897  0.1963
  589TMC3    C5 8785   0.331   3.938   0.916  0.2190 -0.1108 -0.1226
  589TMC3    C6 8786   0.398   3.951   1.033 -0.0084  0.7054  0.3088
  589TMC3     C 8787   0.089   4.217   0.918  0.2654 -0.1777  0.0771
  589TMC3     O 8788   0.023   4.165   0.828 -0.7727 -0.6469 -0.0962
  589TMC3     H 8789   0.238   4.219   1.144  0.8525  1.4900  0.0738
  589TMC3    H1 8790   0.182   4.027   0.777 -2.3165  0.0422  1.3233
  589TMC3    H2 8791   0.447   3.861   1.070  1.4824  0.5604 -2.0383
  589TMC3    C7 8792   0.355   3.816   0.840  0.2578  0.6488  0.0899
  589TMC3    C8 8793   0.465   4.116   1.201  0.1734  0.0481 -0.3873
  589TMC3    O1 8794   0.392   3.713   0.901  0.6834 -0.0053 -0.2800
  589TMC3    O2 8795   0.432   4.212   1.267 -0.4419  0.5438 -0.5954
  590MPD2     C 8796   4.696   2.335  16.987  0.1863 -0.2986 -0.6107
  590MPD2    C1 8797   4.672   2.394  16.872  0.3852 -0.0759 -0.6118
  590MPD2    C2 8798   0.047   2.423  16.795  0.4331  0.0893 -0.9551
  590MPD2    C3 8799   0.175   2.419  16.845  0.2349  0.1109  0.6029
  590MPD2    C4 8800   0.194   2.380  16.974  0.4906  1.0530  0.3162
  590MPD2    C5 8801   0.085   2.336  17.043 -0.3403 -0.3080 -0.7715
  590MPD2     H 8802   0.035   2.462  16.695 -0.6137  2.2202  0.0099
  590MPD2    H1 8803   0.293   2.373  17.017  0.6137  1.1579  0.0500
  590MPD2    H2 8804   4.609   2.303  17.042  1.2050 -1.4622  0.3145
  590MPD2    H3 8805   0.097   2.305  17.146  4.6501  2.4905 -0.4859
  590MPD2     N 8806   0.281   2.464  16.761 -0.0594  0.1394  0.3695
  590MPD2    H5 8807   0.250   2.495  16.669 -0.7987  0.5157  0.7431
  590MPD2    N1 8808   4.545   2.403  16.821 -0.4823  0.1302  0.5098
  590MPD2    H7 8809   4.469   2.348  16.860 -0.4993 -0.7337 -0.7565
  591TMC3    C1 8810   0.478   2.551  16.683  0.2761 -0.0814  0.3280
  591TMC3    C2 8811   0.447   2.495  16.557  0.0609  0.2391 -0.4140
  591TMC3    C3 8812   0.471   2.573  16.447  0.1187  0.2042  0.0325
  591TMC3    C4 8813   0.529   2.677  16.700 -0.4295 -0.6508  0.5300
  591TMC3    C5 8814   0.540   2.753  16.580 -0.3397  0.5006 -0.2524
  591TMC3    C6 8815   0.516   2.709  16.456 -0.9116  0.5347  0.0458
  591TMC3     C 8816   0.410   2.498  16.795 -0.3339 -0.1069 -0.0925
  591TMC3     O 8817   0.456   2.524  16.906  0.3106  0.1163 -0.1285
  591TMC3     H 8818   0.400   2.398  16.544  0.7286 -0.1969  0.4321
  591TMC3    H1 8819   0.550   2.708  16.802 -0.9525  2.8269 -0.3960
  591TMC3    H2 8820   0.540   2.757  16.362 -0.4025 -0.3166 -0.2590
  591TMC3    C7 8821   0.580   2.891  16.604  0.1687 -0.2605 -0.7909
  591TMC3    C8 8822   0.424   2.523  16.323  0.5224 -0.2224  0.6115
  591TMC3    O1 8823   0.602   2.919  16.722 -0.1576  0.5461  0.1485
  591TMC3    O2 8824   0.449   2.402  16.308 -0.4844  0.7779  0.4270
  592MPD2     C 8825   0.798   4.489  12.171 -0.0754  0.1193  0.5102
  592MPD2    C1 8826   0.759   4.518  12.297  0.7717  0.0942  0.3317
  592MPD2    C2 8827   0.659   4.442  12.360 -0.7008  0.0346  0.1597
  592MPD2    C3 8828   0.599   4.338  12.297  0.5710  0.1778  0.0173
  592MPD2    C4 8829   0.633   4.314  12.164  0.3937  0.2126  0.0608
  592MPD2    C5 8830   0.738   4.389  12.104  0.2712 -0.3857  0.2816
  592MPD2     H 8831   0.636   4.457  12.465  1.1026 -0.7194  0.6555
  592MPD2    H1 8832   0.596   4.234  12.101 -0.1640  1.6591 -1.4458
  592MPD2    H2 8833   0.873   4.549  12.121 -1.5170  0.9170 -0.7030
  592MPD2    H3 8834   0.771   4.375  12.002 -1.3205 -1.6516 -0.0462
  592MPD2     N 8835   0.523   4.249  12.367  0.1094  0.5633 -0.2903
  592MPD2    H5 8836   0.521   4.257  12.469  2.2298  1.6425 -0.3394
  592MPD2    N1 8837   0.818   4.631  12.353  0.5258  0.5673  0.3533
  592MPD2    H7 8838   0.893   4.674  12.299  1.1553 -0.4204  0.4513
  593TMC3    C1 8839   0.886   0.049  12.516 -0.5863 -0.5489 -0.1650
  593TMC3    C2 8840   0.849   0.105  12.636  0.7135 -1.6461 -0.0444
  593TMC3    C3 8841   0.938   0.161  12.731  0.8234  0.1807  0.4929
  593TMC3    C4 8842   1.018   0.035  12.492  0.1142 -0.2389 -0.0252
  593TMC3    C5 8843   1.107   0.086  12.581  0.6412  0.6109  0.2144
  593TMC3    C6 8844   1.072   0.142  12.707  0.0909 -0.1910  0.5533
  593TMC3     C 8845   0.786   4.696  12.469 -0.5412  0.5108 -0.2447
  593TMC3     O 8846   0.680   4.684  12.534  0.3960 -0.2811 -0.2194
  593TMC3     H 8847   0.744   0.128  12.649  1.2816  1.1450 -0.3883
  593TMC3    H1 8848   1.051   4.709  12.409 -3.0773  0.6574 -1.9718
  593TMC3    H2 8849   1.147   0.159  12.783  1.6607  1.4862 -1.3626
  593TMC3    C7 8850   1.229   0.140  12.529 -0.3398 -0.0290  0.1245
  593TMC3    C8 8851   0.898   0.302  12.765 -0.1344 -0.0376 -0.5588
  593TMC3    O1 8852   1.251   0.254  12.575 -0.1393  0.4179 -0.2205
  593TMC3    O2 8853   0.781   0.339  12.772 -0.3054 -0.1662  0.2544
  594MPD2     C 8854   4.414   2.992  15.067  0.9632  0.7256 -0.1562
  594MPD2    C1 8855   4.342   3.035  14.957 -0.8076  0.1641  0.4443
  594MPD2    C2 8856   4.408   3.101  14.854  1.2258 -0.7007 -0.3937
  594MPD2    C3 8857   4.541   3.136  14.880 -0.3291  0.0059  0.3560
  594MPD2    C4 8858   4.614   3.085  14.989 -0.0650  0.1847  0.0028
  594MPD2    C5 8859   4.546   3.017  15.076 -0.5036  0.1475  0.2867
  594MPD2     H 8860   4.367   3.148  14.766 -0.9675  1.4821  1.7900
  594MPD2    H1 8861   4.721   3.097  15.005  0.8925 -4.7602 -2.5049
  594MPD2    H2 8862   4.371   2.971  15.164  1.1805 -0.2710 -0.2845
  594MPD2    H3 8863   4.590   2.995  15.172 -0.5324 -0.0453  0.2560
  594MPD2     N 8864   4.604   3.208  14.776  0.3480  0.3662  0.0907
  594MPD2    H5 8865   4.543   3.236  14.699  2.3150 -0.5219 -1.7739
  594MPD2    N1 8866   4.203   3.008  14.947 -0.2557 -0.2110  0.3462
  594MPD2    H7 8867   4.156   2.943  15.009  3.5013 -2.3670  0.9763
  595TMC3    C1 8868   0.207   3.419  14.529 -0.2869 -0.5065  0.2392
  595TMC3    C2 8869   0.181   3.335  14.637 -0.2376 -0.1989  0.4196
  595TMC3    C3 8870   0.046   3.338  14.673  0.0299  0.2277 -0.0329
  595TMC3    C4 8871   0.115   3.488  14.456  0.5415 -0.1477 -0.6860
  595TMC3    C5 8872   4.722   3.481  14.490 -0.6555  0.1880  0.6972
  595TMC3    C6 8873   4.689   3.399  14.596 -0.3401 -0.1809 -0.3556
  595TMC3     C 8874   0.337   3.488  14.533 -0.4385 -0.2071 -0.1444
  595TMC3     O 8875   0.341   3.610  14.527  0.8520  0.2407 -0.4113
  595TMC3     H 8876   0.265   3.283  14.681  0.9534  1.2273 -0.1801
  595TMC3    H1 8877   0.151   3.554  14.378  1.1021  0.0965 -0.2282
  595TMC3    H2 8878   4.590   3.402  14.640 -0.1910  3.2324 -0.1899
  595TMC3    C7 8879   4.659   3.612  14.508 -0.4401 -0.2352  0.4071
  595TMC3    C8 8880   0.005   3.242  14.767 -0.6358 -0.4045  0.0799
  595TMC3    O1 8881   4.550   3.616  14.568 -0.0071 -0.4573 -0.2372
  595TMC3    O2 8882   0.094   3.207  14.836  0.3991 -0.0503 -0.2271
  596MPD2     C 8883   2.943   1.161  16.994  0.7362 -0.2620  0.3847
  596MPD2    C1 8884   2.931   1.275  16.926  0.2448 -0.4560 -0.4461
  596MPD2    C2 8885   2.988   1.291  16.797 -0.5457  1.0261 -0.3811
  596MPD2    C3 8886   3.045   1.174  16.741 -0.4005  0.5551 -0.3035
  596MPD2    C4 8887   3.044   1.055  16.808  0.1280 -0.0751 -0.0398
  596MPD2    C5 8888   2.996   1.052  16.933  1.1555  0.0999  0.0419
  596MPD2     H 8889   2.973   1.387  16.751 -0.2489  2.0220  1.6001
  596MPD2    H1 8890   3.093   0.967  16.766 -0.6178 -0.6716  0.3449
  596MPD2    H2 8891   2.887   1.152  17.087 -0.2755  0.5577 -0.1576
  596MPD2    H3 8892   2.994   0.958  16.987  0.7508 -0.1680 -0.4413
  596MPD2     N 8893   3.098   1.170  16.607 -0.0876 -0.1698  0.7689
  596MPD2    H5 8894   3.129   1.080  16.572 -1.6825 -0.6272  0.5067
  596MPD2    N1 8895   2.864   1.392  16.968  0.2989  0.3392  0.2664
  596MPD2    H7 8896   2.869   1.462  16.894 -3.8200  1.4980  1.0862
  597TMC3    C1 8897   2.766   1.552  17.099 -0.3939 -0.2599 -0.6362
  597TMC3    C2 8898   2.844   1.645  17.042  0.4321  0.0618  0.3822
  597TMC3    C3 8899   2.811   1.777  17.081 -0.0214 -0.4074  1.3974
  597TMC3    C4 8900   2.657   1.577  17.174 -0.5576 -0.2463 -0.0411
  597TMC3    C5 8901   2.626   1.708  17.195 -0.0584 -0.1117 -1.0443
  597TMC3    C6 8902   2.700   1.814  17.150 -0.1797  0.0256  0.2243
  597TMC3     C 8903   2.782   1.412  17.077 -0.2027  0.0359  0.3741
  597TMC3     O 8904   2.751   1.329  17.166 -0.0379 -0.0663 -0.0206
  597TMC3     H 8905   2.941   1.627  16.997  0.7053 -0.1047  1.0436
  597TMC3    H1 8906   2.593   1.500  17.214 -1.0553 -0.1357 -0.6150
  597TMC3    H2 8907   2.679   1.917  17.179 -2.3272  0.2739 -2.2047
  597TMC3    C7 8908   2.489   1.731  17.243  0.0506  0.1860 -0.1655
  597TMC3    C8 8909   2.879   1.876  16.999  0.1269 -0.4683 -0.2765
  597TMC3    O1 8910   2.438   1.633  17.294  0.3691  0.3950 -0.3588
  597TMC3    O2 8911   2.940   1.846  16.898  0.1104 -0.1271  0.1360
  598TMC3    C1 8912   1.378   2.816  15.449  0.3227 -0.3625  0.0781
  598TMC3    C2 8913   1.268   2.735  15.418 -0.2372  0.3149 -0.1098
  598TMC3    C3 8914   1.234   2.714  15.286 -0.2518  1.0406 -0.3529
  598TMC3    C4 8915   1.442   2.877  15.347 -0.5285 -0.0158 -0.1734
  598TMC3    C5 8916   1.387   2.871  15.220  0.7869  0.2922  0.1676
  598TMC3    C6 8917   1.277   2.796  15.195  0.1569  1.0706  0.2726
  598TMC3     C 8918   1.431   2.848  15.578 -0.0819 -1.1018  0.6173
  598TMC3     O 8919   1.502   2.942  15.591  1.0015 -0.1102 -0.3345
  598TMC3     H 8920   1.213   2.681  15.494 -1.0278  1.1728 -0.0732
  598TMC3    H1 8921   1.530   2.937  15.363 -0.7079 -0.1352  1.2088
  598TMC3    H2 8922   1.254   2.786  15.090  0.6104  0.2905  0.2497
  598TMC3    C7 8923   1.460   2.937  15.113 -0.4377  0.3045  0.4601
  598TMC3    C8 8924   1.121   2.622  15.261 -0.2202 -1.0743  0.4486
  598TMC3    O1 8925   1.472   2.875  15.006 -0.0754  0.0173  0.3868
  598TMC3    O2 8926   1.033   2.612  15.344 -1.2056 -0.3460 -0.2598
  599MPD2     C 8927   1.085   0.562  15.617  0.1446  1.4254 -0.1234
  599MPD2    C1 8928   1.104   0.436  15.671 -0.7539 -0.5076  0.3826
  599MPD2    C2 8929   1.058   0.413  15.794 -0.0504  0.0776 -0.0863
  599MPD2    C3 8930   1.004   0.507  15.870 -0.3047  0.4733 -0.2357
  599MPD2    C4 8931   1.001   0.634  15.823  0.3325  0.3422 -0.3764
  599MPD2    C5 8932   1.042   0.664  15.695 -0.3386  0.3728 -0.7300
  599MPD2     H 8933   1.080   0.314  15.834 -0.5913  0.2094  0.5583
  599MPD2    H1 8934   0.947   0.708  15.880 -2.0492 -0.0714 -2.1039
  599MPD2    H2 8935   1.106   0.581  15.513 -1.3557  0.2119 -0.6425
  599MPD2    H3 8936   1.016   0.761  15.653 -0.3280  0.8211  0.2982
  599MPD2     N 8937   0.949   0.492  16.001  0.4249 -0.2374 -0.1462
  599MPD2    H5 8938   0.927   0.576  16.054  3.0866  0.1579  0.3377
  599MPD2    N1 8939   1.174   0.346  15.588 -0.3107  0.0765  0.7366
  599MPD2    H7 8940   1.199   0.392  15.501  0.6399  0.2534  1.1061
  600TMC3    C1 8941   0.878   0.369  16.196  0.2136  0.1750 -0.3483
  600TMC3    C2 8942   0.830   0.246  16.234  0.4293  0.3158 -0.2461
  600TMC3    C3 8943   0.807   0.238  16.367 -0.5060  0.3759 -0.4904
  600TMC3    C4 8944   0.899   0.471  16.283 -0.1329 -0.3945 -0.1839
  600TMC3    C5 8945   0.882   0.453  16.419  0.1921  0.4892 -0.4793
  600TMC3    C6 8946   0.834   0.329  16.461  0.6261  0.6616 -0.3742
  600TMC3     C 8947   0.921   0.374  16.061 -0.1476 -0.1344 -0.0064
  600TMC3     O 8948   0.946   0.264  16.017  0.4155 -0.6538  0.1313
  600TMC3     H 8949   0.808   0.164  16.166 -0.9650  1.0358 -0.6611
  600TMC3    H1 8950   0.919   0.564  16.231 -1.2104 -0.2548 -0.3562
  600TMC3    H2 8951   0.820   0.319  16.568  1.4174  0.8726 -0.2558
  600TMC3    C7 8952   0.850   0.561  16.512  0.2973 -0.2554 -0.8695
  600TMC3    C8 8953   0.738   0.122  16.414  0.0660  0.3989 -0.2957
  600TMC3    O1 8954   0.826   0.542  16.625 -0.1264  0.0473 -0.1977
  600TMC3    O2 8955   0.776   0.074  16.521 -0.2086 -0.6476  0.0915
  601MPD2     C 8956   3.117   3.867   0.102  0.2601 -0.5750  0.3054
  601MPD2    C1 8957   3.033   3.780   0.033  0.2886 -1.0507  0.4336
  601MPD2    C2 8958   3.030   3.641   0.067  0.3173  0.2901  0.2837
  601MPD2    C3 8959   3.117   3.594   0.165  0.2687 -0.0045 -0.5414
  601MPD2    C4 8960   3.201   3.684   0.220 -0.2612  0.3215 -0.5292
  601MPD2    C5 8961   3.197   3.815   0.195 -0.2965 -0.5147  0.1062
  601MPD2     H 8962   2.959   3.576   0.018  0.6381  1.2460 -1.4588
  601MPD2    H1 8963   3.274   3.658   0.296 -0.3296  1.0594 -0.2042
  601MPD2    H2 8964   3.129   3.973   0.083  2.2953 -0.7227  0.8128
  601MPD2    H3 8965   3.267   3.873   0.253  0.5006 -1.0972 -0.2831
  601MPD2     N 8966   3.125   3.461   0.208 -0.1106  0.5878  0.1506
  601MPD2    H5 8967   3.193   3.442   0.281 -1.9924 -2.8625  1.0100
  601MPD2    N1 8968   2.935   3.824  17.687  0.0994  0.3391  0.0697
  601MPD2    H7 8969   2.880   3.753  17.640  0.5744  1.5507 -2.3020
  602TMC3    C1 8970   2.788   3.990  17.587 -0.1747 -0.0776 -0.2817
  602TMC3    C2 8971   2.697   4.089  17.628  0.6709  0.1908 -0.2042
  602TMC3    C3 8972   2.611   4.133  17.531  0.0877 -0.6138  0.3795
  602TMC3    C4 8973   2.785   3.919  17.473 -0.0459 -0.2922  0.0918
  602TMC3    C5 8974   2.688   3.964  17.387  0.2217  0.3648  0.2932
  602TMC3    C6 8975   2.600   4.071  17.412 -0.6260 -0.1241  0.5116
  602TMC3     C 8976   2.893   3.959  17.683 -0.2433 -0.8147 -0.3023
  602TMC3     O 8977   2.925   4.056   0.005  0.9717  0.1584  0.0313
  602TMC3     H 8978   2.710   4.139  17.723 -2.3505 -0.4341  0.5542
  602TMC3    H1 8979   2.863   3.851  17.441 -1.1108 -1.1530 -0.6725
  602TMC3    H2 8980   2.512   4.087  17.350 -0.8512  1.0557  1.1394
  602TMC3    C7 8981   2.674   3.901  17.260 -0.0480  0.4219 -0.9832
  602TMC3    C8 8982   2.549   4.260  17.549 -0.6805 -0.0505 -0.4706
  602TMC3    O1 8983   2.689   3.778  17.258  0.0328  0.1969  0.3160
  602TMC3    O2 8984   2.521   4.314  17.658 -0.4765 -0.7914  1.0863
  603TMC3    C1 8985   0.591   4.218  11.402  0.2802 -0.1894 -0.2798
  603TMC3    C2 8986   0.709   4.190  11.475 -0.2115 -0.1176  0.4238
  603TMC3    C3 8987   0.823   4.256  11.447  0.7383 -0.0304 -0.2955
  603TMC3    C4 8988   0.598   4.295  11.288  0.3034 -0.2368 -0.1544
  603TMC3    C5 8989   0.716   4.366  11.268 -0.5687 -0.4605 -0.1602
  603TMC3    C6 8990   0.826   4.356  11.357  0.8002 -0.0274 -0.0479
  603TMC3     C 8991   0.459   4.173  11.448  0.4273  0.3640  0.1213
  603TMC3     O 8992   0.365   4.171  11.368 -0.2225 -0.0514 -0.1172
  603TMC3     H 8993   0.719   4.103  11.538 -0.1938 -1.2343 -1.1112
  603TMC3    H1 8994   0.510   4.320  11.230 -0.4514 -1.4911  0.4527
  603TMC3    H2 8995   0.917   4.409  11.331  1.2746  0.0580  1.7987
  603TMC3    C7 8996   0.717   4.483  11.185 -0.4014  0.3093 -0.3710
  603TMC3    C8 8997   0.930   4.243  11.547  0.9566  0.1926 -0.1029
  603TMC3    O1 8998   0.802   4.568  11.220 -0.4083  0.6270 -0.2822
  603TMC3    O2 8999   0.935   4.138  11.608  0.2209 -0.2043  0.0934
  604MPD2     C 9000   2.169   2.279  16.154 -0.0515 -0.3684 -0.6004
  604MPD2    C1 9001   2.261   2.375  16.135  0.4725 -0.1324 -0.7546
  604MPD2    C2 9002   2.320   2.391  16.006 -0.4823 -0.0735 -0.5337
  604MPD2    C3 9003   2.281   2.303  15.908 -0.4949  1.0640 -0.6219
  604MPD2    C4 9004   2.178   2.206  15.924 -0.2341 -0.7631 -0.6518
  604MPD2    C5 9005   2.128   2.187  16.055  0.1579  0.2374 -0.4026
  604MPD2     H 9006   2.404   2.457  15.988 -1.0509  0.1154 -2.4686
  604MPD2    H1 9007   2.149   2.130  15.853 -1.7888  0.5558 -1.4386
  604MPD2    H2 9008   2.147   2.261  16.259 -2.0389 -1.5807 -1.2313
  604MPD2    H3 9009   2.067   2.100  16.076  0.9002 -0.3913 -0.8690
  604MPD2     N 9010   2.359   2.312  15.787 -0.5409 -0.0170 -1.0079
  604MPD2    H5 9011   2.430   2.384  15.796 -0.2754 -0.4203  0.0209
  604MPD2    N1 9012   2.300   2.470  16.238  0.6412  0.2279 -0.8584
  604MPD2    H7 9013   2.356   2.550  16.210  0.7886 -0.4663 -2.5140
  605TMC3    C1 9014   2.277   2.593  16.426  0.6478  0.2483 -0.2847
  605TMC3    C2 9015   2.333   2.607  16.547  0.5897 -0.4792  0.2579
  605TMC3    C3 9016   2.311   2.732  16.604  0.7269  0.3066  0.0112
  605TMC3    C4 9017   2.193   2.681  16.367  0.0800 -0.7044  0.6599
  605TMC3    C5 9018   2.165   2.791  16.436  0.6604 -0.4234 -1.0578
  605TMC3    C6 9019   2.232   2.827  16.552  0.7213  1.0599 -0.2753
  605TMC3     C 9020   2.278   2.462  16.374 -0.4101 -0.7649  0.7044
  605TMC3     O 9021   2.240   2.368  16.435  0.1764 -0.5450  0.0345
  605TMC3     H 9022   2.404   2.539  16.591  0.6033 -1.8529 -1.9342
  605TMC3    H1 9023   2.140   2.664  16.274 -0.7001 -1.2899  1.2080
  605TMC3    H2 9024   2.210   2.925  16.594  0.6221  1.6093 -1.5813
  605TMC3    C7 9025   2.063   2.873  16.382 -0.2472  0.4064 -0.2035
  605TMC3    C8 9026   2.407   2.785  16.697 -0.2029  0.7674  0.4767
  605TMC3    O1 9027   2.041   2.882  16.260  0.0656 -0.1275  0.0679
  605TMC3    O2 9028   2.428   2.908  16.694 -0.0795  0.6808 -0.1338
  606TMC3    C1 9029   2.921   1.652   0.626  0.2582  0.0031  0.7266
  606TMC3    C2 9030   3.013   1.559   0.671  0.0998  0.4927  0.0209
  606TMC3    C3 9031   3.027   1.446   0.598  0.5965  0.3638 -0.0508
  606TMC3    C4 9032   2.875   1.646   0.501 -0.4998 -0.0847 -0.7738
  606TMC3    C5 9033   2.906   1.533   0.433  0.1334 -0.4647  1.1816
  606TMC3    C6 9034   2.971   1.422   0.478  0.7804 -0.5554  0.1819
  606TMC3     C 9035   2.925   1.788   0.677 -0.4758 -0.2813  0.4139
  606TMC3     O 9036   2.817   1.850   0.672 -0.0737 -0.6004 -0.0473
  606TMC3     H 9037   3.048   1.561   0.774  1.1004 -1.8594 -0.2759
  606TMC3    H1 9038   2.804   1.717   0.461  2.2243  1.9107 -2.0418
  606TMC3    H2 9039   3.009   1.351   0.406  0.9650  0.6984 -0.9485
  606TMC3    C7 9040   2.884   1.529   0.288  0.1054 -0.0193  1.0299
  606TMC3    C8 9041   3.118   1.350   0.646 -0.5448 -0.4060 -0.2318
  606TMC3    O1 9042   2.880   1.640   0.225 -0.5485  0.4145 -0.2571
  606TMC3    O2 9043   3.193   1.386   0.735  0.5450  0.0287 -0.1728
  607MPD2     C 9044   0.776   3.952  12.096 -0.2058 -0.0182 -0.1204
  607MPD2    C1 9045   0.894   3.956  12.176  0.8446  0.2724  0.4937
  607MPD2    C2 9046   0.879   3.899  12.304  0.0726  0.4627  0.6329
  607MPD2    C3 9047   0.759   3.849  12.348 -0.2934 -0.5916  1.1954
  607MPD2    C4 9048   0.650   3.848  12.270  0.1405 -0.7413  0.2161
  607MPD2    C5 9049   0.664   3.892  12.139 -0.5419 -0.5921  0.5817
  607MPD2     H 9050   0.956   3.889  12.379  0.6987  0.4145 -0.0143
  607MPD2    H1 9051   0.552   3.803  12.286 -0.6843 -0.1793 -3.4303
  607MPD2    H2 9052   0.768   4.003  12.001 -1.2754  0.5368  0.2728
  607MPD2    H3 9053   0.572   3.898  12.083  0.9179 -1.5480 -1.9063
  607MPD2     N 9054   0.754   3.818  12.489  0.8098  0.6226 -0.1289
  607MPD2    H5 9055   0.838   3.836  12.543  0.4463  3.8721 -0.6588
  607MPD2    N1 9056   1.009   4.027  12.151 -0.1349 -0.2922  0.3689
  607MPD2    H7 9057   1.077   4.010  12.225 -0.4664 -0.8148  0.5602
  608TMC3    C1 9058   1.086   4.239  12.117  0.2680 -0.1683 -1.0187
  608TMC3    C2 9059   1.115   4.262  12.253 -0.3817 -0.2975 -0.5437
  608TMC3    C3 9060   1.170   4.376  12.300  0.2573  0.7230  0.1161
  608TMC3    C4 9061   1.107   4.344  12.027  0.0935 -0.1522 -0.0147
  608TMC3    C5 9062   1.160   4.459  12.086  0.2999  0.2097 -0.4910
  608TMC3    C6 9063   1.194   4.471  12.218 -0.9612  0.0264 -0.3092
  608TMC3     C 9064   1.019   4.126  12.059 -0.2101  0.2744  0.7842
  608TMC3     O 9065   0.948   4.148  11.960  0.1508  0.4274  0.0592
  608TMC3     H 9066   1.094   4.180  12.321 -1.7246 -0.2494 -0.8880
  608TMC3    H1 9067   1.098   4.327  11.921 -0.2596  1.6262 -0.2783
  608TMC3    H2 9068   1.227   4.569  12.252  0.0902 -1.2733  2.4614
  608TMC3    C7 9069   1.154   4.580  12.007 -0.2833  0.2440 -0.3733
  608TMC3    C8 9070   1.135   4.424  12.430 -0.2936  0.0739 -0.7489
  608TMC3    O1 9071   1.065   4.595  11.923 -0.2273  0.1998  0.9415
  608TMC3    O2 9072   1.197   4.521  12.468  0.3218 -0.2647 -0.1186
  609TMC3    C1 9073   4.103   3.104   9.377 -0.0773  0.4944 -0.1133
  609TMC3    C2 9074   4.180   3.213   9.354  0.1491 -0.6155  0.2348
  609TMC3    C3 9075   4.316   3.191   9.321 -0.2347 -0.0542  0.1405
  609TMC3    C4 9076   4.155   2.978   9.368 -0.0477 -0.1673  0.5143
  609TMC3    C5 9077   4.283   2.965   9.319 -0.2045 -0.1923 -0.0802
  609TMC3    C6 9078   4.371   3.067   9.304  0.3652  0.2362 -0.3890
  609TMC3     C 9079   3.982   3.127   9.452  0.5870 -0.1726  0.8924
  609TMC3     O 9080   3.934   3.031   9.509 -0.2068  0.3093  0.0860
  609TMC3     H 9081   4.139   3.313   9.358 -0.2993 -0.8434  1.3004
  609TMC3    H1 9082   4.092   2.890   9.378  0.3905 -0.6562 -0.9605
  609TMC3    H2 9083   4.470   3.052   9.263  0.4961  0.5596 -0.1960
  609TMC3    C7 9084   4.345   2.839   9.358 -0.7648 -0.1052 -0.4282
  609TMC3    C8 9085   4.391   3.298   9.271  0.1704 -0.1262  0.3830
  609TMC3    O1 9086   4.455   2.842   9.410  0.0540 -0.5738 -0.5129
  609TMC3    O2 9087   4.481   3.273   9.195  0.8186 -0.2545 -0.9488
  610TMC3    C1 9088   1.115   3.560  13.216 -1.0584  0.2635  0.1629
  610TMC3    C2 9089   1.013   3.651  13.210 -0.7193 -0.5254  0.8529
  610TMC3    C3 9090   1.044   3.758  13.130 -0.4606  0.0351 -0.2816
  610TMC3    C4 9091   1.231   3.563  13.144 -0.5706 -0.2399  0.0900
  610TMC3    C5 9092   1.248   3.669  13.063  0.1369 -0.2618  0.2062
  610TMC3    C6 9093   1.155   3.772  13.044  0.6065  0.1641 -0.3531
  610TMC3     C 9094   1.067   3.430  13.273  0.2761 -0.8136 -0.0723
  610TMC3     O 9095   1.010   3.434  13.383  0.1054 -0.1595  0.0553
  610TMC3     H 9096   0.934   3.638  13.283 -0.3983 -0.1340  1.2688
  610TMC3    H1 9097   1.312   3.492  13.156 -1.2352 -0.5599  2.6766
  610TMC3    H2 9098   1.186   3.861  12.989  0.8314 -2.0164 -3.7889
  610TMC3    C7 9099   1.378   3.675  13.002  0.1564  0.2190  0.0554
  610TMC3    C8 9100   0.957   3.875  13.126 -0.6434  0.5874  0.1833
  610TMC3    O1 9101   1.460   3.584  13.018  0.4437  0.1117  0.0671
  610TMC3    O2 9102   0.995   3.977  13.072 -0.5411 -0.0395  0.0006
  611MPD2     C 9103   4.451   4.143  10.155 -0.4664  0.0658 -0.3757
  611MPD2    C1 9104   4.563   4.096  10.217 -0.0455  0.2500 -0.5080
  611MPD2    C2 9105   4.658   4.181  10.271  0.4579 -0.5153 -0.1022
  611MPD2    C3 9106   4.637   4.319  10.252 -0.3665  0.8375  0.5780
  611MPD2    C4 9107   4.529   4.362  10.184  0.3915 -0.6851  0.3973
  611MPD2    C5 9108   4.435   4.273  10.138 -0.4797 -0.0875  0.3306
  611MPD2     H 9109   0.003   4.146  10.334 -0.9764 -1.9751  0.9570
  611MPD2    H1 9110   4.509   4.466  10.159 -1.0376 -1.4135 -1.5157
  611MPD2    H2 9111   4.378   4.068  10.126 -1.4857  0.8291  0.2648
  611MPD2    H3 9112   4.355   4.308  10.074 -1.2365 -0.1280  1.2734
  611MPD2     N 9113   4.736   4.417  10.277 -0.1608 -0.4328  0.0512
  611MPD2    H5 9114   4.714   4.513  10.253  0.4165 -0.2626  0.2008
  611MPD2    N1 9115   4.572   3.953  10.224 -0.2711  0.1209  0.3600
  611MPD2    H7 9116   4.503   3.904  10.168 -1.3193  2.5877 -0.5071
  612TMC3    C1 9117   0.194   4.513  10.355 -0.3104  0.3133  0.1058
  612TMC3    C2 9118   0.284   4.537  10.452  0.2492  0.1838 -0.5671
  612TMC3    C3 9119   0.367   4.648  10.431 -0.1494  0.4878 -0.8841
  612TMC3    C4 9120   0.199   4.582  10.239 -0.2253 -0.0209  1.0352
  612TMC3    C5 9121   0.295   4.680  10.209 -0.4375  0.3136 -0.6781
  612TMC3    C6 9122   0.376   4.720  10.310  0.3312  0.7607  0.9404
  612TMC3     C 9123   0.110   4.398  10.355 -0.0318  0.9469 -0.4767
  612TMC3     O 9124   0.136   4.303  10.429 -0.2946  0.4612  0.3343
  612TMC3     H 9125   0.281   4.483  10.545  0.6550 -0.5836 -1.0056
  612TMC3    H1 9126   0.133   4.560  10.156  1.5421  0.5541 -0.5245
  612TMC3    H2 9127   0.451   0.062  10.301  0.1252  0.3400 -4.4982
  612TMC3    C7 9128   0.294   0.016  10.079 -0.7476  0.2497 -0.0567
  612TMC3    C8 9129   0.451   4.704  10.536  0.1059  0.1750  0.6753
  612TMC3    O1 9130   0.258   4.695   9.982  0.3659  0.1486  0.4638
  612TMC3    O2 9131   0.492   0.080  10.518  0.0033  0.3079 -0.3942
  613MPD2     C 9132   4.576   1.758  16.733  0.0597 -0.4077  0.2025
  613MPD2    C1 9133   4.657   1.764  16.623  0.7371 -0.8841  0.0281
  613MPD2    C2 9134   4.659   1.653  16.542  0.0940  0.3076  0.1591
  613MPD2    C3 9135   4.584   1.538  16.567  0.6918 -0.1811 -0.4896
  613MPD2    C4 9136   4.506   1.535  16.677 -0.6634  0.2201 -0.3420
  613MPD2    C5 9137   4.501   1.647  16.753 -0.3543  0.2406 -0.2102
  613MPD2     H 9138   4.710   1.667  16.447  0.0793  1.7885  0.3672
  613MPD2    H1 9139   4.439   1.452  16.698 -0.7112  0.1974 -0.5791
  613MPD2    H2 9140   4.560   1.847  16.793  1.9308 -0.2057  0.4236
  613MPD2    H3 9141   4.451   1.653  16.849  0.5066 -2.7634  0.4278
  613MPD2     N 9142   4.585   1.445  16.465  0.8369  0.4932  0.0448
  613MPD2    H5 9143   4.658   1.454  16.396 -0.5750  0.3006 -1.4834
  613MPD2    N1 9144   4.729   1.879  16.588  0.3324 -0.0481 -0.1262
  613MPD2    H7 9145   0.051   1.874  16.505  0.2914  0.4386 -0.1866
  614TMC3    C1 9146   0.062   2.103  16.557  0.0705 -1.0692  0.1983
  614TMC3    C2 9147   0.160   2.051  16.479  0.5695  0.6252  0.0698
  614TMC3    C3 9148   0.144   2.063  16.337  0.4216  0.7647  0.0654
  614TMC3    C4 9149   4.713   2.205  16.507 -0.3566 -0.1835  0.9318
  614TMC3    C5 9150   4.699   2.208  16.370  0.1029 -0.7549  0.6557
  614TMC3    C6 9151   0.048   2.138  16.284  0.0667 -0.1978  0.1943
  614TMC3     C 9152   4.728   2.008  16.644 -0.0994 -0.6132 -0.2926
  614TMC3     O 9153   4.641   2.056  16.721 -0.2372 -0.3671 -0.0813
  614TMC3     H 9154   0.231   1.987  16.531 -0.0207  0.5300  0.7652
  614TMC3    H1 9155   4.636   2.250  16.568 -2.4894 -0.1211 -1.8401
  614TMC3    H2 9156   0.023   2.133  16.179  1.8367  0.2213 -0.2498
  614TMC3    C7 9157   4.571   2.258  16.322  0.3596 -0.6889  0.2821
  614TMC3    C8 9158   0.165   1.937  16.272 -0.5403 -0.0127  0.1682
  614TMC3    O1 9159   4.513   2.334  16.399 -0.7245 -0.3053 -0.6593
  614TMC3    O2 9160   0.189   1.843  16.344  0.0198 -0.3330 -0.0781
  615MPD2     C 9161   3.804   2.686  16.633 -0.0222  0.7595  0.4167
  615MPD2    C1 9162   3.874   2.786  16.573  0.1554  0.0026 -0.0761
  615MPD2    C2 9163   3.825   2.850  16.459 -0.3671 -0.5190 -0.1947
  615MPD2    C3 9164   3.707   2.826  16.410  0.4595  0.3517  0.8044
  615MPD2    C4 9165   3.640   2.719  16.464 -0.1121 -0.0384 -0.4735
  615MPD2    C5 9166   3.686   2.643  16.569 -0.0807  0.7272  0.9818
  615MPD2     H 9167   3.890   2.914  16.402 -1.8073  2.5915  1.6739
  615MPD2    H1 9168   3.552   2.679  16.416  1.3479 -0.2575 -2.9680
  615MPD2    H2 9169   3.848   2.626  16.712  1.5615  2.4628  0.8385
  615MPD2    H3 9170   3.622   2.560  16.594 -0.1161  0.8800  1.4061
  615MPD2     N 9171   3.645   2.911  16.316  0.4854 -1.0223 -0.0330
  615MPD2    H5 9172   3.559   2.884  16.268 -0.3377  0.0571  0.8042
  615MPD2    N1 9173   3.987   2.842  16.636 -0.1706 -0.1485  0.1788
  615MPD2    H7 9174   4.022   2.927  16.594 -0.7866  0.5548  1.0952
  616TMC3    C1 9175   4.155   2.882  16.779 -0.9382 -0.7196 -0.4954
  616TMC3    C2 9176   4.281   2.826  16.802  0.1662 -0.1697  0.6044
  616TMC3    C3 9177   4.382   2.915  16.820  0.0389 -0.0492 -0.0632
  616TMC3    C4 9178   4.134   3.020  16.761  0.5991  0.4829 -0.1492
  616TMC3    C5 9179   4.244   3.100  16.790 -0.3945  0.4731 -0.7975
  616TMC3    C6 9180   4.366   3.056  16.819  0.1264 -1.3403  0.3542
  616TMC3     C 9181   4.063   2.785  16.732  0.6813 -0.4516 -1.1419
  616TMC3     O 9182   4.069   2.671  16.773 -0.1501 -0.5530  0.3085
  616TMC3     H 9183   4.294   2.719  16.819  1.7911  0.1363  1.2929
  616TMC3    H1 9184   4.040   3.065  16.732  0.6190  1.2423  0.9693
  616TMC3    H2 9185   4.453   3.111  16.853 -1.2872 -0.2090  2.1172
  616TMC3    C7 9186   4.221   3.246  16.790  0.4560 -0.3653  0.3464
  616TMC3    C8 9187   4.514   2.860  16.845  0.2197  0.0629 -0.4647
  616TMC3    O1 9188   4.275   3.310  16.880 -0.3930 -0.4435  0.4211
  616TMC3    O2 9189   4.518   2.760  16.919 -0.2436 -0.0036  0.6713
  617MPD2     C 9190   2.169   1.311  14.419 -0.5427  0.3011  0.3915
  617MPD2    C1 9191   2.188   1.193  14.493  0.1802 -0.2076  0.0071
  617MPD2    C2 9192   2.089   1.089  14.472 -0.0938  0.1231 -0.0934
  617MPD2    C3 9193   1.979   1.116  14.391  0.3554  0.6436  0.8275
  617MPD2    C4 9194   1.963   1.239  14.334  0.3581 -0.1625 -0.2576
  617MPD2    C5 9195   2.057   1.335  14.349 -0.6486  0.6960 -0.3053
  617MPD2     H 9196   2.103   0.996  14.526 -1.0701 -1.3171 -2.3687
  617MPD2    H1 9197   1.878   1.265  14.271  0.4793 -1.7887 -1.0955
  617MPD2    H2 9198   2.236   1.395  14.438  0.5147 -0.5876  0.5944
  617MPD2    H3 9199   2.044   1.429  14.297  1.3419  1.3396  0.3423
  617MPD2     N 9200   1.876   1.022  14.360 -0.1144 -0.0887 -0.5309
  617MPD2    H5 9201   1.802   1.061  14.303  2.2430  3.6648 -0.9920
  617MPD2    N1 9202   2.314   1.176  14.552 -0.1648 -0.5811  0.1627
  617MPD2    H7 9203   2.379   1.253  14.545  1.5170 -2.0811 -0.8055
  618TMC3    C1 9204   2.498   1.048  14.616 -0.2224 -0.3395 -0.2822
  618TMC3    C2 9205   2.564   0.936  14.573  0.2806 -0.1771 -0.2336
  618TMC3    C3 9206   2.700   0.928  14.570 -0.3222  0.8049  0.2418
  618TMC3    C4 9207   2.569   1.142  14.679 -0.4462 -0.2900  0.7222
  618TMC3    C5 9208   2.708   1.140  14.680  0.0047 -0.5836 -0.0893
  618TMC3    C6 9209   2.775   1.036  14.622  0.4156  0.0880  0.2281
  618TMC3     C 9210   2.356   1.054  14.592 -0.1933 -0.0965 -0.0093
  618TMC3     O 9211   2.297   0.948  14.615  0.1178 -0.2955  0.3078
  618TMC3     H 9212   2.502   0.857  14.533 -0.0803 -1.1661  2.3350
  618TMC3    H1 9213   2.522   1.219  14.738 -0.8595  1.1070 -1.4503
  618TMC3    H2 9214   2.883   1.029  14.627  0.5950  1.4679 -1.8896
  618TMC3    C7 9215   2.773   1.268  14.655  0.3141 -0.7557  0.1055
  618TMC3    C8 9216   2.768   0.857  14.464 -0.2049 -0.2114  0.0915
  618TMC3    O1 9217   2.687   1.359  14.654 -0.3756 -0.1753  0.4966
  618TMC3    O2 9218   2.887   0.868  14.457 -0.0752  0.0855  0.9542
  619MPD2     C 9219   3.486   2.263  14.248  0.1296  0.9370  0.4739
  619MPD2    C1 9220   3.458   2.283  14.114 -0.3562 -0.1224 -0.0165
  619MPD2    C2 9221   3.326   2.268  14.081 -0.1382  1.0302 -0.3276
  619MPD2    C3 9222   3.226   2.250  14.168 -0.0014 -0.5446 -0.5068
  619MPD2    C4 9223   3.256   2.247  14.302  0.5045  0.1557 -0.2772
  619MPD2    C5 9224   3.390   2.251  14.342  0.4579  0.1870  0.4423
  619MPD2     H 9225   3.301   2.267  13.976  3.3154 -0.6174 -1.1228
  619MPD2    H1 9226   3.181   2.243  14.381 -0.9645 -0.1230 -1.6812
  619MPD2    H2 9227   3.584   2.276  14.292 -0.8717 -0.2907  3.0752
  619MPD2    H3 9228   3.424   2.238  14.444 -1.2072 -0.9464  0.8510
  619MPD2     N 9229   3.086   2.252  14.127 -0.3618 -0.2165 -0.5325
  619MPD2    H5 9230   3.020   2.223  14.197 -1.4642  0.8013 -1.1575
  619MPD2    N1 9231   3.555   2.299  14.012  0.2837 -0.0217 -0.3156
  619MPD2    H7 9232   3.514   2.313  13.920  0.5344  1.1058 -0.2522
  620TMC3    C1 9233   3.757   2.334  13.910  0.4201 -0.0239  0.7105
  620TMC3    C2 9234   3.693   2.312  13.788 -0.2721 -0.0060 -0.3030
  620TMC3    C3 9235   3.727   2.388  13.683  0.4578 -0.3010  0.1364
  620TMC3    C4 9236   3.856   2.435  13.918 -0.4940  0.2507 -0.2797
  620TMC3    C5 9237   3.896   2.506  13.808  0.2111 -1.1111 -0.2292
  620TMC3    C6 9238   3.827   2.483  13.693 -0.2408  0.6426 -0.3510
  620TMC3     C 9239   3.690   2.311  14.030  0.2465  0.7336  0.2245
  620TMC3     O 9240   3.757   2.333  14.131  0.2831  0.1819 -0.2408
  620TMC3     H 9241   3.606   2.249  13.777 -2.2101  2.8300 -1.3327
  620TMC3    H1 9242   3.903   2.458  14.013 -0.0552  0.0531 -0.4505
  620TMC3    H2 9243   3.849   2.542  13.604  1.1610  0.8846  0.1563
  620TMC3    C7 9244   3.907   2.646  13.833 -0.0621 -0.0257 -0.1674
  620TMC3    C8 9245   3.618   2.452  13.621  0.6191 -0.3256  0.4488
  620TMC3    O1 9246   4.010   2.690  13.887  0.2727 -0.3293  0.1800
  620TMC3    O2 9247   3.624   2.578  13.624 -0.0098  0.1722 -0.0849
  621MPD2     C 9248   3.763   1.933  10.616  0.5816 -0.0407  0.0405
  621MPD2    C1 9249   3.814   1.914  10.483  0.3669  0.1866 -0.5423
  621MPD2    C2 9250   3.829   2.026  10.401  0.2374  1.0390 -0.5168
  621MPD2    C3 9251   3.794   2.151  10.444  0.0232 -0.0408  0.6649
  621MPD2    C4 9252   3.752   2.172  10.578  0.1886 -0.3199 -0.6817
  621MPD2    C5 9253   3.726   2.062  10.656  0.1102  0.4898 -0.1367
  621MPD2     H 9254   3.864   2.010  10.300 -1.9135 -2.1580 -0.7622
  621MPD2    H1 9255   3.716   2.266  10.619  3.1463 -0.0660  1.4054
  621MPD2    H2 9256   3.750   1.856  10.691 -2.9527  1.3655  0.8776
  621MPD2    H3 9257   3.705   2.088  10.759 -0.7217 -1.7537  0.2583
  621MPD2     N 9258   3.805   2.250  10.346 -0.0136  0.1120  0.3475
  621MPD2    H5 9259   3.859   2.232  10.262  0.6623  2.3319  0.3167
  621MPD2    N1 9260   3.855   1.787  10.433 -0.3223 -0.3609  0.7688
  621MPD2    H7 9261   3.892   1.784  10.339  0.1930  1.0888  0.9272
  622TMC3    C1 9262   3.871   1.546  10.419 -0.1274 -0.9695 -0.0134
  622TMC3    C2 9263   3.845   1.429  10.488  0.6345 -0.1679  0.0897
  622TMC3    C3 9264   3.794   1.317  10.421  0.1026 -0.0754 -0.4017
  622TMC3    C4 9265   3.849   1.550  10.283  0.7656 -0.4458  0.0415
  622TMC3    C5 9266   3.785   1.439  10.213  0.0058  0.9717 -0.6119
  622TMC3    C6 9267   3.759   1.325  10.285 -0.6324  0.1870 -0.2499
  622TMC3     C 9268   3.851   1.666  10.497 -0.0235 -0.3932 -0.1138
  622TMC3     O 9269   3.835   1.650  10.615  0.5002  0.1479 -0.0172
  622TMC3     H 9270   3.874   1.419  10.592  1.1846  0.7688  0.0286
  622TMC3    H1 9271   3.871   1.645  10.237 -3.5476  1.4999  1.9517
  622TMC3    H2 9272   3.715   1.234  10.244  1.7327 -0.8376 -0.5011
  622TMC3    C7 9273   3.766   1.438  10.067  0.1476 -0.1567  0.9029
  622TMC3    C8 9274   3.755   1.192  10.474 -0.2166 -0.3144  0.1623
  622TMC3    O1 9275   3.718   1.337  10.023  0.6210  0.4134  0.6928
  622TMC3    O2 9276   3.801   1.095  10.420 -0.1817  0.0192  0.4360
  623MPD2     C 9277   2.897   3.660  16.278 -0.3009 -0.4903 -0.5326
  623MPD2    C1 9278   2.813   3.554  16.298  0.4420 -0.2164 -0.1421
  623MPD2    C2 9279   2.839   3.464  16.403 -0.4261  0.4824 -0.7933
  623MPD2    C3 9280   2.948   3.483  16.487  0.7068  0.6035 -0.0531
  623MPD2    C4 9281   3.034   3.589  16.466 -0.2451 -0.2885  0.2818
  623MPD2    C5 9282   3.008   3.670  16.357 -0.2756  0.3947  0.0401
  623MPD2     H 9283   2.777   3.379  16.430 -1.9124  1.4266 -1.2582
  623MPD2    H1 9284   3.117   3.610  16.532  0.1741  0.1887 -0.3894
  623MPD2    H2 9285   2.877   3.730  16.198  2.1886 -1.2145 -1.7774
  623MPD2    H3 9286   3.079   3.750  16.336 -1.5311  1.5827  0.3721
  623MPD2     N 9287   2.964   3.385  16.592  0.2865 -0.0317 -0.1754
  623MPD2    H5 9288   2.890   3.320  16.615 -0.6085 -0.0045 -2.9245
  623MPD2    N1 9289   2.699   3.521  16.220  1.1022 -0.2358 -0.3721
  623MPD2    H7 9290   2.644   3.439  16.240 -0.6409  0.9661 -0.2517
  624TMC3    C1 9291   3.185   3.098  16.873 -0.4566 -0.0779 -0.0950
  624TMC3    C2 9292   3.071   3.061  16.933 -0.2208 -0.0920 -0.1315
  624TMC3    C3 9293   2.960   3.128  16.903  0.0252  0.5404 -0.1767
  624TMC3    C4 9294   3.185   3.186  16.768 -0.2594 -0.5009 -0.0738
  624TMC3    C5 9295   3.075   3.262  16.747 -0.8422  0.2135  0.6366
  624TMC3    C6 9296   2.964   3.246  16.828  0.3667 -0.0165  0.1280
  624TMC3     C 9297   3.289   2.996  16.846 -0.3635 -0.5134  0.3208
  624TMC3     O 9298   3.361   2.968  16.938 -0.9361 -0.2687  0.0509
  624TMC3     H 9299   3.077   2.978  17.002 -0.5062  0.5847  0.7167
  624TMC3    H1 9300   3.274   3.199  16.707 -0.8788  0.3846 -0.7940
  624TMC3    H2 9301   2.870   3.295  16.806 -0.7244 -1.6257  1.1774
  624TMC3    C7 9302   3.082   3.366  16.653  0.3581 -0.0133  0.6141
  624TMC3    C8 9303   2.834   3.049  16.894  0.0582  0.2791  0.2097
  624TMC3    O1 9304   3.195   3.400  16.617 -1.1405  0.3288 -0.3279
  624TMC3    O2 9305   2.748   3.081  16.814 -0.1705  0.2894 -0.1482
  625MPD2     C 9306   2.866   4.303   0.719 -0.6766  0.0372 -0.0837
  625MPD2    C1 9307   2.930   4.419   0.687 -0.0764  0.3358  0.5697
  625MPD2    C2 9308   3.061   4.425   0.709  0.7224 -0.6077 -0.4269
  625MPD2    C3 9309   3.136   4.322   0.755 -0.1979 -0.1849  0.1583
  625MPD2    C4 9310   3.075   4.210   0.790  0.6441  0.2976 -0.2533
  625MPD2    C5 9311   2.939   4.201   0.772  0.4871 -1.1332  0.2158
  625MPD2     H 9312   3.111   4.513   0.672 -2.8840  1.2291 -0.9175
  625MPD2    H1 9313   3.121   4.122   0.834 -2.9198 -2.1779 -1.5635
  625MPD2    H2 9314   2.758   4.296   0.710 -0.8940  1.5645  1.5185
  625MPD2    H3 9315   2.886   4.110   0.796 -2.1354  1.0196  2.5683
  625MPD2     N 9316   3.276   4.337   0.766 -0.0385 -0.4419  0.2123
  625MPD2    H5 9317   3.321   4.421   0.731 -3.3574  2.3326  2.5501
  625MPD2    N1 9318   2.874   4.537   0.636  0.5666  0.0028 -0.0590
  625MPD2    H7 9319   2.923   4.625   0.622  0.5294 -0.2025 -1.4490
  626TMC3    C1 9320   2.702   4.686   0.569 -0.3935  0.3518 -0.5167
  626TMC3    C2 9321   2.583   4.698   0.513 -1.2538  0.3839  0.3434
  626TMC3    C3 9322   2.534   0.088   0.488 -0.0935 -0.0678 -0.4725
  626TMC3    C4 9323   2.781   0.051   0.619  0.0354  0.1741 -0.7221
  626TMC3    C5 9324   2.736   0.177   0.586 -0.0584 -0.5482  0.4339
  626TMC3    C6 9325   2.616   0.194   0.523  0.2438 -0.3189  0.4180
  626TMC3     C 9326   2.742   4.548   0.603  0.8821  0.0195  0.3960
  626TMC3     O 9327   2.664   4.450   0.598 -1.1035  0.0285  0.2687
  626TMC3     H 9328   2.524   4.610   0.490 -1.2736  0.4797  0.0373
  626TMC3    H1 9329   2.866   0.026   0.682 -1.4763 -1.9917  0.4637
  626TMC3    H2 9330   2.587   0.293   0.487  1.6780  0.5244  1.5962
  626TMC3    C7 9331   2.801   0.288   0.645  0.0856  0.0964  0.5177
  626TMC3    C8 9332   2.460   0.119   0.368  0.2104 -0.2084  0.2037
  626TMC3    O1 9333   2.913   0.255   0.691 -0.2565 -0.2745 -0.3840
  626TMC3    O2 9334   2.503   0.211   0.299 -0.2831 -0.4271 -0.1582
  627MPD2     C 9335   2.098   4.504  14.437 -0.0857 -0.0402 -0.0104
  627MPD2    C1 9336   2.055   4.490  14.569  0.2274 -0.5310 -0.1528
  627MPD2    C2 9337   1.947   4.405  14.597  0.3382  0.1100  0.5233
  627MPD2    C3 9338   1.878   4.344  14.490 -0.7647  0.0794 -0.1703
  627MPD2    C4 9339   1.926   4.359  14.368  0.2479 -0.1922 -0.0622
  627MPD2    C5 9340   2.029   4.441  14.336  0.3896  0.0892 -0.4710
  627MPD2     H 9341   1.910   4.389  14.697  1.8736  0.2190  1.1101
  627MPD2    H1 9342   1.884   4.305  14.284 -0.6903  1.4888 -0.6770
  627MPD2    H2 9343   2.188   4.556  14.406 -0.7651  0.3491 -1.3138
  627MPD2    H3 9344   2.059   4.455  14.233  1.7130  0.7056  0.0013
  627MPD2     N 9345   1.764   4.270  14.520 -0.4869 -0.6601 -0.0698
  627MPD2    H5 9346   1.747   4.240  14.616 -1.1668  0.1481  0.0632
  627MPD2    N1 9347   2.116   4.555  14.677  0.0483 -0.0737  0.9593
  627MPD2    H7 9348   2.085   4.539  14.772 -0.6083  1.4039  1.0015
  628TMC3    C1 9349   2.265   4.694  14.786  0.7076  0.4848  0.2073
  628TMC3    C2 9350   2.393   4.657  14.827 -0.6416  0.3458 -0.1641
  628TMC3    C3 9351   2.443   4.717  14.938 -0.2573 -0.2732  0.1279
  628TMC3    C4 9352   2.203   0.070  14.833  0.0968 -0.1241 -0.2887
  628TMC3    C5 9353   2.254   0.134  14.945  0.4459  0.5845 -0.1314
  628TMC3    C6 9354   2.383   0.093  14.987 -0.4150  0.0667  0.0344
  628TMC3     C 9355   2.218   4.649  14.658  0.2229  0.5662 -0.1560
  628TMC3     O 9356   2.281   4.691  14.559 -0.1535  0.1371  0.1545
  628TMC3     H 9357   2.436   4.573  14.774  0.7810  1.7100 -1.1880
  628TMC3    H1 9358   2.102   0.088  14.798  0.9358  1.7274 -1.7735
  628TMC3    H2 9359   2.416   0.132  15.082  0.4403  0.5516 -0.4694
  628TMC3    C7 9360   2.210   0.262  14.982  0.1303  0.1811  0.6349
  628TMC3    C8 9361   2.584   4.712  14.932 -0.1501  0.1121  0.0585
  628TMC3    O1 9362   2.231   0.288  15.096  0.8300 -0.2035 -0.6221
  628TMC3    O2 9363   2.630   4.678  14.821 -0.0850 -0.3434 -0.1929
  629MPD2     C 9364   0.291   2.854  16.860 -0.4227  0.0979 -0.1636
  629MPD2    C1 9365   0.250   2.972  16.797  0.4502 -0.2569 -0.1969
  629MPD2    C2 9366   0.118   2.988  16.770  0.0100 -0.5857 -0.0063
  629MPD2    C3 9367   0.021   2.896  16.809 -0.0385 -0.2310  0.3478
  629MPD2    C4 9368   0.063   2.777  16.865 -0.3622 -0.2893 -0.1426
  629MPD2    C5 9369   0.199   2.756  16.890 -0.2760 -0.1455 -0.2503
  629MPD2     H 9370   0.086   3.071  16.707 -1.3407 -1.1314 -0.0357
  629MPD2    H1 9371   4.732   2.696  16.890 -1.9213  0.3579 -2.2595
  629MPD2    H2 9372   0.394   2.843  16.894 -0.1840 -0.3473 -1.0353
  629MPD2    H3 9373   0.229   2.663  16.937 -2.1147 -0.5990  0.0427
  629MPD2     N 9374   4.622   2.930  16.792  0.2709 -0.7290 -0.0508
  629MPD2    H5 9375   4.608   3.008  16.728 -1.4147  0.0302  1.2696
  629MPD2    N1 9376   0.356   3.066  16.762  0.0145 -0.3773 -0.1333
  629MPD2    H7 9377   0.451   3.036  16.781  0.7623  1.3315 -1.2061
  630TMC3    C1 9378   0.466   3.277  16.705  0.1745 -0.6060  0.3144
  630TMC3    C2 9379   0.457   3.403  16.652  0.0802 -0.4537  0.0796
  630TMC3    C3 9380   0.536   3.498  16.712  0.0070 -0.1484  0.1485
  630TMC3    C4 9381   0.550   3.250  16.812  0.0949  0.6567  0.3523
  630TMC3    C5 9382   0.617   3.354  16.867  0.0365 -0.2757  0.2781
  630TMC3    C6 9383   0.622   3.476  16.816 -0.4904  0.0051  0.1344
  630TMC3     C 9384   0.344   3.193  16.716  0.2516  0.2014 -0.1067
  630TMC3     O 9385   0.241   3.253  16.687  0.5567 -0.0304 -0.5839
  630TMC3     H 9386   0.371   3.425  16.589  0.8761 -1.0046 -1.2169
  630TMC3    H1 9387   0.528   3.165  16.875 -0.3554 -0.6479 -1.5996
  630TMC3    H2 9388   0.659   3.560  16.872  0.9411 -3.5751  4.5480
  630TMC3    C7 9389   0.711   3.315  16.963  0.0690  0.2544  0.6080
  630TMC3    C8 9390   0.576   3.606  16.633  0.0838 -0.3274  0.4910
  630TMC3    O1 9391   0.676   3.216  17.028 -0.2459  0.8299 -0.1150
  630TMC3    O2 9392   0.624   3.702  16.694 -0.2908  0.3234  0.2812
  631MPD2     C 9393   2.895   3.136  15.719 -0.3818 -0.2074 -0.5163
  631MPD2    C1 9394   2.978   3.250  15.699 -0.7506  0.0684 -0.2432
  631MPD2    C2 9395   3.104   3.250  15.763 -0.0159 -0.1440  0.0743
  631MPD2    C3 9396   3.147   3.139  15.828  0.1673  0.0815  0.1090
  631MPD2    C4 9397   3.064   3.030  15.839 -0.6363 -0.1260 -0.1297
  631MPD2    C5 9398   2.938   3.035  15.797  0.4542 -0.1577  0.3530
  631MPD2     H 9399   3.160   3.342  15.758  1.2647 -0.8851  0.8465
  631MPD2    H1 9400   3.105   2.949  15.898  0.1952  1.0802  0.9539
  631MPD2    H2 9401   2.791   3.133  15.688 -0.1273  0.3036 -1.4247
  631MPD2    H3 9402   2.868   2.956  15.823  1.7570 -1.1116  0.9595
  631MPD2     N 9403   3.284   3.146  15.869 -0.0241 -0.4130 -0.2434
  631MPD2    H5 9404   3.332   3.234  15.855 -1.5048  0.2875 -0.9124
  631MPD2    N1 9405   2.950   3.365  15.624 -0.1089  0.6871  0.6720
  631MPD2    H7 9406   3.020   3.438  15.624 -2.3064  2.8054  1.7969
  632TMC3    C1 9407   2.827   3.537  15.537 -0.2232 -0.6329  0.1525
  632TMC3    C2 9408   2.771   3.618  15.635  0.0015 -0.2662  0.1765
  632TMC3    C3 9409   2.814   3.750  15.639 -0.4356 -0.5600  0.1784
  632TMC3    C4 9410   2.922   3.587  15.449 -0.2333 -0.0984 -0.0900
  632TMC3    C5 9411   2.961   3.719  15.457  0.0062 -0.0967 -0.5514
  632TMC3    C6 9412   2.898   3.803  15.549 -0.2971 -0.9770  0.2665
  632TMC3     C 9413   2.833   3.397  15.566  0.4372 -0.1286 -0.6995
  632TMC3     O 9414   2.735   3.324  15.565 -0.3818 -0.1451  0.3085
  632TMC3     H 9415   2.695   3.578  15.702 -0.5146 -1.1976 -0.9694
  632TMC3    H1 9416   2.984   3.527  15.382 -0.4149 -0.1839 -0.1836
  632TMC3    H2 9417   2.930   3.907  15.549  0.4180 -1.1976  0.9961
  632TMC3    C7 9418   3.091   3.773  15.413 -0.2816  0.4689  0.2653
  632TMC3    C8 9419   2.732   3.839  15.720  0.1692 -0.4714  0.5115
  632TMC3    O1 9420   3.147   3.844  15.495 -0.7146  0.1496  0.5619
  632TMC3    O2 9421   2.619   3.807  15.748 -0.0757  0.0905  0.3989
  633MPD2     C 9422   2.127   1.381  17.484 -0.3314 -0.1717 -0.9063
  633MPD2    C1 9423   2.164   1.290  17.387 -0.0655 -0.2206  0.2645
  633MPD2    C2 9424   2.193   1.162  17.415  0.2639 -0.0497  0.2893
  633MPD2    C3 9425   2.181   1.121  17.541  0.3919  0.0344 -0.0775
  633MPD2    C4 9426   2.151   1.210  17.641  0.4001 -0.0783 -0.5053
  633MPD2    C5 9427   2.122   1.339  17.612  0.4202 -0.4426 -0.2072
  633MPD2     H 9428   2.246   1.104  17.340  1.3786 -1.8104  2.4543
  633MPD2    H1 9429   2.167   1.175  17.742 -0.5612  1.3837  0.1542
  633MPD2    H2 9430   2.111   1.487  17.465  0.5372 -0.1623 -1.5990
  633MPD2    H3 9431   2.096   1.413  17.687 -0.5629 -0.2863 -0.7007
  633MPD2     N 9432   2.229   0.993  17.578 -0.7165 -0.9909  0.3676
  633MPD2    H5 9433   2.241   0.975  17.677  1.0159 -0.4671  0.2566
  633MPD2    N1 9434   2.200   1.335  17.258  0.7000 -0.3747 -0.4003
  633MPD2    H7 9435   2.266   1.276  17.208  2.9993  2.2441 -0.4916
  634TMC3    C1 9436   2.255   1.474  17.076  0.1192 -0.4868 -0.9585
  634TMC3    C2 9437   2.343   1.372  17.039 -0.1573 -0.3740 -0.8221
  634TMC3    C3 9438   2.433   1.408  16.943  0.1465 -0.1165 -0.5113
  634TMC3    C4 9439   2.250   1.598  17.022  0.5757 -0.4650 -0.4586
  634TMC3    C5 9440   2.350   1.637  16.930  0.5796  0.0768  0.3306
  634TMC3    C6 9441   2.438   1.537  16.891 -0.3035 -0.2786  0.2975
  634TMC3     C 9442   2.185   1.456  17.197 -0.0902 -0.7169 -0.3285
  634TMC3     O 9443   2.105   1.548  17.225 -0.2128 -0.2462 -0.7391
  634TMC3     H 9444   2.353   1.270  17.074 -2.1581 -0.3407 -0.1500
  634TMC3    H1 9445   2.199   1.672  17.081  0.5643 -0.3114 -0.6633
  634TMC3    H2 9446   2.514   1.565  16.818 -2.2529  0.2479 -1.5349
  634TMC3    C7 9447   2.316   1.731  16.824  0.7925  0.1047  0.6158
  634TMC3    C8 9448   2.511   1.304  16.877  0.1572  0.2366  0.1888
  634TMC3    O1 9449   2.398   1.729  16.737 -0.1493  0.3694 -0.1116
  634TMC3    O2 9450   2.503   1.192  16.918  0.0870 -0.1004  0.3428
  635TMC3    C1 9451   2.790   2.285   0.025 -0.2621 -0.0720  0.3487
  635TMC3    C2 9452   2.867   2.230  17.670  0.2990  0.1782 -0.3573
  635TMC3    C3 9453   2.812   2.149  17.572  0.9275 -0.9984  0.6855
  635TMC3    C4 9454   2.658   2.254   0.034 -0.5887  0.0114 -0.0654
  635TMC3    C5 9455   2.601   2.175  17.678 -0.0920 -0.8459  0.5255
  635TMC3    C6 9456   2.678   2.120  17.577 -0.4520 -0.1188 -0.7396
  635TMC3     C 9457   2.833   2.386   0.117 -0.5634  0.0182 -0.7386
  635TMC3     O 9458   2.761   2.481   0.136  0.4533  0.4225  0.4499
  635TMC3     H 9459   2.973   2.250  17.659  0.0349  1.7292 -0.1356
  635TMC3    H1 9460   2.608   2.293   0.122 -0.5042 -1.0181  0.4403
  635TMC3    H2 9461   2.630   2.057  17.503 -1.1386 -1.1026  0.5485
  635TMC3    C7 9462   2.491   2.090  17.721 -0.3925  0.0042 -0.6513
  635TMC3    C8 9463   2.894   2.083  17.465  0.1358 -0.2540 -0.0211
  635TMC3    O1 9464   2.443   2.024  17.627 -0.4162 -0.3479 -0.1946
  635TMC3    O2 9465   2.837   2.048  17.365 -0.0997 -0.0614 -0.4793
  636MPD2     C 9466   3.906   1.738  15.997  0.3282 -0.1441  0.3323
  636MPD2    C1 9467   3.937   1.727  16.127 -0.1665  0.6609  0.1832
  636MPD2    C2 9468   4.055   1.659  16.165  0.5084  0.7596 -0.2441
  636MPD2    C3 9469   4.128   1.597  16.069  0.3492  0.6603 -0.0652
  636MPD2    C4 9470   4.096   1.616  15.942  0.9342  0.0047  0.5621
  636MPD2    C5 9471   3.987   1.685  15.901  0.6643 -0.7431 -0.3253
  636MPD2     H 9472   4.082   1.647  16.269 -0.4968  1.7103  0.1278
  636MPD2    H1 9473   4.149   1.569  15.860  1.8354 -0.3170  1.3358
  636MPD2    H2 9474   3.813   1.781  15.961 -0.0593 -2.7088 -1.7181
  636MPD2    H3 9475   3.960   1.676  15.796 -0.5093 -1.1096  0.0083
  636MPD2     N 9476   4.238   1.516  16.120  0.2496  0.0443  0.0922
  636MPD2    H5 9477   4.230   1.487  16.217 -1.3665 -1.2864 -0.4398
  636MPD2    N1 9478   3.862   1.783  16.233 -0.7871 -0.5136  0.1421
  636MPD2    H7 9479   3.900   1.783  16.327  0.3483  0.0080 -0.3133
  637TMC3    C1 9480   4.431   1.365  16.104 -0.3909  0.0046  0.2277
  637TMC3    C2 9481   4.410   1.329  16.228  0.0192 -0.9093 -0.5545
  637TMC3    C3 9482   4.514   1.294  16.306  0.0428 -0.7951  0.3536
  637TMC3    C4 9483   4.556   1.374  16.056  0.3391  0.5742  1.2307
  637TMC3    C5 9484   4.667   1.339  16.136  0.4582  0.2800  0.2202
  637TMC3    C6 9485   4.642   1.303  16.259  0.2105 -0.1437  0.1336
  637TMC3     C 9486   4.332   1.454  16.039 -0.4720  0.4142 -0.7913
  637TMC3     O 9487   4.342   1.470  15.916 -0.4365 -0.2559  0.0298
  637TMC3     H 9488   4.311   1.338  16.272  0.5672 -0.6146  0.6131
  637TMC3    H1 9489   4.562   1.426  15.961  0.0245  1.9681  1.9688
  637TMC3    H2 9490   4.716   1.294  16.337  1.2201  1.4490 -0.6565
  637TMC3    C7 9491   0.028   1.446  16.140 -0.1285  0.1172 -0.0129
  637TMC3    C8 9492   4.492   1.348  16.438  0.9096 -0.4956 -0.6606
  637TMC3    O1 9493   0.036   1.497  16.252 -0.8044  0.1388 -0.4246
  637TMC3    O2 9494   4.391   1.324  16.505  0.1678  0.9387 -0.3423
  638MPD2     C 9495   3.959   0.583  14.900 -0.0729  0.1910 -1.2641
  638MPD2    C1 9496   4.007   0.487  14.816  0.1864 -0.4997  0.5344
  638MPD2    C2 9497   4.022   0.358  14.855  0.2498  0.4984 -0.3002
  638MPD2    C3 9498   3.985   0.320  14.983  0.2276  0.6313 -0.3296
  638MPD2    C4 9499   3.941   0.410  15.071  0.0077 -0.6128  0.6770
  638MPD2    C5 9500   3.927   0.543  15.029 -0.1780  0.3777  0.5195
  638MPD2     H 9501   4.056   0.286  14.782 -0.6434 -0.3222  0.0980
  638MPD2    H1 9502   3.930   0.384  15.175 -1.0320  0.8021  0.9149
  638MPD2    H2 9503   3.930   0.680  14.863  0.3657  0.6960 -0.2943
  638MPD2    H3 9504   3.873   0.615  15.089 -1.4564  0.3535 -0.5892
  638MPD2     N 9505   4.006   0.187  15.017 -0.2457  0.0989  1.0190
  638MPD2    H5 9506   4.061   0.137  14.949  0.4652 -0.4699  2.0097
  638MPD2    N1 9507   4.021   0.508  14.676  0.1146 -0.1550 -0.8611
  638MPD2    H7 9508   4.055   0.427  14.626  1.8221  0.7139 -1.0922
  639TMC3    C1 9509   3.968   4.716  15.109  0.8078 -0.0537 -0.1152
  639TMC3    C2 9510   3.863   4.651  15.058 -0.7139 -0.0845 -0.1445
  639TMC3    C3 9511   3.890   4.536  14.991  0.2517  0.3307  0.0832
  639TMC3    C4 9512   4.097   4.681  15.079  0.1889 -0.3905 -0.0911
  639TMC3    C5 9513   4.120   4.562  15.014  0.1047  0.8421  0.0671
  639TMC3    C6 9514   4.015   4.489  14.972  0.6249  0.1520  0.2956
  639TMC3     C 9515   3.942   0.120  15.126 -0.5564  0.2224  0.0767
  639TMC3     O 9516   3.850   0.155  15.199 -0.0679  0.0315  0.1010
  639TMC3     H 9517   3.767   4.701  15.054 -2.2711 -2.9977  0.8041
  639TMC3    H1 9518   4.178   0.006  15.116  2.2369 -2.9893 -0.3048
  639TMC3    H2 9519   4.029   4.401  14.911  0.4676 -0.6022  1.3488
  639TMC3    C7 9520   4.225   4.485  15.061 -0.1555 -0.0831 -0.1280
  639TMC3    C8 9521   3.799   4.497  14.891  0.0351  0.3319 -0.1633
  639TMC3    O1 9522   4.210   4.387  15.132  0.3371 -0.1488 -0.8858
  639TMC3    O2 9523   3.854   4.463  14.787 -1.0163 -0.0941  0.6085
  640MPD2     C 9524   4.090   3.308  10.116  0.4443  0.0720 -0.5158
  640MPD2    C1 9525   4.167   3.418  10.065  0.2659 -0.1701  0.1870
  640MPD2    C2 9526   4.110   3.543  10.073  0.9300 -0.2378  0.5279
  640MPD2    C3 9527   3.988   3.557  10.135 -0.0221 -0.2422 -0.1828
  640MPD2    C4 9528   3.914   3.452  10.187  0.0745 -0.4445  0.0472
  640MPD2    C5 9529   3.973   3.325  10.177  0.1298  0.9367  0.4470
  640MPD2     H 9530   4.163   3.629  10.032  1.8838 -1.2735 -0.4164
  640MPD2    H1 9531   3.820   3.462  10.239  1.5649  4.2985  1.8360
  640MPD2    H2 9532   4.118   3.204  10.106 -3.8470 -1.0429 -0.9458
  640MPD2    H3 9533   3.918   3.247  10.227 -0.5539  2.6681  2.4016
  640MPD2     N 9534   3.937   3.683  10.153 -0.4235 -0.7995  0.4621
  640MPD2    H5 9535   3.991   3.751  10.100  2.2161 -0.4460  3.5747
  640MPD2    N1 9536   4.298   3.394  10.008  0.3047 -0.0958 -0.2251
  640MPD2    H7 9537   4.334   3.301  10.027  0.2405 -0.4255 -1.7282
  641TMC3    C1 9538   4.508   3.447   9.933  0.4932  0.1096 -0.7030
  641TMC3    C2 9539   4.553   3.321   9.953 -0.2752 -0.3709  0.3629
  641TMC3    C3 9540   4.689   3.300   9.943  0.0882 -0.3284  0.1815
  641TMC3    C4 9541   4.606   3.546   9.904 -0.3473  0.9753  0.4403
  641TMC3    C5 9542   0.004   3.517   9.904  0.3234 -0.5951  0.4462
  641TMC3    C6 9543   0.051   3.393   9.921 -0.7406  0.4322 -1.3873
  641TMC3     C 9544   4.371   3.488   9.945  0.2993  0.3301 -0.0857
  641TMC3     O 9545   4.350   3.609   9.935 -0.0199  0.8360  0.4963
  641TMC3     H 9546   4.489   3.233   9.955 -1.0268  0.1768  0.4189
  641TMC3    H1 9547   4.574   3.649   9.902  0.8128  1.3093 -1.1570
  641TMC3    H2 9548   0.149   3.356   9.892 -0.1655  0.3703  0.6635
  641TMC3    C7 9549   0.098   3.612   9.842  0.7763 -0.3954 -0.5637
  641TMC3    C8 9550   4.720   3.161   9.930  0.0150 -0.2745 -0.0882
  641TMC3    O1 9551   0.210   3.625   9.887  0.4946 -0.0098  0.4776
  641TMC3    O2 9552   4.633   3.092   9.880  0.3672  0.2230 -0.2816
  642TMC3    C1 9553   0.597   0.162  13.234  0.0769  0.4478 -0.0347
  642TMC3    C2 9554   0.723   0.199  13.194 -1.1061 -0.2001 -0.0559
  642TMC3    C3 9555   0.784   0.120  13.100  0.3824 -0.0070 -0.1881
  642TMC3    C4 9556   0.517   0.061  13.188 -0.2868 -0.5687 -0.4589
  642TMC3    C5 9557   0.582   4.732  13.092  0.1044 -0.6065  0.1535
  642TMC3    C6 9558   0.712   0.011  13.052 -0.1052 -0.1674 -0.2991
  642TMC3     C 9559   0.539   0.241  13.338 -1.3037  0.1617 -0.4156
  642TMC3     O 9560   0.612   0.274  13.428 -0.1358 -0.1382 -0.0574
  642TMC3     H 9561   0.770   0.276  13.254 -0.2804 -0.5539 -0.2462
  642TMC3    H1 9562   0.420   0.034  13.227 -0.2629 -0.6717 -0.4711
  642TMC3    H2 9563   0.766   4.694  12.975  2.9602 -1.8100  3.0329
  642TMC3    C7 9564   0.513   4.630  13.017 -0.0308 -0.4233 -0.1275
  642TMC3    C8 9565   0.925   0.111  13.095  0.0854 -0.2141  0.0884
  642TMC3    O1 9566   0.560   4.603  12.910  0.4550 -0.1668 -0.1989
  642TMC3    O2 9567   0.979   0.007  13.070 -0.0410 -0.2019  0.1669
  643TMC3    C1 9568   4.558   4.521   0.430  0.4350 -0.0937 -0.4122
  643TMC3    C2 9569   4.438   4.576   0.417 -0.2752  0.0902 -0.0054
  643TMC3    C3 9570   4.349   4.521   0.328 -0.1962  0.1874  0.1598
  643TMC3    C4 9571   4.588   4.409   0.354  0.3294  0.9557  0.1925
  643TMC3    C5 9572   4.490   4.350   0.278  0.5845  0.4811 -0.0632
  643TMC3    C6 9573   4.366   4.404   0.263 -0.2479 -0.5181 -0.3129
  643TMC3     C 9574   4.667   4.604   0.492  0.1841  0.7309  0.7652
  643TMC3     O 9575   4.639   4.720   0.518 -0.1348  0.0895  0.0038
  643TMC3     H 9576   4.407   4.665   0.471  0.4342  0.7497 -0.7016
  643TMC3    H1 9577   4.685   4.362   0.365 -0.7245 -1.0092  1.1536
  643TMC3    H2 9578   4.299   4.373   0.183 -0.5740  0.7474 -0.5341
  643TMC3    C7 9579   4.540   4.301   0.149 -0.4411 -0.5168 -0.4599
  643TMC3    C8 9580   4.252   4.603   0.274  0.3612  0.0291 -0.0576
  643TMC3    O1 9581   4.659   4.324   0.128 -0.0128  0.3516  0.3153
  643TMC3    O2 9582   4.136   4.557   0.260  0.5101 -0.3302  0.4892
  644MPD2     C 9583   4.701   0.096   9.874 -0.8391  0.6232  0.1920
  644MPD2    C1 9584   4.602   0.012   9.832 -0.1177  0.1926  0.7040
  644MPD2    C2 9585   4.493   0.065   9.771 -0.0291  0.1958 -0.1579
  644MPD2    C3 9586   4.483   0.198   9.757  0.4573  0.8983 -0.9199
  644MPD2    C4 9587   4.580   0.285   9.795  0.4499  0.3285 -0.7384
  644MPD2    C5 9588   4.687   0.233   9.851  0.0338 -0.7314  0.4903
  644MPD2     H 9589   4.405   0.012   9.736  0.8165 -1.8325  0.7807
  644MPD2    H1 9590   4.582   0.393   9.786  0.8805  0.4380  0.7289
  644MPD2    H2 9591   0.056   0.057   9.916 -0.3867  2.6759  1.1354
  644MPD2    H3 9592   0.035   0.292   9.883 -0.0543  0.0425 -0.7121
  644MPD2     N 9593   4.361   0.237   9.699  0.2105 -0.2766 -0.8416
  644MPD2    H5 9594   4.292   0.166   9.675  0.0609 -0.2721 -0.4199
  644MPD2    N1 9595   4.621   4.611   9.838  0.6031  0.2427 -0.0114
  644MPD2    H7 9596   4.710   4.579   9.875 -0.0893 -1.3332  0.2610
  645TMC3    C1 9597   4.185   0.382   9.641  0.2373 -0.4973  0.1978
  645TMC3    C2 9598   4.095   0.270   9.645 -0.5730 -0.5095 -0.3699
  645TMC3    C3 9599   3.971   0.289   9.590  0.1242 -0.1989 -0.0413
  645TMC3    C4 9600   4.153   0.492   9.568  0.5584 -1.1990 -0.6853
  645TMC3    C5 9601   4.030   0.508   9.511  0.8539  0.7715 -0.1792
  645TMC3    C6 9602   3.938   0.407   9.524 -0.3639 -1.1306 -0.3262
  645TMC3     C 9603   4.321   0.372   9.681 -0.3821 -0.1140  0.2518
  645TMC3     O 9604   4.395   0.470   9.676 -0.4803 -0.0741  0.1684
  645TMC3     H 9605   4.120   0.174   9.688 -0.8484 -1.1158 -1.5602
  645TMC3    H1 9606   4.225   0.574   9.563 -0.7445  0.0657  1.0546
  645TMC3    H2 9607   3.839   0.402   9.480  0.6415 -3.8310 -2.2786
  645TMC3    C7 9608   4.017   0.610   9.409  0.1264  0.0364  0.0387
  645TMC3    C8 9609   3.860   0.199   9.619  0.2678 -0.2496  0.6451
  645TMC3    O1 9610   4.112   0.676   9.377 -0.0209 -0.6545  0.0125
  645TMC3    O2 9611   3.750   0.251   9.615  0.1986 -0.3574  0.6574
  646MPD2     C 9612   4.265   3.756  14.420 -0.4582  0.1769  0.3054
  646MPD2    C1 9613   4.182   3.755  14.527 -0.6159  0.0659  0.0946
  646MPD2    C2 9614   4.059   3.815  14.507 -1.0529  0.2967  0.5335
  646MPD2    C3 9615   4.035   3.893  14.392 -0.3431  0.2126 -0.8251
  646MPD2    C4 9616   4.122   3.884  14.282 -1.0863  0.0578 -0.2704
  646MPD2    C5 9617   4.236   3.813  14.300 -0.2717 -0.9202 -0.0330
  646MPD2     H 9618   3.986   3.806  14.587 -2.8970  0.2519 -1.1397
  646MPD2    H1 9619   4.109   3.942  14.191 -1.0437 -1.5526 -1.2945
  646MPD2    H2 9620   4.360   3.705  14.423 -0.2849  0.4944  0.1970
  646MPD2    H3 9621   4.305   3.801  14.217  0.5945 -1.2669  0.7306
  646MPD2     N 9622   3.909   3.961  14.382 -0.4818 -0.0668 -0.5108
  646MPD2    H5 9623   3.838   3.947  14.453  0.4889  1.4114  0.7435
  646MPD2    N1 9624   4.223   3.692  14.645 -0.0499 -0.5498  0.5048
  646MPD2    H7 9625   4.298   3.626  14.631 -0.8786 -2.0585  3.0683
  647TMC3    C1 9626   4.231   3.608  14.866  0.0864 -0.4249 -0.5177
  647TMC3    C2 9627   4.156   3.526  14.943 -0.0904 -0.1924  0.2137
  647TMC3    C3 9628   4.210   3.423  15.011  0.2195 -0.6166 -0.3841
  647TMC3    C4 9629   4.368   3.587  14.844  0.3321  0.3679 -0.3940
  647TMC3    C5 9630   4.424   3.484  14.924 -1.4805  0.2957  0.2065
  647TMC3    C6 9631   4.345   3.411  15.011  0.3244  0.2140 -0.1286
  647TMC3     C 9632   4.158   3.687  14.769  0.7446 -0.5496 -0.0464
  647TMC3     O 9633   4.054   3.735  14.802 -0.1336 -0.1236 -0.2908
  647TMC3     H 9634   4.049   3.544  14.935 -0.2280 -1.5384 -0.9987
  647TMC3    H1 9635   4.425   3.659  14.787 -0.3025  2.0666  1.1090
  647TMC3    H2 9636   4.391   3.338  15.077  0.7655 -0.5765 -1.3167
  647TMC3    C7 9637   4.566   3.486  14.955  0.9845 -0.4614  0.0422
  647TMC3    C8 9638   4.137   3.361  15.124 -0.0602 -0.5540 -0.8202
  647TMC3    O1 9639   4.612   3.407  15.035 -0.5178  0.4810  0.1639
  647TMC3    O2 9640   4.204   3.294  15.204 -0.6495 -0.5129 -0.1498
  648TMC3    C1 9641   3.152   1.246  16.389 -0.5008 -0.7083  0.1225
  648TMC3    C2 9642   3.212   1.121  16.365  0.3741 -0.5629 -0.0750
  648TMC3    C3 9643   3.230   1.098  16.228 -0.9094 -0.6382  0.8061
  648TMC3    C4 9644   3.131   1.344  16.294 -0.1188 -0.0189  0.0123
  648TMC3    C5 9645   3.153   1.312  16.163  0.3613 -0.1655  0.5244
  648TMC3    C6 9646   3.204   1.187  16.123 -0.3427  0.1692 -0.1085
  648TMC3     C 9647   3.117   1.278  16.526 -0.1730 -0.2620  0.1824
  648TMC3     O 9648   3.092   1.393  16.545 -0.1356  0.2843  0.0019
  648TMC3     H 9649   3.248   1.050  16.438  0.8454  0.0906  0.3285
  648TMC3    H1 9650   3.086   1.438  16.325  0.4406 -0.2789  1.6413
  648TMC3    H2 9651   3.215   1.167  16.017  1.9751  0.1537  0.1234
  648TMC3    C7 9652   3.115   1.406  16.065 -0.5283  0.5972 -0.4827
  648TMC3    C8 9653   3.308   0.980  16.191  0.2272  0.1250 -1.3565
  648TMC3    O1 9654   3.163   1.393  15.952  0.1129 -0.0969  0.1608
  648TMC3    O2 9655   3.316   0.897  16.275  0.2755 -0.3074  0.1781
  649TMC3    C1 9656   2.654   2.764  13.028 -0.6484  0.3493 -0.0380
  649TMC3    C2 9657   2.788   2.721  13.049 -0.3146 -0.2656 -0.0535
  649TMC3    C3 9658   2.807   2.643  13.167 -0.1527  0.7074 -0.0970
  649TMC3    C4 9659   2.551   2.721  13.109 -0.0203 -0.1803  0.7553
  649TMC3    C5 9660   2.578   2.652  13.221  0.2566  0.0925 -0.7798
  649TMC3    C6 9661   2.706   2.618  13.254  0.2803 -0.1314  0.4663
  649TMC3     C 9662   2.620   2.798  12.889  0.0596  0.3101  0.5028
  649TMC3     O 9663   2.511   2.851  12.874  0.4781 -0.1114 -0.0730
  649TMC3     H 9664   2.868   2.777  13.003 -1.0937  1.3241  0.5307
  649TMC3    H1 9665   2.451   2.722  13.069  0.8872 -0.6824 -1.5687
  649TMC3    H2 9666   2.737   2.571  13.346 -0.6121  0.8123  1.2617
  649TMC3    C7 9667   2.471   2.584  13.286 -0.7063 -0.0081 -0.3305
  649TMC3    C8 9668   2.945   2.609  13.206  0.3486  0.3720  0.3600
  649TMC3    O1 9669   2.358   2.607  13.245  0.2172 -0.1176 -0.3182
  649TMC3    O2 9670   2.952   2.551  13.311  0.9485 -0.0731 -0.0620
  650TMC3    C1 9671   4.367   4.097  13.374 -0.1441 -0.2958  0.1139
  650TMC3    C2 9672   4.272   4.179  13.433 -0.5596 -0.1021 -0.0710
  650TMC3    C3 9673   4.203   4.267  13.358  0.0456  0.4205 -0.5639
  650TMC3    C4 9674   4.398   4.093  13.240 -0.9096 -0.2308 -0.2028
  650TMC3    C5 9675   4.315   4.175  13.165 -0.3899  0.3072  0.1902
  650TMC3    C6 9676   4.229   4.266  13.222 -0.6425 -0.1990 -0.5999
  650TMC3     C 9677   4.459   4.025  13.459  0.0354 -0.3164  0.1980
  650TMC3     O 9678   4.452   4.051  13.579  0.2247  0.4738 -0.0491
  650TMC3     H 9679   4.253   4.180  13.540  1.4150  1.6149  0.2569
  650TMC3    H1 9680   4.489   4.056  13.196 -0.4311  0.7814 -0.0569
  650TMC3    H2 9681   4.176   4.336  13.158 -0.3761  1.4026  0.9371
  650TMC3    C7 9682   4.384   4.221  13.044 -0.5384 -0.2333  0.2506
  650TMC3    C8 9683   4.166   4.392  13.410  0.8621  0.3805  0.0246
  650TMC3    O1 9684   4.418   4.142  12.957  0.1505 -0.0662 -0.5424
  650TMC3    O2 9685   4.237   4.452  13.493 -0.3124  0.2872 -0.0511
  651MPD2     C 9686   3.645   1.149  11.201 -0.1784  0.2525  0.1995
  651MPD2    C1 9687   3.611   1.277  11.184  0.3842  0.3227 -0.6538
  651MPD2    C2 9688   3.710   1.374  11.169 -0.0652 -0.3544 -0.0019
  651MPD2    C3 9689   3.844   1.339  11.185 -0.1586 -0.6324  0.4705
  651MPD2    C4 9690   3.874   1.206  11.221  0.2833 -0.4192 -0.1269
  651MPD2    C5 9691   3.774   1.107  11.226  0.6989  0.0099  0.6291
  651MPD2     H 9692   3.675   1.476  11.168  0.5315 -0.1456  0.1296
  651MPD2    H1 9693   3.973   1.166  11.239  0.3143  0.5518  1.8945
  651MPD2    H2 9694   3.578   1.066  11.186  0.6760 -0.7749  2.0923
  651MPD2    H3 9695   3.805   1.003  11.224 -2.1194 -0.7777 -3.1277
  651MPD2     N 9696   3.942   1.442  11.195 -0.1467  0.0213  0.1710
  651MPD2    H5 9697   3.916   1.536  11.167  2.3007  0.9543  1.0095
  651MPD2    N1 9698   3.477   1.324  11.174  0.2069 -0.1188 -0.1704
  651MPD2    H7 9699   3.462   1.422  11.152  1.3859  0.6553  2.4140
  652TMC3    C1 9700   4.387   1.609  11.164 -0.5975  0.6074  0.5505
  652TMC3    C2 9701   4.292   1.508  11.173  0.0042 -0.4748 -0.8237
  652TMC3    C3 9702   4.162   1.530  11.201  0.6522  0.2095 -0.0078
  652TMC3    C4 9703   4.352   1.745  11.181 -0.9173 -0.0247  0.0899
  652TMC3    C5 9704   4.219   1.760  11.210 -1.0969  0.5208 -0.3568
  652TMC3    C6 9705   4.120   1.663  11.217 -0.1873  0.5035 -0.3949
  652TMC3     C 9706   4.519   1.571  11.198 -0.6733 -0.2884 -1.1456
  652TMC3     O 9707   4.527   1.462  11.258  0.3760  0.3189 -0.2954
  652TMC3     H 9708   4.317   1.408  11.139  0.2448 -1.2609  1.6484
  652TMC3    H1 9709   4.428   1.814  11.216  1.2749 -2.3213 -0.1372
  652TMC3    H2 9710   4.021   1.698  11.243 -1.4466 -0.5772 -3.7191
  652TMC3    C7 9711   4.183   1.893  11.258  0.3531  0.5007 -0.1423
  652TMC3    C8 9712   4.079   1.420  11.218 -0.2374  0.6147  0.0262
  652TMC3    O1 9713   4.116   1.909  11.362  0.1351 -0.0137 -0.0457
  652TMC3    O2 9714   4.132   1.316  11.258  0.3007  0.2644 -0.3788
  653MPD2     C 9715   1.829   1.223  17.717 -0.2222 -0.5173  0.3391
  653MPD2    C1 9716   1.794   1.316  17.622  0.2774  0.2299 -0.6142
  653MPD2    C2 9717   1.756   1.273  17.495  0.7020 -0.1460  0.1954
  653MPD2    C3 9718   1.751   1.139  17.456  0.9852  0.2391 -0.3982
  653MPD2    C4 9719   1.796   1.050  17.545 -0.6607 -0.4340 -0.1885
  653MPD2    C5 9720   1.832   1.091  17.672 -0.3175  0.2468  0.6855
  653MPD2     H 9721   1.729   1.345  17.418  1.9478  0.3160  0.1926
  653MPD2    H1 9722   1.780   0.945  17.520  2.6092 -0.8340 -0.5873
  653MPD2    H2 9723   1.873   1.239   0.070  0.9600  0.2370 -0.3207
  653MPD2    H3 9724   1.869   1.017  17.743 -0.5439 -0.1428  0.4004
  653MPD2     N 9725   1.701   1.116  17.324  0.1958 -0.3286 -0.4860
  653MPD2    H5 9726   1.652   1.189  17.274 -1.2088 -0.8080  0.1661
  653MPD2    N1 9727   1.817   1.453  17.647 -0.5447  0.2345  0.5523
  653MPD2    H7 9728   1.812   1.513  17.566 -0.1654 -0.0977  0.2831
  654TMC3    C1 9729   1.675   1.006  17.116 -0.2617  0.5422  0.2289
  654TMC3    C2 9730   1.639   1.123  17.053  0.6101  0.4562 -0.2676
  654TMC3    C3 9731   1.644   1.125  16.918 -0.4432  1.0251  0.0733
  654TMC3    C4 9732   1.708   0.893  17.048 -0.3028 -0.9850  0.1698
  654TMC3    C5 9733   1.705   0.899  16.912 -0.1594 -0.2435  0.2863
  654TMC3    C6 9734   1.662   1.011  16.844  0.0165 -0.1464 -0.0338
  654TMC3     C 9735   1.704   1.002  17.257  1.1425 -0.2785 -0.2818
  654TMC3     O 9736   1.763   0.902  17.293  0.3335 -0.1311 -0.5558
  654TMC3     H 9737   1.601   1.216  17.094 -1.2752  0.1285 -1.3088
  654TMC3    H1 9738   1.727   0.806  17.109 -2.2348 -0.6693  1.2196
  654TMC3    H2 9739   1.652   1.007  16.736  0.5670 -2.3821 -0.0160
  654TMC3    C7 9740   1.733   0.776  16.843 -0.1552 -0.0415 -0.0992
  654TMC3    C8 9741   1.605   1.253  16.856 -0.2291  0.2438  0.1762
  654TMC3    O1 9742   1.705   0.752  16.728  0.5441  0.0684 -0.0818
  654TMC3    O2 9743   1.530   1.327  16.921  0.0415 -0.1818  0.0380
  655MPD2     C 9744   3.632   1.471  15.984  0.1476  0.9737 -0.5234
  655MPD2    C1 9745   3.602   1.589  15.928  0.0501 -0.1073  0.0030
  655MPD2    C2 9746   3.650   1.624  15.806 -0.0751  0.0562 -0.4673
  655MPD2    C3 9747   3.735   1.536  15.742 -0.2262 -0.3314 -0.2447
  655MPD2    C4 9748   3.765   1.417  15.803  0.1330 -0.6856  0.5806
  655MPD2    C5 9749   3.719   1.383  15.925 -0.5822  0.5249  0.5823
  655MPD2     H 9750   3.617   1.712  15.753 -3.0117 -0.3884  0.6370
  655MPD2    H1 9751   3.849   1.353  15.774  0.8012  0.5616 -0.2545
  655MPD2    H2 9752   3.603   1.444  16.085 -1.3211  1.8551 -0.7040
  655MPD2    H3 9753   3.768   1.301  15.976  2.0388  1.9655  0.3510
  655MPD2     N 9754   3.783   1.558  15.607  0.1009 -0.1883  0.6309
  655MPD2    H5 9755   3.821   1.478  15.557 -1.0253  0.0482 -0.5971
  655MPD2    N1 9756   3.504   1.669  15.989 -0.4796 -1.0452 -0.4165
  655MPD2    H7 9757   3.488   1.757  15.941  1.0827 -0.8134 -0.5190
  656TMC3    C1 9758   3.341   1.765  16.131 -0.5065  0.3900 -0.1092
  656TMC3    C2 9759   3.245   1.746  16.223 -0.6323 -0.5112 -0.1755
  656TMC3    C3 9760   3.153   1.839  16.248  0.4967  0.2054  0.5298
  656TMC3    C4 9761   3.353   1.884  16.057  0.3841 -0.2931 -0.5673
  656TMC3    C5 9762   3.243   1.972  16.073 -0.0042  0.2895  0.4767
  656TMC3    C6 9763   3.144   1.953  16.169  0.2090 -0.3764 -0.5486
  656TMC3     C 9764   3.432   1.649  16.104 -0.2705  0.4535  0.1359
  656TMC3     O 9765   3.436   1.555  16.184 -0.0790 -0.0937 -0.9381
  656TMC3     H 9766   3.241   1.651  16.275 -0.6884 -0.3811  0.0562
  656TMC3    H1 9767   3.427   1.899  15.979  0.4241 -0.9061 -0.6481
  656TMC3    H2 9768   3.058   2.018  16.181  0.7741  0.0924  0.8798
  656TMC3    C7 9769   3.243   2.089  15.987 -0.2285  0.3631 -0.1555
  656TMC3    C8 9770   3.052   1.801  16.351  0.1703  0.3846  0.1771
  656TMC3    O1 9771   3.357   2.130  15.952  0.5205  0.5590  0.0740
  656TMC3    O2 9772   3.026   1.686  16.376 -0.1456  0.5844 -0.2613
  657TMC3    C1 9773   2.428   0.836  15.417  0.3626 -0.3635  0.1556
  657TMC3    C2 9774   2.524   0.878  15.507 -0.0534  0.5281 -0.6565
  657TMC3    C3 9775   2.502   0.993  15.580 -0.2654 -0.1004 -0.8892
  657TMC3    C4 9776   2.316   0.903  15.401 -0.4574 -0.5029 -0.3670
  657TMC3    C5 9777   2.294   1.019  15.471  0.1850 -0.0543 -0.9803
  657TMC3    C6 9778   2.385   1.061  15.560  0.2075  0.6102 -0.7030
  657TMC3     C 9779   2.444   0.712  15.337  0.9375  0.1779  0.3427
  657TMC3     O 9780   2.346   0.667  15.287  0.3907 -0.4091  0.1556
  657TMC3     H 9781   2.598   0.804  15.534  1.1775  2.4800  1.2023
  657TMC3    H1 9782   2.240   0.869  15.332  0.7101 -1.0334 -1.4050
  657TMC3    H2 9783   2.351   1.131  15.635 -1.2450 -0.5177 -0.3126
  657TMC3    C7 9784   2.168   1.087  15.447 -0.6132 -0.2298  0.2688
  657TMC3    C8 9785   2.585   1.031  15.698  0.4799  1.0874  0.1361
  657TMC3    O1 9786   2.087   1.023  15.383 -0.4339  0.2204  0.3440
  657TMC3    O2 9787   2.552   1.126  15.765  0.4854 -0.0071 -0.2336
  658MPD2     C 9788   4.059   1.937  14.910  0.2979  0.0400  0.6895
  658MPD2    C1 9789   3.934   1.894  14.894 -0.2531  0.5769 -0.6628
  658MPD2    C2 9790   3.883   1.900  14.765  0.3234 -0.5639  0.8144
  658MPD2    C3 9791   3.955   1.939  14.653 -0.0271 -0.0145 -0.6891
  658MPD2    C4 9792   4.087   1.966  14.673 -0.0571  0.1942  0.6188
  658MPD2    C5 9793   4.129   1.972  14.800  0.6693  0.7399  0.3970
  658MPD2     H 9794   3.780   1.869  14.756  0.1995 -0.3838  1.6491
  658MPD2    H1 9795   4.150   1.992  14.589  2.1152  0.5114  2.3492
  658MPD2    H2 9796   4.111   1.933  15.005 -0.0751  4.7221  1.0535
  658MPD2    H3 9797   4.234   1.994  14.819  0.9430 -0.2458  0.0109
  658MPD2     N 9798   3.891   1.942  14.525  0.2603  0.3490  0.3695
  658MPD2    H5 9799   3.798   1.900  14.526  0.0824  0.7497  1.8630
  658MPD2    N1 9800   3.840   1.864  14.995  0.2375 -0.0176 -0.0335
  658MPD2    H7 9801   3.748   1.829  14.970  0.6834 -0.6135 -0.8266
  659TMC3    C1 9802   3.776   1.818  15.214 -0.3350 -0.0078 -0.7202
  659TMC3    C2 9803   3.824   1.790  15.340  0.3985 -0.4526 -0.1868
  659TMC3    C3 9804   3.773   1.688  15.409 -0.3427 -0.0344 -0.1753
  659TMC3    C4 9805   3.665   1.749  15.167 -0.0049  0.6458  0.0798
  659TMC3    C5 9806   3.613   1.647  15.243  0.7483 -0.2540  0.1977
  659TMC3    C6 9807   3.665   1.618  15.363  0.7169  0.3117  0.0287
  659TMC3     C 9808   3.872   1.874  15.126 -0.1581 -0.7834  0.2703
  659TMC3     O 9809   3.964   1.929  15.184 -0.4738 -0.1243  0.3240
  659TMC3     H 9810   3.902   1.848  15.388 -0.5881  1.6933 -1.1865
  659TMC3    H1 9811   3.626   1.780  15.071 -0.0943 -1.8971 -0.7006
  659TMC3    H2 9812   3.629   1.529  15.413  0.9804  1.0324  1.5044
  659TMC3    C7 9813   3.472   1.623  15.243 -0.1103  0.2065  0.3624
  659TMC3    C8 9814   3.792   1.680  15.551 -0.5205  0.0267  0.4588
  659TMC3    O1 9815   3.417   1.604  15.351 -0.4265  0.0581  0.3388
  659TMC3    O2 9816   3.803   1.784  15.610  0.1170  0.1261  0.3078
  660MPD2     C 9817   2.059   0.446  12.933  0.0935 -0.2717 -0.3953
  660MPD2    C1 9818   1.923   0.449  12.922 -0.0003  0.5880  0.3688
  660MPD2    C2 9819   1.848   0.339  12.962 -0.0950  0.2515 -0.1172
  660MPD2    C3 9820   1.916   0.229  13.019 -0.2087  0.5361 -0.2677
  660MPD2    C4 9821   2.054   0.234  13.034  0.5516 -0.6524 -0.9708
  660MPD2    C5 9822   2.121   0.339  12.992 -0.3027  0.3001  0.0169
  660MPD2     H 9823   1.743   0.336  12.935  0.1155  0.3706 -0.9455
  660MPD2    H1 9824   2.114   0.155  13.078 -0.5224 -1.4213 -0.8617
  660MPD2    H2 9825   2.113   0.531  12.893  0.6605 -1.1669 -1.5117
  660MPD2    H3 9826   2.228   0.357  13.005 -0.4204 -0.1860  1.6818
  660MPD2     N 9827   1.840   0.120  13.059  0.7912  0.0830  0.4586
  660MPD2    H5 9828   1.741   0.143  13.062  0.2447 -2.3189  1.1780
  660MPD2    N1 9829   1.869   0.566  12.868 -0.7723  0.4571  0.1946
  660MPD2    H7 9830   1.936   0.633  12.832  0.6456 -1.4498 -0.6806
  661TMC3    C1 9831   1.682   0.715  12.810  0.1145  0.4668  0.7238
  661TMC3    C2 9832   1.747   0.754  12.692  0.7202  0.1251 -0.6156
  661TMC3    C3 9833   1.692   0.864  12.626  0.6425  0.2939  1.0578
  661TMC3    C4 9834   1.560   0.768  12.846 -0.7381 -0.5760 -0.2508
  661TMC3    C5 9835   1.515   0.878  12.785  0.1994  0.0530 -0.0438
  661TMC3    C6 9836   1.577   0.928  12.671  0.0373 -0.4372 -0.6057
  661TMC3     C 9837   1.733   0.598  12.888  0.0634  0.8722 -0.0771
  661TMC3     O 9838   1.658   0.566  12.977 -0.0462  0.1509  0.1212
  661TMC3     H 9839   1.844   0.715  12.662  0.8415  0.3575 -0.5268
  661TMC3    H1 9840   1.518   0.736  12.940  2.1794 -2.1253  0.5268
  661TMC3    H2 9841   1.541   1.025  12.637  2.2691  0.9822  1.0518
  661TMC3    C7 9842   1.370   0.873  12.760  0.5882 -0.0091  0.6770
  661TMC3    C8 9843   1.756   0.907  12.500  0.4993 -0.7792 -1.0605
  661TMC3    O1 9844   1.316   0.974  12.718 -0.4402  0.2313 -0.5913
  661TMC3    O2 9845   1.868   0.877  12.467  0.4938 -0.4197 -0.0614
  662MPD2     C 9846   1.934   4.635  17.117  0.5439  0.0644  0.4693
  662MPD2    C1 9847   1.925   4.547  17.221 -0.0297 -0.4359  0.5613
  662MPD2    C2 9848   1.879   4.588  17.343 -0.1697  0.4937 -0.1923
  662MPD2    C3 9849   1.841   4.720  17.363  0.0352 -0.8817  0.2884
  662MPD2    C4 9850   1.840   0.071  17.249 -0.8039 -0.6134  0.0797
  662MPD2    C5 9851   1.888   0.026  17.129 -0.2125 -0.1056 -0.1951
  662MPD2     H 9852   1.873   4.509  17.417  0.7052  0.8509  0.2569
  662MPD2    H1 9853   1.798   0.171  17.251 -0.0868 -0.3202  1.0186
  662MPD2    H2 9854   1.964   4.600  17.019 -1.5563 -1.1769  0.2729
  662MPD2    H3 9855   1.879   0.084  17.037 -0.3621 -1.0040 -0.7513
  662MPD2     N 9856   1.783   0.029  17.481  0.4767  0.9184 -0.3871
  662MPD2    H5 9857   1.737   0.119  17.483  0.7334  1.0326  0.6550
  662MPD2    N1 9858   1.986   4.413  17.229  0.4860 -0.1971  0.3547
  662MPD2    H7 9859   1.978   4.367  17.319 -1.5478 -0.3693  0.0767
  663TMC3    C1 9860   2.100   4.213  17.158  0.1175 -0.2529 -0.3209
  663TMC3    C2 9861   2.122   4.173  17.286 -0.0835 -0.0359  0.3528
  663TMC3    C3 9862   2.211   4.067  17.309  0.5209 -0.5450 -0.1532
  663TMC3    C4 9863   2.131   4.139  17.047  0.2284 -0.1647  0.0115
  663TMC3    C5 9864   2.210   4.036  17.070 -0.2318 -0.4620 -0.2154
  663TMC3    C6 9865   2.260   4.007  17.194  0.2893  0.4933  0.4269
  663TMC3     C 9866   2.047   4.342  17.123 -0.7821 -1.0022 -0.4523
  663TMC3     O 9867   2.043   4.371  17.005 -0.4720  0.0026 -0.1349
  663TMC3     H 9868   2.097   4.239  17.368 -0.2345  1.3051 -0.7579
  663TMC3    H1 9869   2.097   4.159  16.946 -1.2766 -0.9354  0.3629
  663TMC3    H2 9870   2.331   3.926  17.202 -1.2554 -0.9970 -1.0094
  663TMC3    C7 9871   2.188   3.913  16.982 -0.3382 -0.1746 -0.9537
  663TMC3    C8 9872   2.144   3.962  17.382  0.2636 -0.1275 -0.0361
  663TMC3    O1 9873   2.152   3.929  16.867  0.6130 -0.8172  0.2315
  663TMC3    O2 9874   2.183   3.852  17.354 -0.2609 -0.3909 -0.0957
  664MPD2     C 9875   0.379   2.784  17.631 -0.1845  0.5966  0.0090
  664MPD2    C1 9876   0.387   2.917  17.675  0.3315  0.4066  0.4236
  664MPD2    C2 9877   0.288   2.969   0.018 -0.2522 -0.2559 -0.6736
  664MPD2    C3 9878   0.178   2.895   0.055  0.3374  0.2019 -0.0153
  664MPD2    C4 9879   0.180   2.762   0.012  0.5843  0.2157  0.2747
  664MPD2    C5 9880   0.275   2.707  17.668 -0.5523  0.4053  0.5030
  664MPD2     H 9881   0.289   3.070   0.057 -1.8219 -1.0453  1.4070
  664MPD2    H1 9882   0.104   2.693   0.050 -1.3342  0.9568 -2.2243
  664MPD2    H2 9883   0.446   2.733  17.563  0.6675 -1.5830  2.4801
  664MPD2    H3 9884   0.262   2.604  17.639 -0.8056  0.5258  0.1884
  664MPD2     N 9885   0.075   2.943   0.139  0.0467  0.6784  0.8103
  664MPD2    H5 9886   0.094   3.028   0.192 -1.1815  0.5303  1.4835
  664MPD2    N1 9887   0.479   3.007  17.619 -0.1231 -0.1180 -0.5237
  664MPD2    H7 9888   0.470   3.103  17.651 -0.6544 -0.5890  0.7317
  665TMC3    C1 9889   4.606   2.922   0.274 -0.6735 -0.6580  0.0100
  665TMC3    C2 9890   4.495   2.844   0.295  0.3739 -0.3575 -0.1996
  665TMC3    C3 9891   4.426   2.862   0.409  0.6590  0.2946  0.3431
  665TMC3    C4 9892   4.637   3.033   0.348 -0.0659 -0.3484  0.3615
  665TMC3    C5 9893   4.551   3.061   0.451 -0.5793  0.4362 -0.0034
  665TMC3    C6 9894   4.454   2.972   0.489 -0.3886  0.9180  0.2671
  665TMC3     C 9895   4.679   2.892   0.153 -0.4498  0.1257  0.0003
  665TMC3     O 9896   4.641   2.796   0.091 -0.0677  0.6453  0.3550
  665TMC3     H 9897   4.477   2.757   0.234 -2.7545  0.7757 -0.8897
  665TMC3    H1 9898   4.725   3.093   0.329 -0.1349 -0.8298 -1.4892
  665TMC3    H2 9899   4.393   3.000   0.574 -1.5938 -1.6256  0.2228
  665TMC3    C7 9900   4.558   3.192   0.512 -0.3079 -0.1794  0.1963
  665TMC3    C8 9901   4.310   2.784   0.452  0.0764  0.5921  0.0451
  665TMC3    O1 9902   4.512   3.196   0.628  0.2285 -0.3142 -0.3993
  665TMC3    O2 9903   4.265   2.809   0.563  0.4486  0.3561 -0.1427
  666TMC3    C1 9904   3.843   2.468  10.279 -0.9712 -0.0451 -0.3564
  666TMC3    C2 9905   3.981   2.450  10.281  0.2275  0.0652  0.3039
  666TMC3    C3 9906   4.053   2.559  10.244 -0.1877 -1.1414 -0.4080
  666TMC3    C4 9907   3.784   2.582  10.237  0.5552 -0.8861 -0.1794
  666TMC3    C5 9908   3.863   2.687  10.206  0.6128 -0.4664 -0.1198
  666TMC3    C6 9909   3.997   2.678  10.214  0.4434  0.0320  0.3627
  666TMC3     C 9910   3.767   2.375  10.370  0.0608 -0.1810 -0.1041
  666TMC3     O 9911   3.665   2.418  10.420  0.4075  0.3317 -0.3272
  666TMC3     H 9912   4.026   2.363  10.326  0.0708  0.8388  1.9789
  666TMC3    H1 9913   3.677   2.590  10.255  0.8812 -1.9587  2.2604
  666TMC3    H2 9914   4.057   2.768  10.207 -0.6874  0.7985  0.6023
  666TMC3    C7 9915   3.783   2.804  10.159  0.1383 -0.6131 -1.0390
  666TMC3    C8 9916   4.194   2.556  10.275 -0.3887  0.3005  0.2704
  666TMC3    O1 9917   3.661   2.808  10.181 -0.1343  0.7221 -0.6843
  666TMC3    O2 9918   4.226   2.482  10.368 -0.0733  0.2494 -0.5969
  667MPD2     C 9919   1.116   2.818  14.838 -0.1992  0.4498  0.2810
  667MPD2    C1 9920   1.034   2.850  14.948 -0.9946 -0.2864 -0.2794
  667MPD2    C2 9921   0.917   2.782  14.965  0.0214  0.1473  0.5882
  667MPD2    C3 9922   0.887   2.681  14.879 -0.2568 -0.2461  0.2867
  667MPD2    C4 9923   0.962   2.652  14.771 -0.4199 -0.7308  0.2898
  667MPD2    C5 9924   1.086   2.709  14.756 -0.1015 -0.2257  0.2898
  667MPD2     H 9925   0.852   2.820  15.044  1.9839  0.6855  1.9453
  667MPD2    H1 9926   0.939   2.582  14.690 -0.9192 -0.6571  0.3710
  667MPD2    H2 9927   1.209   2.869  14.819 -1.5339  2.5979 -0.5190
  667MPD2    H3 9928   1.139   2.684  14.665 -1.8140 -0.7427 -0.5731
  667MPD2     N 9929   0.766   2.609  14.885 -0.4287 -0.2262 -0.6963
  667MPD2    H5 9930   0.740   2.551  14.806  0.8949  0.8919 -1.9495
  667MPD2    N1 9931   1.055   2.965  15.029 -0.1440  0.1685 -0.9841
  667MPD2    H7 9932   0.986   2.982  15.101  0.6594 -0.3576 -0.0957
  668TMC3    C1 9933   1.154   3.162  15.114 -0.0191  0.2244 -0.3863
  668TMC3    C2 9934   1.213   3.290  15.088 -0.1338 -0.0307 -0.3387
  668TMC3    C3 9935   1.242   3.364  15.197 -0.4132 -0.0912 -0.5598
  668TMC3    C4 9936   1.124   3.128  15.244  0.3775 -0.9209  0.0180
  668TMC3    C5 9937   1.138   3.219  15.351 -1.2344 -0.2283 -0.0886
  668TMC3    C6 9938   1.205   3.335  15.322 -0.3332 -0.1116 -0.6772
  668TMC3     C 9939   1.145   3.064  15.002  0.0087 -0.6403 -0.4276
  668TMC3     O 9940   1.221   3.083  14.904  0.3694 -0.9124 -0.4027
  668TMC3     H 9941   1.244   3.318  14.988 -0.2280 -2.9318 -1.1705
  668TMC3    H1 9942   1.092   3.026  15.260  2.5967 -1.4009  1.4778
  668TMC3    H2 9943   1.207   3.414  15.396  1.2128  0.0315 -0.8811
  668TMC3    C7 9944   1.131   3.167  15.482  0.4867 -0.0721 -0.1943
  668TMC3    C8 9945   1.330   3.487  15.190 -0.3777  0.4065  0.8019
  668TMC3    O1 9946   1.209   3.218  15.563 -0.1801  0.1837 -0.0772
  668TMC3    O2 9947   1.338   3.552  15.291 -0.3468  0.0440 -0.9301
  669TMC3    C1 9948   3.814   2.968  15.000  0.6405 -0.0404  0.2333
  669TMC3    C2 9949   3.737   2.983  14.888  0.1624 -0.0713  0.2968
  669TMC3    C3 9950   3.789   3.039  14.776  0.2070  0.9587 -0.4905
  669TMC3    C4 9951   3.944   3.013  15.005 -0.6635  0.4361  0.5638
  669TMC3    C5 9952   3.982   3.066  14.884 -0.1229 -0.5034  0.4782
  669TMC3    C6 9953   3.914   3.087  14.773  0.5446  0.7258 -0.2709
  669TMC3     C 9954   3.746   2.912  15.115 -0.1507  0.3174  0.6212
  669TMC3     O 9955   3.625   2.894  15.110  0.1769  0.5915 -0.0816
  669TMC3     H 9956   3.635   2.947  14.894  0.1818 -0.2880 -0.7532
  669TMC3    H1 9957   4.006   3.034  15.091  0.0631 -0.5192  0.2769
  669TMC3    H2 9958   3.957   3.138  14.688  1.8845 -1.6825 -1.0471
  669TMC3    C7 9959   4.123   3.083  14.859 -0.0137 -0.6660 -0.0473
  669TMC3    C8 9960   3.718   3.017  14.651 -0.0956  0.3024  0.5145
  669TMC3    O1 9961   4.147   3.162  14.769  0.5051 -0.2436  0.2451
  669TMC3    O2 9962   3.638   2.923  14.648 -0.1326 -0.4846  0.1831
  670MPD2     C 9963   2.064   1.289  13.867  0.2103  0.7352  0.1882
  670MPD2    C1 9964   2.185   1.254  13.934  0.5372 -0.2747 -0.0369
  670MPD2    C2 9965   2.198   1.146  14.016  0.1098 -0.4044  0.8738
  670MPD2    C3 9966   2.090   1.059  14.026 -0.2450 -0.6066 -0.6083
  670MPD2    C4 9967   1.975   1.084  13.960 -0.3840 -0.0648 -0.3336
  670MPD2    C5 9968   1.959   1.195  13.880 -0.5544  0.1345  0.4429
  670MPD2     H 9969   2.291   1.117  14.064  0.6960 -0.8336 -0.4933
  670MPD2    H1 9970   1.893   1.014  13.971 -0.8694  0.4560 -0.6695
  670MPD2    H2 9971   2.050   1.379  13.808  2.3270 -1.1814 -3.2187
  670MPD2    H3 9972   1.858   1.220  13.851 -0.1896  0.4462 -0.5502
  670MPD2     N 9973   2.112   0.945  14.104  0.4258 -0.0528 -0.1843
  670MPD2    H5 9974   2.198   0.941  14.159 -0.3128 -2.5904  0.7608
  670MPD2    N1 9975   2.294   1.349  13.947 -0.0711 -0.3860 -0.8951
  670MPD2    H7 9976   2.371   1.318  14.006 -0.7248  0.0574  0.1898
  671TMC3    C1 9977   2.059   0.726  14.199  0.8737 -0.0735  0.1876
  671TMC3    C2 9978   2.176   0.719  14.262 -0.0180  0.1009 -0.0286
  671TMC3    C3 9979   2.208   0.594  14.305 -0.5003  0.8222  0.5626
  671TMC3    C4 9980   1.983   0.617  14.184 -0.3575 -0.3499 -0.3326
  671TMC3    C5 9981   2.010   0.496  14.239 -0.2467 -0.0166 -0.2351
  671TMC3    C6 9982   2.129   0.486  14.301 -0.0514  0.4951 -0.4326
  671TMC3     C 9983   2.023   0.843  14.122 -0.6754 -0.4447 -0.2866
  671TMC3     O 9984   1.925   0.825  14.053  0.4691  0.0642  0.4665
  671TMC3     H 9985   2.238   0.802  14.292 -1.9507  1.9593 -1.2039
  671TMC3    H1 9986   1.892   0.620  14.125 -0.5954 -1.0138  0.0037
  671TMC3    H2 9987   2.146   0.402  14.368 -1.0936  1.0277  0.4897
  671TMC3    C7 9988   1.922   0.386  14.202 -0.1904 -0.1309  0.6337
  671TMC3    C8 9989   2.338   0.569  14.345  0.0947 -0.2316  0.1938
  671TMC3    O1 9990   1.895   0.374  14.082  0.1798  0.0106  0.0777
  671TMC3    O2 9991   2.401   0.667  14.389 -0.0149 -0.1376 -0.0526
  672MPD2     C 9992   1.840   1.367   0.790 -0.6664 -0.6251 -0.2543
  672MPD2    C1 9993   1.963   1.307   0.818 -0.0266  0.1906 -0.2387
  672MPD2    C2 9994   2.066   1.384   0.876 -0.0922  0.1459  0.5112
  672MPD2    C3 9995   2.042   1.517   0.902 -0.4006  0.5598 -0.1922
  672MPD2    C4 9996   1.922   1.570   0.875  0.4939  0.1358 -0.0233
  672MPD2    C5 9997   1.821   1.498   0.822  0.5758 -0.2616  0.3786
  672MPD2     H 9998   2.159   1.335   0.900  0.6474  2.4752  2.3993
  672MPD2    H1 9999   1.897   1.674   0.891 -0.3529 -0.0078 -0.4221
  672MPD2    H210000   1.770   1.306   0.736  0.6820 -1.6492 -0.8480
  672MPD2    H310001   1.726   1.550   0.818  0.6205 -0.0866  1.4870
  672MPD2     N10002   2.131   1.599   0.965  0.3193  0.4865 -0.3005
  672MPD2    H510003   2.098   1.686   1.005  0.4332  0.5016 -0.2397
  672MPD2    N110004   1.976   1.164   0.810 -0.7109 -0.3924 -0.0124
  672MPD2    H710005   2.071   1.129   0.810 -1.1079 -1.4567 -1.2544
  673TMC3    C110006   1.900   0.931   0.785  0.5531 -0.3550 -0.4996
  673TMC3    C210007   2.016   0.880   0.742 -0.0846  0.0304  0.9684
  673TMC3    C310008   2.019   0.758   0.679 -0.0395 -0.1009  0.1020
  673TMC3    C410009   1.783   0.857   0.761 -0.1767  0.0299 -0.0201
  673TMC3    C510010   1.791   0.741   0.701  0.5531 -0.2487 -0.3826
  673TMC3    C610011   1.906   0.688   0.662  0.2616  0.0183  0.3826
  673TMC3     C10012   1.870   1.073   0.798 -0.2611  0.7039  0.0448
  673TMC3     O10013   1.753   1.095   0.799  0.0382 -0.0240  0.4029
  673TMC3     H10014   2.103   0.942   0.760  1.0111 -1.5706  1.1886
  673TMC3    H110015   1.697   0.864   0.826  0.1872  0.7315  0.3953
  673TMC3    H210016   1.912   0.594   0.609  0.6065 -0.1426  0.7089
  673TMC3    C710017   1.689   0.731   0.594  0.1160  0.0707  0.5325
  673TMC3    C810018   2.141   0.706   0.633  0.4047 -0.6317 -0.4220
  673TMC3    O110019   1.700   0.637   0.517  0.3234  0.4064  0.4357
  673TMC3    O210020   2.131   0.612   0.553 -0.2173 -0.4814 -0.2125
  674MPD2     C10021   1.857   0.463  17.498 -0.4687  0.3271  0.6070
  674MPD2    C110022   1.804   0.401  17.609  0.6225 -0.2827  0.1893
  674MPD2    C210023   1.677   0.443  17.650 -0.1619  0.3485  0.6678
  674MPD2    C310024   1.614   0.553  17.596 -0.1149  0.5340 -0.2820
  674MPD2    C410025   1.674   0.617  17.491  0.3416  0.1414 -0.3470
  674MPD2    C510026   1.790   0.564  17.437  0.1905  0.2902 -0.2896
  674MPD2     H10027   1.617   0.385  17.719  0.0496  1.4888  1.8163
  674MPD2    H110028   1.627   0.697  17.435  1.9723  0.4717 -1.2594
  674MPD2    H210029   1.954   0.430  17.462 -1.7619 -2.1572 -0.5721
  674MPD2    H310030   1.823   0.618  17.349  2.5349 -0.9985 -0.1980
  674MPD2     N10031   1.497   0.605  17.661 -0.6832 -0.3099 -0.9799
  674MPD2    H510032   1.453   0.555  17.738  3.0883 -3.5204 -0.8901
  674MPD2    N110033   1.885   0.304  17.676 -0.1850  0.4699  0.4026
  674MPD2    H710034   1.972   0.274  17.633  0.4774  1.3383  1.1305
  675TMC3    C110035   1.979   0.232   0.138 -0.1623  0.1321  0.2187
  675TMC3    C210036   1.950   0.211   0.266  0.3699 -1.1663  0.1737
  675TMC3    C310037   2.020   0.260   0.377 -0.1283 -0.3094 -0.4554
  675TMC3    C410038   2.082   0.315   0.104  0.0114 -0.0334  0.3724
  675TMC3    C510039   2.152   0.371   0.206 -0.3526  0.0318 -0.8496
  675TMC3    C610040   2.116   0.350   0.339 -0.7872 -0.0755 -1.2352
  675TMC3     C10041   1.861   0.251   0.055  0.0569  0.5262  0.7152
  675TMC3     O10042   1.757   0.266   0.115  0.5137 -0.3890  0.4041
  675TMC3     H10043   1.858   0.157   0.286 -0.9791  1.0999  0.0712
  675TMC3    H110044   2.112   0.349   0.005  0.0373  0.7427  0.6485
  675TMC3    H210045   2.170   0.413   0.409 -2.4313  0.4043 -0.4092
  675TMC3    C710046   2.220   0.499   0.178  0.0256 -0.4695  0.2158
  675TMC3    C810047   1.973   0.241   0.514  0.8553 -0.7271  0.1635
  675TMC3    O110048   2.288   0.493   0.077  0.1388 -0.8029 -0.1935
  675TMC3    O210049   1.889   0.155   0.527 -0.0516  0.1702  0.2710
  676MPD2     C10050   4.084   4.011  11.222  0.4674  0.4330  0.5166
  676MPD2    C110051   4.178   3.948  11.298 -0.1625 -0.5146 -0.6509
  676MPD2    C210052   4.227   3.825  11.259  0.4184  0.2762  0.7583
  676MPD2    C310053   4.180   3.772  11.143 -0.3733  0.3598  0.1678
  676MPD2    C410054   4.087   3.834  11.064  0.4436 -0.3158  0.1376
  676MPD2    C510055   4.037   3.957  11.108  0.0259 -0.2543 -0.8266
  676MPD2     H10056   4.309   3.782  11.316 -1.1243 -2.9447  0.4746
  676MPD2    H110057   4.051   3.785  10.974  0.8431  0.4015 -0.4122
  676MPD2    H210058   4.039   4.103  11.257 -0.8871  0.2726 -0.8202
  676MPD2    H310059   3.966   4.022  11.058 -0.7377 -0.6154 -0.2064
  676MPD2     N10060   4.228   3.652  11.094 -0.2305  0.1594 -0.1658
  676MPD2    H510061   4.178   3.600  11.022  0.2783 -0.3461 -0.1508
  676MPD2    N110062   4.217   3.990  11.422 -0.2084  0.3032 -0.1572
  676MPD2    H710063   4.269   3.925  11.480  0.2679  1.0840  0.2842
  677TMC3    C110064   4.236   4.109  11.629 -0.1719  0.0253 -0.1039
  677TMC3    C210065   4.287   3.991  11.678 -0.3629 -0.1605 -0.7221
  677TMC3    C310066   4.366   4.002  11.791 -0.0170  0.0211 -0.6970
  677TMC3    C410067   4.303   4.228  11.655 -0.3403 -0.4534 -0.0166
  677TMC3    C510068   4.410   4.234  11.743 -0.5504  0.1530 -0.1542
  677TMC3    C610069   4.434   4.122  11.817  0.3177  0.2297  0.0447
  677TMC3     C10070   4.170   4.096  11.506 -0.2614  0.8766  0.0715
  677TMC3     O10071   4.103   4.195  11.471  0.2358 -0.3519  0.0460
  677TMC3     H10072   4.254   3.893  11.646  0.9220 -0.8758  0.1300
  677TMC3    H110073   4.288   4.308  11.583  1.5833  0.1390  0.2475
  677TMC3    H210074   4.513   4.117  11.891  0.9742 -0.0369 -0.6714
  677TMC3    C710075   4.520   4.298  11.680  0.3638 -0.1133  0.1841
  677TMC3    C810076   4.457   3.893  11.799 -0.2452  0.1036 -0.1253
  677TMC3    O110077   4.515   4.292  11.558 -0.5079  0.2282  0.2482
  677TMC3    O210078   4.485   3.850  11.687  0.3444 -0.3386  0.5508
  678MPD2     C10079   0.929   4.147   1.424  0.2406  0.8284  0.7649
  678MPD2    C110080   0.936   4.041   1.339  0.1933  0.9974  0.0762
  678MPD2    C210081   0.817   4.004   1.275 -0.5095  0.0177  0.6977
  678MPD2    C310082   0.702   4.085   1.275 -0.2142 -0.1402 -0.0978
  678MPD2    C410083   0.707   4.196   1.358 -0.9328  0.3804 -0.2590
  678MPD2    C510084   0.814   4.224   1.437  0.4280 -0.3040  0.7422
  678MPD2     H10085   0.820   3.912   1.219 -3.7976  0.3817 -0.1182
  678MPD2    H110086   0.622   4.264   1.366 -1.9974 -0.9280 -0.5065
  678MPD2    H210087   1.019   4.178   1.476  0.7587 -1.0819  1.0144
  678MPD2    H310088   0.821   4.312   1.500  0.4832  1.5708 -1.9147
  678MPD2     N10089   0.586   4.042   1.206 -0.3626  0.2423  0.2811
  678MPD2    H510090   0.596   3.955   1.154 -1.2407 -0.2610  0.9369
  678MPD2    N110091   1.047   3.962   1.313  0.4063  0.5375 -0.9405
  678MPD2    H710092   1.039   3.888   1.245  2.2936  1.1445 -1.8051
  679TMC3    C110093   1.507   3.888   1.300 -0.4970 -0.1768 -0.0373
  679TMC3    C210094   1.396   3.903   1.379  0.5542  0.2078 -0.0654
  679TMC3    C310095   1.284   3.904   1.308  0.4691  0.2845 -0.6299
  679TMC3    C410096   1.502   3.872   1.167  0.4314 -0.4073  0.9543
  679TMC3    C510097   1.377   3.874   1.103  0.3525 -0.5584  0.3003
  679TMC3    C610098   1.266   3.886   1.173 -0.1167  0.1110  0.0031
  679TMC3     C10099   1.631   3.834   1.365 -0.7341 -0.2270  1.0086
  679TMC3     O10100   1.703   3.765   1.297 -0.3365 -0.2338  0.0852
  679TMC3     H10101   1.394   3.901   1.487  0.0634  2.0871 -0.0448
  679TMC3    H110102   1.596   3.882   1.115 -1.5162  0.9049 -2.3361
  679TMC3    H210103   1.179   3.899   1.110  0.0968 -0.8626 -0.4935
  679TMC3    C710104   1.382   3.859   0.959 -0.1483 -0.7082 -0.2794
  679TMC3    C810105   1.172   3.959   1.380  0.3045 -0.3580  0.1898
  679TMC3    O110106   1.285   3.909   0.901  0.5121 -0.0253  0.1818
  679TMC3    O210107   1.197   4.009   1.490 -0.2602 -0.3100  0.5639
  680MPD2     C10108   1.637   2.722  13.473  0.8132  0.2304 -0.4914
  680MPD2    C110109   1.741   2.668  13.545  0.3022 -0.2807  0.3150
  680MPD2    C210110   1.823   2.751  13.608 -0.2920  0.1046  0.0361
  680MPD2    C310111   1.827   2.891  13.599 -0.4256  0.0780 -0.3049
  680MPD2    C410112   1.719   2.946  13.527 -0.2467 -0.8417 -0.3160
  680MPD2    C510113   1.636   2.859  13.459 -0.4772 -0.2025  0.0742
  680MPD2     H10114   1.905   2.695  13.652  0.2166  1.4405  0.8137
  680MPD2    H110115   1.716   3.052  13.503 -1.9061 -1.3346 -2.3013
  680MPD2    H210116   1.571   2.669  13.406 -0.0174  0.6189  0.0246
  680MPD2    H310117   1.571   2.889  13.378  0.8245 -0.0960 -0.9299
  680MPD2     N10118   1.929   2.972  13.653 -0.3923 -0.3208  0.1683
  680MPD2    H510119   1.923   3.072  13.636  0.6509 -0.3043 -0.0860
  680MPD2    N110120   1.762   2.531  13.550 -0.2898 -0.1775  1.1076
  680MPD2    H710121   1.848   2.497  13.592  1.4796  1.1828 -1.4554
  681TMC3    C110122   1.726   2.303  13.545 -0.6659 -0.0416 -0.6616
  681TMC3    C210123   1.652   2.216  13.613  0.0557 -0.0568 -0.9831
  681TMC3    C310124   1.713   2.114  13.682  0.6242 -0.0876 -0.2835
  681TMC3    C410125   1.857   2.293  13.530  0.2202 -0.1311  0.4729
  681TMC3    C510126   1.910   2.174  13.572 -0.7428 -0.7006 -0.1281
  681TMC3    C610127   1.837   2.079  13.638  0.7826 -0.0579 -0.1295
  681TMC3     C10128   1.667   2.434  13.529 -0.0087  0.1060  0.1865
  681TMC3     O10129   1.543   2.439  13.512  0.1942 -0.2120 -0.4168
  681TMC3     H10130   1.547   2.236  13.629  0.7070  2.9040 -0.4659
  681TMC3    H110131   1.906   2.358  13.458 -1.2321 -0.7948 -1.0939
  681TMC3    H210132   1.892   1.996  13.679  1.1911 -0.0636 -0.6919
  681TMC3    C710133   2.050   2.175  13.593  0.0796  0.1537 -0.4945
  681TMC3    C810134   1.711   2.155  13.819 -0.4190 -0.7013  0.3486
  681TMC3    O110135   2.091   2.096  13.684  0.3189  0.1683 -0.3224
  681TMC3    O210136   1.815   2.176  13.871 -0.3557 -0.4065  0.4986
  682MPD2     C10137   3.335   3.758  10.730 -0.3180  0.1798 -0.4498
  682MPD2    C110138   3.348   3.616  10.726 -0.1053  0.0585  0.8762
  682MPD2    C210139   3.370   3.550  10.849  0.0324 -0.1470 -0.0192
  682MPD2    C310140   3.391   3.622  10.965 -0.1926  0.3553  0.4517
  682MPD2    C410141   3.387   3.761  10.958 -0.8155 -0.2926  0.6029
  682MPD2    C510142   3.361   3.828  10.842 -0.8360  0.6150  0.5585
  682MPD2     H10143   3.374   3.442  10.841 -0.6202 -0.1167 -0.7261
  682MPD2    H110144   3.397   3.813  11.052  3.8129  1.7234 -0.9946
  682MPD2    H210145   3.303   3.812  10.642  0.4470  0.1478 -0.7526
  682MPD2    H310146   3.366   3.937  10.842 -2.8099  0.6845 -1.4754
  682MPD2     N10147   3.421   3.560  11.087  0.2442  0.0956 -0.0870
  682MPD2    H510148   3.448   3.625  11.161 -0.5708  1.9024 -1.3815
  682MPD2    N110149   3.320   3.536  10.612 -0.8851  0.6003  0.3604
  682MPD2    H710150   3.319   3.435  10.622  0.8273  0.4412 -1.0630
  683TMC3    C110151   3.609   3.479  11.421 -0.1596  0.3859  0.3408
  683TMC3    C210152   3.664   3.352  11.439 -0.5883 -0.7567  0.5033
  683TMC3    C310153   3.605   3.252  11.363  0.0119 -0.0676  0.0067
  683TMC3    C410154   3.516   3.507  11.323 -0.5462  0.2153 -0.2510
  683TMC3    C510155   3.463   3.396  11.251 -0.3750  1.1293  0.1496
  683TMC3    C610156   3.508   3.264  11.269 -0.2019  0.1295 -0.0396
  683TMC3     C10157   3.620   3.566  11.533  0.0400  0.3714  0.7179
  683TMC3     O10158   3.537   3.655  11.540  0.5176  0.1796 -0.0332
  683TMC3     H10159   3.747   3.331  11.507 -0.1920 -5.0757 -1.3116
  683TMC3    H110160   3.469   3.604  11.315  3.3511  2.1289  0.2975
  683TMC3    H210161   3.459   3.182  11.218 -3.1098  2.0797 -0.3626
  683TMC3    C710162   3.417   3.423  11.120  0.1271  0.1848 -0.0773
  683TMC3    C810163   3.657   3.119  11.376  0.5919  0.3310  0.4431
  683TMC3    O110164   3.401   3.325  11.048 -0.1797  0.2982 -0.4509
  683TMC3    O210165   3.733   3.109  11.470 -0.0180 -0.0788  0.7042
  684MPD2     C10166   1.968   3.458  16.391 -0.0537  0.0659  0.2069
  684MPD2    C110167   1.983   3.510  16.267 -0.3230  0.1027  0.9000
  684MPD2    C210168   1.896   3.604  16.218 -0.5146  1.2730  0.1724
  684MPD2    C310169   1.791   3.650  16.306 -0.0278 -0.1370 -0.0796
  684MPD2    C410170   1.776   3.590  16.432  0.2489  0.3484 -0.2502
  684MPD2    C510171   1.865   3.493  16.475  0.4043 -0.3100 -0.5428
  684MPD2     H10172   1.909   3.651  16.121  0.4122 -0.1902 -0.4160
  684MPD2    H110173   1.706   3.628  16.505 -0.8380  0.8210 -1.5436
  684MPD2    H210174   2.029   3.371  16.415 -1.9905 -1.1551  0.7280
  684MPD2    H310175   1.856   3.442  16.570 -0.4757 -0.1145 -0.5185
  684MPD2     N10176   1.715   3.762  16.283 -0.5028 -0.0882  0.1377
  684MPD2    H510177   1.654   3.803  16.353 -1.0380  0.7625 -0.8115
  684MPD2    N110178   2.093   3.491  16.188  0.4502  0.3356  0.1067
  684MPD2    H710179   2.104   3.547  16.105 -1.3836  1.4408  0.6070
  685TMC3    C110180   2.310   3.446  16.119  0.1001 -0.1658 -0.6739
  685TMC3    C210181   2.275   3.451  15.983 -0.3621 -0.1168 -0.8366
  685TMC3    C310182   2.376   3.495  15.899 -0.1439  0.2296 -0.2166
  685TMC3    C410183   2.431   3.483  16.164  0.5829 -0.1392  0.3848
  685TMC3    C510184   2.520   3.549  16.076  1.1211 -0.1963  0.6950
  685TMC3    C610185   2.493   3.547  15.944 -0.3427 -0.1818  0.6091
  685TMC3     C10186   2.211   3.439  16.228 -0.4992 -0.6011  0.3937
  685TMC3     O10187   2.247   3.385  16.332 -0.0911 -0.7531 -0.0312
  685TMC3     H10188   2.191   3.388  15.957 -0.1968 -1.1435  1.1367
  685TMC3    H110189   2.435   3.484  16.272 -0.4500 -0.4822  0.4216
  685TMC3    H210190   2.559   3.608  15.883 -4.0097  1.1659 -1.9785
  685TMC3    C710191   2.656   3.590  16.113 -0.4349  0.6913 -0.2883
  685TMC3    C810192   2.344   3.518  15.757 -0.1411 -0.8496 -0.4979
  685TMC3    O110193   2.711   3.675  16.046 -0.2796  0.3554 -0.1198
  685TMC3    O210194   2.439   3.504  15.678  0.0546 -0.2518  0.5160
  686MPD2     C10195   3.476   3.470  16.426  0.1856 -0.7471 -0.6807
  686MPD2    C110196   3.414   3.449  16.308 -0.0911  0.0798  0.3467
  686MPD2    C210197   3.484   3.481  16.189  0.3139 -0.1986  0.2409
  686MPD2    C310198   3.619   3.518  16.190  0.3828 -0.0286  0.1336
  686MPD2    C410199   3.676   3.556  16.309  0.2109 -0.2098  0.8012
  686MPD2    C510200   3.606   3.530  16.424  0.2614 -0.9562 -0.6162
  686MPD2     H10201   3.439   3.449  16.095  2.4383  1.5971 -1.3690
  686MPD2    H110202   3.780   3.584  16.316 -0.6113  3.7014 -2.4934
  686MPD2    H210203   3.430   3.444  16.520 -0.9720  2.6254 -0.3257
  686MPD2    H310204   3.657   3.536  16.520  0.1124 -1.0810 -0.5288
  686MPD2     N10205   3.703   3.508  16.079  1.0854 -0.2953  0.3791
  686MPD2    H510206   3.761   3.585  16.048 -0.9525  1.0677 -0.0813
  686MPD2    N110207   3.286   3.386  16.299 -0.2210  0.2383  0.5170
  686MPD2    H710208   3.239   3.378  16.389 -2.1924  0.2802 -0.5102
  687TMC3    C110209   3.618   3.284  16.014  0.4701  0.0051  0.3445
  687TMC3    C210210   3.537   3.213  15.929  0.0042 -0.2436 -0.0846
  687TMC3    C310211   3.481   3.100  15.979  0.4813  0.3362  0.0753
  687TMC3    C410212   3.662   3.229  16.135 -0.1116 -0.4332 -0.2238
  687TMC3    C510213   3.616   3.105  16.172  0.1212 -0.3818 -0.4068
  687TMC3    C610214   3.523   3.038  16.098 -0.9977 -0.3297 -0.3907
  687TMC3     C10215   3.683   3.408  15.977  0.7212  0.0180 -0.0691
  687TMC3     O10216   3.701   3.432  15.863  0.2546  0.0559 -0.3007
  687TMC3     H10217   3.539   3.244  15.825  0.7626  0.8139  0.2468
  687TMC3    H110218   3.731   3.281  16.200 -0.8879 -0.5014  0.6501
  687TMC3    H210219   3.496   2.937  16.125  0.7472 -0.2887  1.5183
  687TMC3    C710220   3.686   3.038  16.286 -0.1295  0.1394  0.1554
  687TMC3    C810221   3.359   3.047  15.913  0.5104 -0.2346 -0.2657
  687TMC3    O110222   3.779   3.099  16.332  0.2133  0.5926  0.3218
  687TMC3    O210223   3.334   2.929  15.926  0.0847 -0.0087  1.3765
  688MPD2     C10224   2.075   2.011  17.302 -0.4789  0.2773 -0.3284
  688MPD2    C110225   2.131   1.911  17.376  0.0516  0.3015 -0.2039
  688MPD2    C210226   2.243   1.847  17.339  0.7586  0.3289  0.2201
  688MPD2    C310227   2.305   1.890  17.223  0.6145 -0.4978  0.4430
  688MPD2    C410228   2.248   1.987  17.147  0.0713 -0.0370 -0.0818
  688MPD2    C510229   2.133   2.052  17.185  0.1625 -0.8007  0.0279
  688MPD2     H10230   2.283   1.771  17.405 -0.1248  0.2205  0.6178
  688MPD2    H110231   2.296   2.021  17.056  1.3868  1.5437  1.1985
  688MPD2    H210232   1.980   2.058  17.326 -1.5986 -1.7005 -0.9051
  688MPD2    H310233   2.089   2.133  17.128  0.1804 -0.2503  0.7923
  688MPD2     N10234   2.429   1.832  17.176  0.2423 -0.1265 -0.4315
  688MPD2    H510235   2.470   1.881  17.097 -0.1951  0.3506 -0.3610
  688MPD2    N110236   2.072   1.871  17.495 -0.2945 -0.3429 -0.6929
  688MPD2    H710237   2.107   1.786  17.540  0.0764  0.2449  0.1204
  689TMC3    C110238   1.915   1.850  17.668  0.8611  0.3516 -0.2091
  689TMC3    C210239   1.872   1.918   0.036 -0.2216  0.1984  0.3885
  689TMC3    C310240   1.829   1.848   0.144  0.3734  0.1906 -0.5906
  689TMC3    C410241   1.926   1.717  17.673  0.1664 -0.4267  0.0870
  689TMC3    C510242   1.866   1.651   0.025 -0.2579 -0.2258  0.3489
  689TMC3    C610243   1.826   1.711   0.140 -1.0064  0.2028 -0.2812
  689TMC3     C10244   1.968   1.929  17.563  0.4125  0.1217  0.6677
  689TMC3     O10245   1.931   2.044  17.559  0.3585  0.0801  1.0760
  689TMC3     H10246   1.853   2.024   0.029 -1.5508 -0.1076 -0.7137
  689TMC3    H110247   1.955   1.665  17.582  1.9881 -2.7543  1.9885
  689TMC3    H210248   1.788   1.654   0.223  0.8120 -1.2574 -0.4612
  689TMC3    C710249   1.830   1.509   0.023 -0.4356  0.9727 -0.0361
  689TMC3    C810250   1.774   1.916   0.261  0.4356 -0.4157 -0.2478
  689TMC3    O110251   1.809   1.452   0.128  0.2036  0.3938  0.0660
  689TMC3    O210252   1.791   1.850   0.366  0.1434 -0.0539  0.4835
  690MPD2     C10253   0.733   4.050  15.835 -0.5241 -0.3169 -0.3718
  690MPD2    C110254   0.659   4.016  15.723 -0.1147  0.1397  0.5185
  690MPD2    C210255   0.713   4.038  15.596  0.3811 -0.7356 -0.2797
  690MPD2    C310256   0.845   4.081  15.581  0.2528  0.6083  0.0253
  690MPD2    C410257   0.925   4.112  15.693 -0.2579  0.2170 -0.3656
  690MPD2    C510258   0.863   4.099  15.818 -0.1839 -0.0909  0.5844
  690MPD2     H10259   0.657   4.017  15.505  0.4918 -1.1933 -0.2432
  690MPD2    H110260   1.027   4.148  15.689 -0.3267  0.3165 -1.2031
  690MPD2    H210261   0.701   4.043  15.938 -0.8508 -0.7863 -0.5079
  690MPD2    H310262   0.919   4.128  15.906  0.6557  1.3796 -0.4562
  690MPD2     N10263   0.878   4.103  15.445 -1.2779 -0.4525 -0.1434
  690MPD2    H510264   0.818   4.058  15.376  0.6576 -2.5194 -0.4885
  690MPD2    N110265   0.524   3.963  15.726 -0.3432 -0.0623 -0.6012
  690MPD2    H710266   0.486   3.942  15.634 -1.1010  1.0980 -0.5408
  691TMC3    C110267   0.324   3.886  15.799  0.5515 -0.0829 -0.0472
  691TMC3    C210268   0.261   3.964  15.701 -0.5582  0.0870 -0.2077
  691TMC3    C310269   0.123   3.950  15.692  0.7851  0.3263  0.4621
  691TMC3    C410270   0.252   3.821  15.902 -0.8060 -0.5203 -0.2563
  691TMC3    C510271   0.117   3.808  15.882  0.3039  0.2345  0.2540
  691TMC3    C610272   0.050   3.870  15.776  0.6351 -0.1421 -0.2526
  691TMC3     C10273   0.448   3.944  15.838  0.1246 -0.5537 -0.2959
  691TMC3     O10274   0.470   3.974  15.959 -0.5352  0.2844 -0.5141
  691TMC3     H10275   0.322   4.039  15.652  1.9268 -1.6417  0.2055
  691TMC3    H110276   0.294   3.765  15.984  1.3274 -0.3969 -1.2587
  691TMC3    H210277   4.678   3.863  15.776  0.5214  1.3892  1.9201
  691TMC3    C710278   0.047   3.752  15.997 -0.2441 -0.0911 -0.4885
  691TMC3    C810279   0.040   4.040  15.616 -0.6066  0.0239 -0.1220
  691TMC3    O110280   0.103   3.763  16.103  0.2371 -0.4248  0.2791
  691TMC3    O210281   4.663   4.052  15.655  0.0451 -0.0948 -0.5909
  692TMC3    C110282   1.377   0.226  15.564  0.5655  0.1755 -0.2512
  692TMC3    C210283   1.421   0.330  15.483 -0.2656  0.1197 -0.2897
  692TMC3    C310284   1.556   0.339  15.458 -0.4278  0.2776  0.2857
  692TMC3    C410285   1.458   0.117  15.594 -0.0706 -0.4260  0.3100
  692TMC3    C510286   1.584   0.111  15.550  0.0026 -0.5777  0.0900
  692TMC3    C610287   1.629   0.220  15.473  0.4307  0.4483 -0.5776
  692TMC3     C10288   1.255   0.240  15.639  0.1987 -0.5414 -0.3247
  692TMC3     O10289   1.250   0.178  15.746 -0.3414 -1.1730 -0.5089
  692TMC3     H10290   1.362   0.421  15.485 -2.0348 -1.0210 -0.4078
  692TMC3    H110291   1.429   0.036  15.659 -1.6738  0.4253  0.6486
  692TMC3    H210292   1.731   0.211  15.436  1.4664  0.2051  2.3560
  692TMC3    C710293   1.650   4.721  15.529  0.2196 -0.0970 -0.0952
  692TMC3    C810294   1.620   0.459  15.515 -0.0991  0.0051  0.1724
  692TMC3    O110295   1.715   4.715  15.424 -0.0810 -0.1263  0.2388
  692TMC3    O210296   1.544   0.554  15.529 -0.3932  0.1457 -0.1302
  693MPD2     C10297   1.098   3.207  10.891  0.2443  0.2602 -0.0755
  693MPD2    C110298   1.025   3.093  10.861 -0.8582  0.1444  0.4196
  693MPD2    C210299   1.091   2.973  10.867  0.1810 -0.6327 -0.1427
  693MPD2    C310300   1.224   2.965  10.898  0.4073  0.3293 -0.3308
  693MPD2    C410301   1.299   3.081  10.922 -0.1640  0.2042  0.3698
  693MPD2    C510302   1.232   3.204  10.917  0.7349  0.2992 -0.2150
  693MPD2     H10303   1.037   2.879  10.858  0.5009 -0.7589 -0.7520
  693MPD2    H110304   1.403   3.078  10.951  0.0908  2.6300 -0.3022
  693MPD2    H210305   1.049   3.303  10.909  1.4641  0.8091  0.3095
  693MPD2    H310306   1.294   3.292  10.930  2.6149 -1.0643  0.0985
  693MPD2     N10307   1.283   2.836  10.915  0.4958 -0.5447 -0.2080
  693MPD2    H510308   1.370   2.831  10.968  0.4015 -0.1858 -0.0220
  693MPD2    N110309   0.887   3.119  10.832  0.7348 -0.8523  0.9550
  693MPD2    H710310   0.851   3.213  10.827  2.5486 -0.0888  2.2404
  694TMC3    C110311   0.662   3.060  10.793 -0.0465  0.3072  0.3362
  694TMC3    C210312   0.580   2.960  10.730 -0.5092 -0.4038 -0.7541
  694TMC3    C310313   0.474   2.904  10.802 -0.5697  0.0870  0.3887
  694TMC3    C410314   0.627   3.105  10.918 -0.4670  0.3622 -0.2727
  694TMC3    C510315   0.520   3.048  10.980  0.2585 -0.1689 -0.5237
  694TMC3    C610316   0.443   2.947  10.931 -0.3216 -0.2166  0.0317
  694TMC3     C10317   0.800   3.014  10.802 -0.8473 -0.5781 -0.0919
  694TMC3     O10318   0.824   2.898  10.780  0.0739  0.1446 -0.1064
  694TMC3     H10319   0.615   2.931  10.632  0.7221  0.6689 -0.6372
  694TMC3    H110320   0.674   3.185  10.974 -1.4872 -0.1971  1.3610
  694TMC3    H210321   0.371   2.896  10.994 -0.8076 -2.3019 -2.2218
  694TMC3    C710322   0.509   3.073  11.118 -1.2185  0.0234  0.1970
  694TMC3    C810323   0.392   2.795  10.755 -0.7459 -0.3160 -0.4675
  694TMC3    O110324   0.540   3.183  11.154  0.3500  0.5052 -0.2063
  694TMC3    O210325   0.349   2.724  10.840 -0.2643 -0.2124  0.2467
  695MPD2     C10326   2.280   4.346  13.635  0.2822  0.3155  0.1593
  695MPD2    C110327   2.291   4.478  13.660  0.8735 -0.2821 -0.2621
  695MPD2    C210328   2.182   4.561  13.664 -0.3842 -0.0937 -0.5292
  695MPD2    C310329   2.057   4.503  13.657 -0.3458 -0.4628 -0.1728
  695MPD2    C410330   2.047   4.370  13.634 -0.1407 -0.2231 -0.5205
  695MPD2    C510331   2.156   4.294  13.609 -0.6809 -0.2378 -0.6990
  695MPD2     H10332   2.201   4.665  13.690  0.9720 -1.0595  2.4334
  695MPD2    H110333   1.954   4.314  13.629 -0.8880  1.1894 -2.2887
  695MPD2    H210334   2.367   4.281  13.641 -0.0556 -0.2145 -0.6063
  695MPD2    H310335   2.148   4.194  13.570  0.5248  0.1691 -2.0002
  695MPD2     N10336   1.940   4.579  13.673 -0.5111  0.8642 -0.4160
  695MPD2    H510337   1.961   4.678  13.685 -2.1804  1.0378  0.9430
  695MPD2    N110338   2.413   4.542  13.689  0.1001 -0.2413 -0.1961
  695MPD2    H710339   2.407   4.635  13.729  1.1923  1.0255 -2.9984
  696TMC3    C110340   1.726   4.646  13.730  0.3940  0.6790 -0.2035
  696TMC3    C210341   1.644   4.627  13.836 -0.2770 -1.0462  0.3459
  696TMC3    C310342   1.551   4.727  13.856 -0.2003  0.4481 -0.2751
  696TMC3    C410343   1.716   0.007  13.635  0.1783 -0.0760  0.0113
  696TMC3    C510344   1.611   0.096  13.659 -0.0582  0.2351  0.8053
  696TMC3    C610345   1.523   0.083  13.759 -0.2487  1.1931  0.2852
  696TMC3     C10346   1.809   4.530  13.701 -0.3214  0.4222  0.5068
  696TMC3     O10347   1.766   4.416  13.695  0.0827 -0.3055  0.0848
  696TMC3     H10348   1.667   4.556  13.914 -2.7681 -1.9124  0.3004
  696TMC3    H110349   1.790   0.007  13.556  0.8335  1.8174  0.6277
  696TMC3    H210350   1.440   0.152  13.764  0.0806  1.6072  0.0705
  696TMC3    C710351   1.633   0.236  13.630  0.0221  0.8652  0.1445
  696TMC3    C810352   1.557   0.051  13.988  0.0889 -0.3411 -0.6949
  696TMC3    O110353   1.693   0.262  13.523 -0.5050  0.1630 -0.4619
  696TMC3    O210354   1.546   0.175  13.979 -0.0122  0.1472  0.0913
  697MPD2     C10355   1.103   2.072  15.767  0.1294 -0.2500 -0.3493
  697MPD2    C110356   1.174   2.012  15.665  0.1291  0.2678  0.4213
  697MPD2    C210357   1.256   2.081  15.585 -0.0490 -0.2196  0.3968
  697MPD2    C310358   1.283   2.217  15.612 -0.2460 -0.6519 -0.2387
  697MPD2    C410359   1.218   2.278  15.718  0.4129 -0.2061  0.1804
  697MPD2    C510360   1.126   2.201  15.790 -0.4190 -0.2922  0.1976
  697MPD2     H10361   1.305   2.029  15.503  1.1500 -1.6075  1.9880
  697MPD2    H110362   1.224   2.385  15.732  4.1677 -0.7407  2.6271
  697MPD2    H210363   1.034   2.012  15.825 -1.6093  1.2965 -0.8080
  697MPD2    H310364   1.069   2.250  15.868 -0.6272 -0.0736 -0.0951
  697MPD2     N10365   1.371   2.277  15.525  1.0221 -0.0261 -0.1647
  697MPD2    H510366   1.419   2.215  15.460  1.2040 -0.3553  0.2767
  697MPD2    N110367   1.148   1.875  15.623  0.0007  1.1065  0.5562
  697MPD2    H710368   1.176   1.843  15.531  1.0735 -2.4815  2.1523
  698TMC3    C110369   1.525   2.427  15.434 -0.7924  0.4088 -0.5012
  698TMC3    C210370   1.605   2.538  15.457 -0.7011  0.7369 -0.3581
  698TMC3    C310371   1.711   2.549  15.378 -0.3254  0.6648 -0.5306
  698TMC3    C410372   1.560   2.332  15.345  0.1303 -0.1041 -0.1140
  698TMC3    C510373   1.663   2.353  15.266  0.1946  0.0337 -0.0686
  698TMC3    C610374   1.744   2.460  15.278 -0.0450 -0.3779  0.0480
  698TMC3     C10375   1.420   2.402  15.540 -0.4851  0.1393 -0.0962
  698TMC3     O10376   1.406   2.489  15.629  0.1029  0.5876  0.1224
  698TMC3     H10377   1.581   2.612  15.533 -0.4483 -0.1774  0.6205
  698TMC3    H110378   1.492   2.254  15.313 -1.3973  0.5889  1.4036
  698TMC3    H210379   1.817   2.474  15.199 -1.4659  0.4331 -1.1194
  698TMC3    C710380   1.660   2.286  15.136  0.5208  0.9974  0.6993
  698TMC3    C810381   1.759   2.684  15.363  0.4844 -0.3811  0.3331
  698TMC3    O110382   1.548   2.265  15.090 -0.2170  0.7938  0.0651
  698TMC3    O210383   1.717   2.772  15.437 -0.0992  0.0141 -0.0309
  699TMC3    C110384   1.771   4.653  13.146 -0.2176  0.0841 -0.1953
  699TMC3    C210385   1.799   4.526  13.186 -0.6943  0.2329 -0.4580
  699TMC3    C310386   1.697   4.460  13.247  0.0585  0.7355  0.4474
  699TMC3    C410387   1.649   4.713  13.151  0.2092 -0.4175  0.2089
  699TMC3    C510388   1.546   4.641  13.199  0.5350 -0.1545  0.9548
  699TMC3    C610389   1.572   4.519  13.254 -1.3581 -0.1078 -0.0235
  699TMC3     C10390   1.882   4.735  13.104  0.4843  0.4419 -0.3147
  699TMC3     O10391   1.992   4.690  13.108 -0.7823 -0.1864  0.0585
  699TMC3     H10392   1.894   4.479  13.162 -0.1742  0.9316  0.2407
  699TMC3    H110393   1.617   0.061  13.090  0.6694  0.6933  1.5065
  699TMC3    H210394   1.494   4.474  13.315 -1.2624 -0.3766 -0.1019
  699TMC3    C710395   1.438   4.701  13.276 -0.2971  0.1378 -0.0578
  699TMC3    C810396   1.706   4.326  13.304 -0.2656 -0.0263 -0.4295
  699TMC3    O110397   1.338   4.634  13.307 -0.9633 -0.6132 -0.1275
  699TMC3    O210398   1.603   4.282  13.355 -0.5118 -0.0327 -0.1008
  700TMC3    C110399   0.390   2.378  17.369 -0.7793 -0.0524  0.1711
  700TMC3    C210400   0.477   2.311  17.286  0.0479  0.2136 -0.4029
  700TMC3    C310401   0.535   2.198  17.338 -0.1231  0.2696  0.3468
  700TMC3    C410402   0.360   2.341  17.495 -0.4784 -0.6876 -0.2870
  700TMC3    C510403   0.429   2.228  17.540  0.0716  0.1857 -0.2776
  700TMC3    C610404   0.512   2.153  17.469  0.1664  0.1962 -0.4965
  700TMC3     C10405   0.360   2.520  17.321 -0.0780  0.1501 -0.6983
  700TMC3     O10406   0.264   2.567  17.383 -0.0446  0.0973 -0.0400
  700TMC3     H10407   0.480   2.333  17.180 -1.5771 -1.8711 -0.8990
  700TMC3    H110408   0.303   2.403  17.562 -2.6057  1.1634 -3.8394
  700TMC3    H210409   0.570   2.076  17.518  1.1024  2.0100  1.2794
  700TMC3    C710410   0.499   2.268  17.662 -1.3419 -0.3323  0.2859
  700TMC3    C810411   0.614   2.114  17.239  0.1511 -0.3237 -0.2972
  700TMC3    O110412   0.622   2.269  17.669  0.1591  0.2509 -0.4195
  700TMC3    O210413   0.653   2.168  17.140 -0.7632 -0.2192  0.7307
  701TMC3    C110414   0.818   1.078  15.225  0.1019 -0.2421  0.5155
  701TMC3    C210415   0.851   1.101  15.090  0.5389 -0.8795  0.5747
  701TMC3    C310416   0.863   1.237  15.065  0.1741 -0.1809  0.0717
  701TMC3    C410417   0.804   1.171  15.324  0.6194 -0.3546 -0.0357
  701TMC3    C510418   0.852   1.294  15.292  0.1915  0.0077  0.4714
  701TMC3    C610419   0.867   1.330  15.162  0.4942  0.3463  0.3121
  701TMC3     C10420   0.804   0.942  15.274  0.3938  0.2421 -0.0469
  701TMC3     O10421   0.746   0.919  15.382  0.6281  0.0729 -0.0218
  701TMC3     H10422   0.878   1.024  15.018 -0.3539 -0.5320 -0.1324
  701TMC3    H110423   0.809   1.143  15.428 -2.4274 -1.3294 -0.1418
  701TMC3    H210424   0.880   1.436  15.143 -3.3972  0.9190  0.7375
  701TMC3    C710425   0.824   1.395  15.399  0.2796  0.0333  0.3053
  701TMC3    C810426   0.878   1.285  14.932  0.0224  0.3709  0.0645
  701TMC3    O110427   0.888   1.497  15.385 -0.1369  0.1097 -0.4715
  701TMC3    O210428   0.942   1.387  14.915 -0.1103  0.1877 -0.4388
  702MPD2     C10429   0.129   3.667  10.748  0.2625 -0.3590 -0.3735
  702MPD2    C110430   0.051   3.571  10.696 -1.0034  0.3091 -0.4067
  702MPD2    C210431   0.089   3.514  10.580 -0.1778 -0.4737  0.1704
  702MPD2    C310432   0.206   3.557  10.516  0.0966  0.2467 -0.4539
  702MPD2    C410433   0.298   3.639  10.578  0.0876  0.0337 -0.0366
  702MPD2    C510434   0.258   3.693  10.699  0.1719 -0.3381  0.3563
  702MPD2     H10435   0.044   3.430  10.529  0.6661 -0.9568  0.2264
  702MPD2    H110436   0.396   3.658  10.535 -0.0709  1.1741  0.0865
  702MPD2    H210437   0.097   3.715  10.840  3.0528  0.1239  0.3447
  702MPD2    H310438   0.317   3.769  10.747 -1.2518  0.8778  0.1926
  702MPD2     N10439   0.247   3.494  10.396 -0.7722 -0.7653  0.3887
  702MPD2    H510440   0.347   3.491  10.379 -1.1883  0.5439 -2.4637
  702MPD2    N110441   4.674   3.529  10.771 -0.3653  0.5228  0.3807
  702MPD2    H710442   4.658   3.579  10.858 -2.0099  2.6652 -1.1570
  703TMC3    C110443   0.047   3.531  10.265  0.1208 -0.0168 -0.3540
  703TMC3    C210444   4.665   3.468  10.265  0.8311  0.0110  0.1709
  703TMC3    C310445   4.548   3.539  10.277  0.0961  0.8178 -0.4948
  703TMC3    C410446   0.052   3.668  10.272 -0.0378 -0.2694 -0.0377
  703TMC3    C510447   4.670   3.737  10.262 -0.6270  0.9694 -1.0084
  703TMC3    C610448   4.552   3.673  10.270 -0.2610 -0.3536  0.7610
  703TMC3     C10449   0.162   3.439  10.297  0.3955  0.3509  0.2268
  703TMC3     O10450   0.193   3.363  10.203  0.8298 -0.2404 -0.1675
  703TMC3     H10451   4.660   3.362  10.242  0.8371  0.0816 -0.1519
  703TMC3    H110452   0.144   3.725  10.269 -0.0686 -0.2134  0.0773
  703TMC3    H210453   4.464   3.734  10.251  0.1799  0.0919  0.1437
  703TMC3    C710454   4.677   3.882  10.286  0.3323 -0.6630  0.0704
  703TMC3    C810455   4.427   3.465  10.311 -0.3364  0.1115 -0.0494
  703TMC3    O110456   0.030   3.929  10.350 -0.1929  0.1511  0.3159
  703TMC3    O210457   4.439   3.345  10.302 -0.1798  0.1229  0.2961
  704TMC3    C110458   2.567   1.692  12.962  0.1356  0.0586  0.0067
  704TMC3    C210459   2.684   1.740  12.912 -0.2965  0.8995 -0.2708
  704TMC3    C310460   2.798   1.691  12.958 -0.2099 -0.5035  0.1532
  704TMC3    C410461   2.555   1.585  13.043 -0.1531  0.5280  0.4348
  704TMC3    C510462   2.676   1.528  13.078 -0.9077 -0.8235  0.1250
  704TMC3    C610463   2.803   1.584  13.041 -0.0704 -1.0886  0.4795
  704TMC3     C10464   2.445   1.722  12.898  0.3893 -0.0333 -0.0273
  704TMC3     O10465   2.336   1.706  12.955  0.4042  0.5594  0.0143
  704TMC3     H10466   2.682   1.830  12.852  0.3343  1.5329  0.6686
  704TMC3    H110467   2.459   1.556  13.084  0.6754 -0.8809  1.3731
  704TMC3    H210468   2.901   1.552  13.076  0.3450 -0.7963 -0.4084
  704TMC3    C710469   2.683   1.386  13.046  0.0394 -0.6294  0.1062
  704TMC3    C810470   2.913   1.711  12.873 -1.0892  0.2799 -0.0099
  704TMC3    O110471   2.787   1.350  12.993  0.1698  0.6111 -0.1889
  704TMC3    O210472   2.882   1.716  12.752  0.7049  0.4098 -0.7054
  705MPD2     C10473   1.693   4.594  16.269 -0.9911  0.9344 -0.5694
  705MPD2    C110474   1.753   4.675  16.363 -0.1308  0.6162 -0.4920
  705MPD2    C210475   1.668   0.017  16.443 -0.2136  0.3059  0.3255
  705MPD2    C310476   1.529   0.015  16.417  0.2586  0.4972 -0.5392
  705MPD2    C410477   1.475   4.663  16.332 -0.1749 -0.4609  0.2484
  705MPD2    C510478   1.558   4.577  16.265 -0.3471  0.8130 -0.3398
  705MPD2     H10479   1.701   0.080  16.524  3.5047 -1.1730 -0.0602
  705MPD2    H110480   1.367   4.667  16.321 -0.2957 -0.5666  1.3847
  705MPD2    H210481   1.752   4.523  16.212  0.6907  1.1141  0.9467
  705MPD2    H310482   1.515   4.517  16.186 -0.6537  0.2320  0.2668
  705MPD2     N10483   1.434   0.096  16.490 -0.1626 -0.4559  0.3467
  705MPD2    H510484   1.335   0.080  16.472 -0.1001  1.3234 -1.5267
  705MPD2    N110485   1.893   4.682  16.378  0.3583 -0.1154 -0.3306
  705MPD2    H710486   1.933   0.010  16.446 -1.3858 -1.6563  2.1442
  706TMC3    C110487   2.349   4.606  16.369 -0.1576  0.2098 -0.6524
  706TMC3    C210488   2.373   4.733  16.423 -0.0863  0.2396  0.4199
  706TMC3    C310489   2.262   0.080  16.431 -0.0044  0.3290 -0.4788
  706TMC3    C410490   2.224   4.564  16.330  0.3304  0.4880 -0.5636
  706TMC3    C510491   2.120   4.654  16.338  0.2785 -0.1281 -0.1530
  706TMC3    C610492   2.142   0.048  16.381  0.4718 -0.3120 -0.4962
  706TMC3     C10493   2.461   4.526  16.356  0.3564 -0.4045  0.5087
  706TMC3     O10494   2.454   4.405  16.378  0.5883 -0.7594 -0.5096
  706TMC3     H10495   2.470   0.017  16.466  0.9081 -1.8630 -0.7980
  706TMC3    H110496   2.220   4.472  16.273  1.8270 -0.0495  0.2129
  706TMC3    H210497   2.063   0.122  16.376  0.1051 -0.6204  0.9021
  706TMC3    C710498   1.993   4.600  16.315 -0.6485  0.0843  0.4486
  706TMC3    C810499   2.296   0.223  16.419  0.2343  0.2337  0.2703
  706TMC3    O110500   1.983   4.510  16.233 -0.2353  0.3876 -0.3198
  706TMC3    O210501   2.401   0.255  16.370  0.0383 -0.6714  1.2441
  707TMC3    C110502   3.508   3.584   0.036 -0.5106  0.4852 -0.1721
  707TMC3    C210503   3.467   3.452   0.034  0.3010  0.6127  0.3613
  707TMC3    C310504   3.358   3.425  17.692 -0.7039 -0.3527 -0.3212
  707TMC3    C410505   3.459   3.683  17.704 -0.7088  0.2872 -0.3565
  707TMC3    C510506   3.361   3.649  17.621  0.6113 -0.3312 -0.3714
  707TMC3    C610507   3.303   3.525  17.611 -0.0832  0.3190  0.0002
  707TMC3     C10508   3.635   3.609   0.108 -0.1191  0.5298 -0.4072
  707TMC3     O10509   3.685   3.518   0.171  0.4662  0.2973 -0.0075
  707TMC3     H10510   3.511   3.380   0.102  0.2005  1.2145  1.0537
  707TMC3    H110511   3.474   3.790  17.715  0.3548 -0.1265  2.2275
  707TMC3    H210512   3.220   3.486  17.553  0.8300 -0.0104 -1.1014
  707TMC3    C710513   3.323   3.755  17.532 -0.1594  0.3670 -0.2037
  707TMC3    C810514   3.292   3.293  17.700 -0.0820  0.3924 -0.9524
  707TMC3    O110515   3.412   3.840  17.504  0.1332  0.0748  0.1412
  707TMC3    O210516   3.234   3.254  17.597 -0.0644 -0.1219 -0.4893
  708MPD2     C10517   0.653   3.253  13.966 -0.9168 -0.1318 -0.4411
  708MPD2    C110518   0.573   3.209  14.073 -0.2521 -0.1184  0.0808
  708MPD2    C210519   0.639   3.134  14.173 -0.7499 -0.0656  0.3751
  708MPD2    C310520   0.779   3.117  14.166 -0.5447 -0.3081 -0.3627
  708MPD2    C410521   0.850   3.168  14.060  0.0517  0.0013 -0.5902
  708MPD2    C510522   0.789   3.242  13.967  0.3678  0.5433 -0.3468
  708MPD2     H10523   0.573   3.101  14.253  0.3995 -2.1767  0.4366
  708MPD2    H110524   0.958   3.174  14.060  0.0077  0.6850  1.3684
  708MPD2    H210525   0.612   3.314  13.887 -1.0055  0.1170 -0.2036
  708MPD2    H310526   0.847   3.299  13.897  1.2914 -0.4137 -0.3555
  708MPD2     N10527   0.855   3.078  14.286 -0.1793 -0.8394 -0.4786
  708MPD2    H510528   0.953   3.105  14.286 -0.2853 -0.4444  0.6360
  708MPD2    N110529   0.437   3.236  14.067  0.3011 -0.1173  0.9016
  708MPD2    H710530   0.408   3.285  13.983  0.1064 -0.9638  0.4700
  709TMC3    C110531   0.216   3.191  14.127  0.4464 -0.9530 -0.1769
  709TMC3    C210532   0.215   3.120  14.010 -0.1750  0.0551 -0.1657
  709TMC3    C310533   0.126   3.011  14.011  0.4079 -0.0477  0.1047
  709TMC3    C410534   0.139   3.161  14.234  0.3997  0.1364  0.0775
  709TMC3    C510535   0.053   3.054  14.235 -0.0619  0.3603 -0.1008
  709TMC3    C610536   0.037   2.984  14.115 -0.5328 -0.6155 -0.5423
  709TMC3     C10537   0.355   3.206  14.171 -0.5253 -0.6308 -0.4203
  709TMC3     O10538   0.372   3.192  14.288 -0.4439  0.0514 -0.4658
  709TMC3     H10539   0.286   3.128  13.929  1.9580  0.3773  1.7510
  709TMC3    H110540   0.136   3.219  14.326  0.7557  1.9281 -1.0428
  709TMC3    H210541   4.705   2.900  14.111  1.0249 -1.7593 -2.7185
  709TMC3    C710542   0.050   2.985  14.362 -0.3610 -0.0323  0.2771
  709TMC3    C810543   0.085   2.962  13.878  0.6251 -0.0016  0.4303
  709TMC3    O110544   4.682   2.947  14.408  0.0467  0.1147 -0.7287
  709TMC3    O210545   4.728   2.884  13.877  0.1849  0.7621  0.2437
  710TMC3    C110546   1.358   4.301   0.195  1.0362 -0.6029  0.6513
  710TMC3    C210547   1.446   4.274   0.091 -0.0335  0.0158 -0.1752
  710TMC3    C310548   1.503   4.152   0.092  0.3502 -0.3942 -0.2509
  710TMC3    C410549   1.345   4.212   0.297  0.0423  0.3454  0.4686
  710TMC3    C510550   1.419   4.097   0.299  1.0271 -0.1154  0.0066
  710TMC3    C610551   1.500   4.064   0.194  0.4122 -0.2426 -0.0059
  710TMC3     C10552   1.284   4.424   0.192  0.4019 -0.0603 -0.1531
  710TMC3     O10553   1.263   4.471   0.084 -0.1678 -0.3429 -0.4661
  710TMC3     H10554   1.470   4.345   0.012  0.1659  0.7119  0.5110
  710TMC3    H110555   1.280   4.235   0.380  0.6069 -0.6544  1.1775
  710TMC3    H210556   1.560   3.974   0.197  0.3799 -0.2716 -0.2088
  710TMC3    C710557   1.414   4.005   0.414 -0.5767  0.4925  0.5549
  710TMC3    C810558   1.602   4.128  17.734 -0.2018  0.1507 -0.4667
  710TMC3    O110559   1.305   4.008   0.472  0.0317  0.0075 -0.1430
  710TMC3    O210560   1.651   4.231  17.686 -0.1351  0.4517 -0.5742
  711TMC3    C110561   1.324   0.629  15.192  0.0010  0.4069 -0.6359
  711TMC3    C210562   1.337   0.754  15.249  0.2848  1.0825  0.1815
  711TMC3    C310563   1.468   0.797  15.264 -0.2245 -0.2393 -0.7433
  711TMC3    C410564   1.425   0.544  15.168 -0.2890 -0.1503  1.0136
  711TMC3    C510565   1.555   0.602  15.166 -0.3682  0.1016  0.2367
  711TMC3    C610566   1.577   0.722  15.223 -0.7086 -0.1614 -0.3883
  711TMC3     C10567   1.219   0.609  15.092 -0.2380  0.2470  0.0259
  711TMC3     O10568   1.217   0.497  15.049 -1.1249  0.0032  0.4487
  711TMC3     H10569   1.257   0.824  15.268  2.9400  4.1262  0.0617
  711TMC3    H110570   1.423   0.451  15.111 -0.8022  0.3792  0.1791
  711TMC3    H210571   1.675   0.766  15.232 -0.8311  0.0225  0.0488
  711TMC3    C710572   1.660   0.508  15.175  0.6555  0.0975 -0.2976
  711TMC3    C810573   1.489   0.905  15.360 -0.0690  0.2667 -0.9629
  711TMC3    O110574   1.745   0.538  15.257 -1.0105 -0.5048  0.7273
  711TMC3    O210575   1.396   0.983  15.366  0.5001  0.1223  0.0356
  712MPD2     C10576   2.398   1.728  14.245  0.0005 -0.0379 -1.3062
  712MPD2    C110577   2.335   1.788  14.138 -0.5579  0.1209  0.0940
  712MPD2    C210578   2.407   1.894  14.079  0.5414  0.3690 -0.5442
  712MPD2    C310579   2.538   1.925  14.117 -0.0243 -0.5792  0.0731
  712MPD2    C410580   2.588   1.865  14.229 -0.1616  0.3727 -0.0916
  712MPD2    C510581   2.518   1.771  14.296 -0.2405  0.5388  0.2847
  712MPD2     H10582   2.370   1.943  13.989  0.6750 -0.2077 -0.9150
  712MPD2    H110583   2.690   1.887  14.259  1.5371 -2.7886 -3.6141
  712MPD2    H210584   2.351   1.639  14.286 -0.9018  1.5294  1.0411
  712MPD2    H310585   2.563   1.725  14.383 -0.5911 -1.4060 -0.5456
  712MPD2     N10586   2.623   2.018  14.058  0.0575 -0.1846  0.0098
  712MPD2    H510587   2.710   2.019  14.109 -1.0706  0.3944  1.9456
  712MPD2    N110588   2.211   1.743  14.086 -0.4561  0.4178 -0.6853
  712MPD2    H710589   2.198   1.774  13.991  0.4361 -2.8412 -1.8735
  713TMC3    C110590   2.695   2.201  13.933  0.3169 -0.3879  0.8280
  713TMC3    C210591   2.810   2.202  14.020 -0.0043  1.1218  0.3639
  713TMC3    C310592   2.890   2.313  14.021 -0.4303  0.7245  0.2937
  713TMC3    C410593   2.665   2.304  13.846  0.3355  0.2038 -0.0412
  713TMC3    C510594   2.756   2.405  13.842  0.0493 -0.2498  0.7431
  713TMC3    C610595   2.862   2.410  13.928 -1.0986  0.2783 -0.4934
  713TMC3     C10596   2.595   2.104  13.952  0.2932 -0.2801  0.1172
  713TMC3     O10597   2.498   2.095  13.873 -0.0956 -0.4764 -0.4268
  713TMC3     H10598   2.845   2.110  14.065  0.3348 -0.1413 -2.4734
  713TMC3    H110599   2.570   2.293  13.795 -1.9914  2.1166  3.8278
  713TMC3    H210600   2.924   2.499  13.923  0.9578 -1.2611 -2.0957
  713TMC3    C710601   2.751   2.524  13.755 -0.3261  0.0338  0.3135
  713TMC3    C810602   3.032   2.299  14.013 -0.2707 -0.1514  0.1140
  713TMC3    O110603   2.860   2.571  13.723 -0.2563 -0.1777  0.6459
  713TMC3    O210604   3.081   2.343  13.908  0.0541  0.2859  0.4206
  714MPD2     C10605   0.436   0.702   1.923 -0.0042 -0.1601  0.2077
  714MPD2    C110606   0.407   0.625   1.810 -0.4433 -0.3082 -0.3946
  714MPD2    C210607   0.275   0.592   1.773  0.3731 -0.2226  0.1936
  714MPD2    C310608   0.178   0.654   1.847  0.7510 -0.3970  0.6616
  714MPD2    C410609   0.207   0.720   1.966  0.6308  0.1329  0.4558
  714MPD2    C510610   0.337   0.745   2.000 -0.7453  0.5668  0.2445
  714MPD2     H10611   0.246   0.529   1.690 -1.9150 -0.3067  1.0433
  714MPD2    H110612   0.125   0.734   2.036  1.6917  0.6098  1.6077
  714MPD2    H210613   0.537   0.723   1.956 -0.2690 -0.9337  1.5283
  714MPD2    H310614   0.360   0.789   2.096 -3.6835  0.3536  1.0366
  714MPD2     N10615   0.045   0.633   1.802 -0.4742 -0.2014  0.1435
  714MPD2    H510616   0.041   0.588   1.711 -1.9334 -2.0268  1.1228
  714MPD2    N110617   0.519   0.580   1.734 -0.2379 -0.3819  0.2694
  714MPD2    H710618   0.602   0.610   1.784 -0.3315 -1.0163  0.8045
  715TMC3    C110619   0.653   0.473   1.564 -0.5025  0.0980 -0.2777
  715TMC3    C210620   0.661   0.353   1.498 -0.0465 -0.2821 -0.0242
  715TMC3    C310621   0.778   0.324   1.431 -0.2726  0.5522 -0.1176
  715TMC3    C410622   0.765   0.555   1.582  0.1209 -1.0031 -0.4124
  715TMC3    C510623   0.885   0.517   1.524 -0.1606 -0.2823  0.6183
  715TMC3    C610624   0.891   0.408   1.435 -0.6672 -0.2136 -0.7184
  715TMC3     C10625   0.517   0.503   1.617 -0.7304  0.2074  0.2305
  715TMC3     O10626   0.427   0.449   1.554  0.1784 -0.1490  0.1761
  715TMC3     H10627   0.573   0.293   1.479  0.8535 -1.6434  0.1199
  715TMC3    H110628   0.740   0.651   1.626  2.8343  0.3388 -1.7866
  715TMC3    H210629   0.980   0.392   1.374 -1.5543 -0.0730 -2.0610
  715TMC3    C710630   1.008   0.572   1.566  0.6039 -0.1267  0.4717
  715TMC3    C810631   0.785   0.206   1.341 -0.3660 -0.4120 -0.7981
  715TMC3    O110632   1.105   0.534   1.501  0.0461  0.4730  0.5379
  715TMC3    O210633   0.678   0.158   1.307  0.2524  0.1587 -0.2311
  716MPD2     C10634   0.289   3.011  10.081  0.5128  0.0133 -0.3554
  716MPD2    C110635   0.168   3.008  10.018  0.5729  0.1305 -0.2443
  716MPD2    C210636   0.126   2.888   9.968  0.4242 -0.4081  0.2560
  716MPD2    C310637   0.200   2.771   9.980  0.2871  0.0436  0.4747
  716MPD2    C410638   0.324   2.786  10.031 -0.5850  1.2286  0.0103
  716MPD2    C510639   0.364   2.903  10.094 -0.1322  0.5376  0.0106
  716MPD2     H10640   0.028   2.884   9.922  0.1928 -0.9878  0.7924
  716MPD2    H110641   0.392   2.702  10.041  0.3790  1.8398 -1.3684
  716MPD2    H210642   0.329   3.107  10.112 -0.9660  0.4520  0.2153
  716MPD2    H310643   0.454   2.905  10.155  1.7035 -0.3335 -2.6598
  716MPD2     N10644   0.157   2.654   9.914  0.5943 -0.4780  0.0897
  716MPD2    H510645   0.077   2.655   9.852  0.2292  1.8141  0.6329
  716MPD2    N110646   0.102   3.132   9.991 -0.0761 -0.2631 -0.0408
  716MPD2    H710647   0.141   3.216  10.033  0.5705  0.4500 -2.0285
  717TMC3    C110648   0.154   2.439   9.821 -0.1176 -0.4624  0.5618
  717TMC3    C210649   0.084   2.489   9.717  0.4558 -0.3629 -0.4275
  717TMC3    C310650   0.037   2.398   9.627 -0.1180  0.3068  0.0511
  717TMC3    C410651   0.184   2.303   9.828 -0.6945  0.3566  0.3580
  717TMC3    C510652   0.134   2.217   9.729  0.2222 -0.1255 -0.4761
  717TMC3    C610653   0.052   2.264   9.629  0.5498 -0.1467  0.0355
  717TMC3     C10654   0.225   2.529   9.912 -0.1067  1.1710 -0.4606
  717TMC3     O10655   0.332   2.497   9.958 -0.0760 -0.0511  0.9825
  717TMC3     H10656   0.064   2.595   9.715  1.8323 -0.0654  1.8796
  717TMC3    H110657   0.250   2.267   9.906 -1.4504 -2.3797 -0.2702
  717TMC3    H210658   0.010   2.202   9.550 -1.1225  2.1176 -0.8449
  717TMC3    C710659   0.145   2.070   9.744 -0.7999  0.7159  0.4153
  717TMC3    C810660   4.682   2.460   9.535 -0.0437  0.3108 -0.1823
  717TMC3    O110661   0.062   2.005   9.683 -0.1248  0.0833  0.1047
  717TMC3    O210662   4.699   2.580   9.515  0.2145 -0.2683 -0.0232
  718MPD2     C10663   4.212   1.720  13.068 -1.1219  0.2859 -0.0566
  718MPD2    C110664   4.156   1.656  12.959 -0.6373 -0.6623  0.2743
  718MPD2    C210665   4.034   1.605  12.963  0.0287 -0.5548 -0.1227
  718MPD2    C310666   3.956   1.603  13.075 -0.5068  0.4593 -0.1082
  718MPD2    C410667   4.006   1.657  13.191 -0.3008  0.2138 -1.0993
  718MPD2    C510668   4.134   1.726  13.185  0.3982 -0.2180 -0.9058
  718MPD2     H10669   3.982   1.556  12.881 -0.0376 -1.0992  0.2399
  718MPD2    H110670   3.954   1.657  13.286  0.3326 -1.6737 -0.7607
  718MPD2    H210671   4.310   1.768  13.069 -1.4549  0.9478  0.7172
  718MPD2    H310672   4.176   1.768  13.275 -0.0993 -3.2687  0.7373
  718MPD2     N10673   3.834   1.540  13.056  0.0716  0.1027 -0.7685
  718MPD2    H510674   3.817   1.503  12.963  0.5947 -4.0174  0.8169
  718MPD2    N110675   4.223   1.642  12.832 -0.3293 -0.0372 -0.2034
  718MPD2    H710676   4.307   1.697  12.825 -1.1823  1.1572 -1.0865
  719TMC3    C110677   4.242   1.618  12.595  0.4147 -0.1673 -0.0107
  719TMC3    C210678   4.207   1.547  12.489 -0.2235  0.3954 -0.2853
  719TMC3    C310679   4.179   1.593  12.366 -0.5851  0.5116  0.1464
  719TMC3    C410680   4.247   1.753  12.579 -0.0621 -0.4196  0.2159
  719TMC3    C510681   4.227   1.803  12.454  0.8282  0.8745  0.1958
  719TMC3    C610682   4.203   1.722  12.350  0.0809 -0.4423 -0.3866
  719TMC3     C10683   4.181   1.572  12.720  0.5124 -0.2234  0.2591
  719TMC3     O10684   4.100   1.483  12.713 -0.1640  0.0527  0.3104
  719TMC3     H10685   4.205   1.440  12.508 -1.0125  0.9937  3.0766
  719TMC3    H110686   4.290   1.820  12.653  0.4091 -1.7202  1.1167
  719TMC3    H210687   4.199   1.762  12.249  0.0127 -1.0898 -0.6433
  719TMC3    C710688   4.269   1.936  12.418  0.5780  0.0964 -0.5832
  719TMC3    C810689   4.044   1.551  12.328  0.7519 -0.2536  0.1256
  719TMC3    O110690   4.322   1.961  12.310  0.6706  0.3903  0.1397
  719TMC3    O210691   4.010   1.550  12.213  0.1851  0.1695  0.1884
  720MPD2     C10692   2.640   3.743  14.160 -0.2628  0.5373  0.2113
  720MPD2    C110693   2.751   3.713  14.080 -0.2227 -0.0049  0.5850
  720MPD2    C210694   2.874   3.683  14.131 -0.2821  0.2918 -0.2989
  720MPD2    C310695   2.891   3.699  14.264  0.0675 -0.0015  0.0410
  720MPD2    C410696   2.777   3.726  14.341  0.1271  0.2828  0.7489
  720MPD2    C510697   2.651   3.743  14.292  0.0560 -0.4892 -0.2041
  720MPD2     H10698   2.953   3.660  14.061  0.8973  1.4460  0.6640
  720MPD2    H110699   2.785   3.755  14.445  2.9088  1.2080  0.2785
  720MPD2    H210700   2.542   3.766  14.120  0.5766 -1.1277 -2.8154
  720MPD2    H310701   2.571   3.779  14.356 -0.5849  0.8707 -1.7648
  720MPD2     N10702   3.019   3.689  14.321 -0.3710 -0.7219 -0.3025
  720MPD2    H510703   3.094   3.694  14.252 -0.5872 -0.7934 -0.5421
  720MPD2    N110704   2.736   3.710  13.932 -0.2323 -0.3362 -0.7573
  720MPD2    H710705   2.812   3.670  13.878 -0.5091 -0.2755 -1.1895
  721TMC3    C110706   3.190   3.734  14.482 -0.2973 -0.2976  0.9629
  721TMC3    C210707   3.222   3.789  14.604  0.0820  0.0463 -0.4339
  721TMC3    C310708   3.354   3.826  14.628 -0.8240  0.0403  0.4157
  721TMC3    C410709   3.294   3.709  14.390  0.3724  0.0378  0.3425
  721TMC3    C510710   3.419   3.754  14.420  0.2113 -0.2648 -0.0297
  721TMC3    C610711   3.456   3.807  14.541  0.2063  0.4991  0.5395
  721TMC3     C10712   3.049   3.707  14.459  0.6077  0.0859 -0.2321
  721TMC3     O10713   2.970   3.725  14.552 -0.3537 -0.2576  0.1471
  721TMC3     H10714   3.153   3.824  14.680  1.0889  2.6594 -0.7460
  721TMC3    H110715   3.280   3.641  14.307  1.2532  0.5640 -0.2367
  721TMC3    H210716   3.553   3.851  14.562 -0.1038  2.6120 -2.5664
  721TMC3    C710717   3.525   3.733  14.323 -0.0007  0.4692  0.3240
  721TMC3    C810718   3.389   3.866  14.762 -0.0683  0.0373  0.7531
  721TMC3    O110719   3.630   3.783  14.361 -0.3264 -0.0477 -0.0794
  721TMC3    O210720   3.490   3.935  14.768 -0.1367  0.6505  0.1080
  722MPD2     C10721   1.868   2.290  13.174  0.0797 -0.0020 -0.4851
  722MPD2    C110722   1.788   2.399  13.177 -0.2515 -0.2791  0.0446
  722MPD2    C210723   1.651   2.384  13.189 -1.1568  0.3805  0.6178
  722MPD2    C310724   1.593   2.262  13.219  0.1597  0.0775  0.6049
  722MPD2    C410725   1.681   2.153  13.215  0.5097  0.2969  0.3004
  722MPD2    C510726   1.812   2.165  13.178  0.2889  0.0333 -0.4819
  722MPD2     H10727   1.599   2.478  13.182 -1.1750  0.3708  0.6220
  722MPD2    H110728   1.654   2.049  13.230  1.1659  0.1308  0.3003
  722MPD2    H210729   1.975   2.299  13.158  0.2442  2.2625  1.8849
  722MPD2    H310730   1.885   2.085  13.176 -0.7473 -0.8792 -1.7535
  722MPD2     N10731   1.453   2.262  13.256 -0.2427  0.1125 -0.4757
  722MPD2    H510732   1.409   2.353  13.251 -2.1458 -0.8556 -1.1478
  722MPD2    N110733   1.840   2.527  13.181  0.4811 -0.3774 -0.1498
  722MPD2    H710734   1.778   2.607  13.169  1.7538  1.2957  4.6249
  723TMC3    C110735   1.252   2.160  13.340 -0.8060  0.3957 -0.5104
  723TMC3    C210736   1.186   2.045  13.376 -0.8209  0.1608  0.0501
  723TMC3    C310737   1.053   2.047  13.378 -0.3869 -0.0115  0.1913
  723TMC3    C410738   1.188   2.281  13.319  0.2835 -0.2188  0.1538
  723TMC3    C510739   1.055   2.272  13.306 -0.4635  0.1536 -0.0794
  723TMC3    C610740   0.986   2.160  13.344  0.2843 -0.5029  0.9995
  723TMC3     C10741   1.395   2.149  13.319 -0.2018  0.2139  0.9063
  723TMC3     O10742   1.448   2.045  13.344  0.2421 -0.1493 -0.3791
  723TMC3     H10743   1.235   1.953  13.408 -0.2672 -0.9114 -3.9637
  723TMC3    H110744   1.243   2.367  13.285 -0.9092 -1.2298 -4.3923
  723TMC3    H210745   0.877   2.159  13.346  0.2319  3.0413 -1.1007
  723TMC3    C710746   0.981   2.394  13.285 -0.8968  0.3909  0.4796
  723TMC3    C810747   0.994   1.913  13.396  0.0622  0.2503  0.0594
  723TMC3    O110748   1.041   2.501  13.271  0.3844  0.5324 -0.2061
  723TMC3    O210749   1.058   1.841  13.465  0.5626 -0.4451 -0.2056
  724TMC3    C110750   1.679   0.465  10.645 -0.5777  0.5433  0.8171
  724TMC3    C210751   1.581   0.495  10.559  0.0197  0.1014  0.6822
  724TMC3    C310752   1.606   0.554  10.435 -0.2616  0.5696 -0.6554
  724TMC3    C410753   1.808   0.479  10.602 -0.1148  0.4128 -0.1131
  724TMC3    C510754   1.841   0.504  10.472 -0.5160  0.7135  0.1998
  724TMC3    C610755   1.740   0.543  10.386  0.5327 -0.1159  0.6077
  724TMC3     C10756   1.643   0.371  10.748 -0.1133 -0.0744  0.6076
  724TMC3     O10757   1.530   0.328  10.749  0.0072 -0.3329  0.6484
  724TMC3     H10758   1.482   0.506  10.602 -0.7080  0.7805 -1.1584
  724TMC3    H110759   1.884   0.437  10.667  1.1763  1.6983 -0.8147
  724TMC3    H210760   1.766   0.581  10.288  0.6406  2.2613  1.5582
  724TMC3    C710761   1.972   0.537  10.433  0.8966 -0.4803 -0.1839
  724TMC3    C810762   1.512   0.645  10.369  0.0900 -0.3938 -0.2480
  724TMC3    O110763   1.993   0.526  10.310 -0.2926  0.3025  0.4209
  724TMC3    O210764   1.396   0.642  10.416  0.6560 -0.1973  0.8790
  725TMC3    C110765   3.134   3.973  12.704  0.4240 -0.5502 -0.1214
  725TMC3    C210766   3.078   4.001  12.581 -0.2280 -0.1237  0.0699
  725TMC3    C310767   3.084   3.902  12.490 -0.1964  0.3695  0.1129
  725TMC3    C410768   3.195   3.850  12.735 -0.5622  0.3645 -0.6628
  725TMC3    C510769   3.201   3.757  12.633  0.3795  0.2467  0.2678
  725TMC3    C610770   3.154   3.787  12.510  0.1921 -0.4399  0.1798
  725TMC3     C10771   3.141   4.084  12.801 -0.0775  0.3568 -0.1654
  725TMC3     O10772   3.097   4.192  12.760 -0.2228  0.1348 -0.4256
  725TMC3     H10773   3.018   4.092  12.576  0.6558  0.4713  0.2719
  725TMC3    H110774   3.250   3.841  12.828 -1.1744  2.0598 -0.1311
  725TMC3    H210775   3.166   3.718  12.428  2.0935  1.2844 -1.0006
  725TMC3    C710776   3.292   3.638  12.637 -0.3481 -0.4090 -0.0620
  725TMC3    C810777   3.063   3.940  12.352 -0.1507 -0.3247  0.2970
  725TMC3    O110778   3.326   3.576  12.532 -0.3542 -0.5263  0.0941
  725TMC3    O210779   3.115   3.868  12.265  0.4106 -0.1604 -0.2007
  726MPD2     C10780   1.312   0.853  11.238  0.7823 -0.1752  0.2583
  726MPD2    C110781   1.203   0.879  11.152 -0.6947  0.5067 -0.1942
  726MPD2    C210782   1.081   0.821  11.184  0.5461 -0.0008  0.4915
  726MPD2    C310783   1.058   0.766  11.310  0.7797  0.7576  0.0567
  726MPD2    C410784   1.159   0.767  11.400 -0.6007  0.4540  0.0043
  726MPD2    C510785   1.283   0.800  11.359  0.2398 -0.2050  0.2232
  726MPD2     H10786   0.996   0.831  11.118  0.9352 -0.3839 -0.0734
  726MPD2    H110787   1.159   0.719  11.498 -0.4150  0.1529 -0.1439
  726MPD2    H210788   1.415   0.876  11.215 -0.0080  2.5091 -0.6198
  726MPD2    H310789   1.360   0.779  11.432 -0.0010 -2.1160 -0.0652
  726MPD2     N10790   0.926   0.715  11.348 -0.6040  0.0733  0.1949
  726MPD2    H510791   0.916   0.702  11.448 -0.5571  0.5785  0.2622
  726MPD2    N110792   1.220   0.937  11.022 -0.0407  0.2549 -0.1386
  726MPD2    H710793   1.130   0.954  10.978  0.1560  0.5272 -0.4388
  727TMC3    C110794   1.302   1.074  10.860 -0.1419  0.5782  0.2191
  727TMC3    C210795   1.386   1.182  10.833 -0.0138 -0.3210  0.5441
  727TMC3    C310796   1.339   1.276  10.735 -0.1411 -0.4385 -0.3287
  727TMC3    C410797   1.187   1.064  10.792 -0.0311 -1.1883  0.1156
  727TMC3    C510798   1.149   1.155  10.699  0.6582  0.0784 -0.8837
  727TMC3    C610799   1.219   1.269  10.671  0.2919  0.4578  0.3670
  727TMC3     C10800   1.330   1.002  10.979  0.3106 -0.2904 -0.2030
  727TMC3     O10801   1.436   1.020  11.042 -0.3220 -0.1239 -1.0067
  727TMC3     H10802   1.477   1.188  10.891 -0.0793 -1.4508  0.7683
  727TMC3    H110803   1.130   0.971  10.797  2.7849 -2.8868  0.5258
  727TMC3    H210804   1.191   1.341  10.595 -3.1201 -1.0550  0.2218
  727TMC3    C710805   1.016   1.125  10.632  0.4609 -0.1343  0.3292
  727TMC3    C810806   1.435   1.379  10.702 -0.2756 -0.1015 -0.2481
  727TMC3    O110807   0.959   1.016  10.649  0.0453 -0.0659 -0.3712
  727TMC3    O210808   1.554   1.357  10.726 -0.2462  0.5228 -0.2128
  728TMC3    C110809   1.020   4.168  15.263 -0.8335 -0.3133  0.7088
  728TMC3    C210810   1.145   4.214  15.234 -0.7627  0.0390  0.5332
  728TMC3    C310811   1.164   4.292  15.122  0.8927 -0.3024 -0.9047
  728TMC3    C410812   0.909   4.201  15.184  1.0258  0.1728  0.3353
  728TMC3    C510813   0.937   4.278  15.069 -0.5358  0.4111  1.4477
  728TMC3    C610814   1.062   4.326  15.037 -0.1487 -0.0168 -0.0148
  728TMC3     C10815   0.999   4.155  15.407 -1.0048  0.7326  0.8498
  728TMC3     O10816   1.087   4.201  15.476 -0.2835 -0.3234 -0.8200
  728TMC3     H10817   1.234   4.199  15.295 -1.9923 -0.8040  2.1249
  728TMC3    H110818   0.811   4.171  15.219  1.1683  0.7239  1.1879
  728TMC3    H210819   1.084   4.385  14.949 -1.2195 -0.8199 -0.8244
  728TMC3    C710820   0.824   4.301  14.981  0.0010  0.3792 -0.7910
  728TMC3    C810821   1.304   4.329  15.102  0.2726  0.2534  0.3334
  728TMC3    O110822   0.732   4.232  15.009 -0.0274  0.3679  0.0765
  728TMC3    O210823   1.392   4.255  15.146 -0.0499  0.4658 -0.0909
  729MPD2     C10824   2.429   0.523  16.826  0.1091  0.1760 -0.3747
  729MPD2    C110825   2.552   0.545  16.873 -0.6494 -0.3448 -0.0238
  729MPD2    C210826   2.574   0.584  17.006  0.1418  0.4456  0.5468
  729MPD2    C310827   2.465   0.605  17.090 -0.2003 -0.6331  0.1186
  729MPD2    C410828   2.340   0.592  17.035  0.2831 -0.0937 -1.1052
  729MPD2    C510829   2.317   0.550  16.906 -0.2643 -0.5172 -1.3114
  729MPD2     H10830   2.674   0.597  17.047 -0.7641  0.8361  2.6118
  729MPD2    H110831   2.258   0.608  17.105  0.6859 -2.3872 -0.1188
  729MPD2    H210832   2.419   0.488  16.724  0.8120 -0.2800 -0.2886
  729MPD2    H310833   2.217   0.538  16.866  0.0442 -0.1738 -2.2012
  729MPD2     N10834   2.472   0.642  17.227  0.3222 -0.4335 -0.5625
  729MPD2    H510835   2.387   0.669  17.275  0.3134 -1.0979 -0.2059
  729MPD2    N110836   2.658   0.534  16.778 -0.4976  0.2851 -0.2844
  729MPD2    H710837   2.631   0.525  16.681  1.1418 -0.9949 -0.6099
  730TMC3    C110838   2.563   0.711  17.429 -0.1700 -0.1847  0.3908
  730TMC3    C210839   2.667   0.788  17.470 -0.3541  0.1379  0.2848
  730TMC3    C310840   2.637   0.894  17.554  0.4101 -0.0149  0.2108
  730TMC3    C410841   2.433   0.718  17.470  0.4368 -0.0004 -0.2811
  730TMC3    C510842   2.403   0.831  17.540 -0.2623 -0.4924  0.5601
  730TMC3    C610843   2.505   0.924  17.575  0.6457 -0.4427  0.2057
  730TMC3     C10844   2.588   0.650  17.300  0.5467  0.4720 -0.5787
  730TMC3     O10845   2.703   0.639  17.267  0.0636 -0.2388 -0.0417
  730TMC3     H10846   2.770   0.778  17.438 -0.0292  1.8505  0.7933
  730TMC3    H110847   2.362   0.640  17.442 -1.4711  1.5139  0.3875
  730TMC3    H210848   2.489   1.020  17.622 -1.4131 -0.4778 -0.3980
  730TMC3    C710849   2.275   0.893  17.497 -0.0863 -0.1218  0.2415
  730TMC3    C810850   2.732   1.003  17.571  0.5488 -0.0595  0.0031
  730TMC3    O110851   2.227   0.865  17.388  0.5908 -0.7917  0.2183
  730TMC3    O210852   2.805   1.022  17.474 -0.9482  0.1788 -0.3083
  731MPD2     C10853   2.841   3.680  12.182  0.0995  0.1654  0.1139
  731MPD2    C110854   2.903   3.556  12.202  0.0835  0.0268 -0.5875
  731MPD2    C210855   2.893   3.488  12.317  0.1727 -0.5934 -0.4327
  731MPD2    C310856   2.806   3.526  12.416  0.1041 -0.8428  0.2685
  731MPD2    C410857   2.730   3.642  12.390  0.5192 -0.5914 -0.1682
  731MPD2    C510858   2.751   3.712  12.282 -0.0401  0.4863 -0.1415
  731MPD2     H10859   2.949   3.398  12.340 -0.9878 -1.0925  0.4663
  731MPD2    H110860   2.648   3.680  12.451  1.1081  2.2571 -1.1570
  731MPD2    H210861   2.848   3.743  12.094 -2.1280  0.6153  0.2565
  731MPD2    H310862   2.688   3.800  12.277 -2.4074 -1.1881  0.6200
  731MPD2     N10863   2.803   3.454  12.542  0.1114  0.0614 -0.0116
  731MPD2    H510864   2.845   3.362  12.541  0.8720  0.3982  1.0136
  731MPD2    N110865   2.992   3.531  12.088 -0.6922 -0.3790  0.4752
  731MPD2    H710866   3.003   3.601  12.015 -3.1385  0.1642  0.6303
  732TMC3    C110867   3.130   3.418  11.934 -0.5781  0.0410  0.0573
  732TMC3    C210868   3.046   3.456  11.831 -0.1603  0.0565  0.1020
  732TMC3    C310869   3.102   3.438  11.709 -0.1013  0.4633  0.1650
  732TMC3    C410870   3.250   3.360  11.926 -0.4137  0.1609  0.5401
  732TMC3    C510871   3.292   3.342  11.789 -0.5266  0.7082 -0.0263
  732TMC3    C610872   3.225   3.388  11.685  0.0059  0.6636  0.1676
  732TMC3     C10873   3.072   3.423  12.067  0.1558  0.1833 -0.2957
  732TMC3     O10874   3.098   3.331  12.145  0.5645 -0.0907 -0.5735
  732TMC3     H10875   2.957   3.513  11.853 -0.3505 -0.3587  0.4111
  732TMC3    H110876   3.302   3.331  12.016  2.0523  1.9373 -0.3018
  732TMC3    H210877   3.256   3.373  11.582 -0.3967 -0.9635  0.2708
  732TMC3    C710878   3.428   3.295  11.769  1.4511 -0.2605  0.1265
  732TMC3    C810879   3.023   3.480  11.597 -0.2662 -0.3334 -0.2021
  732TMC3    O110880   3.453   3.255  11.653  0.6005  0.2976  0.3848
  732TMC3    O210881   3.087   3.511  11.501  0.1826  0.1552 -0.3427
  733TMC3    C110882   3.384   1.436  13.082  0.5437  0.4818  0.3839
  733TMC3    C210883   3.493   1.485  13.149 -0.4981  0.4043 -0.8860
  733TMC3    C310884   3.618   1.466  13.098  0.4230 -0.5600  0.0493
  733TMC3    C410885   3.384   1.369  12.968 -0.3632 -0.7106 -0.0967
  733TMC3    C510886   3.513   1.347  12.920  0.3361 -0.4268  0.1418
  733TMC3    C610887   3.628   1.389  12.985  0.2328 -0.5763 -0.0512
  733TMC3     C10888   3.249   1.450  13.150  0.0777  0.0181  0.5644
  733TMC3     O10889   3.156   1.467  13.072  0.3134 -0.2186 -0.2936
  733TMC3     H10890   3.488   1.562  13.225 -0.4417 -0.7759  0.3230
  733TMC3    H110891   3.296   1.324  12.922  0.5686 -1.4564 -1.1506
  733TMC3    H210892   3.722   1.341  12.958  0.1631  0.7534 -2.6275
  733TMC3    C710893   3.527   1.308  12.784  0.3841  0.4213 -0.7590
  733TMC3    C810894   3.732   1.542  13.151  0.3798 -1.1170  0.6421
  733TMC3    O110895   3.437   1.246  12.736  0.5464 -0.5134  0.0118
  733TMC3    O210896   3.719   1.605  13.258 -0.1592  0.3245  0.1635
  734MPD2     C10897   0.887   4.427  12.874  0.9585  0.3793  0.0282
  734MPD2    C110898   0.822   4.341  12.792 -0.5226  0.3598  0.0477
  734MPD2    C210899   0.863   4.328  12.666 -0.2139 -0.0465 -0.3026
  734MPD2    C310900   0.972   4.402  12.619 -1.4365 -0.2286 -0.5443
  734MPD2    C410901   1.024   4.500  12.700  0.2039 -0.1806  0.2610
  734MPD2    C510902   0.969   4.522  12.818  0.4185 -0.0902 -0.1230
  734MPD2     H10903   0.824   4.247  12.606 -0.8347 -0.2647  0.3945
  734MPD2    H110904   1.110   4.562  12.681 -0.4949  0.6860 -0.0472
  734MPD2    H210905   0.868   4.435  12.981 -1.6008 -1.4274 -0.2709
  734MPD2    H310906   1.015   4.597  12.881 -3.6529  1.6693  0.7746
  734MPD2     N10907   1.022   4.365  12.488 -0.6018  0.1897 -0.6030
  734MPD2    H510908   0.968   4.289  12.447 -0.4935 -1.1118  1.7037
  734MPD2    N110909   0.721   4.253  12.846  0.1588 -0.0463  0.3137
  734MPD2    H710910   0.698   4.266  12.944 -1.2090  0.3073 -0.0635
  735TMC3    C110911   0.663   4.027  12.814  0.1492  0.0793 -0.3143
  735TMC3    C210912   0.595   3.933  12.744 -0.1534  0.4473  0.7486
  735TMC3    C310913   0.662   3.827  12.697 -0.3872 -0.7846  0.3397
  735TMC3    C410914   0.796   4.002  12.847 -0.5204  0.4327 -0.2080
  735TMC3    C510915   0.859   3.885  12.808 -0.0379  0.0006  0.8089
  735TMC3    C610916   0.787   3.793  12.734  0.0225 -0.3733  0.6072
  735TMC3     C10917   0.648   4.165  12.766 -0.0983  0.5799 -0.2058
  735TMC3     O10918   0.594   4.181  12.661  0.2763 -0.2812 -0.3973
  735TMC3     H10919   0.504   3.958  12.691  1.6169 -0.7165 -2.8927
  735TMC3    H110920   0.846   4.068  12.918 -0.5266  2.0244 -1.6621
  735TMC3    H210921   0.827   3.696  12.706  0.9358  0.0819  0.3293
  735TMC3    C710922   0.982   3.910  12.730  0.6308 -0.6309 -0.3307
  735TMC3    C810923   0.638   3.798  12.555  0.3735  0.2312 -0.5439
  735TMC3    O110924   0.999   3.822  12.645  0.5126  0.0768 -0.0904
  735TMC3    O210925   0.523   3.777  12.518  0.3308 -0.0030 -0.4623
  736MPD2     C10926   1.207   4.187  12.755 -0.3798  0.3648  0.1070
  736MPD2    C110927   1.154   4.076  12.698  0.4984 -0.3483 -0.5328
  736MPD2    C210928   1.214   4.027  12.583  0.2669 -0.2692 -0.3424
  736MPD2    C310929   1.313   4.102  12.522  0.9727 -0.2090 -0.3132
  736MPD2    C410930   1.364   4.214  12.585  0.0877 -0.3529  1.0065
  736MPD2    C510931   1.309   4.261  12.697 -0.3860 -0.6293  0.7123
  736MPD2     H10932   1.176   3.934  12.545  0.1515 -0.3399 -0.0575
  736MPD2    H110933   1.449   4.268  12.544 -0.0888 -0.2755  0.7380
  736MPD2    H210934   1.165   4.231  12.845  2.5727  1.2597  1.0756
  736MPD2    H310935   1.350   4.352  12.739  0.6174 -1.0086  0.5494
  736MPD2     N10936   1.379   4.058  12.407 -0.2990 -0.2194  0.2169
  736MPD2    H510937   1.464   4.109  12.386 -1.7686  2.2157  0.1661
  736MPD2    N110938   1.049   4.020  12.767 -0.4075 -0.3079 -0.1640
  736MPD2    H710939   1.020   4.071  12.850 -2.3948 -1.8979  0.1366
  737TMC3    C110940   1.405   3.950  12.200  0.0799  0.0486  0.2370
  737TMC3    C210941   1.443   4.061  12.132 -0.1341 -0.2854 -0.9249
  737TMC3    C310942   1.459   4.050  11.997  0.0482  0.4935  0.4719
  737TMC3    C410943   1.392   3.828  12.136  0.0913  0.2833 -0.9128
  737TMC3    C510944   1.416   3.818  12.003  0.7909 -0.3153 -0.3763
  737TMC3    C610945   1.434   3.935  11.932 -0.1460 -0.1865  0.6206
  737TMC3     C10946   1.322   3.971  12.312 -0.1401  0.3435 -0.3519
  737TMC3     O10947   1.209   3.923  12.307 -0.4693  0.0962  0.3950
  737TMC3     H10948   1.449   4.159  12.177  1.2008 -0.3840 -0.8955
  737TMC3    H110949   1.354   3.741  12.187  2.2606 -0.2406 -0.1923
  737TMC3    H210950   1.459   3.949  11.828  0.6507 -2.3821  0.5260
  737TMC3    C710951   1.454   3.684  11.952 -0.9274 -0.2673 -0.2116
  737TMC3    C810952   1.443   4.176  11.924 -0.3918 -0.4549  0.3823
  737TMC3    O110953   1.409   3.593  12.019  0.0002 -0.1238 -0.6427
  737TMC3    O210954   1.491   4.271  11.982  0.3595  0.1106 -0.5747
  738MPD2     C10955   1.891   2.942  15.291  0.4805 -0.0262 -0.3634
  738MPD2    C110956   1.926   2.815  15.243  0.2161 -0.7390  0.2046
  738MPD2    C210957   2.050   2.797  15.179 -0.1733  0.0959 -0.7555
  738MPD2    C310958   2.125   2.902  15.144  0.6520  0.2377  0.4621
  738MPD2    C410959   2.087   3.029  15.180  0.1302 -0.4055  0.3413
  738MPD2    C510960   1.976   3.045  15.256 -0.6373  0.0611 -0.6209
  738MPD2     H10961   2.077   2.698  15.145  1.4432 -0.1049  1.1264
  738MPD2    H110962   2.140   3.118  15.147 -0.0520 -0.2682  0.4207
  738MPD2    H210963   1.790   2.964  15.323  0.5659  0.7217 -0.6139
  738MPD2    H310964   1.931   3.142  15.278  0.2523  0.7792 -1.9469
  738MPD2     N10965   2.239   2.897  15.060 -0.2330 -0.0429  0.0732
  738MPD2    H510966   2.292   2.982  15.042 -1.8690  0.8875 -0.3358
  738MPD2    N110967   1.851   2.703  15.262  0.2253 -0.4084  1.4996
  738MPD2    H710968   1.893   2.617  15.227 -0.3945  0.7455 -2.0852
  739TMC3    C110969   2.390   2.794  14.905  0.3361  0.2809  0.2127
  739TMC3    C210970   2.388   2.773  14.768  0.1756  0.3141  0.3247
  739TMC3    C310971   2.498   2.817  14.697 -0.1240  0.4776  0.6274
  739TMC3    C410972   2.492   2.855  14.970 -0.6939 -0.4154  0.3476
  739TMC3    C510973   2.602   2.892  14.891 -0.6214  0.7935  0.6858
  739TMC3    C610974   2.599   2.883  14.755  0.2477  0.1220 -0.2385
  739TMC3     C10975   2.259   2.784  14.978  0.4787 -0.1400 -0.3691
  739TMC3     O10976   2.188   2.690  14.958  0.0010 -0.2074  0.1380
  739TMC3     H10977   2.306   2.721  14.721  0.5953  0.9032 -1.0630
  739TMC3    H110978   2.491   2.865  15.078  1.4836  1.2062  0.2250
  739TMC3    H210979   2.674   2.932  14.693  1.6166 -1.2763  0.2998
  739TMC3    C710980   2.717   2.951  14.957  0.1611  0.1040  0.0158
  739TMC3    C810981   2.481   2.808  14.555 -0.2797 -0.1234  0.3165
  739TMC3    O110982   2.811   2.966  14.883 -0.0806  0.0477 -0.4508
  739TMC3    O210983   2.371   2.797  14.508 -0.0373 -0.4329  0.0052
  740TMC3    C110984   2.718   4.092  14.472  0.3246  0.3322  0.1315
  740TMC3    C210985   2.787   4.131  14.585 -0.9759  0.5737  0.2157
  740TMC3    C310986   2.917   4.126  14.596  0.1836  0.1692  0.3170
  740TMC3    C410987   2.797   4.061  14.362  0.4036 -0.2433 -0.0906
  740TMC3    C510988   2.934   4.062  14.370  0.3981  0.5093 -0.2661
  740TMC3    C610989   3.002   4.086  14.492 -0.0305  0.5998  0.1311
  740TMC3     C10990   2.576   4.070  14.458  0.0413  0.2144 -0.0337
  740TMC3     O10991   2.530   4.068  14.341 -0.2312 -0.3577  0.3250
  740TMC3     H10992   2.727   4.169  14.668 -1.6125 -0.1705  0.0960
  740TMC3    H110993   2.754   4.035  14.266  1.1218 -0.6748 -0.2899
  740TMC3    H210994   3.109   4.069  14.490  0.0805  1.2598  0.6034
  740TMC3    C710995   3.012   4.014  14.255  0.6127 -0.3042 -0.0187
  740TMC3    C810996   2.981   4.130  14.719 -0.0636 -0.7614  0.8773
  740TMC3    O110997   3.129   3.990  14.280 -0.1905  0.7579  0.4370
  740TMC3    O210998   3.051   4.036  14.749  0.5256 -0.6499  0.1236
  741TMC3    C110999   2.347   3.344  14.272 -0.4451  0.5802  1.0128
  741TMC3    C211000   2.235   3.280  14.310  0.0834 -0.0108  0.2537
  741TMC3    C311001   2.244   3.184  14.405 -0.4575 -0.3480 -0.0174
  741TMC3    C411002   2.471   3.332  14.325  0.2064  0.4737  0.3012
  741TMC3    C511003   2.471   3.239  14.423 -0.7837  0.0037 -0.6187
  741TMC3    C611004   2.361   3.166  14.467 -0.5648 -0.7143 -0.4098
  741TMC3     C11005   2.347   3.436  14.160 -0.4627  0.2687 -0.5907
  741TMC3     O11006   2.430   3.529  14.156  0.3425  0.1738 -0.0984
  741TMC3     H11007   2.138   3.304  14.269  0.5949  0.4171 -0.6910
  741TMC3    H111008   2.551   3.395  14.289  0.1144 -0.5307 -1.6177
  741TMC3    H211009   2.371   3.075  14.525 -1.2193 -0.3042  0.3526
  741TMC3    C711010   2.588   3.234  14.512 -0.1401 -0.5357  0.5776
  741TMC3    C811011   2.126   3.104  14.438 -0.0590 -0.8110  0.4252
  741TMC3    O111012   2.572   3.187  14.623  0.1735  0.4693  0.3823
  741TMC3    O211013   2.047   3.104  14.345  0.4084  0.8187  0.2225
  742TMC3    C111014   1.938   2.015  15.472 -1.0912 -0.4921 -0.4219
  742TMC3    C211015   1.883   1.981  15.353  0.2529 -0.1713 -0.5396
  742TMC3    C311016   1.959   1.898  15.276 -1.4218  0.6495 -0.3633
  742TMC3    C411017   2.056   1.975  15.526 -0.4601  0.4285  0.2596
  742TMC3    C511018   2.133   1.888  15.451 -0.0063  0.0062 -0.2126
  742TMC3    C611019   2.084   1.853  15.329 -0.7756 -0.4100 -0.3652
  742TMC3     C11020   1.856   2.101  15.548 -0.3385  0.3655  0.1189
  742TMC3     O11021   1.733   2.093  15.545  0.2007 -0.0010  0.6906
  742TMC3     H11022   1.808   2.048  15.312  1.0765  0.8059 -0.4450
  742TMC3    H111023   2.091   1.999  15.626 -0.4658  0.0958  0.3399
  742TMC3    H211024   2.138   1.781  15.269  0.5629 -0.0635  0.4227
  742TMC3    C711025   2.259   1.840  15.494 -0.5043 -0.3527 -0.3818
  742TMC3    C811026   1.872   1.806  15.196  1.0962 -0.7495  0.2550
  742TMC3    O111027   2.350   1.819  15.417 -0.7046 -0.1311  0.0677
  742TMC3    O211028   1.940   1.727  15.129  0.6927  0.1792  0.4689
  743MPD2     C11029   3.469   3.007   1.202  0.3969  0.5191 -0.9438
  743MPD2    C111030   3.587   3.006   1.136 -0.7888 -0.3919 -0.5346
  743MPD2    C211031   3.708   3.025   1.202  0.0694  0.1110  0.5897
  743MPD2    C311032   3.720   3.007   1.335 -0.3168 -0.3741 -0.5702
  743MPD2    C411033   3.599   3.009   1.404  0.6922  0.9526 -0.2702
  743MPD2    C511034   3.481   3.017   1.337  0.0925  0.2533 -0.1128
  743MPD2     H11035   3.800   3.022   1.145 -0.3015  0.5872 -0.0338
  743MPD2    H111036   3.594   3.005   1.513  0.5308  0.9750 -0.2779
  743MPD2    H211037   3.370   3.009   1.159  1.5071 -1.7041 -3.6230
  743MPD2    H311038   3.395   3.021   1.401  0.1163 -0.8930 -0.0114
  743MPD2     N11039   3.856   3.000   1.398  0.3128  0.0830  0.2150
  743MPD2    H511040   3.940   2.999   1.342 -1.1686 -1.2743 -1.9965
  743MPD2    N111041   3.605   2.971   0.996  0.2539  0.0582  0.2152
  743MPD2    H711042   3.697   2.971   0.953  0.1696 -2.1998  0.0116
  744TMC3    C111043   3.544   2.886   0.778 -0.0682  0.1768  0.8197
  744TMC3    C211044   3.445   2.883   0.683  0.5449 -0.0760  0.0948
  744TMC3    C311045   3.462   2.817   0.569  0.6767 -0.3146 -0.3182
  744TMC3    C411046   3.664   2.828   0.753 -0.2629  0.0896 -0.0416
  744TMC3    C511047   3.675   2.755   0.633 -0.5459  0.6134 -0.1568
  744TMC3    C611048   3.574   2.745   0.539  0.1571  0.2448  0.4271
  744TMC3     C11049   3.507   2.937   0.909 -0.6464 -0.6304 -0.7427
  744TMC3     O11050   3.389   2.933   0.935  0.1685 -0.2625 -0.0492
  744TMC3     H11051   3.347   2.920   0.710  0.6186  0.4927 -0.4306
  744TMC3    H111052   3.747   2.808   0.820 -1.7595  0.8604  2.0532
  744TMC3    H211053   3.589   2.718   0.435 -0.7368 -0.9078  0.6069
  744TMC3    C711054   3.809   2.699   0.604  0.6978  1.5207  0.1630
  744TMC3    C811055   3.391   2.883   0.461  0.5178 -0.5462 -0.0180
  744TMC3    O111056   3.902   2.744   0.670  0.5054 -0.1987  0.1241
  744TMC3    O211057   3.343   2.993   0.489 -0.1255 -0.1050  0.1542
  745TMC3    C111058   2.001   1.624  14.083 -0.4264  0.2081  0.5418
  745TMC3    C211059   1.894   1.612  14.163 -0.1894 -0.3587 -0.6522
  745TMC3    C311060   1.773   1.620  14.108  0.0726 -0.4752  0.4490
  745TMC3    C411061   1.998   1.633  13.945  0.2709  0.0371  0.8931
  745TMC3    C511062   1.870   1.625  13.892  0.3536 -0.1820 -0.2319
  745TMC3    C611063   1.759   1.626  13.975 -0.9108  0.5940  0.2655
  745TMC3     C11064   2.116   1.673  14.160 -0.5829 -0.0397  0.4432
  745TMC3     O11065   2.107   1.683  14.280 -0.0644 -0.3155  0.1962
  745TMC3     H11066   1.913   1.584  14.266 -0.7089 -0.8389 -0.6878
  745TMC3    H111067   2.091   1.616  13.892  1.4505  2.6746  2.1071
  745TMC3    H211068   1.664   1.654  13.929 -0.8458  0.0752 -0.1861
  745TMC3    C711069   1.839   1.667  13.760  0.9037 -0.2059 -0.5523
  745TMC3    C811070   1.709   1.742  14.164 -0.0989 -0.3689 -0.1281
  745TMC3    O111071   1.723   1.691  13.725 -0.2202  1.0274  0.0587
  745TMC3    O211072   1.647   1.816  14.090 -0.0738  0.2523 -0.5463
  746TMC3    C111073   4.378   3.491  11.039 -0.6895  1.0872 -0.5400
  746TMC3    C211074   4.465   3.512  10.938  0.3856  0.4448 -0.1524
  746TMC3    C311075   4.470   3.424  10.831  0.4060 -0.1862 -0.0612
  746TMC3    C411076   4.289   3.389  11.037  0.0405 -0.0166  0.0858
  746TMC3    C511077   4.290   3.306  10.930  0.2510  0.3714 -0.1618
  746TMC3    C611078   4.385   3.323  10.831  0.1671 -0.1581  0.3848
  746TMC3     C11079   4.349   3.603  11.127 -0.0158 -0.7886 -0.9276
  746TMC3     O11080   4.436   3.637  11.207 -0.2041 -0.0152 -0.4088
  746TMC3     H11081   4.515   3.607  10.951 -1.1825  1.2535 -0.0697
  746TMC3    H111082   4.211   3.369  11.110 -0.0187 -0.7487 -0.1695
  746TMC3    H211083   4.389   3.243  10.757 -0.1289 -0.0638  0.2644
  746TMC3    C711084   4.223   3.178  10.935  1.2666 -0.4272  0.0301
  746TMC3    C811085   4.581   3.432  10.735  0.1569  0.2213  0.5571
  746TMC3    O111086   4.192   3.138  10.823  0.4752  0.2795  0.0943
  746TMC3    O211087   4.591   3.342  10.654 -0.1881 -0.3515  0.2378
  747TMC3    C111088   1.855   3.627  10.987 -0.0859 -0.3693 -0.6922
  747TMC3    C211089   1.842   3.537  11.096 -0.1530 -0.1548  1.0818
  747TMC3    C311090   1.857   3.584  11.226 -1.6002 -0.1614  0.2435
  747TMC3    C411091   1.876   3.760  11.011  0.0845 -0.3132  0.0661
  747TMC3    C511092   1.898   3.801  11.142 -0.5779  0.8783  0.1416
  747TMC3    C611093   1.891   3.715  11.246  0.9346 -0.1313  0.3869
  747TMC3     C11094   1.825   3.595  10.846 -0.1725 -0.3713 -0.1409
  747TMC3     O11095   1.823   3.691  10.768  0.4281 -0.5083  0.3852
  747TMC3     H11096   1.795   3.440  11.083  0.6171 -0.5199  1.0153
  747TMC3    H111097   1.894   3.823  10.924  0.8660 -0.7153 -0.0624
  747TMC3    H211098   1.909   3.758  11.344  1.5047  0.4394  0.0323
  747TMC3    C711099   1.988   3.918  11.149  0.1141 -0.4561 -1.0863
  747TMC3    C811100   1.841   3.501  11.352  0.7567  0.0810 -1.1737
  747TMC3    O111101   2.084   3.905  11.224 -0.1764  0.1946  0.0401
  747TMC3    O211102   1.868   3.381  11.348 -0.3575  0.3551 -0.1026
  748MPD2     C11103   3.565   4.199   1.182 -0.6444 -0.1855  0.0051
  748MPD2    C111104   3.571   4.338   1.180  0.4890  0.3899  0.0098
  748MPD2    C211105   3.693   4.406   1.169 -0.2027  0.2754  0.1842
  748MPD2    C311106   3.807   4.332   1.148  0.4094  0.6680  0.4097
  748MPD2    C411107   3.800   4.186   1.155 -0.0927 -0.9994 -0.4437
  748MPD2    C511108   3.683   4.128   1.181 -0.0033  0.0763  0.2933
  748MPD2     H11109   3.699   4.514   1.165  1.2810  0.1800  0.1193
  748MPD2    H111110   3.890   4.125   1.149 -0.7156 -1.7213 -2.6225
  748MPD2    H211111   3.474   4.144   1.206 -2.4985  2.2893 -1.3353
  748MPD2    H311112   3.676   4.020   1.183  2.4792 -0.0624  0.9057
  748MPD2     N11113   3.929   4.398   1.131 -0.0609  0.1841 -0.5676
  748MPD2    H511114   3.927   4.497   1.113  3.2217  0.0486 -1.6946
  748MPD2    N111115   3.443   4.406   1.185 -0.3310  0.3776 -0.2705
  748MPD2    H711116   3.368   4.338   1.190  0.4406 -0.4753 -0.1797
  749TMC3    C111117   4.162   4.446   1.154  0.7741  0.2766  0.5742
  749TMC3    C211118   4.272   4.423   1.229  0.8011 -0.1061  0.5546
  749TMC3    C311119   4.364   4.530   1.233 -0.6007 -0.1710 -0.9272
  749TMC3    C411120   4.135   4.561   1.076  0.0028 -0.0642 -1.1507
  749TMC3    C511121   4.231   4.664   1.085 -0.2724 -0.2909 -0.4375
  749TMC3    C611122   4.348   4.640   1.159  0.0889 -0.2391  0.2424
  749TMC3     C11123   4.054   4.347   1.167  0.0288 -0.4342  0.8792
  749TMC3     O11124   4.083   4.244   1.229 -0.6059 -1.1114 -0.3325
  749TMC3     H11125   4.277   4.337   1.295  0.7868  0.1183  0.8495
  749TMC3    H111126   4.053   4.563   1.005  0.9201  0.9386 -2.2033
  749TMC3    H211127   4.414   4.724   1.175  1.5889 -1.2865 -0.5307
  749TMC3    C711128   4.242   0.032   0.983  0.2937 -0.1094 -0.4043
  749TMC3    C811129   4.490   4.504   1.289 -0.3691  0.1188  0.0436
  749TMC3    O111130   4.310   0.130   1.002 -0.0278  0.8233  0.1805
  749TMC3    O211131   4.542   4.588   1.359 -0.0836  0.1444  0.3640
  750MPD2     C11132   4.621   0.118  11.876  0.6858 -0.8523  0.6255
  750MPD2    C111133   4.523   0.151  11.788 -0.0972  0.1573 -0.3310
  750MPD2    C211134   4.500   0.070  11.673 -0.2763 -0.8386 -0.0947
  750MPD2    C311135   4.601   4.722  11.631 -0.0569  0.1585 -0.6671
  750MPD2    C411136   4.707   4.706  11.707  0.5131 -0.7241  0.2731
  750MPD2    C511137   4.716   0.024  11.835 -0.6302  0.0808  1.1034
  750MPD2     H11138   4.411   0.088  11.614  1.3839  2.4810 -1.5962
  750MPD2    H111139   0.055   4.648  11.672  0.1174 -0.9596 -0.3049
  750MPD2    H211140   4.633   0.165  11.973  0.7050 -0.3151  0.3682
  750MPD2    H311141   0.065   4.730  11.895  0.6561 -1.0717 -1.3270
  750MPD2     N11142   4.585   4.653  11.507 -0.1355 -0.1154  0.7155
  750MPD2    H511143   4.660   4.594  11.471 -0.5272 -0.2324  0.0922
  750MPD2    N111144   4.435   0.249  11.836  0.9792 -0.3872  0.0074
  750MPD2    H711145   4.447   0.278  11.932 -2.0094  0.1024  0.2135
  751TMC3    C111146   4.481   4.526  11.342 -0.0019  0.4884 -0.5897
  751TMC3    C211147   4.363   4.478  11.299 -0.5343  0.2186 -0.5708
  751TMC3    C311148   4.356   4.402  11.179  0.0349 -0.0880  0.7056
  751TMC3    C411149   4.602   4.508  11.278  0.9352 -0.1204 -0.2940
  751TMC3    C511150   4.593   4.437  11.159 -0.2158  0.2522  1.0832
  751TMC3    C611151   4.473   4.382  11.112 -0.3403  0.3566  0.1566
  751TMC3     C11152   4.463   4.639  11.437 -0.6284  0.1158 -0.4058
  751TMC3     O11153   4.353   4.691  11.456 -0.0753  0.4540  0.2001
  751TMC3     H11154   4.271   4.509  11.348 -0.8840  1.0586 -1.7498
  751TMC3    H111155   4.688   4.570  11.298  0.2171  1.3859 -1.9100
  751TMC3    H211156   4.471   4.317  11.025  0.4975 -0.0202  0.4280
  751TMC3    C711157   4.683   4.493  11.057 -0.2965  0.0343 -0.2105
  751TMC3    C811158   4.230   4.358  11.117 -0.1016  0.2160 -0.2564
  751TMC3    O111159   0.037   4.572  11.086  0.1033 -0.1783 -0.3489
  751TMC3    O211160   4.236   4.277  11.024 -0.3047 -0.6417  0.0058
  752TMC3    C111161   3.187   0.947  17.496 -0.1409  0.6481 -0.0980
  752TMC3    C211162   3.115   0.834  17.509 -0.1221 -0.2360  0.3056
  752TMC3    C311163   3.053   0.813  17.630  1.2117 -0.3618 -1.0295
  752TMC3    C411164   3.198   1.041  17.588  0.1018  0.0809 -0.4563
  752TMC3    C511165   3.123   1.028  17.703  0.2071 -0.7988  0.6561
  752TMC3    C611166   3.052   0.917  17.728 -0.5555  0.3728  0.1219
  752TMC3     C11167   3.287   0.950  17.389  0.4685  0.0196 -0.5756
  752TMC3     O11168   3.379   1.024  17.406  0.6370 -0.3875 -0.5311
  752TMC3     H11169   3.119   0.753  17.438 -0.4162  0.5912 -0.6480
  752TMC3    H111170   3.248   1.129  17.551 -1.2954  0.2517 -1.9303
  752TMC3    H211171   2.999   0.898   0.076  1.8557  2.7819  1.9804
  752TMC3    C711172   3.187   1.106   0.070 -0.1779  0.0695 -0.4816
  752TMC3    C811173   2.967   0.695  17.650 -0.0144  0.7597 -0.3044
  752TMC3    O111174   3.223   1.029   0.159  0.0779 -0.5989 -0.0404
  752TMC3    O211175   2.877   0.702  17.734  0.4348  0.5462  0.1770
  753TMC3    C111176   0.835   1.440  13.715  0.5801 -0.0641  0.0972
  753TMC3    C211177   0.970   1.427  13.732  0.3143  0.8237  0.4799
  753TMC3    C311178   1.043   1.309  13.743 -0.2802 -0.1231  0.4672
  753TMC3    C411179   0.760   1.327  13.695 -0.6204  0.5582 -0.6883
  753TMC3    C511180   0.832   1.212  13.697 -0.1107 -0.6498 -0.2081
  753TMC3    C611181   0.970   1.203  13.716 -0.7380 -0.3516 -0.1225
  753TMC3     C11182   0.783   1.562  13.654 -0.1113  0.6392  0.3745
  753TMC3     O11183   0.849   1.662  13.665  0.0759 -0.6364  0.2011
  753TMC3     H11184   1.029   1.515  13.755 -1.6314  2.1018  0.5615
  753TMC3    H111185   0.652   1.320  13.688 -0.3836 -1.3815 -2.2600
  753TMC3    H211186   1.004   1.103  13.742  1.2795  0.2567 -0.3795
  753TMC3    C711187   0.759   1.092  13.661 -0.2126  0.3221  0.4995
  753TMC3    C811188   1.171   1.292  13.811 -0.0667  0.1498 -0.6505
  753TMC3    O111189   0.638   1.095  13.673  0.3723 -0.1822  0.5898
  753TMC3    O211190   1.233   1.192  13.782  0.5904 -0.2583 -0.0049
  754MPD2     C11191   3.420   0.550  13.520 -0.4249 -0.0221 -0.6736
  754MPD2    C111192   3.442   0.422  13.496  0.2496  0.1806 -0.9874
  754MPD2    C211193   3.364   0.347  13.411  0.3165 -0.1319 -0.6063
  754MPD2    C311194   3.245   0.400  13.363  0.1846  0.5289 -0.1250
  754MPD2    C411195   3.218   0.532  13.388 -0.8319 -0.7055 -0.0495
  754MPD2    C511196   3.300   0.602  13.467  0.2342  0.8209 -0.5201
  754MPD2     H11197   3.413   0.252  13.391 -0.7549 -1.1586  1.6317
  754MPD2    H111198   3.131   0.573  13.337 -0.2098  0.1186 -0.4587
  754MPD2    H211199   3.488   0.615  13.575 -0.4372  0.9314 -1.7941
  754MPD2    H311200   3.275   0.707  13.483  0.8225  1.0996 -1.3961
  754MPD2     N11201   3.151   0.320  13.298  0.3796  0.2702 -0.1387
  754MPD2    H511202   3.076   0.371  13.252  0.0504 -2.3356 -2.4552
  754MPD2    N111203   3.554   0.355  13.547 -0.4905 -0.1917  0.0957
  754MPD2    H711204   3.562   0.257  13.522 -1.0823 -0.3769  0.6309
  755MPD2     C11205   2.238   0.149  13.328 -1.4025  0.0092 -0.6785
  755MPD2    C111206   2.332   0.246  13.350 -0.1810  0.0474  0.2394
  755MPD2    C211207   2.456   0.237  13.283 -0.0096  0.1215 -0.1975
  755MPD2    C311208   2.481   0.131  13.205  0.4053 -0.5525 -0.3677
  755MPD2    C411209   2.389   0.027  13.202  0.6592  0.0804 -0.9252
  755MPD2    C511210   2.267   0.035  13.259 -0.0656 -0.2131  0.0376
  755MPD2     H11211   2.536   0.308  13.298 -0.2848  0.2934  0.4740
  755MPD2    H111212   2.412   4.674  13.145  0.7506  0.0393 -0.8236
  755MPD2    H211213   2.144   0.159  13.382 -1.0864  0.0565 -0.1345
  755MPD2    H311214   2.192   4.694  13.244 -0.9863  0.7413 -0.3287
  755MPD2     N11215   2.605   0.110  13.136  0.0839 -0.3121 -0.9317
  755MPD2    H511216   2.615   0.022  13.085  1.4566 -0.2637 -0.7518
  755MPD2    N111217   2.297   0.348  13.442  0.4195 -0.3404 -0.1230
  755MPD2    H711218   2.203   0.351  13.479  0.7277  2.7518  0.3917
  756MPD2     C11219   0.163   1.417  10.335  0.7714  0.3325  0.2621
  756MPD2    C111220   0.187   1.322  10.436  0.2311  1.2999 -0.0041
  756MPD2    C211221   0.187   1.188  10.383 -0.8954 -0.4520  0.4571
  756MPD2    C311222   0.144   1.154  10.257  0.8642  0.1301  0.3636
  756MPD2    C411223   0.116   1.254  10.166  0.2329 -0.8502  0.1128
  756MPD2    C511224   0.141   1.384  10.204  0.9961 -0.4752  0.2468
  756MPD2     H11225   0.209   1.110  10.455 -2.2484 -2.0635 -0.8552
  756MPD2    H111226   0.076   1.230  10.068 -1.1666  0.4186  0.3585
  756MPD2    H211227   0.163   1.523  10.358  3.0095  0.5884 -0.9172
  756MPD2    H311228   0.118   1.466  10.136  2.0529  0.4302  1.0065
  756MPD2     N11229   0.129   1.011  10.224 -1.1227  0.5424  0.2660
  756MPD2    H511230   0.123   0.941  10.297  1.0278  0.9813  0.8762
  756MPD2    N111231   0.199   1.347  10.574 -0.1064  0.2018 -0.6630
  756MPD2    H711232   0.237   1.265  10.620  0.8347  0.2266 -1.3762
  757MPD2     C11233   3.982   0.502   9.906 -0.2031  0.4745  0.5287
  757MPD2    C111234   4.055   0.392   9.949  0.2236  0.3492  0.1858
  757MPD2    C211235   4.187   0.417   9.979 -0.0858  0.5143 -0.6112
  757MPD2    C311236   4.246   0.545   9.965  0.8892  0.0042  0.5386
  757MPD2    C411237   4.169   0.657   9.936 -1.2631 -0.2583  0.1977
  757MPD2    C511238   4.034   0.630   9.908 -0.5849  0.2507  0.7455
  757MPD2     H11239   4.251   0.340  10.021 -1.3544 -0.4930 -0.5087
  757MPD2    H111240   4.204   0.758   9.917  0.1485 -0.8633 -0.4299
  757MPD2    H211241   3.875   0.489   9.890  0.5245 -1.9920 -2.2930
  757MPD2    H311242   3.979   0.721   9.889 -0.8015  0.0064  0.1849
  757MPD2     N11243   4.385   0.559   9.996 -0.0610 -0.3325  0.3656
  757MPD2    H511244   4.438   0.476  10.021  0.9042  0.1726  0.0005
  757MPD2    N111245   3.992   0.265   9.959  0.1902  0.5143  0.3698
  757MPD2    H711246   3.891   0.261   9.959  0.4161 -4.8026  1.2633
  758MPD2     C11247   4.641   4.630  15.662  0.3197  0.3720  0.3132
  758MPD2    C111248   4.635   4.526  15.751  0.7822  0.2187 -0.6086
  758MPD2    C211249   4.529   4.522  15.840 -0.6710 -0.1011 -0.4620
  758MPD2    C311250   4.431   4.622  15.842  0.3968  0.0549 -0.5897
  758MPD2    C411251   4.448   4.720  15.751 -0.0308 -0.2662  0.1751
  758MPD2    C511252   4.543   4.722  15.652  0.5520 -0.6719 -0.0568
  758MPD2     H11253   4.509   4.444  15.913  0.4638  0.6403  0.6451
  758MPD2    H111254   4.372   0.059  15.736  1.2131  0.9289 -0.0713
  758MPD2    H211255   4.722   4.637  15.590  1.0513  0.9806  1.1866
  758MPD2    H311256   4.556   0.067  15.582 -0.7178 -1.5679 -1.3552
  758MPD2     N11257   4.324   4.627  15.932  0.5244  0.2126  0.2739
  758MPD2    H511258   4.275   4.716  15.927  0.7593  0.3504  0.3919
  758MPD2    N111259   0.008   4.443  15.753  0.1045 -0.3791  0.3086
  758MPD2    H711260   0.084   4.468  15.690 -0.2490 -0.4854 -0.1633
  759MPD2     C11261   3.608   2.249   9.987 -0.6215 -0.4144  0.1192
  759MPD2    C111262   3.510   2.285  10.084  1.0941  0.1524  0.7109
  759MPD2    C211263   3.447   2.412  10.077  0.1740  0.2780  0.6178
  759MPD2    C311264   3.496   2.505   9.975 -0.3052  0.3618 -0.1871
  759MPD2    C411265   3.593   2.468   9.885  0.0774 -0.3526 -0.3217
  759MPD2    C511266   3.645   2.343   9.896  0.1842  0.0549  0.8067
  759MPD2     H11267   3.358   2.438  10.134  1.2595 -0.4498  2.6568
  759MPD2    H111268   3.619   2.534   9.803  1.2845  1.4646  1.5191
  759MPD2    H211269   3.648   2.149   9.978 -1.9071 -0.8993 -0.2876
  759MPD2    H311270   3.711   2.314   9.816 -1.5459  0.1884 -0.6609
  759MPD2     N11271   3.440   2.632   9.966 -0.3466  0.6193 -0.4207
  759MPD2    H511272   3.366   2.653  10.033 -0.2777  1.3965 -0.5847
  759MPD2    N111273   3.466   2.192  10.178 -0.2987 -0.0258 -0.3191
  759MPD2    H711274   3.396   2.229  10.240  0.0282 -0.9349  0.6084
  760MPD2     C11275   2.749   0.729  12.168 -0.0662 -0.2245  0.2956
  760MPD2    C111276   2.878   0.689  12.130  0.3436 -0.1808 -0.3045
  760MPD2    C211277   2.914   0.567  12.173 -0.6794  0.0366 -0.1091
  760MPD2    C311278   2.831   0.480  12.239  0.8268 -0.5186 -0.1148
  760MPD2    C411279   2.702   0.522  12.293 -0.6884  0.3647  0.1168
  760MPD2    C511280   2.670   0.654  12.258 -0.0207 -0.0932 -0.0843
  760MPD2     H11281   3.011   0.546  12.130 -0.7472 -0.4884 -0.0084
  760MPD2    H111282   2.633   0.463  12.352  0.2250  1.2489  2.0701
  760MPD2    H211283   2.716   0.827  12.137 -0.8103 -0.1351  1.3543
  760MPD2    H311284   2.583   0.699  12.304 -0.2076  0.2503 -0.7666
  760MPD2     N11285   2.866   0.346  12.239  0.9413  0.2960  0.0400
  760MPD2    H511286   2.956   0.321  12.199 -1.1663 -2.6527 -2.8983
  760MPD2    N111287   2.970   0.776  12.062 -0.0606  0.3668  0.4250
  760MPD2    H711288   3.066   0.743  12.070  0.4933  1.5937 -1.1580
  761MPD2     C11289   3.713   4.393  11.098  0.8962  0.3122  0.6490
  761MPD2    C111290   3.798   4.306  11.037 -0.8275 -0.7492  0.2461
  761MPD2    C211291   3.935   4.327  11.042  1.0406  0.2720 -0.3774
  761MPD2    C311292   3.990   4.426  11.123  0.5834 -0.2008  0.4800
  761MPD2    C411293   3.901   4.511  11.181 -0.0624  0.3709 -0.5784
  761MPD2    C511294   3.768   4.502  11.163 -0.5483  0.3828 -0.7015
  761MPD2     H11295   3.999   4.254  10.995  0.3574 -0.1620 -0.6360
  761MPD2    H111296   3.933   4.587  11.252  1.3916  0.4124 -1.2891
  761MPD2    H211297   3.605   4.383  11.096  1.0790 -0.9276 -2.4667
  761MPD2    H311298   3.703   4.579  11.203 -1.5713  0.1210 -1.8486
  761MPD2     N11299   4.127   4.436  11.154 -0.3171 -0.4183 -1.0988
  761MPD2    H511300   4.143   4.513  11.218  2.1113 -0.5897 -1.5118
  761MPD2    N111301   3.735   4.205  10.968  0.7608  0.7111  0.0559
  761MPD2    H711302   3.643   4.174  10.996  1.1741 -0.4375  0.1746
  762MPD2     C11303   3.981   3.425  10.559 -0.0393 -0.0344  0.1996
  762MPD2    C111304   4.004   3.560  10.547  0.6954  0.1769 -0.2206
  762MPD2    C211305   4.119   3.599  10.482  0.6849  0.7260 -0.2898
  762MPD2    C311306   4.207   3.506  10.430  0.7080  0.2278  0.1732
  762MPD2    C411307   4.177   3.375  10.445  0.0243  0.3580  0.1873
  762MPD2    C511308   4.064   3.337  10.511  0.5381  0.5139  0.2105
  762MPD2     H11309   4.137   3.705  10.468  0.3514  1.0014  1.2894
  762MPD2    H111310   4.255   3.305  10.417  1.0721  0.6909  2.3040
  762MPD2    H211311   3.887   3.395  10.603 -0.3970 -0.7131 -1.0103
  762MPD2    H311312   4.038   3.233  10.531  1.3192 -0.3847 -3.4161
  762MPD2     N11313   4.333   3.548  10.374 -0.0703  0.1769 -1.3416
  762MPD2    H511314   4.339   3.650  10.378  0.4188  0.0626  0.7479
  762MPD2    N111315   3.904   3.642  10.601  0.4789  0.2332  0.1980
  762MPD2    H711316   3.819   3.597  10.631  2.1171 -1.4850  2.2687
  763MPD2     C11317   1.118   4.722  16.237  0.4016  0.3855 -0.0115
  763MPD2    C111318   1.169   0.030  16.113 -0.2841  0.6273  0.4975
  763MPD2    C211319   1.217   0.159  16.113 -0.2534  0.3579 -0.5828
  763MPD2    C311320   1.218   0.244  16.222 -0.3887 -0.1297  1.0931
  763MPD2    C411321   1.163   0.197  16.342 -0.0083  0.1515 -0.5385
  763MPD2    C511322   1.123   0.062  16.350 -0.8011  0.0390 -0.3747
  763MPD2     H11323   1.256   0.201  16.021  0.8581 -0.4987 -0.5045
  763MPD2    H111324   1.170   0.251  16.436 -1.2834  0.1014 -0.4105
  763MPD2    H211325   1.096   4.617  16.252 -0.2286  0.0859 -3.1147
  763MPD2    H311326   1.076   0.011  16.434  0.5764 -1.2111 -0.3487
  763MPD2     N11327   1.286   0.371  16.211  0.3000 -1.0263 -0.0456
  763MPD2    H511328   1.338   0.388  16.126 -2.6927 -2.6467 -2.1752
  763MPD2    N111329   1.175   4.690  15.988 -0.2675  0.5546 -0.1833
  763MPD2    H711330   1.188   0.008  15.903 -2.8701  0.6634 -0.5173
  764MPD2     C11331   4.170   1.200   0.107  0.0513  0.0412  0.2953
  764MPD2    C111332   4.035   1.190   0.112  0.4401 -0.0870  0.0607
  764MPD2    C211333   3.981   1.172   0.236  0.6020  0.4059  0.2175
  764MPD2    C311334   4.049   1.186   0.353  0.0990  0.2066  0.6534
  764MPD2    C411335   4.185   1.214   0.343  0.2640 -0.5580 -0.0662
  764MPD2    C511336   4.245   1.217   0.219 -0.7266 -0.2629  0.1813
  764MPD2     H11337   3.873   1.181   0.238  0.5202 -0.2604 -0.8663
  764MPD2    H111338   4.251   1.239   0.425  0.2040  3.6525 -1.2864
  764MPD2    H211339   4.220   1.199   0.011  1.4563  0.3490  1.0128
  764MPD2    H311340   4.353   1.231   0.212 -1.0438  2.4222  0.5002
  764MPD2     N11341   3.986   1.167   0.482  0.3629 -0.2031  0.0484
  764MPD2    H511342   3.891   1.130   0.478  0.0638  0.6287 -0.4523
  764MPD2    N111343   3.949   1.182   0.000 -0.1848  0.1501  0.3663
  764MPD2    H711344   3.858   1.139   0.015  0.8727 -1.1536  3.1041
  765MPD2     C11345   4.732   4.454  15.311  0.2323  0.8292 -0.0350
  765MPD2    C111346   4.637   4.393  15.395  0.1272  0.2630 -0.2216
  765MPD2    C211347   4.675   4.286  15.478 -0.0686 -0.5856 -0.2956
  765MPD2    C311348   0.066   4.225  15.457 -0.2233  0.1217 -0.4427
  765MPD2    C411349   0.147   4.279  15.362 -0.0570  0.3266  0.2369
  765MPD2    C511350   0.116   4.394  15.295 -0.6451  0.2894 -0.8484
  765MPD2     H11351   4.600   4.254  15.549  0.6496 -1.6594 -0.0306
  765MPD2    H111352   0.247   4.241  15.346  0.9113  2.8195  0.3244
  765MPD2    H211353   4.702   4.541  15.254  1.0786  1.6860  0.8435
  765MPD2    H311354   0.196   4.438  15.237  1.3662 -2.9942 -0.5920
  765MPD2     N11355   0.110   4.110  15.524  0.5161 -0.0012 -0.6232
  765MPD2    H511356   0.204   4.082  15.497  0.5832 -3.4001  3.0899
  765MPD2    N111357   4.511   4.455  15.405  0.0191  0.5267 -0.1584
  765MPD2    H711358   4.503   4.537  15.347  1.4013 -1.1223 -2.6703
  766MPD2     C11359   3.762   4.242  15.212 -0.5926  0.4035  0.1310
  766MPD2    C111360   3.899   4.256  15.198 -0.0233  0.0468 -0.3812
  766MPD2    C211361   3.960   4.194  15.090  0.4062  0.2934 -0.0037
  766MPD2    C311362   3.877   4.143  14.990  0.2808  0.2749 -0.1425
  766MPD2    C411363   3.736   4.142  15.004  0.1444 -0.6743  0.2291
  766MPD2    C511364   3.684   4.181  15.122  0.3939 -0.1287 -0.1394
  766MPD2     H11365   4.068   4.202  15.082  0.6235  1.6748  4.1746
  766MPD2    H111366   3.668   4.119  14.923  1.1114  1.5973 -1.2186
  766MPD2    H211367   3.710   4.284  15.298 -3.6611 -1.6299 -0.7277
  766MPD2    H311368   3.576   4.189  15.135  0.2980 -1.3248 -0.2422
  766MPD2     N11369   3.918   4.111  14.858  0.0473 -0.2106 -0.2344
  766MPD2    H511370   3.855   4.060  14.796 -0.0720 -0.0875 -0.2138
  766MPD2    N111371   3.980   4.319  15.303 -0.1724 -0.1591 -0.2948
  766MPD2    H711372   4.079   4.314  15.280  0.1607 -0.9583  1.3561
  767MPD2     C11373   3.463   4.379  14.931 -0.2910 -0.4967  0.1410
  767MPD2    C111374   3.575   4.419  14.861 -0.4121  0.0052 -0.1857
  767MPD2    C211375   3.592   4.368  14.737  0.0014  0.2137  0.7694
  767MPD2    C311376   3.501   4.279  14.686  0.2448  0.3277  0.0816
  767MPD2    C411377   3.388   4.245  14.757 -0.1888 -0.6065  0.1807
  767MPD2    C511378   3.368   4.302  14.877  0.0562  0.6500  0.6549
  767MPD2     H11379   3.683   4.388  14.683  0.0783  1.1392  1.2377
  767MPD2    H111380   3.316   4.174  14.719  1.6651 -0.8636 -2.8987
  767MPD2    H211381   3.456   4.400  15.037 -0.4596  1.9924 -0.3694
  767MPD2    H311382   3.283   4.274  14.938  1.1268  0.0475  1.8677
  767MPD2     N11383   3.529   4.238  14.555 -0.2526  0.0661  0.8092
  767MPD2    H511384   3.620   4.269  14.524 -1.4786 -0.6184 -3.3601
  767MPD2    N111385   3.671   4.490  14.934  0.1670 -0.1440  0.3875
  767MPD2    H711386   3.647   4.514  15.030  1.7444  2.8838  0.0058
  768MPD2     C11387   4.394   2.902  10.627 -0.5878  0.1715 -0.5237
  768MPD2    C111388   4.328   2.820  10.719  0.4355 -0.2907  0.2611
  768MPD2    C211389   4.372   2.824  10.848 -0.4353  0.1044 -0.5057
  768MPD2    C311390   4.474   2.907  10.893 -0.6480  0.8329  0.0137
  768MPD2    C411391   4.538   2.982  10.804 -0.4332 -0.2099 -0.4301
  768MPD2    C511392   4.495   2.983  10.673  0.4600 -0.2920 -0.4331
  768MPD2     H11393   4.326   2.755  10.918 -1.5980  0.9242 -0.4658
  768MPD2    H111394   4.622   3.047  10.821 -1.8168  1.4127  0.2278
  768MPD2    H211395   4.362   2.900  10.524  1.8411 -2.8771 -1.1925
  768MPD2    H311396   4.542   3.052  10.603 -3.7807  1.0646 -1.9431
  768MPD2     N11397   4.505   2.921  11.032 -0.2779 -0.4885 -0.5232
  768MPD2    H511398   4.565   2.996  11.065 -0.5699  0.5428 -2.3150
  768MPD2    N111399   4.232   2.730  10.688  0.1621  0.4002 -0.0111
  768MPD2    H711400   4.212   2.664  10.763  0.4297 -0.2196 -0.4847
  769MPD2     C11401   0.728   1.328  14.445 -0.2456 -0.2053 -0.3636
  769MPD2    C111402   0.694   1.204  14.486 -0.5473 -0.1718  0.3536
  769MPD2    C211403   0.715   1.168  14.621  0.5297 -0.0729 -0.0219
  769MPD2    C311404   0.772   1.260  14.707  0.2058  0.4521  0.0599
  769MPD2    C411405   0.803   1.388  14.660 -0.8605  0.1835 -0.1183
  769MPD2    C511406   0.777   1.424  14.531 -0.7892  0.0407 -0.8049
  769MPD2     H11407   0.699   1.066  14.655 -1.9211  0.4595  0.4194
  769MPD2    H111408   0.834   1.475  14.718 -0.0906 -0.3058  0.1996
  769MPD2    H211409   0.711   1.361  14.343 -1.7771  0.9528  0.2730
  769MPD2    H311410   0.774   1.529  14.501 -0.4206  0.5685  0.9954
  769MPD2     N11411   0.796   1.223  14.840 -0.3798  0.0656  0.2002
  769MPD2    H511412   0.752   1.138  14.872  0.9980 -1.3754 -1.7840
  769MPD2    N111413   0.658   1.113  14.381  0.0094 -0.2979 -0.8226
  769MPD2    H711414   0.654   1.151  14.286 -0.7728  2.6295  0.3599
  770MPD2     C11415   0.589   0.499  14.883  1.2977  0.2359 -0.1183
  770MPD2    C111416   0.501   0.428  14.798  0.0037 -0.0193 -0.1373
  770MPD2    C211417   0.470   0.478  14.677  0.0371 -1.0619 -0.0497
  770MPD2    C311418   0.543   0.593  14.633 -0.0510 -0.5528  0.6575
  770MPD2    C411419   0.630   0.658  14.718 -0.3914  0.2090  1.2273
  770MPD2    C511420   0.649   0.618  14.844 -1.0151 -0.1821 -0.6206
  770MPD2     H11421   0.399   0.440  14.604  0.3230  0.3619 -1.0758
  770MPD2    H111422   0.680   0.748  14.682 -0.3962 -0.2089  0.1646
  770MPD2    H211423   0.619   0.458  14.979 -0.1367 -0.8069 -0.1267
  770MPD2    H311424   0.711   0.686  14.902  2.5387 -1.8742 -2.4022
  770MPD2     N11425   0.536   0.646  14.505 -0.3598 -0.3360  0.4053
  770MPD2    H511426   0.591   0.729  14.487  0.2298 -0.6360  0.7820
  770MPD2    N111427   0.463   0.300  14.852  0.0577  0.2411  0.4007
  770MPD2    H711428   0.505   0.271  14.940  2.1965 -0.2318 -0.7812
  771MPD2     C11429   1.237   3.246  13.873  0.2015 -0.0946 -0.3113
  771MPD2    C111430   1.207   3.358  13.794 -0.8826  0.6162  0.2942
  771MPD2    C211431   1.101   3.348  13.703 -0.0132 -0.2634 -0.0595
  771MPD2    C311432   1.025   3.234  13.703 -0.0261 -0.1876 -0.2797
  771MPD2    C411433   1.057   3.128  13.781 -0.4540 -0.7731  0.4201
  771MPD2    C511434   1.164   3.131  13.859  0.7936 -0.2995 -0.4136
  771MPD2     H11435   1.077   3.431  13.637 -0.9810 -0.6331 -0.1758
  771MPD2    H111436   0.997   3.038  13.787  1.1717 -2.0455 -2.3960
  771MPD2    H211437   1.320   3.239  13.943 -0.7076 -2.1821  0.5517
  771MPD2    H311438   1.186   3.035  13.905  0.2790 -1.4338 -2.5102
  771MPD2     N11439   0.917   3.233  13.613  1.0030  0.1975  0.7072
  771MPD2    H511440   0.904   3.310  13.548 -0.7882 -1.9975 -1.5555
  771MPD2    N111441   1.287   3.474  13.805  0.3330 -0.3199  0.3824
  771MPD2    H711442   1.254   3.559  13.759  1.7804  1.1495  2.0747
  772MPD2     C11443   1.254   4.138  14.133  0.2043 -0.0465 -1.2915
  772MPD2    C111444   1.197   4.028  14.077  0.2220 -0.6252 -0.9807
  772MPD2    C211445   1.066   3.997  14.099 -0.4463  0.1128  0.3337
  772MPD2    C311446   0.991   4.091  14.169  0.0613 -0.6242  0.4415
  772MPD2    C411447   1.035   4.210  14.216 -0.2919  0.1176  0.0293
  772MPD2    C511448   1.171   4.229  14.200 -0.3389  0.4607 -0.1704
  772MPD2     H11449   1.024   3.908  14.052 -0.6741  2.1098 -3.2138
  772MPD2    H111450   0.968   4.281  14.263 -2.6521 -1.9526 -0.1705
  772MPD2    H211451   1.358   4.167  14.129  0.5821 -1.2064  0.3451
  772MPD2    H311452   1.209   4.324  14.235  1.0419  0.1259 -0.7576
  772MPD2     N11453   0.855   4.075  14.189 -0.1791  0.9042  0.8980
  772MPD2    H511454   0.812   4.152  14.241 -0.7236  0.4367  1.1439
  772MPD2    N111455   1.275   3.934  14.002  0.2832  0.1544 -0.4678
  772MPD2    H711456   1.232   3.846  13.974  1.7079 -0.4479 -0.7340
  773MPD2     C11457   0.170   0.689   0.332  0.5936  0.7812 -0.5432
  773MPD2    C111458   0.121   0.585   0.253 -0.3686  0.1386 -0.0945
  773MPD2    C211459   0.159   0.459   0.289 -0.0061  0.3789 -0.4965
  773MPD2    C311460   0.252   0.438   0.389 -0.0021  0.1606 -0.2234
  773MPD2    C411461   0.317   0.539   0.453 -0.1722  0.9038 -0.7550
  773MPD2    C511462   0.274   0.666   0.416 -0.6896  0.9049 -0.0045
  773MPD2     H11463   0.111   0.367   0.256 -1.1055  0.0937  1.9301
  773MPD2    H111464   0.397   0.522   0.524  1.9532  0.7376 -3.1945
  773MPD2    H211465   0.149   0.794   0.313 -0.2577  0.4085 -1.7162
  773MPD2    H311466   0.319   0.750   0.468 -0.1961  1.2153 -0.9395
  773MPD2     N11467   0.276   0.302   0.417 -0.8346  0.6339  0.1627
  773MPD2    H511468   0.221   0.237   0.362 -1.3684  0.7132  0.6001
  773MPD2    N111469   0.010   0.610   0.165  0.3672  0.3096  0.5652
  773MPD2    H711470   4.707   0.528   0.120  0.0906 -0.0390  1.4330
  774MPD2     C11471   3.760   4.165  13.605  0.5142 -0.1253 -1.1830
  774MPD2    C111472   3.871   4.213  13.671  0.2486  0.0836  1.5640
  774MPD2    C211473   3.882   4.347  13.689  0.6054 -1.1629 -0.7536
  774MPD2    C311474   3.795   4.436  13.633 -0.1513  0.0111 -0.6937
  774MPD2    C411475   3.689   4.384  13.556  0.4406 -0.1355 -0.2542
  774MPD2    C511476   3.669   4.248  13.544 -0.0036 -0.4535  0.3312
  774MPD2     H11477   3.968   4.382  13.743 -0.0557  0.8016 -0.9658
  774MPD2    H111478   3.627   4.451  13.497  0.8926 -0.4115 -1.0386
  774MPD2    H211479   3.750   4.060  13.581 -0.1176 -0.8395  2.2702
  774MPD2    H311480   3.579   4.205  13.500 -0.3445  0.1411  0.4488
  774MPD2     N11481   3.815   4.570  13.665  0.2942  0.1288  0.1400
  774MPD2    H511482   3.900   4.594  13.715  1.7930  0.9889 -2.8048
  774MPD2    N111483   3.965   4.122  13.739 -0.5836  0.3931  0.7597
  774MPD2    H711484   3.927   4.028  13.734  0.7047 -0.1593  1.3562
  775MPD2     C11485   0.707   0.904  15.823  0.3153 -0.3684  0.2104
  775MPD2    C111486   0.723   1.007  15.912 -0.4608 -0.5707 -0.8039
  775MPD2    C211487   0.803   1.115  15.882 -0.5389  0.2859 -0.5371
  775MPD2    C311488   0.864   1.121  15.761  0.2325 -0.1853  0.0850
  775MPD2    C411489   0.854   1.013  15.679  0.5750 -0.6255  0.5890
  775MPD2    C511490   0.773   0.900  15.699 -0.2248 -0.2906  0.0440
  775MPD2     H11491   0.831   1.182  15.962  0.7126 -1.8905  0.8514
  775MPD2    H111492   0.894   1.026  15.579 -0.3665 -1.2316  0.1274
  775MPD2    H211493   0.646   0.819  15.852  0.2598 -0.4475 -0.1441
  775MPD2    H311494   0.761   0.828  15.619 -1.5529 -1.0713  0.9375
  775MPD2     N11495   0.961   1.217  15.723 -0.1009  0.3902  0.7558
  775MPD2    H511496   1.010   1.209  15.634 -0.8568 -0.3957  0.4109
  775MPD2    N111497   0.643   0.996  16.024  0.4177  0.1350 -0.0636
  775MPD2    H711498   0.598   0.907  16.042  0.8951 -0.1732 -0.3844
  776MPD2     C11499   3.756   0.825  11.609 -0.3965  0.3191  0.5284
  776MPD2    C111500   3.888   0.837  11.632  0.5458  0.1191 -0.8109
  776MPD2    C211501   3.950   0.960  11.616 -0.1876 -0.0474  0.0309
  776MPD2    C311502   3.871   1.070  11.579 -0.0114  0.4589 -0.2908
  776MPD2    C411503   3.739   1.060  11.563 -0.8814 -1.7316  1.3183
  776MPD2    C511504   3.683   0.935  11.566  0.1556 -0.6931  0.0975
  776MPD2     H11505   4.053   0.963  11.649 -0.3170 -2.2029  0.6523
  776MPD2    H111506   3.679   1.147  11.541  1.3114 -0.9622 -1.5843
  776MPD2    H211507   3.711   0.727  11.624  2.0024 -1.1887 -1.9366
  776MPD2    H311508   3.576   0.923  11.551  0.0428  0.1267  0.2778
  776MPD2     N11509   3.922   1.201  11.558 -0.2868  1.2072 -0.6017
  776MPD2    H511510   3.866   1.285  11.547  0.6020  2.1673  2.0991
  776MPD2    N111511   3.957   0.720  11.677 -0.0527  0.3390 -0.2834
  776MPD2    H711512   3.895   0.643  11.702  0.2741 -0.6570 -2.6161
  777MPD2     C11513   4.699   3.676   0.554 -0.1353 -0.3817  0.7866
  777MPD2    C111514   4.705   3.574   0.649  0.6979 -0.6956  0.0342
  777MPD2    C211515   4.673   3.447   0.605  0.7195  0.5727 -0.1623
  777MPD2    C311516   4.641   3.416   0.476  0.0468 -0.2198 -0.5746
  777MPD2    C411517   4.649   3.519   0.393  0.2515 -0.4254 -0.1300
  777MPD2    C511518   4.662   3.645   0.432 -0.5002  0.0127 -0.0012
  777MPD2     H11519   4.677   3.357   0.666 -3.0063  0.1913 -0.4932
  777MPD2    H111520   4.615   3.498   0.292 -0.6845 -1.3480  0.3745
  777MPD2    H211521   4.706   3.780   0.586 -0.5746 -0.0035 -0.3504
  777MPD2    H311522   4.655   3.723   0.357  0.9752  1.6317  1.5357
  777MPD2     N11523   4.609   3.287   0.432 -0.2497 -0.4723 -0.2925
  777MPD2    H511524   4.617   3.269   0.332  0.2580 -1.2674 -0.1152
  777MPD2    N111525   0.014   3.622   0.778 -0.5238 -0.6366  0.2332
  777MPD2    H711526   4.729   3.719   0.795 -1.4660 -1.0150  1.2790
  778MPD2     C11527   1.454   3.748  15.102 -0.5892 -0.4678  0.1906
  778MPD2    C111528   1.467   3.621  15.032  0.3652  0.2405 -0.2210
  778MPD2    C211529   1.541   3.612  14.914 -0.2478  0.1318  0.5049
  778MPD2    C311530   1.606   3.725  14.864  0.6371  0.9400  0.0096
  778MPD2    C411531   1.596   3.844  14.931  0.0543  0.3791  0.4159
  778MPD2    C511532   1.523   3.849  15.045 -0.1333  0.0212 -0.1775
  778MPD2     H11533   1.547   3.521  14.856  1.1869 -0.0021  0.8727
  778MPD2    H111534   1.627   3.941  14.893  0.2744 -1.0806 -3.1236
  778MPD2    H211535   1.391   3.776  15.186 -0.3150 -0.6955  0.4732
  778MPD2    H311536   1.521   3.948  15.089 -1.3176 -0.1505  0.1369
  778MPD2     N11537   1.680   3.712  14.742 -0.7444  0.2587  0.0839
  778MPD2    H511538   1.691   3.623  14.694  1.0272  0.3011  0.3900
  778MPD2    N111539   1.399   3.503  15.076  0.2535 -0.2409 -0.3872
  778MPD2    H711540   1.400   3.420  15.018 -0.5820 -2.2889  2.5049
  779MPD2     C11541   1.048   2.326  14.491 -0.3489  0.5577 -0.4576
  779MPD2    C111542   1.184   2.327  14.485  0.5463 -0.5108  0.6335
  779MPD2    C211543   1.248   2.447  14.481  0.3440  0.3850 -0.5001
  779MPD2    C311544   1.174   2.556  14.445 -0.4431  0.4239 -0.3256
  779MPD2    C411545   1.033   2.549  14.433 -0.0247 -0.1630 -0.7356
  779MPD2    C511546   0.969   2.433  14.456  0.5140 -0.1037  0.2103
  779MPD2     H11547   1.356   2.447  14.478  0.3150 -1.7213 -1.6594
  779MPD2    H111548   0.972   2.633  14.403 -1.1638 -0.2521  1.3263
  779MPD2    H211549   1.000   2.229  14.493  0.1290  0.3302  0.1143
  779MPD2    H311550   0.861   2.426  14.452  0.5589  0.4429 -1.7061
  779MPD2     N11551   1.241   2.675  14.408 -0.2359 -0.3290  0.4155
  779MPD2    H511552   1.342   2.663  14.407  0.2579  3.5930  1.5475
  779MPD2    N111553   1.262   2.208  14.497 -0.4297 -0.0551 -0.5100
  779MPD2    H711554   1.361   2.228  14.508 -0.5130  1.7663 -3.0125
  780MPD2     C11555   0.051   2.270   0.750  0.5690  0.3899 -0.0878
  780MPD2    C111556   0.123   2.337   0.845  0.0799 -0.3330  0.6447
  780MPD2    C211557   0.221   2.425   0.809 -0.2076  0.2600  1.0119
  780MPD2    C311558   0.239   2.453   0.676 -0.1071  0.2387 -0.1971
  780MPD2    C411559   0.165   2.391   0.577  0.2182  0.7877 -0.0845
  780MPD2    C511560   0.070   2.299   0.619 -0.0114  0.5295  0.4979
  780MPD2     H11561   0.270   2.489   0.881  0.3999 -0.7561  1.4946
  780MPD2    H111562   0.177   2.417   0.472  1.5580 -1.7800 -0.5631
  780MPD2    H211563   4.702   2.214   0.788  1.0720 -0.2178  0.1514
  780MPD2    H311564   0.008   2.242   0.551  0.9773 -0.5233  0.4773
  780MPD2     N11565   0.329   2.551   0.636  0.3476 -0.0541 -0.3170
  780MPD2    H511566   0.355   2.547   0.538  0.2824 -0.3182 -0.3231
  780MPD2    N111567   0.091   2.314   0.981  0.5464 -0.7176  0.4326
  780MPD2    H711568   0.020   2.245   1.000 -0.6741 -0.2403 -2.4048
  781MPD2     C11569   2.446   4.634  12.140  0.3918 -0.4942 -0.5028
  781MPD2    C111570   2.397   4.519  12.088 -0.0992  0.1831  0.3498
  781MPD2    C211571   2.390   4.497  11.951 -0.1063  0.5030 -0.4133
  781MPD2    C311572   2.437   4.596  11.866  0.4332  0.1394 -0.4754
  781MPD2    C411573   2.477   4.714  11.921  0.3428 -0.5916  0.1913
  781MPD2    C511574   2.478   0.001  12.054  0.0814 -0.4829 -0.2426
  781MPD2     H11575   2.374   4.401  11.904 -1.2506  0.8184 -0.6553
  781MPD2    H111576   2.530   0.051  11.862 -0.7817 -0.5103 -0.7146
  781MPD2    H211577   2.450   4.653  12.246 -0.1510 -0.9337 -0.4000
  781MPD2    H311578   2.527   0.093  12.084  0.0346 -0.3634 -0.5314
  781MPD2     N11579   2.453   4.575  11.730  0.4373 -0.5992 -0.1540
  781MPD2    H511580   2.499   4.655  11.688 -0.5268  0.0113 -0.0553
  781MPD2    N111581   2.360   4.426  12.180 -0.4939 -0.0509  0.1460
  781MPD2    H711582   2.371   4.452  12.277  0.2551  0.3359 -0.0355
  782MPD2     C11583   0.021   0.672  10.886 -0.8155  0.2907 -0.3023
  782MPD2    C111584   0.154   0.655  10.839 -0.0374 -0.2779  1.0563
  782MPD2    C211585   0.254   0.644  10.934 -0.6299 -0.3525  0.1664
  782MPD2    C311586   0.227   0.630  11.067 -0.1930  0.3457  0.2182
  782MPD2    C411587   0.092   0.637  11.111  0.5577 -0.3226  0.5447
  782MPD2    C511588   4.730   0.674  11.018 -0.2302  0.0647  0.4033
  782MPD2     H11589   0.357   0.621  10.910 -0.8238  0.1644 -1.1330
  782MPD2    H111590   0.072   0.644  11.217  2.3161 -2.7642  1.0328
  782MPD2    H211591   4.676   0.675  10.815  0.6365 -2.6682 -2.1284
  782MPD2    H311592   4.624   0.678  11.042 -0.1634 -1.4115  0.9778
  782MPD2     N11593   0.339   0.611  11.147 -0.1567 -0.5944 -0.0420
  782MPD2    H511594   0.427   0.609  11.096 -1.2680  1.5752 -2.0549
  782MPD2    N111595   0.176   0.622  10.702 -0.3438  0.0423 -0.1715
  782MPD2    H711596   0.097   0.593  10.646  0.2240 -1.9751  0.0406
  783MPD2     C11597   4.610   4.496  10.695  0.3145 -0.2710  0.5641
  783MPD2    C111598   4.663   4.542  10.818 -0.4818 -0.0505  0.0174
  783MPD2    C211599   0.013   4.650  10.813  0.0802  0.0212  0.0404
  783MPD2    C311600   0.041   4.714  10.696  0.0037 -0.3881  0.0201
  783MPD2    C411601   4.727   4.668  10.577 -0.0402  0.0517 -0.4347
  783MPD2    C511602   4.641   4.562  10.577 -0.3929  0.4844  0.1014
  783MPD2     H11603   0.055   4.692  10.903 -0.3581  1.4348 -0.4171
  783MPD2    H111604   4.736   4.712  10.478  2.3650  1.0605  0.2515
  783MPD2    H211605   4.548   4.408  10.685 -1.3911  0.6610  2.8234
  783MPD2    H311606   4.605   4.530  10.479  2.0525  0.1752 -0.6986
  783MPD2     N11607   0.115   0.096  10.709  0.3613 -0.3015 -0.8013
  783MPD2    H511608   0.140   0.116  10.806  0.6743 -1.1533 -0.7069
  783MPD2    N111609   4.634   4.470  10.931 -0.5847  0.1393  0.2635
  783MPD2    H711610   4.567   4.393  10.924  0.6940 -1.0210  0.9045
  784MPD2     C11611   2.630   0.720   0.495  0.2293 -0.1054 -0.0571
  784MPD2    C111612   2.607   0.804   0.600  0.4376  0.2444 -0.0115
  784MPD2    C211613   2.481   0.827   0.654 -0.5282 -0.4416  0.3756
  784MPD2    C311614   2.376   0.759   0.603  0.0978  0.2132 -1.2786
  784MPD2    C411615   2.397   0.686   0.487 -0.2697 -0.2128  0.0630
  784MPD2    C511616   2.522   0.664   0.430 -0.6081  0.1806  0.2077
  784MPD2     H11617   2.460   0.900   0.731 -2.5282  1.3182 -1.8580
  784MPD2    H111618   2.309   0.638   0.445  1.0028 -3.7692  1.4612
  784MPD2    H211619   2.732   0.699   0.465  0.1718  1.0178 -1.0277
  784MPD2    H311620   2.533   0.588   0.353  0.6043  1.4928 -0.9028
  784MPD2     N11621   2.247   0.783   0.666  0.3457 -0.5076  0.0294
  784MPD2    H511622   2.252   0.841   0.749  1.6315  0.3616 -0.6460
  784MPD2    N111623   2.714   0.869   0.658 -0.3654  0.6194 -0.2060
  784MPD2    H711624   2.684   0.912   0.745 -2.9072 -2.7288  0.5448
  785MPD2     C11625   2.797   3.079  10.983  0.0089 -0.6425  0.4400
  785MPD2    C111626   2.677   3.107  10.926 -0.3246  0.5986  0.0088
  785MPD2    C211627   2.635   3.071  10.804  0.1015 -0.4701 -0.7457
  785MPD2    C311628   2.724   2.991  10.728 -0.3323 -0.2945 -0.4144
  785MPD2    C411629   2.847   2.953  10.777  0.0474  0.3003 -0.5128
  785MPD2    C511630   2.879   3.002  10.902 -0.2354  0.2029 -0.6031
  785MPD2     H11631   2.542   3.097  10.755 -0.4736 -0.3306  0.4308
  785MPD2    H111632   2.911   2.885  10.723  1.8078  1.1483  0.5234
  785MPD2    H211633   2.827   3.119  11.079  0.8347  0.3312 -0.2194
  785MPD2    H311634   2.981   2.979  10.932 -1.0258  0.5310  2.2681
  785MPD2     N11635   2.690   2.959  10.595  0.0551  0.5093  0.0399
  785MPD2    H511636   2.600   2.991  10.560  0.0835  1.5565  0.9268
  785MPD2    N111637   2.596   3.186  11.010  0.0224  0.2325  0.5883
  785MPD2    H711638   2.616   3.192  11.109  0.2495 -1.2945  0.6331
  786MPD2     C11639   1.441   1.685  14.965 -0.1023  0.2221 -0.4169
  786MPD2    C111640   1.572   1.644  14.937  0.3088  0.3313  0.5048
  786MPD2    C211641   1.674   1.691  15.022 -0.0273 -0.5426 -0.7972
  786MPD2    C311642   1.641   1.766  15.134  0.2870  0.1569 -0.2565
  786MPD2    C411643   1.514   1.805  15.159  0.3727  0.1895 -0.2875
  786MPD2    C511644   1.413   1.764  15.078 -0.5642 -0.3849  0.2757
  786MPD2     H11645   1.769   1.656  14.984 -0.0830 -1.2747 -0.2687
  786MPD2    H111646   1.478   1.869  15.238  1.2456  0.4067 -0.0686
  786MPD2    H211647   1.356   1.658  14.903 -1.1570  0.2436  1.0125
  786MPD2    H311648   1.312   1.804  15.083 -0.6833 -0.5322 -0.8297
  786MPD2     N11649   1.737   1.825  15.210 -0.2545 -0.5879  0.2136
  786MPD2    H511650   1.700   1.881  15.286  1.2232 -1.5579  1.6329
  786MPD2    N111651   1.602   1.553  14.832  0.6424  0.8757 -0.1674
  786MPD2    H711652   1.696   1.519  14.818 -0.3057 -2.0793  0.7028
  787MPD2     C11653   2.013   1.216  15.046  0.1947  0.3265 -0.1535
  787MPD2    C111654   1.970   1.134  14.940 -0.1173  0.3585  0.5399
  787MPD2    C211655   2.064   1.038  14.895  0.6038  0.3155 -0.3223
  787MPD2    C311656   2.173   1.008  14.970  0.0146 -0.3734 -0.6158
  787MPD2    C411657   2.203   1.074  15.087 -0.2002  0.5620  0.0968
  787MPD2    C511658   2.132   1.187  15.113 -0.0822  0.7154 -0.9864
  787MPD2     H11659   2.053   0.982  14.803  3.0033 -2.5216  1.1245
  787MPD2    H111660   2.280   1.049  15.158 -0.7848 -2.7902 -0.4416
  787MPD2    H211661   1.943   1.291  15.080 -1.3004 -0.2522 -1.9911
  787MPD2    H311662   2.166   1.259  15.187  2.7519  0.9787 -2.5260
  787MPD2     N11663   2.261   0.902  14.925  0.2541 -0.2963 -0.1071
  787MPD2    H511664   2.243   0.854  14.837  1.3017 -2.3488  0.7838
  787MPD2    N111665   1.844   1.166  14.879 -0.8880  0.1119 -0.4844
  787MPD2    H711666   1.785   1.227  14.935 -1.2986  0.0055 -0.8051
  788MPD2     C11667   3.765   0.143   0.745  0.9308 -0.0629  0.2582
  788MPD2    C111668   3.656   0.067   0.710 -0.0236  0.1753  0.3694
  788MPD2    C211669   3.556   0.122   0.629 -0.3517  0.3339 -0.4188
  788MPD2    C311670   3.575   0.250   0.579  0.1978  0.2074  0.3184
  788MPD2    C411671   3.684   0.323   0.607  0.5472 -0.4624  0.1206
  788MPD2    C511672   3.776   0.268   0.692  0.6367 -0.6350 -0.5712
  788MPD2     H11673   3.464   0.066   0.615 -0.5506  0.2875  1.0648
  788MPD2    H111674   3.714   0.419   0.567 -0.9493 -0.3703 -0.8037
  788MPD2    H211675   3.844   0.097   0.803  0.9531  0.7477  0.8700
  788MPD2    H311676   3.857   0.335   0.717 -0.8625  0.8820  0.1898
  788MPD2     N11677   3.479   0.307   0.489  0.3487 -0.2313 -0.2215
  788MPD2    H511678   3.507   0.394   0.446 -0.2732 -0.4951 -1.1503
  788MPD2    N111679   3.641   4.673   0.743  0.2201 -0.9532  0.5570
  788MPD2    H711680   3.565   4.614   0.711 -0.4035  0.8403 -1.3018
  789MPD2     C11681   3.877   3.980  16.954  0.2709  0.4021 -0.2601
  789MPD2    C111682   3.761   3.942  17.025  0.4618 -0.0481  0.3840
  789MPD2    C211683   3.666   4.038  17.062 -0.3768 -1.0559 -0.3145
  789MPD2    C311684   3.695   4.173  17.042  0.0241 -1.1674 -0.3332
  789MPD2    C411685   3.815   4.205  16.988 -0.2843 -0.1419  1.1279
  789MPD2    C511686   3.901   4.112  16.943 -0.3429 -0.0418  0.1251
  789MPD2     H11687   3.576   4.011  17.115 -1.3847  3.0439  0.0793
  789MPD2    H111688   3.854   4.307  16.992  2.3184 -1.1041  0.2492
  789MPD2    H211689   3.942   3.912  16.901 -1.0537 -1.2499  0.2504
  789MPD2    H311690   3.991   4.138  16.889 -1.6993 -1.5092 -2.8666
  789MPD2     N11691   3.609   4.280  17.067 -0.1158  0.5757 -0.3692
  789MPD2    H511692   3.640   4.366  17.024  2.1727  1.1640  2.4683
  789MPD2    N111693   3.726   3.803  17.039 -0.1930 -0.0014 -0.2741
  789MPD2    H711694   3.638   3.774  17.079 -0.3717 -0.2762 -0.8634
  790MPD2     C11695   0.199   1.964  13.408  0.1391 -0.1989  0.3235
  790MPD2    C111696   0.218   1.839  13.466 -0.4069  0.0343  0.8403
  790MPD2    C211697   0.148   1.734  13.418  0.0495  0.2371  0.7776
  790MPD2    C311698   0.066   1.747  13.310 -0.2059 -0.5050 -0.7360
  790MPD2    C411699   0.053   1.871  13.247 -0.5661 -0.0573  0.0390
  790MPD2    C511700   0.121   1.975  13.290 -0.3151  0.0794  0.7370
  790MPD2     H11701   0.159   1.636  13.462 -0.7671 -0.0109  0.4286
  790MPD2    H111702   4.724   1.882  13.161  1.1169  1.6435 -1.0344
  790MPD2    H211703   0.237   2.051  13.462 -0.4034  0.7807 -0.8729
  790MPD2    H311704   0.105   2.070  13.240 -1.5162  0.8553  2.6060
  790MPD2     N11705   4.733   1.639  13.262 -0.1046 -0.3101  0.1262
  790MPD2    H511706   0.024   1.546  13.293  0.4777  0.4508  1.9363
  790MPD2    N111707   0.296   1.835  13.584 -0.8386 -0.4197  0.2189
  790MPD2    H711708   0.342   1.921  13.611 -0.5339 -0.5218  0.0286
  791MPD2     C11709   4.035   1.392  13.413  0.5598  0.1061 -0.7381
  791MPD2    C111710   4.082   1.325  13.303 -0.4886  0.1129  0.3183
  791MPD2    C211711   4.025   1.201  13.273 -0.5002 -0.8338 -0.6129
  791MPD2    C311712   3.917   1.150  13.340 -0.3315  0.1539  0.5597
  791MPD2    C411713   3.863   1.227  13.440  0.2637  0.5062  1.1005
  791MPD2    C511714   3.921   1.342  13.474 -0.3457 -0.3689 -0.3570
  791MPD2     H11715   4.073   1.132  13.204  0.1112 -1.6265  0.6015
  791MPD2    H111716   3.780   1.201  13.505 -0.6119 -3.2580 -1.5185
  791MPD2    H211717   4.074   1.488  13.442 -1.2101  1.1957 -1.9890
  791MPD2    H311718   3.887   1.412  13.550 -0.7006 -1.5007  0.5302
  791MPD2     N11719   3.869   1.024  13.311  0.0712  0.8095  0.0118
  791MPD2    H511720   3.928   0.965  13.254 -0.9818  0.6237 -0.9024
  791MPD2    N111721   4.193   1.384  13.242 -0.0435 -0.8671 -0.3476
  791MPD2    H711722   4.239   1.460  13.292  0.2342 -0.2760 -1.5051
  792MPD2     C11723   0.426   0.793  11.827  0.0140 -0.5363 -0.5586
  792MPD2    C111724   0.345   0.873  11.751 -0.2442 -0.6707 -0.0422
  792MPD2    C211725   0.234   0.817  11.685  0.6749  0.1960 -0.0405
  792MPD2    C311726   0.203   0.687  11.691 -0.0576 -0.3100  0.0411
  792MPD2    C411727   0.277   0.608  11.784 -0.4243  0.9923  0.7779
  792MPD2    C511728   0.391   0.663  11.841  0.8522  0.8392 -0.8716
  792MPD2     H11729   0.183   0.878  11.611 -0.4907  0.6978  1.1896
  792MPD2    H111730   0.252   0.503  11.799  0.3260  0.7216  0.1693
  792MPD2    H211731   0.514   0.824  11.883  2.2119 -0.2823 -4.1620
  792MPD2    H311732   0.457   0.593  11.893 -1.9134 -0.9102  0.2873
  792MPD2     N11733   0.091   0.630  11.617 -0.1933  0.2344  0.5398
  792MPD2    H511734   0.075   0.535  11.649 -0.9175  0.4611  0.8600
  792MPD2    N111735   0.385   1.005  11.735 -0.5920 -0.4699 -0.7361
  792MPD2    H711736   0.482   1.021  11.757 -1.1524  0.0010  1.4329
  793MPD2     C11737   4.330   1.147  11.051  0.6230 -0.2194 -0.0472
  793MPD2    C111738   4.456   1.110  11.088  0.4147  0.1957 -0.5052
  793MPD2    C211739   4.477   1.005  11.167 -0.2392  0.6568 -0.0616
  793MPD2    C311740   4.374   0.929  11.213 -0.6770  0.1126 -0.7572
  793MPD2    C411741   4.243   0.962  11.180  0.0071 -0.5863  0.0023
  793MPD2    C511742   4.222   1.067  11.088 -0.8049  0.5708  0.0320
  793MPD2     H11743   4.580   0.976  11.180 -1.1722 -0.7762  4.0767
  793MPD2    H111744   4.157   0.903  11.207  0.1141 -0.4809  0.5816
  793MPD2    H211745   4.314   1.228  10.981 -2.1796 -1.9363 -1.3781
  793MPD2    H311746   4.122   1.093  11.055 -0.9868 -0.7866 -0.4619
  793MPD2     N11747   4.413   0.820  11.298  0.4779 -0.3426  0.1289
  793MPD2    H511748   4.513   0.821  11.313  0.8095  1.9641 -2.2411
  793MPD2    N111749   4.579   1.175  11.044  0.2487  0.4358 -0.5050
  793MPD2    H711750   4.663   1.137  11.087  0.4378  3.8886  2.2421
  794MPD2     C11751   4.651   0.771  17.122  0.9545 -0.3853 -0.3550
  794MPD2    C111752   4.536   0.719  17.174 -0.8144  0.3606  1.0035
  794MPD2    C211753   4.453   0.655  17.087  0.2700 -0.1062  0.2727
  794MPD2    C311754   4.461   0.664  16.950 -0.5028  0.1517 -0.5239
  794MPD2    C411755   4.585   0.710  16.899  0.5450 -0.5341  0.5101
  794MPD2    C511756   4.674   0.764  16.989 -0.6867  0.5847  0.5554
  794MPD2     H11757   4.365   0.613  17.135  1.3610 -0.1636  2.2173
  794MPD2    H111758   4.597   0.726  16.793  0.7544  0.0543  0.6244
  794MPD2    H211759   4.733   0.789  17.190  0.3679  1.2549 -0.0799
  794MPD2    H311760   0.026   0.818  16.955 -1.0277  0.4104 -0.6118
  794MPD2     N11761   4.361   0.626  16.861 -0.1835 -0.5048 -0.0099
  794MPD2    H511762   4.379   0.658  16.767  0.7227  0.1280  0.3804
  794MPD2    N111763   4.513   0.718  17.313 -0.1417  0.2190  0.5104
  794MPD2    H711764   4.423   0.683  17.344  0.3297 -0.9291  0.5886
  795MPD2     C11765   2.475   2.937  13.577 -0.0341 -0.8506 -0.1245
  795MPD2    C111766   2.394   2.824  13.585 -0.4692 -0.4478  0.1537
  795MPD2    C211767   2.445   2.704  13.636 -0.0283  0.5647 -1.0857
  795MPD2    C311768   2.579   2.689  13.676  0.1340  0.4894 -0.0818
  795MPD2    C411769   2.660   2.805  13.662  0.1861  0.6190  0.1870
  795MPD2    C511770   2.603   2.921  13.614  0.1879 -1.0579  0.5605
  795MPD2     H11771   2.379   2.618  13.643  1.8219 -0.5201  3.0630
  795MPD2    H111772   2.767   2.797  13.673 -0.2380 -0.0775  3.7288
  795MPD2    H211773   2.452   3.031  13.528  0.8585 -0.9813 -0.7888
  795MPD2    H311774   2.657   3.015  13.612 -2.3896  0.3798 -0.7598
  795MPD2     N11775   2.621   2.567  13.728 -0.1256 -0.6624  0.8540
  795MPD2    H511776   2.546   2.504  13.756  0.1855 -0.8968  1.1531
  795MPD2    N111777   2.260   2.823  13.540 -0.2496 -0.3388  0.2411
  795MPD2    H711778   2.205   2.739  13.552  1.6506 -1.2926  2.1451
  796MPD2     C11779   1.801   4.259  15.688 -0.3661 -0.4450  0.3664
  796MPD2    C111780   1.696   4.297  15.763 -0.0227 -0.0673 -0.4715
  796MPD2    C211781   1.635   4.423  15.734  0.3989  0.4361  0.1194
  796MPD2    C311782   1.680   4.507  15.632  0.1110  0.4273  0.1623
  796MPD2    C411783   1.786   4.465  15.556  0.6748 -0.3217 -0.4397
  796MPD2    C511784   1.837   4.341  15.584  0.8961 -0.1711  0.3592
  796MPD2     H11785   1.557   4.459  15.799  0.5194 -0.3841  0.7167
  796MPD2    H111786   1.849   4.523  15.490  1.7929 -0.6317  0.3462
  796MPD2    H211787   1.859   4.174  15.721  0.7987  0.4981  0.7437
  796MPD2    H311788   1.925   4.311  15.530  0.8403 -0.1416  0.2516
  796MPD2     N11789   1.629   4.639  15.634 -0.6902  0.6487  0.6489
  796MPD2    H511790   1.578   4.663  15.719 -0.4228  1.3696  0.5979
  796MPD2    N111791   1.666   4.211  15.868  0.8666 -0.0833 -0.0976
  796MPD2    H711792   1.716   4.123  15.871 -0.5356 -0.8136  1.8854
  797MPD2     C11793   2.567   3.866  16.974  0.0898 -0.1459 -0.5594
  797MPD2    C111794   2.596   3.985  17.036  0.5152  0.4680 -0.4888
  797MPD2    C211795   2.578   4.104  16.971 -0.0794 -0.5832  0.2762
  797MPD2    C311796   2.503   4.105  16.855  0.4555  0.2618  0.2057
  797MPD2    C411797   2.478   3.985  16.787 -0.2705 -0.2407  0.0286
  797MPD2    C511798   2.512   3.869  16.850 -0.4557 -0.2268 -0.1786
  797MPD2     H11799   2.615   4.195  17.016  0.8731 -0.1712 -1.3338
  797MPD2    H111800   2.428   3.977  16.692  0.9113  1.9400 -0.7735
  797MPD2    H211801   2.593   3.771  17.020 -0.1613 -0.3669 -0.8784
  797MPD2    H311802   2.496   3.778  16.794  2.5730 -0.2365 -1.0296
  797MPD2     N11803   2.461   4.231  16.804 -0.1956 -0.6328 -0.5474
  797MPD2    H511804   2.481   4.315  16.857 -1.1972  0.5898 -2.1298
  797MPD2    N111805   2.653   3.995  17.162 -0.2871  0.0107 -0.0522
  797MPD2    H711806   2.683   4.089  17.188 -3.4418  0.5492  1.5040
  798MPD2     C11807   2.262   4.607  17.283 -0.2369  0.5182 -0.1975
  798MPD2    C111808   2.341   4.536  17.198  0.3548 -0.1447 -1.0176
  798MPD2    C211809   2.429   4.443  17.242 -0.7119  0.3954  0.3631
  798MPD2    C311810   2.432   4.412  17.381 -0.3251  0.2082  0.1434
  798MPD2    C411811   2.347   4.474  17.468  0.5196  0.0294 -0.3929
  798MPD2    C511812   2.263   4.575  17.419 -0.8164 -0.3362 -0.1104
  798MPD2     H11813   2.497   4.383  17.183 -0.1019  1.8899 -0.4503
  798MPD2    H111814   2.353   4.450  17.574 -0.2959  3.3490  0.4140
  798MPD2    H211815   2.197   4.685  17.245 -3.5462 -1.4521  1.3888
  798MPD2    H311816   2.192   4.627  17.481  0.5975  0.1616  1.0992
  798MPD2     N11817   2.518   4.305  17.421  0.2354 -0.3457 -0.4426
  798MPD2    H511818   2.571   4.268  17.344  2.2361  2.0008 -0.1697
  798MPD2    N111819   2.323   4.577  17.065  0.7021  0.5972 -0.2611
  798MPD2    H711820   2.252   4.648  17.047 -1.3467 -1.5143 -0.6410
  799MPD2     C11821   2.078   0.524  15.018  0.1661 -0.2795 -0.5308
  799MPD2    C111822   2.048   0.435  14.917  0.3555 -0.0462  0.4033
  799MPD2    C211823   1.943   0.461  14.827 -0.0227 -1.1242 -0.6559
  799MPD2    C311824   1.881   0.587  14.828  1.0948 -0.0714  0.7379
  799MPD2    C411825   1.910   0.671  14.931 -0.0286 -0.2451  0.8250
  799MPD2    C511826   2.006   0.641  15.025 -0.3720  0.5192 -0.0618
  799MPD2     H11827   1.933   0.389  14.748  1.8932 -1.7639 -0.3211
  799MPD2    H111828   1.851   0.761  14.941  0.4206 -0.0025  1.2840
  799MPD2    H211829   2.149   0.509  15.098  1.1885 -0.3309 -1.4460
  799MPD2    H311830   2.035   0.709  15.105 -2.6613 -0.6229  1.7365
  799MPD2     N11831   1.789   0.627  14.733 -0.1738  0.2164  0.1184
  799MPD2    H511832   1.766   0.726  14.736  1.7701  0.6752  0.1919
  799MPD2    N111833   2.125   0.315  14.899 -0.3735  0.5136 -0.1830
  799MPD2    H711834   2.116   0.271  14.808 -2.3716 -0.9835  0.7153
  800MPD2     C11835   1.838   2.155  14.453  0.3159 -0.3719  0.1764
  800MPD2    C111836   1.931   2.056  14.464  0.4726 -0.1606 -0.6244
  800MPD2    C211837   1.903   1.924  14.416  0.8626  1.1606 -0.4324
  800MPD2    C311838   1.804   1.910  14.325  0.1587 -0.9260  0.0023
  800MPD2    C411839   1.715   2.015  14.308  1.1104 -1.0487 -0.5269
  800MPD2    C511840   1.734   2.136  14.366 -0.5288  0.0113 -0.8621
  800MPD2     H11841   1.978   1.846  14.428 -1.0610 -0.8531 -1.6387
  800MPD2    H111842   1.628   2.011  14.242  0.9159  1.0122 -0.3940
  800MPD2    H211843   1.860   2.255  14.489 -1.3199 -0.5782  1.7635
  800MPD2    H311844   1.653   2.208  14.363  0.3741  1.0642  0.1233
  800MPD2     N11845   1.790   1.781  14.266 -0.4453 -0.1603  0.3067
  800MPD2    H511846   1.855   1.715  14.308 -3.3024 -2.6600  0.7793
  800MPD2    N111847   2.062   2.095  14.509  0.2598  0.5258  0.5697
  800MPD2    H711848   2.081   2.194  14.511 -0.9905  0.7957 -0.7302
  801MPD2     C11849   2.543   2.476  14.124 -0.4408  0.9052 -0.2219
  801MPD2    C111850   2.418   2.422  14.158  0.3004  0.3059 -0.0053
  801MPD2    C211851   2.304   2.499  14.142 -0.0159 -0.1637  0.4328
  801MPD2    C311852   2.307   2.620  14.093 -0.1560  0.7627 -0.1596
  801MPD2    C411853   2.428   2.677  14.066 -0.4957  0.5837 -0.1344
  801MPD2    C511854   2.541   2.606  14.085 -0.5798  0.2746  0.6084
  801MPD2     H11855   2.216   2.445  14.173  0.5770 -1.2850  0.1715
  801MPD2    H111856   2.437   2.777  14.025  0.0333 -0.0570 -1.5663
  801MPD2    H211857   2.638   2.429  14.144 -1.1316 -0.8598 -1.1584
  801MPD2    H311858   2.637   2.648  14.056 -0.6857 -0.0248 -0.1724
  801MPD2     N11859   2.192   2.702  14.081  0.2526 -0.2507  0.5529
  801MPD2    H511860   2.203   2.803  14.079 -2.6733  0.1126  2.7736
  801MPD2    N111861   2.398   2.300  14.224 -0.3738 -0.6092  0.0557
  801MPD2    H711862   2.304   2.267  14.244  1.0804 -4.8689 -0.2462
  802MPD2     C11863   1.822   3.353   0.485  0.1910 -0.3139  0.6598
  802MPD2    C111864   1.740   3.293   0.398 -0.1847  0.5649  0.5850
  802MPD2    C211865   1.751   3.155   0.380  0.4765  0.5476  0.3269
  802MPD2    C311866   1.855   3.079   0.442  0.2011 -0.8354 -0.0452
  802MPD2    C411867   1.943   3.150   0.527  0.2418 -0.4609  0.5435
  802MPD2    C511868   1.924   3.287   0.546 -0.4196 -0.2247 -0.7914
  802MPD2     H11869   1.683   3.104   0.313  0.3024 -0.0272  0.9418
  802MPD2    H111870   2.026   3.102   0.577  0.9656 -0.1943 -0.4032
  802MPD2    H211871   1.800   3.454   0.520 -2.0499 -1.5545  2.8074
  802MPD2    H311872   1.990   3.351   0.604 -1.1663 -2.2706  2.3456
  802MPD2     N11873   1.870   2.945   0.401  0.0032 -0.0727 -0.3969
  802MPD2    H511874   1.812   2.922   0.321 -0.6206 -0.1554  0.0771
  802MPD2    N111875   1.633   3.351   0.333 -0.3256  0.0367  0.0192
  802MPD2    H711876   1.559   3.287   0.305  1.0632 -1.4223 -0.2913
  803MPD2     C11877   2.847   1.389  12.137  0.2152  0.3036 -1.0469
  803MPD2    C111878   2.968   1.348  12.190  0.5991  0.4004 -0.1988
  803MPD2    C211879   2.969   1.231  12.263  0.4644 -0.2401  0.7294
  803MPD2    C311880   2.851   1.158  12.274  0.1118 -0.5548 -0.0759
  803MPD2    C411881   2.736   1.191  12.207 -0.3328  0.3832 -0.1775
  803MPD2    C511882   2.737   1.313  12.146  0.1245  0.6977  0.0284
  803MPD2     H11883   3.054   1.206  12.326  0.4127 -0.2930  0.7785
  803MPD2    H111884   2.642   1.137  12.207 -0.8030  1.2043 -0.0755
  803MPD2    H211885   2.844   1.483  12.083  0.3288  1.6435  1.2740
  803MPD2    H311886   2.645   1.346  12.099 -0.4517 -0.9582 -0.0407
  803MPD2     N11887   2.841   1.047  12.356  0.1231 -0.2115  0.9217
  803MPD2    H511888   2.749   1.004  12.361 -0.0396  0.0970  0.5603
  803MPD2    N111889   3.082   1.428  12.181 -0.0057 -0.0084  0.3829
  803MPD2    H711890   3.156   1.396  12.243 -0.4754 -0.8345  0.5162
  804MPD2     C11891   1.852   2.385  16.879  0.2755  0.1310 -0.9947
  804MPD2    C111892   1.831   2.313  16.997 -0.8093 -0.0280 -0.5967
  804MPD2    C211893   1.913   2.327  17.104  0.0842 -0.0221  0.6534
  804MPD2    C311894   2.030   2.405  17.096 -0.6770 -0.7653 -0.7577
  804MPD2    C411895   2.033   2.489  16.991  0.2652 -0.8501 -0.5230
  804MPD2    C511896   1.951   2.475  16.880 -0.4017 -0.1236  0.7209
  804MPD2     H11897   1.894   2.272  17.196  0.3405  2.5854  2.2681
  804MPD2    H111898   2.108   2.567  16.990 -1.8398  1.1262 -1.1030
  804MPD2    H211899   1.784   2.365  16.797 -0.3759 -1.4293 -0.0780
  804MPD2    H311900   1.967   2.538  16.794 -2.1157 -1.0823 -0.3013
  804MPD2     N11901   2.123   2.419  17.206 -0.3770 -0.9711 -0.1838
  804MPD2    H511902   2.105   2.372  17.294  2.0465 -0.3962  0.6218
  804MPD2    N111903   1.728   2.217  17.016  0.1351 -0.0052  0.2925
  804MPD2    H711904   1.720   2.173  17.107 -0.6254 -0.4028  0.0299
  805MPD2     C11905   1.590   1.087  15.576  0.2627 -0.0505  0.3333
  805MPD2    C111906   1.653   0.971  15.528  0.5515  0.6380 -0.5214
  805MPD2    C211907   1.776   0.940  15.580 -0.4852 -0.8568  0.1198
  805MPD2    C311908   1.846   1.020  15.665 -0.4182  0.2755  0.2143
  805MPD2    C411909   1.780   1.134  15.710  0.0061 -1.0112  0.4581
  805MPD2    C511910   1.656   1.168  15.661 -0.1043  0.1712  0.4624
  805MPD2     H11911   1.816   0.847  15.540  2.2698 -0.2290  1.3676
  805MPD2    H111912   1.828   1.195  15.786  1.8803 -2.1529  0.1747
  805MPD2    H211913   1.493   1.124  15.543  0.8731 -0.2670 -1.7279
  805MPD2    H311914   1.599   1.253  15.699  0.4491 -0.9100  3.7172
  805MPD2     N11915   1.967   0.963  15.717 -0.4033  0.1092 -1.1237
  805MPD2    H511916   1.992   0.876  15.671 -0.3304 -1.0354  1.0842
  805MPD2    N111917   1.604   0.883  15.435  0.4745 -0.7355 -0.0413
  805MPD2    H711918   1.646   0.792  15.419 -1.0559 -1.4104 -0.2898
  806MPD2     C11919   1.878   0.390   0.990 -0.2147  0.1222 -0.0288
  806MPD2    C111920   1.992   0.454   0.948  1.0020  0.5401  0.2315
  806MPD2    C211921   2.035   0.437   0.820  0.3208  0.2304  0.1032
  806MPD2    C311922   1.967   0.353   0.735  0.1696  0.7895 -0.1966
  806MPD2    C411923   1.850   0.297   0.777 -0.0580 -0.5369 -0.0361
  806MPD2    C511924   1.804   0.311   0.905  0.0588  0.4705 -0.3784
  806MPD2     H11925   2.124   0.479   0.774  0.1087  0.1939 -0.3425
  806MPD2    H111926   1.798   0.230   0.710 -1.7330 -0.0700  0.8111
  806MPD2    H211927   1.846   0.390   1.094  0.5181 -3.8016  0.1995
  806MPD2    H311928   1.709   0.268   0.937  1.1567 -1.0084  0.8694
  806MPD2     N11929   2.024   0.329   0.606 -0.0171  0.6482 -0.3492
  806MPD2    H511930   2.103   0.391   0.590  0.4982 -0.0743 -0.5911
  806MPD2    N111931   2.063   0.528   1.043  0.5199 -0.4765  0.5413
  806MPD2    H711932   2.027   0.537   1.137 -1.9412 -0.6527 -0.3822
  807MPD2     C11933   2.070   0.619   1.725 -1.0416  0.0206  0.1373
  807MPD2    C111934   2.103   0.530   1.622  0.3531 -0.5976  0.2327
  807MPD2    C211935   2.025   0.416   1.609 -0.0535 -0.0845  0.0440
  807MPD2    C311936   1.917   0.395   1.690 -0.0036  0.1756 -0.3807
  807MPD2    C411937   1.887   0.488   1.788  0.3385  0.1518  0.6008
  807MPD2    C511938   1.965   0.594   1.804 -0.1676 -0.2458 -0.1200
  807MPD2     H11939   2.055   0.343   1.536 -0.5614  1.2978 -1.5406
  807MPD2    H111940   1.818   0.459   1.866  0.2057 -1.1816 -0.0152
  807MPD2    H211941   2.130   0.707   1.744 -1.6316  0.0192  1.9695
  807MPD2    H311942   1.934   0.659   1.885 -0.0583 -0.7957  0.3643
  807MPD2     N11943   1.846   0.275   1.656  0.0654  0.5377 -0.1577
  807MPD2    H511944   1.883   0.213   1.585  0.7503  1.2528 -0.4327
  807MPD2    N111945   2.202   0.546   1.522 -0.2779 -0.0614  0.2162
  807MPD2    H711946   2.212   0.473   1.452 -1.7546 -1.1967  1.2020
  808MPD2     C11947   2.446   1.312  10.184  0.6068  0.0603  0.8972
  808MPD2    C111948   2.378   1.423  10.217  0.7300 -0.2394  0.2266
  808MPD2    C211949   2.449   1.524  10.285 -0.0929  0.3969 -0.3019
  808MPD2    C311950   2.591   1.514  10.302  0.4061  0.4286 -0.2673
  808MPD2    C411951   2.656   1.409  10.253  0.4333 -0.7386 -0.2895
  808MPD2    C511952   2.583   1.310  10.195 -0.6630  0.4619  0.2783
  808MPD2     H11953   2.399   1.614  10.319 -1.7197 -0.0671 -1.4266
  808MPD2    H111954   2.763   1.393  10.258  0.2491 -1.3246  1.9600
  808MPD2    H211955   2.399   1.225  10.140 -0.1369  1.5599 -1.2749
  808MPD2    H311956   2.643   1.221  10.178 -3.0001 -1.4484  1.8622
  808MPD2     N11957   2.666   1.619  10.359 -0.4511 -0.2092  0.5083
  808MPD2    H511958   2.764   1.615  10.332 -0.6211  0.7845 -0.2823
  808MPD2    N111959   2.239   1.435  10.192  0.1531 -0.5512 -0.1066
  808MPD2    H711960   2.202   1.525  10.224 -0.3985 -0.3483 -1.3017
  809MPD2     C11961   3.129   2.426   9.987  0.0800 -0.5361  0.8118
  809MPD2    C111962   3.117   2.291   9.964  0.6638  0.5610  1.0388
  809MPD2    C211963   3.041   2.217  10.050  0.4940  0.1158 -0.4209
  809MPD2    C311964   2.992   2.260  10.172 -0.4962  0.3549  0.1962
  809MPD2    C411965   3.030   2.391  10.202 -0.3535  0.1503  0.2769
  809MPD2    C511966   3.085   2.474  10.107  0.6703  0.0894 -0.6774
  809MPD2     H11967   3.020   2.117  10.014  0.4644 -0.3332  0.8571
  809MPD2    H111968   2.994   2.437  10.293 -0.1130  0.3498  0.2682
  809MPD2    H211969   3.181   2.492   9.919 -2.6078  0.9240  0.1800
  809MPD2    H311970   3.102   2.580  10.124 -0.8139  0.1437  0.5426
  809MPD2     N11971   2.923   2.177  10.268 -0.2773 -0.0923 -0.9503
  809MPD2    H511972   2.893   2.226  10.352  1.9340 -0.1875 -0.0780
  809MPD2    N111973   3.188   2.234   9.857  0.3411  0.6088 -0.5083
  809MPD2    H711974   3.187   2.132   9.857  1.0349  0.6014  0.4503
  810MPD2     C11975   2.257   1.079  10.534 -0.2088  0.4287 -1.2699
  810MPD2    C111976   2.142   1.150  10.520  1.3522  0.5174 -0.3949
  810MPD2    C211977   2.155   1.291  10.522  0.2647 -0.2503  0.2758
  810MPD2    C311978   2.271   1.353  10.544  0.0895  0.4245  0.6056
  810MPD2    C411979   2.385   1.280  10.572 -0.3504  0.3622 -0.0366
  810MPD2    C511980   2.381   1.141  10.557 -0.6729 -0.2495 -0.1147
  810MPD2     H11981   2.063   1.346  10.507  2.1654  2.9189  0.3294
  810MPD2    H111982   2.482   1.322  10.595  0.3021 -0.0841 -1.9973
  810MPD2    H211983   2.268   0.974  10.507  1.5030 -0.0168  1.2483
  810MPD2    H311984   2.468   1.077  10.554  0.2788  1.0210  0.3179
  810MPD2     N11985   2.271   1.497  10.575  0.1297  0.3346 -0.0662
  810MPD2    H511986   2.344   1.531  10.638 -0.1717  2.3393 -0.8071
  810MPD2    N111987   2.018   1.093  10.494 -0.0973 -0.0794 -0.3499
  810MPD2    H711988   1.944   1.163  10.486  0.4001  0.4591 -0.2250
  811MPD2     C11989   1.216   1.242  10.308 -0.7762 -0.2649 -0.1916
  811MPD2    C111990   1.340   1.271  10.360 -0.1207 -0.0282 -0.1966
  811MPD2    C211991   1.383   1.401  10.353 -0.2291  0.0868 -0.1297
  811MPD2    C311992   1.310   1.502  10.307  0.1315 -0.5357 -0.0689
  811MPD2    C411993   1.185   1.474  10.263  0.0620 -0.3238 -0.0174
  811MPD2    C511994   1.141   1.345  10.263  0.6272 -0.0240 -0.2189
  811MPD2     H11995   1.482   1.433  10.383  0.0955 -2.0902  1.0856
  811MPD2    H111996   1.116   1.542  10.215  0.4769 -0.8710 -1.3961
  811MPD2    H211997   1.168   1.146  10.319  1.0983 -0.9354  1.9971
  811MPD2    H311998   1.044   1.315  10.226  2.3130 -1.1571 -3.7490
  811MPD2     N11999   1.368   1.630  10.299 -0.3847 -0.2226  0.0703
  811MPD2    H512000   1.465   1.634  10.329 -0.4486  0.2798  0.2099
  811MPD2    N112001   1.420   1.172  10.419 -0.3613  0.2004 -0.1245
  811MPD2    H712002   1.383   1.078  10.428  1.5551 -0.5910 -0.5098
  812MPD2     C12003   0.185   0.899  12.308  0.3035  0.8252 -0.3115
  812MPD2    C112004   0.308   0.961  12.304  0.3633 -1.2789 -0.0520
  812MPD2    C212005   0.387   0.946  12.420 -0.5057  0.1267 -0.2365
  812MPD2    C312006   0.371   0.846  12.513 -0.2665  0.1107 -0.7833
  812MPD2    C412007   0.254   0.771  12.501 -0.4904 -0.3860  0.1584
  812MPD2    C512008   0.163   0.801  12.398  0.7258  0.2591 -0.3252
  812MPD2     H12009   0.477   1.006  12.422  0.6739 -1.6536  0.9457
  812MPD2    H112010   0.232   0.696  12.576  0.7262 -0.4495  0.4610
  812MPD2    H212011   0.108   0.917  12.233  0.4401  0.6028 -0.5022
  812MPD2    H312012   0.066   0.754  12.403  0.1505  1.3456 -1.4454
  812MPD2     N12013   0.468   0.829  12.614 -0.5545 -0.1652 -0.0255
  812MPD2    H512014   0.548   0.888  12.597  0.8766 -1.3443  2.5775
  812MPD2    N112015   0.330   1.053  12.194  0.2714 -0.0480 -0.0927
  812MPD2    H712016   0.247   1.078  12.140 -0.3504 -0.5015  0.6548
  813MPD2     C12017   4.647   3.048  13.002 -0.0170  0.3159  0.1266
  813MPD2    C112018   4.653   3.181  13.040 -0.0715  0.1239  0.3958
  813MPD2    C212019   4.562   3.237  13.127  0.5879 -0.0926  0.4120
  813MPD2    C312020   4.463   3.154  13.185  0.8672  0.2998 -0.4708
  813MPD2    C412021   4.458   3.025  13.149 -0.4703 -0.1416  0.2065
  813MPD2    C512022   4.556   2.968  13.065 -0.4596 -0.8175  0.3595
  813MPD2     H12023   4.569   3.341  13.157 -2.8470  0.0271  0.7982
  813MPD2    H112024   4.385   2.954  13.186 -0.3485  0.4231  1.5296
  813MPD2    H212025   4.707   3.001  12.924 -0.3987 -2.4298  1.4847
  813MPD2    H312026   4.566   2.861  13.049  0.5211 -0.6458 -0.1519
  813MPD2     N12027   4.368   3.208  13.280  0.0331  0.3363  1.0172
  813MPD2    H512028   4.370   3.305  13.309  0.2838  0.6006  0.1344
  813MPD2    N112029   0.022   3.273  13.003  0.0659 -0.1612 -0.4236
  813MPD2    H712030   0.008   3.365  13.045 -0.6387  0.2041 -1.4622
  814MPD2     C12031   0.121   4.283  12.958 -0.5506 -0.1565 -0.6421
  814MPD2    C112032   0.240   4.295  12.893 -0.0053 -0.4740 -0.2432
  814MPD2    C212033   0.344   4.379  12.938  0.1739 -0.1801 -0.2773
  814MPD2    C312034   0.327   4.458  13.045 -0.3679 -0.5457  0.4569
  814MPD2    C412035   0.206   4.431  13.117  0.1227 -0.6247  0.9550
  814MPD2    C512036   0.110   4.337  13.084  0.2905  0.4237 -0.0276
  814MPD2     H12037   0.438   4.368  12.886 -0.1490 -3.6043 -0.0823
  814MPD2    H112038   0.194   4.478  13.214  1.1090  0.2536  0.6599
  814MPD2    H212039   0.042   4.220  12.919  0.1626 -1.8354  0.6448
  814MPD2    H312040   0.027   4.328  13.152  1.6373 -0.0286  1.5600
  814MPD2     N12041   0.399   4.574  13.082  0.2082 -0.4458  0.0157
  814MPD2    H512042   0.375   4.600  13.177  0.0372  1.3964 -0.5227
  814MPD2    N112043   0.263   4.214  12.781 -0.3922 -0.2016  0.3316
  814MPD2    H712044   0.349   4.226  12.729 -0.3403 -5.0712 -0.6732
  815MPD2     C12045   0.814   2.732  12.265 -0.1178 -0.2448  0.4125
  815MPD2    C112046   0.756   2.703  12.141 -0.2937  0.6486 -0.6976
  815MPD2    C212047   0.621   2.668  12.135 -0.6637 -0.3903  0.0461
  815MPD2    C312048   0.545   2.677  12.257 -0.2002 -0.5015  1.0930
  815MPD2    C412049   0.611   2.697  12.379  0.0436 -0.6001  0.1033
  815MPD2    C512050   0.745   2.722  12.383  0.1000  0.3529  0.0576
  815MPD2     H12051   0.569   2.648  12.042 -0.6198  0.0234 -0.0653
  815MPD2    H112052   0.552   2.691  12.470 -2.4992  2.6615 -1.3136
  815MPD2    H212053   0.916   2.767  12.276 -0.2878  0.1490  0.7355
  815MPD2    H312054   0.792   2.743  12.478 -2.0780  0.4082  1.1063
  815MPD2     N12055   0.408   2.654  12.253  0.5439  0.5196 -0.1865
  815MPD2    H512056   0.370   2.643  12.159 -0.3296  1.0873  0.1007
  815MPD2    N112057   0.839   2.686  12.033  0.4379  1.1031  0.1008
  815MPD2    H712058   0.939   2.687  12.049  0.3906 -0.7486  0.4512
  816MPD2     C12059   0.665   1.751  17.267 -0.2428  0.1321  0.3461
  816MPD2    C112060   0.671   1.873  17.207 -0.1178  0.5060 -0.4336
  816MPD2    C212061   0.731   1.880  17.085 -0.2677 -0.3031 -0.0322
  816MPD2    C312062   0.797   1.771  17.030 -0.5709 -0.4816  0.2014
  816MPD2    C412063   0.794   1.650  17.097  0.3842  0.1667  0.3850
  816MPD2    C512064   0.729   1.642  17.218  0.5884  0.0512 -0.5239
  816MPD2     H12065   0.736   1.972  17.028  1.4363 -0.6745 -0.4657
  816MPD2    H112066   0.833   1.559  17.055 -2.8407 -0.7937 -0.5493
  816MPD2    H212067   0.610   1.742  17.360 -0.0178 -0.5276  0.4189
  816MPD2    H312068   0.737   1.546  17.267  0.0071  0.1017 -0.3215
  816MPD2     N12069   0.870   1.789  16.913  0.0009 -0.0094 -0.1203
  816MPD2    H512070   0.875   1.884  16.877 -1.1881 -0.1871 -0.7672
  816MPD2    N112071   0.620   1.978  17.281  0.3162  0.1283  0.0376
  816MPD2    H712072   0.577   1.946  17.367 -0.2281  0.1900 -0.2071
  817MPD2     C12073   0.424   3.869  10.245  0.1845 -0.6532  0.1904
  817MPD2    C112074   0.380   3.814  10.130 -0.2052  0.9388 -0.2451
  817MPD2    C212075   0.300   3.892  10.046  0.4577 -0.1766 -0.7709
  817MPD2    C312076   0.253   4.017  10.076 -0.1787 -0.4519  0.1220
  817MPD2    C412077   0.281   4.066  10.200  0.7768  0.1147  0.5505
  817MPD2    C512078   0.372   3.989  10.276 -0.3380 -0.5816  0.1199
  817MPD2     H12079   0.268   3.850   9.951 -1.6571  1.8884 -0.9689
  817MPD2    H112080   0.240   4.158  10.241  1.5793  0.1025  1.3729
  817MPD2    H212081   0.497   3.818  10.308  1.1224  1.0417  0.4716
  817MPD2    H312082   0.388   4.031  10.375 -0.2419  1.3447 -0.7093
  817MPD2     N12083   0.172   4.080   9.978 -0.1297  0.5789  0.0355
  817MPD2    H512084   0.150   4.037   9.889 -0.1127 -0.5332  0.5676
  817MPD2    N112085   0.429   3.688  10.080  0.3968  0.7093  1.0495
  817MPD2    H712086   0.392   3.656   9.991  0.3143  0.5987  1.1244
  818MPD2     C12087   3.728   3.264   9.951 -0.0688 -0.4971 -0.1727
  818MPD2    C112088   3.657   3.206  10.055 -0.2292  1.0982 -0.9549
  818MPD2    C212089   3.696   3.080  10.099 -0.3415 -0.5702 -0.1790
  818MPD2    C312090   3.805   3.021  10.043 -0.0806 -0.0993  0.2618
  818MPD2    C412091   3.881   3.082   9.947  0.0947 -0.2492 -0.0992
  818MPD2    C512092   3.836   3.204   9.896  0.0800  0.0878 -0.3740
  818MPD2     H12093   3.651   3.027  10.183  0.2526 -1.2882 -0.3081
  818MPD2    H112094   3.969   3.029   9.911 -1.1221 -4.0084  2.4126
  818MPD2    H212095   3.709   3.366   9.920 -1.3174 -0.3199  1.1766
  818MPD2    H312096   3.885   3.251   9.811  2.5114 -0.8512  0.5000
  818MPD2     N12097   3.851   2.890  10.083  0.1265 -0.1930  0.4303
  818MPD2    H512098   3.943   2.861  10.051  0.7064  1.8474  0.2589
  818MPD2    N112099   3.552   3.273  10.124 -0.1505 -0.4877  0.5392
  818MPD2    H712100   3.505   3.224  10.199  0.3225 -0.5968  0.7609
  819MPD2     C12101   2.415   0.358  15.973  0.0324  0.0545  0.1628
  819MPD2    C112102   2.469   0.253  15.893 -0.5552  0.2931 -0.4404
  819MPD2    C212103   2.600   0.206  15.909 -0.2188  0.5416  0.2553
  819MPD2    C312104   2.673   0.265  16.012  0.5078  0.5420  0.1834
  819MPD2    C412105   2.620   0.365  16.089  0.0647  0.4009  0.1238
  819MPD2    C512106   2.500   0.408  16.062 -0.3366  0.5360 -0.3295
  819MPD2     H12107   2.634   0.128  15.843  2.6456 -0.3339  2.7753
  819MPD2    H112108   2.679   0.428  16.155 -2.0366  2.5020 -0.0046
  819MPD2    H212109   2.315   0.399  15.965 -0.8294 -1.9951  0.6129
  819MPD2    H312110   2.468   0.494  16.120 -0.6848 -0.2731  0.6648
  819MPD2     N12111   2.800   0.214  16.039 -0.4779  0.0849  0.6384
  819MPD2    H512112   2.835   0.144  15.975  2.0479  1.1936  0.8186
  819MPD2    N112113   2.391   0.171  15.801  0.2748  0.2229 -0.0442
  819MPD2    H712114   2.440   0.115  15.732  2.0039 -0.9466  2.1401
  820MPD2     C12115   1.737   0.233  14.942 -0.4333 -0.2613  0.3692
  820MPD2    C112116   1.746   0.308  15.059 -0.4030  0.4226 -0.3052
  820MPD2    C212117   1.829   0.263  15.162 -0.4709  0.3311 -0.1098
  820MPD2    C312118   1.907   0.146  15.151 -0.4384  0.7445  0.4984
  820MPD2    C412119   1.911   0.085  15.030 -1.0044  0.1539  0.1269
  820MPD2    C512120   1.825   0.127  14.932 -0.0401  0.2330 -0.7875
  820MPD2     H12121   1.823   0.318  15.256  2.1717  0.4099 -0.0043
  820MPD2    H112122   1.972   4.735  15.007 -1.0206  0.3433 -0.6276
  820MPD2    H212123   1.671   0.258  14.860  0.4306 -0.6296 -0.4283
  820MPD2    H312124   1.833   0.072  14.839  0.2126 -1.1065  0.0312
  820MPD2     N12125   1.986   0.098  15.258  0.4489  0.1868  0.3344
  820MPD2    H512126   2.030   0.012  15.229 -1.7950 -0.8817  0.0865
  820MPD2    N112127   1.656   0.418  15.074 -0.1457 -0.2216 -0.0248
  820MPD2    H712128   1.579   0.422  15.007 -0.0563 -0.7457 -0.1557
  821MPD2     C12129   1.871   1.810  13.485  0.6890 -0.6141 -0.1042
  821MPD2    C112130   1.973   1.737  13.557 -0.8544  0.3745  0.6581
  821MPD2    C212131   2.097   1.733  13.505  0.2337 -0.1375 -0.2117
  821MPD2    C312132   2.130   1.793  13.379  1.2898 -0.9432  0.5894
  821MPD2    C412133   2.026   1.852  13.314  0.4161 -0.4245 -0.5548
  821MPD2    C512134   1.901   1.856  13.361  1.0732  0.0417 -0.0861
  821MPD2     H12135   2.180   1.684  13.554  0.9143  1.4122  0.1973
  821MPD2    H112136   2.051   1.882  13.213 -2.1097  0.4523 -0.9006
  821MPD2    H212137   1.770   1.814  13.523  0.4179 -1.0969 -0.7707
  821MPD2    H312138   1.814   1.886  13.305  1.0564 -0.5378 -0.3747
  821MPD2     N12139   2.256   1.802  13.326  0.1481  0.2439  0.1641
  821MPD2    H512140   2.255   1.871  13.251  2.4223 -0.8811 -0.9204
  821MPD2    N112141   1.954   1.681  13.687 -0.5327 -0.4337 -0.7659
  821MPD2    H712142   2.042   1.652  13.729 -0.5922 -0.8314 -0.9112
  822MPD2     C12143   3.043   1.659  15.934  0.6446  0.0836  0.0919
  822MPD2    C112144   2.979   1.608  16.043 -0.1124 -0.1956  0.2938
  822MPD2    C212145   2.869   1.674  16.094  0.1246  0.4001  0.7519
  822MPD2    C312146   2.846   1.806  16.050  0.7767  0.5112 -0.4045
  822MPD2    C412147   2.919   1.857  15.940 -0.8321  0.5156 -0.3585
  822MPD2    C512148   3.013   1.781  15.880  0.9220 -0.7296  0.2020
  822MPD2     H12149   2.817   1.636  16.181  0.2277  1.8058  1.4271
  822MPD2    H112150   2.904   1.957  15.903  1.1329  2.2104  3.4940
  822MPD2    H212151   3.119   1.604  15.879 -0.4094 -0.2525 -1.0118
  822MPD2    H312152   3.059   1.821  15.791 -0.3827 -1.5229 -0.8228
  822MPD2     N12153   2.756   1.885  16.131  0.1032 -0.8249 -0.2231
  822MPD2    H512154   2.716   1.838  16.211 -0.5352  0.3537  0.1573
  822MPD2    N112155   3.010   1.486  16.103  0.5663 -0.1421  0.2158
  822MPD2    H712156   2.959   1.456  16.185 -1.0116 -0.8080 -1.0269
  823MPD2     C12157   2.075   2.137  16.628  0.3830 -0.0010 -0.7120
  823MPD2    C112158   2.172   2.060  16.575  0.4359  0.3597  0.6128
  823MPD2    C212159   2.223   1.954  16.649  0.0973  0.0756  0.5364
  823MPD2    C312160   2.153   1.910  16.761 -0.1625 -0.0178 -0.2849
  823MPD2    C412161   2.043   1.972  16.802 -0.8931  0.1038 -0.0993
  823MPD2    C512162   2.006   2.083  16.734  0.1481  0.0987  0.1124
  823MPD2     H12163   2.322   1.918  16.625 -0.2967  0.7059 -2.0669
  823MPD2    H112164   1.993   1.934  16.891 -2.5373  0.6422 -0.7937
  823MPD2    H212165   2.050   2.225  16.570 -0.0519  0.0236 -0.4879
  823MPD2    H312166   1.924   2.139  16.777 -0.7336  0.4173 -2.0300
  823MPD2     N12167   2.204   1.805  16.840  0.5279 -0.2456 -0.3610
  823MPD2    H512168   2.158   1.794  16.930 -2.0606  0.1747 -1.6376
  823MPD2    N112169   2.242   2.102  16.462  0.2671  0.1308 -0.5497
  823MPD2    H712170   2.234   2.201  16.438 -1.5003  0.1531  0.1680
  824MPD2     C12171   3.463   0.758  16.070  0.1471  0.8357  0.6043
  824MPD2    C112172   3.463   0.891  16.020 -0.1897 -0.5439 -0.1998
  824MPD2    C212173   3.547   0.924  15.919 -0.9117 -0.0693  0.0781
  824MPD2    C312174   3.625   0.824  15.854  0.0661 -0.0054 -0.0969
  824MPD2    C412175   3.622   0.692  15.902 -0.1426 -0.3364  0.1629
  824MPD2    C512176   3.541   0.663  16.010 -0.4796  0.1949  0.2040
  824MPD2     H12177   3.566   1.026  15.887  4.2927 -0.1127  2.9547
  824MPD2    H112178   3.681   0.612  15.858  0.9815 -0.5295  2.0578
  824MPD2    H212179   3.400   0.725  16.152 -1.0817 -2.2492 -1.5848
  824MPD2    H312180   3.553   0.569  16.063 -0.0540  0.7909  1.1528
  824MPD2     N12181   3.706   0.864  15.749  0.0791 -0.3885  0.1501
  824MPD2    H512182   3.738   0.960  15.745 -0.8082 -0.0699  0.7407
  824MPD2    N112183   3.387   0.995  16.076  0.5839  0.0697  0.3247
  824MPD2    H712184   3.397   1.083  16.026 -0.3855  1.1483  2.0584
  825MPD2     C12185   3.988   1.347  15.100  0.7175 -0.7167 -0.6713
  825MPD2    C112186   3.994   1.347  15.239 -0.4345  0.1222  0.2415
  825MPD2    C212187   4.043   1.455  15.305  0.5382  0.5258  0.6482
  825MPD2    C312188   4.068   1.577  15.238  0.4304 -0.0925  0.0978
  825MPD2    C412189   4.059   1.571  15.098  0.4541 -0.4167 -0.3721
  825MPD2    C512190   4.012   1.460  15.037 -0.5030  0.0206  0.2387
  825MPD2     H12191   4.056   1.450  15.413  2.6819 -1.1564  0.3011
  825MPD2    H112192   4.085   1.647  15.026 -0.3264 -0.1122 -0.3350
  825MPD2    H212193   3.976   1.254  15.045  0.2280 -1.4632  0.6826
  825MPD2    H312194   4.014   1.465  14.928 -0.8676 -0.5233  0.2065
  825MPD2     N12195   4.138   1.687  15.300  0.1259 -0.0024  0.2920
  825MPD2    H512196   4.166   1.759  15.234  0.4771 -1.1058 -0.7457
  825MPD2    N112197   3.965   1.222  15.303 -0.3478 -0.3516  0.5075
  825MPD2    H712198   3.955   1.142  15.241  1.0220  0.1370 -0.3743
  826MPD2     C12199   3.658   1.276  14.276 -0.2784  1.1454  0.4055
  826MPD2    C112200   3.657   1.286  14.141 -0.1270 -0.5501 -0.5836
  826MPD2    C212201   3.561   1.361  14.080 -0.1679 -0.1694 -0.5801
  826MPD2    C312202   3.466   1.431  14.157  0.7531  0.0922  0.4871
  826MPD2    C412203   3.469   1.420  14.292  0.5563  0.0238  0.6007
  826MPD2    C512204   3.563   1.343  14.352  0.1598  0.1120 -0.0537
  826MPD2     H12205   3.561   1.371  13.973 -1.5205  1.8640 -0.3878
  826MPD2    H112206   3.403   1.467  14.364  1.9370  1.9923  0.5881
  826MPD2    H212207   3.725   1.203  14.318  0.0282  2.0551  1.4785
  826MPD2    H312208   3.568   1.336  14.460 -0.7419  2.7731  0.1428
  826MPD2     N12209   3.369   1.513  14.095  0.0240  0.4133  0.2901
  826MPD2    H512210   3.317   1.569  14.162 -0.5383  0.5119 -0.2374
  826MPD2    N112211   3.770   1.232  14.080 -0.3406 -0.3825  0.2525
  826MPD2    H712212   3.837   1.198  14.148 -1.7101 -0.8664  1.3509
  827MPD2     C12213   4.331   2.125  10.242 -0.0183  0.3822 -0.6064
  827MPD2    C112214   4.381   2.027  10.329 -0.2184  0.5123 -0.4081
  827MPD2    C212215   4.347   1.889  10.303 -0.8460 -1.2456 -0.3627
  827MPD2    C312216   4.273   1.856  10.201 -0.1291  0.6264  0.3714
  827MPD2    C412217   4.223   1.956  10.113  0.1299  0.8543  0.3146
  827MPD2    C512218   4.251   2.091  10.135 -0.1693  0.2700 -0.5310
  827MPD2     H12219   4.382   1.807  10.364 -0.4380  0.2622  1.4326
  827MPD2    H112220   4.154   1.935  10.032  2.4313 -0.3890 -1.3057
  827MPD2    H212221   4.342   2.229  10.270  0.4596  0.2032 -0.1392
  827MPD2    H312222   4.209   2.163  10.067  1.0914  1.4927 -0.0248
  827MPD2     N12223   4.249   1.722  10.193 -0.3142  1.0147  0.2608
  827MPD2    H512224   4.253   1.662  10.275 -0.6189  0.8497  0.1527
  827MPD2    N112225   4.470   2.079  10.434  0.3717  0.0632  0.2175
  827MPD2    H712226   4.493   2.178  10.435  0.7940 -0.0001 -1.6865
  828MPD2     C12227   2.854   2.046  12.910  0.8577 -0.5630  0.6414
  828MPD2    C112228   2.863   2.045  12.774  0.5053 -0.0633 -0.5794
  828MPD2    C212229   2.987   2.050  12.708  0.4163 -0.0828 -0.5947
  828MPD2    C312230   3.104   2.049  12.779 -0.0989  0.1014 -0.3995
  828MPD2    C412231   3.098   2.051  12.920  0.7165 -0.4752  0.0993
  828MPD2    C512232   2.972   2.039  12.975 -0.0491  0.2715  0.4583
  828MPD2     H12233   2.980   2.051  12.600  1.9003 -1.9592 -0.7066
  828MPD2    H112234   3.183   2.038  12.986  0.7166 -0.7423  0.0444
  828MPD2    H212235   2.766   2.055  12.973 -0.0760 -0.6492 -0.6243
  828MPD2    H312236   2.968   2.033  13.083 -0.8715  0.3094  0.4311
  828MPD2     N12237   3.229   2.024  12.719  0.6373 -0.1323 -0.3411
  828MPD2    H512238   3.305   2.055  12.779  0.8086 -0.7837 -0.2209
  828MPD2    N112239   2.744   2.061  12.696  0.3938  0.1108 -0.1796
  828MPD2    H712240   2.749   2.074  12.595 -1.6692  0.8554 -0.1729
  829MPD2     C12241   2.728   2.188  11.900  0.1503  0.1898  0.4858
  829MPD2    C112242   2.597   2.218  11.907  0.1679 -0.0401 -0.0943
  829MPD2    C212243   2.540   2.221  12.033  0.0753 -0.6165  0.1289
  829MPD2    C312244   2.614   2.201  12.146  0.5413  0.2236 -0.6981
  829MPD2    C412245   2.751   2.175  12.133  0.0011  0.1957 -0.0903
  829MPD2    C512246   2.805   2.168  12.009  0.0093  0.1248  0.3741
  829MPD2     H12247   2.440   2.258  12.051  0.1898  0.0815 -0.6914
  829MPD2    H112248   2.820   2.164  12.216 -0.9161  0.3583  0.6899
  829MPD2    H212249   2.775   2.181  11.803  0.2890  1.9261  0.4191
  829MPD2    H312250   2.910   2.139  12.011 -0.3686 -1.3245 -0.9583
  829MPD2     N12251   2.567   2.211  12.283  0.4460  0.7473  0.2286
  829MPD2    H512252   2.643   2.219  12.349  0.7985 -2.2417  0.1721
  829MPD2    N112253   2.522   2.228  11.787  0.2640  0.0723 -0.4479
  829MPD2    H712254   2.579   2.220  11.703  1.7491  1.8154  0.4112
  830MPD2     C12255   3.580   0.042  15.767 -0.3142 -0.3584 -0.2414
  830MPD2    C112256   3.451   0.092  15.758  0.4032  0.5091  0.4847
  830MPD2    C212257   3.409   0.141  15.634  0.1728 -0.1353 -0.2171
  830MPD2    C312258   3.506   0.167  15.534  0.4650 -0.3004 -0.2630
  830MPD2    C412259   3.640   0.126  15.549 -0.1744 -0.1675  0.7802
  830MPD2    C512260   3.672   0.062  15.662  0.2609  0.4686 -0.0694
  830MPD2     H12261   3.318   0.200  15.631 -2.1219 -3.7750 -1.1443
  830MPD2    H112262   3.721   0.149  15.481 -0.4284  0.2030  0.6083
  830MPD2    H212263   3.615   0.001  15.861  1.4195  0.4974 -0.5149
  830MPD2    H312264   3.776   0.037  15.681  0.2059 -0.6324 -1.2092
  830MPD2     N12265   3.466   0.226  15.414  0.3812 -0.4633 -0.7459
  830MPD2    H512266   3.544   0.269  15.366 -0.2594  1.8845  0.2944
  830MPD2    N112267   3.376   0.087  15.878  0.4930  0.8807  0.1421
  830MPD2    H712268   3.427   0.054  15.959  0.9353 -0.4599 -0.6763
  831MPD2     C12269   2.849   2.032  16.549  0.9265 -0.3284 -0.4815
  831MPD2    C112270   2.871   1.918  16.480  0.0388  0.8042  0.8042
  831MPD2    C212271   2.778   1.820  16.468  0.3129  0.4388  0.4460
  831MPD2    C312272   2.651   1.831  16.528 -0.4023  0.5067  0.0819
  831MPD2    C412273   2.636   1.933  16.615 -0.3756  0.1143 -0.8588
  831MPD2    C512274   2.732   2.035  16.616 -0.4064 -0.4159 -0.0230
  831MPD2     H12275   2.793   1.733  16.406 -0.7402  1.5271 -1.3539
  831MPD2    H112276   2.540   1.950  16.664 -0.2952 -1.1567 -0.2464
  831MPD2    H212277   2.919   2.115  16.553 -1.2451  1.3996  1.4053
  831MPD2    H312278   2.724   2.117  16.687 -1.5500  0.5460 -1.2753
  831MPD2     N12279   2.547   1.737  16.501  0.4670 -0.2466  0.2888
  831MPD2    H512280   2.469   1.748  16.565  0.5690  1.3638  0.1240
  831MPD2    N112281   2.996   1.910  16.414  0.2603  0.0299  0.4710
  831MPD2    H712282   3.057   1.990  16.422  1.5308 -0.6385 -2.1599
  832MPD2     C12283   1.572   2.729  17.484  0.0326 -0.0487 -0.0632
  832MPD2    C112284   1.603   2.849  17.421 -0.1617  0.2173  0.5420
  832MPD2    C212285   1.511   2.906  17.334  0.4088  0.2492  0.1904
  832MPD2    C312286   1.390   2.846  17.307  0.9493 -0.3626 -0.1612
  832MPD2    C412287   1.368   2.725  17.371  0.4016 -0.1914 -0.7458
  832MPD2    C512288   1.461   2.664  17.458 -0.3873 -0.4439 -0.5147
  832MPD2     H12289   1.532   3.010  17.312 -0.6855  1.0398  2.9698
  832MPD2    H112290   1.285   2.664  17.337 -0.6072 -0.3470  2.0622
  832MPD2    H212291   1.646   2.690  17.553  2.9567  3.1105 -1.3401
  832MPD2    H312292   1.436   2.570  17.506 -0.4983 -0.0897  0.1249
  832MPD2     N12293   1.293   2.896  17.222 -0.0994  0.0498 -0.3203
  832MPD2    H512294   1.213   2.833  17.213  0.8603 -1.2267 -0.0079
  832MPD2    N112295   1.734   2.900  17.438 -0.3537 -0.4317  0.3429
  832MPD2    H712296   1.793   2.848  17.503  0.7576 -1.1824 -1.2725
  833MPD2     C12297   3.404   4.334  12.815 -0.0843  0.1706 -1.1526
  833MPD2    C112298   3.368   4.394  12.697  0.3430 -0.6206  0.6042
  833MPD2    C212299   3.374   4.319  12.584 -0.3225 -0.0239 -0.0548
  833MPD2    C312300   3.412   4.190  12.576  0.4242 -0.2495  0.0172
  833MPD2    C412301   3.452   4.133  12.694 -0.0776 -0.1704  0.4059
  833MPD2    C512302   3.443   4.205  12.811 -0.0003 -0.2694  0.0343
  833MPD2     H12303   3.351   4.365  12.489  0.6752  0.7450  0.0914
  833MPD2    H112304   3.491   4.032  12.696  2.8671  0.9924  1.8643
  833MPD2    H212305   3.389   4.385  12.909  1.9900 -3.2153  1.0123
  833MPD2    H312306   3.470   4.154  12.902 -0.5341  0.3667  0.5470
  833MPD2     N12307   3.423   4.119  12.446 -0.8462 -0.7004 -0.2127
  833MPD2    H512308   3.463   4.026  12.456  0.6522  0.0264  0.4254
  833MPD2    N112309   3.318   4.524  12.705  0.3306 -0.2053  0.1480
  833MPD2    H712310   3.293   4.559  12.797  2.6089  0.0190  0.6827
  834MPD2     C12311   3.828   3.521  11.831  0.7692 -0.1085 -0.7006
  834MPD2    C112312   3.755   3.593  11.743 -0.3093 -0.3063  0.2032
  834MPD2    C212313   3.718   3.719  11.788  0.2926 -0.2483  0.5833
  834MPD2    C312314   3.754   3.771  11.905 -0.1218 -0.5058  0.1056
  834MPD2    C412315   3.828   3.695  11.993  0.2998 -0.1013  0.0210
  834MPD2    C512316   3.862   3.571  11.953  0.6322 -0.0463 -0.0657
  834MPD2     H12317   3.653   3.776  11.721 -0.6490 -0.7430  1.0722
  834MPD2    H112318   3.853   3.742  12.088  1.6031 -0.8776  0.0602
  834MPD2    H212319   3.857   3.419  11.810 -0.4203 -0.5964  0.0103
  834MPD2    H312320   3.913   3.506  12.024  1.5648 -0.1625 -0.8395
  834MPD2     N12321   3.692   3.897  11.938 -0.5106  0.5508  0.8571
  834MPD2    H512322   3.636   3.941  11.865  0.2327  1.2753  0.7260
  834MPD2    N112323   3.718   3.532  11.621  0.0010 -0.3148 -0.0238
  834MPD2    H712324   3.773   3.449  11.603  2.1684  1.3003 -0.7649
  835MPD2     C12325   3.711   2.183  11.129  0.5808 -0.0792 -0.1180
  835MPD2    C112326   3.612   2.261  11.198 -0.7372 -0.1737 -0.2515
  835MPD2    C212327   3.612   2.261  11.337 -0.2885  0.6960  0.3722
  835MPD2    C312328   3.700   2.181  11.409  1.1339 -0.2371 -0.0870
  835MPD2    C412329   3.797   2.112  11.342 -0.2847  0.8413  1.1277
  835MPD2    C512330   3.802   2.110  11.205  0.4838 -0.2745  0.3224
  835MPD2     H12331   3.546   2.327  11.392 -1.9165  0.9780 -1.9101
  835MPD2    H112332   3.862   2.057  11.410  0.9185  1.0799  0.1612
  835MPD2    H212333   3.711   2.174  11.021  0.0297 -0.3526 -0.0985
  835MPD2    H312334   3.892   2.072  11.157 -0.6249 -1.4655 -0.7999
  835MPD2     N12335   3.702   2.180  11.547  0.1812  0.0804  0.0131
  835MPD2    H512336   3.766   2.120  11.598  2.7472  2.6489 -0.1906
  835MPD2    N112337   3.508   2.335  11.131 -0.7879 -0.7307 -0.5722
  835MPD2    H712338   3.443   2.380  11.195  1.2151 -0.7901  1.5103
  836MPD2     C12339   3.572   2.391  12.452  0.7405  0.5395  0.1550
  836MPD2    C112340   3.493   2.372  12.347 -0.1660  0.4926 -0.6058
  836MPD2    C212341   3.354   2.370  12.357  0.2753 -0.1490 -0.3055
  836MPD2    C312342   3.293   2.376  12.482  0.1723  1.0245 -0.4076
  836MPD2    C412343   3.372   2.403  12.593 -0.2633 -0.1805 -0.0837
  836MPD2    C512344   3.513   2.414  12.579 -0.0704  0.2352 -0.5579
  836MPD2     H12345   3.292   2.360  12.269  0.3759 -0.3633 -0.3522
  836MPD2    H112346   3.321   2.404  12.689 -0.5969 -1.6939 -0.2361
  836MPD2    H212347   3.681   2.389  12.452  0.7421  0.4274 -0.8641
  836MPD2    H312348   3.569   2.428  12.671  0.7346 -0.9656 -0.8670
  836MPD2     N12349   3.157   2.356  12.508  0.1292  0.2181 -0.3189
  836MPD2    H512350   3.123   2.396  12.595  0.8471 -0.6295  0.3468
  836MPD2    N112351   3.568   2.348  12.225 -0.2984 -0.0556  0.3035
  836MPD2    H712352   3.668   2.357  12.240 -0.7459  2.6265  1.5630
  837MPD2     C12353   1.859   2.234  10.102 -0.0101 -0.3527 -0.3800
  837MPD2    C112354   1.766   2.279  10.195  0.2937 -0.0460  0.4595
  837MPD2    C212355   1.758   2.417  10.228  0.5150  0.0159 -0.0490
  837MPD2    C312356   1.839   2.507  10.164 -0.8346  0.2748 -0.0003
  837MPD2    C412357   1.935   2.462  10.071  0.4049  0.3051  0.9410
  837MPD2    C512358   1.950   2.325  10.050  0.3968  0.4399 -0.6067
  837MPD2     H12359   1.684   2.453  10.299  0.5709  0.2295 -0.0975
  837MPD2    H112360   2.007   2.528  10.023 -0.4179  0.9401  0.5936
  837MPD2    H212361   1.867   2.132  10.067  0.4806 -1.2042  2.2664
  837MPD2    H312362   2.028   2.298   9.979  2.3358  1.4684  1.1568
  837MPD2     N12363   1.808   2.642  10.195 -0.7915 -0.2227 -0.1198
  837MPD2    H512364   1.740   2.652  10.270 -1.9547  0.0680 -1.2054
  837MPD2    N112365   1.675   2.198  10.256  0.2266 -0.0242 -0.0252
  837MPD2    H712366   1.597   2.246  10.301 -0.5413 -0.6871 -0.6694
  838MPD2     C12367   0.473   0.141  12.758 -0.4369  0.1527 -0.4777
  838MPD2    C112368   0.374   0.120  12.659 -0.4398  0.3937  0.0278
  838MPD2    C212369   0.247   0.169  12.677  0.5219 -0.1489 -0.1571
  838MPD2    C312370   0.226   0.267  12.767  0.6003  0.9295 -0.4123
  838MPD2    C412371   0.332   0.297  12.853 -0.3336 -0.0634 -0.7767
  838MPD2    C512372   0.448   0.231  12.859 -0.0174 -0.1870  0.6425
  838MPD2     H12373   0.167   0.131  12.615  0.5422 -0.6057  0.0964
  838MPD2    H112374   0.312   0.372  12.929 -0.2960  1.5199 -2.3242
  838MPD2    H212375   0.566   0.088  12.744 -2.8192 -4.0485 -0.4703
  838MPD2    H312376   0.520   0.256  12.936  1.1993 -1.3933 -0.1133
  838MPD2     N12377   0.095   0.331  12.771 -1.2384 -0.8119 -0.5049
  838MPD2    H512378   0.019   0.297  12.712 -2.4333  1.3696 -0.2511
  838MPD2    N112379   0.408   0.046  12.541  0.0258 -0.1238 -0.5414
  838MPD2    H712380   0.501   0.005  12.543 -0.7319 -1.9314 -2.2423
  839MPD2     C12381   0.056   4.385  11.604 -0.8016  0.0021  0.7989
  839MPD2    C112382   0.012   4.372  11.734 -0.2331 -0.4440  0.2538
  839MPD2    C212383   0.095   4.416  11.838 -0.4467  0.1746 -0.0576
  839MPD2    C312384   0.226   4.449  11.815  0.0443  0.4983 -0.0210
  839MPD2    C412385   0.260   4.460  11.684  0.0759 -0.3153 -0.2378
  839MPD2    C512386   0.180   4.436  11.573  0.2178 -0.4122 -0.2322
  839MPD2     H12387   0.066   4.407  11.942 -0.0312  0.2911  0.0683
  839MPD2    H112388   0.360   4.494  11.662 -0.0105 -0.3933 -0.7397
  839MPD2    H212389   4.726   4.362  11.522  0.1976 -2.1592  0.6016
  839MPD2    H312390   0.206   4.444  11.468  1.2918 -1.1345 -0.0283
  839MPD2     N12391   0.317   4.491  11.914 -0.7511  0.0425 -0.1213
  839MPD2    H512392   0.414   4.496  11.885 -0.2336 -1.6455  1.2988
  839MPD2    N112393   4.620   4.332  11.767  0.6048 -0.4549 -0.0299
  839MPD2    H712394   4.594   4.342  11.865  0.8000  3.2426 -0.3701
  840MPD2     C12395   0.158   2.540  10.370  0.7632  0.2612 -0.1109
  840MPD2    C112396   0.187   2.501  10.501 -0.6556 -0.3296  0.1301
  840MPD2    C212397   0.255   2.583  10.588 -0.6096  0.9096 -0.2415
  840MPD2    C312398   0.303   2.708  10.542  0.2103 -0.3383  0.4751
  840MPD2    C412399   0.284   2.735  10.410  0.1618  0.3460  0.3532
  840MPD2    C512400   0.200   2.662  10.330  0.5823 -0.6589  0.6016
  840MPD2     H12401   0.274   2.555  10.690 -0.8044 -2.3432 -1.1136
  840MPD2    H112402   0.331   2.825  10.370  1.1568 -0.8054 -1.0807
  840MPD2    H212403   0.087   2.486  10.309 -0.6875  3.0231 -0.8766
  840MPD2    H312404   0.184   2.700  10.230  1.7600  0.3747  0.8003
  840MPD2     N12405   0.362   2.810  10.621 -0.8954 -0.0630 -0.4842
  840MPD2    H512406   0.392   2.891  10.569  0.7300 -2.0038 -2.5457
  840MPD2    N112407   0.123   2.383  10.547 -0.5365 -0.0190  0.2049
  840MPD2    H712408   0.066   2.337  10.477 -1.9963  0.8707  0.8325
  841MPD2     C12409   0.210   1.803  14.899 -0.7919 -0.0042 -0.6863
  841MPD2    C112410   0.179   1.860  14.774 -0.1228  0.0693  1.0179
  841MPD2    C212411   0.211   1.995  14.755 -0.0806 -0.2178 -0.5025
  841MPD2    C312412   0.274   2.064  14.856  0.6038 -0.1901 -0.4983
  841MPD2    C412413   0.310   1.996  14.975 -0.4534 -0.6047  0.8843
  841MPD2    C512414   0.274   1.870  14.998  0.1072  0.0966 -0.6887
  841MPD2     H12415   0.199   2.046  14.660  0.2485  1.4916  0.3792
  841MPD2    H112416   0.371   2.034  15.057 -0.7897 -0.5364  1.1013
  841MPD2    H212417   0.174   1.704  14.926 -1.0384 -0.2969 -2.0824
  841MPD2    H312418   0.292   1.830  15.097 -1.8171 -1.4634 -0.9578
  841MPD2     N12419   0.325   2.190  14.827  0.5357  0.0098 -0.1059
  841MPD2    H512420   0.281   2.239  14.750  0.5096  1.0245  0.5591
  841MPD2    N112421   0.110   1.796  14.668  0.2387  0.7330  0.4523
  841MPD2    H712422   0.081   1.855  14.591 -0.7748 -1.2411 -0.6968
  842MPD2     C12423   1.018   3.520  17.051  0.5117 -0.3185  0.3089
  842MPD2    C112424   0.929   3.412  17.068  0.1038  0.5992 -0.5630
  842MPD2    C212425   0.949   3.314  17.163 -0.0084  0.2494 -0.3532
  842MPD2    C312426   1.062   3.323  17.245  0.0787  1.0739  0.2271
  842MPD2    C412427   1.146   3.432  17.232  0.0737 -0.4674  0.6217
  842MPD2    C512428   1.121   3.530  17.138  0.7559 -0.1141 -0.5835
  842MPD2     H12429   0.878   3.234  17.184  0.7572 -0.5038 -0.6139
  842MPD2    H112430   1.229   3.438  17.301  1.3029  1.0666 -0.9891
  842MPD2    H212431   1.004   3.591  16.971 -1.5162 -0.8503  0.1911
  842MPD2    H312432   1.185   3.617  17.144  0.8362 -0.1141 -1.4425
  842MPD2     N12433   1.095   3.237  17.358  0.0709  0.4579  0.1029
  842MPD2    H512434   1.191   3.229  17.389 -0.7317  2.5567  3.0623
  842MPD2    N112435   0.821   3.402  16.974 -0.1366 -0.1897 -0.1442
  842MPD2    H712436   0.832   3.466  16.896 -1.8564  0.3899  0.0727
  843MPD2     C12437   2.605   3.483   0.137  0.9657 -0.0592 -0.6853
  843MPD2    C112438   2.673   3.469   0.255  0.6728 -0.5655  0.6746
  843MPD2    C212439   2.737   3.585   0.306 -0.4935  0.1060 -0.7819
  843MPD2    C312440   2.735   3.700   0.226  0.2213  0.2594 -0.7422
  843MPD2    C412441   2.663   3.705   0.113 -0.7563  0.3040 -0.0857
  843MPD2    C512442   2.594   3.596   0.066  0.7167 -0.2342 -0.7150
  843MPD2     H12443   2.798   3.575   0.396 -2.6437 -2.4816  0.3790
  843MPD2    H112444   2.663   3.801   0.063  0.6043  0.8585  0.9820
  843MPD2    H212445   2.552   3.398   0.096  1.3299 -1.1548  1.1266
  843MPD2    H312446   2.524   3.604  17.728  1.1945 -0.0897 -1.1011
  843MPD2     N12447   2.798   3.822   0.268  0.0248  0.3879  0.1115
  843MPD2    H512448   2.786   3.902   0.207  0.1241 -0.0817 -0.5254
  843MPD2    N112449   2.673   3.339   0.322 -0.1159 -0.0402 -0.1274
  843MPD2    H712450   2.622   3.263   0.278 -0.3696  0.7151 -1.1128
  844MPD2     C12451   1.002   2.621  16.880  0.1110  0.2114  0.5421
  844MPD2    C112452   1.060   2.720  16.800  0.0300 -0.2862  0.1299
  844MPD2    C212453   1.181   2.772  16.833  0.0483  0.5677 -0.5688
  844MPD2    C312454   1.255   2.710  16.934 -0.5641 -0.0162  0.5440
  844MPD2    C412455   1.189   2.626  17.018  0.2370 -0.6129  0.3955
  844MPD2    C512456   1.055   2.588  17.000  0.8716 -0.2539  0.4217
  844MPD2     H12457   1.226   2.851  16.773  1.5076 -1.1510 -1.7036
  844MPD2    H112458   1.237   2.571  17.098 -2.0292  0.0453  2.2183
  844MPD2    H212459   0.908   2.575  16.853 -0.7007 -0.1688  4.0421
  844MPD2    H312460   1.014   2.503  17.054  0.3400  0.4321  1.0914
  844MPD2     N12461   1.394   2.735  16.938 -0.0700  0.2138 -0.3878
  844MPD2    H512462   1.426   2.802  16.869  1.9117  0.5668  0.8929
  844MPD2    N112463   1.001   2.756  16.672  0.2211  0.1634  0.3163
  844MPD2    H712464   1.063   2.815  16.617 -1.3573 -0.2232 -1.8765
  845MPD2     C12465   1.674   3.563  17.004  0.1009 -0.4945  0.2607
  845MPD2    C112466   1.591   3.498  17.094  0.6393  0.4578 -0.6342
  845MPD2    C212467   1.594   3.360  17.102  0.0598  0.6171 -0.2914
  845MPD2    C312468   1.675   3.293  17.006 -0.1277  0.3176  0.9769
  845MPD2    C412469   1.747   3.357  16.909  0.7072  0.4051 -0.0548
  845MPD2    C512470   1.738   3.492  16.907 -0.4897  0.0871 -0.2395
  845MPD2     H12471   1.533   3.305  17.172  0.1299  0.5900 -0.2520
  845MPD2    H112472   1.796   3.306  16.828  1.7788 -1.7300  1.9245
  845MPD2    H212473   1.679   3.672  17.000 -1.8965 -0.4463 -0.9495
  845MPD2    H312474   1.807   3.537  16.836  0.2029  0.4065  0.6273
  845MPD2     N12475   1.669   3.153  17.013  0.3396  0.1461 -0.4489
  845MPD2    H512476   1.603   3.114  17.078  0.3628  2.4977  1.0082
  845MPD2    N112477   1.536   3.582  17.190 -0.1075  0.1251 -0.6403
  845MPD2    H712478   1.559   3.679  17.170 -0.1755  1.1713  4.1491
  846MPD2     C12479   3.069   3.880  13.745 -0.2548  0.4588 -0.4885
  846MPD2    C112480   2.971   3.976  13.764 -0.1023 -0.2598  0.6056
  846MPD2    C212481   2.935   4.014  13.891 -0.6872  0.4937 -0.4056
  846MPD2    C312482   3.004   3.978  14.004 -0.2851  0.6097 -0.1149
  846MPD2    C412483   3.117   3.899  13.991  0.1212  0.0338  0.0450
  846MPD2    C512484   3.133   3.843  13.866  0.3724 -0.7154 -0.2922
  846MPD2     H12485   2.848   4.074  13.910 -0.1141  0.9528  0.7448
  846MPD2    H112486   3.168   3.864  14.080  2.0201  1.6329 -0.4234
  846MPD2    H212487   3.116   3.845  13.654 -0.4525 -2.0695  0.4031
  846MPD2    H312488   3.216   3.774  13.856 -0.7117 -1.8008 -2.0116
  846MPD2     N12489   2.954   4.018  14.133 -1.0894 -0.6846  0.1699
  846MPD2    H512490   2.861   4.059  14.123 -2.0773 -3.0013 -0.2160
  846MPD2    N112491   2.898   4.022  13.655 -0.2487 -0.1162  0.6549
  846MPD2    H712492   2.821   4.085  13.673 -0.5577 -0.8723  1.9364
  847MPD2     C12493   3.281   0.446  14.286  0.2997 -0.8788 -0.0882
  847MPD2    C112494   3.368   0.394  14.381  0.0355 -0.0005 -0.0715
  847MPD2    C212495   3.393   0.259  14.372 -0.1233  0.3470  0.4491
  847MPD2    C312496   3.324   0.178  14.280 -0.5784 -0.5612  0.4386
  847MPD2    C412497   3.236   0.227  14.188 -0.8001  0.2440  0.1294
  847MPD2    C512498   3.211   0.367  14.198 -0.8196 -0.1562  0.0913
  847MPD2     H12499   3.461   0.222  14.448  0.3473 -0.2280 -0.2535
  847MPD2    H112500   3.180   0.167  14.118 -0.5304 -0.2194  0.3074
  847MPD2    H212501   3.253   0.551  14.284  0.7119 -0.7373  1.3738
  847MPD2    H312502   3.145   0.408  14.122 -0.3643 -0.0352 -0.2389
  847MPD2     N12503   3.343   0.043  14.293 -0.2879  0.2348  0.1392
  847MPD2    H512504   3.397   0.014  14.374 -0.2388 -3.1088 -1.0595
  847MPD2    N112505   3.445   0.465  14.471  0.6112  0.1192  0.2976
  847MPD2    H712506   3.517   0.416  14.524  0.3745 -0.3531  0.1812
  848MPD2     C12507   1.120   3.228  16.465  0.4218 -0.3244  0.6358
  848MPD2    C112508   1.150   3.299  16.579  0.2942  0.1394  0.3487
  848MPD2    C212509   1.182   3.437  16.562  0.9105  0.1764 -0.2020
  848MPD2    C312510   1.189   3.502  16.438  0.1321  0.1696 -0.6964
  848MPD2    C412511   1.147   3.425  16.332  0.0090 -0.6615  0.0788
  848MPD2    C512512   1.118   3.295  16.346 -0.3179  0.2798  0.2709
  848MPD2     H12513   1.189   3.488  16.657 -0.1526  1.7078 -0.9433
  848MPD2    H112514   1.141   3.475  16.236 -0.9191 -1.5465 -0.3166
  848MPD2    H212515   1.114   3.120  16.467  1.6682 -0.4500 -2.6664
  848MPD2    H312516   1.097   3.238  16.257 -1.3741  0.1274  0.6224
  848MPD2     N12517   1.214   3.641  16.420 -0.0629  0.6271  0.2079
  848MPD2    H512518   1.209   3.671  16.323  1.5205  2.0602  0.5640
  848MPD2    N112519   1.144   3.255  16.714 -0.0471 -0.1778  0.1810
  848MPD2    H712520   1.167   3.318  16.790 -2.0204  2.0153 -1.0654
  849MPD2     C12521   0.155   2.924  14.644  0.4874  0.2831 -0.3701
  849MPD2    C112522   0.230   2.964  14.534  0.6320  0.2154  0.4510
  849MPD2    C212523   0.368   2.978  14.557  0.3761 -0.1812 -0.5092
  849MPD2    C312524   0.422   2.949  14.680 -0.0575 -0.5015 -0.2658
  849MPD2    C412525   0.347   2.914  14.791  0.4392  0.7368  0.1337
  849MPD2    C512526   0.210   2.901  14.770  0.9626 -0.0226 -0.3704
  849MPD2     H12527   0.427   2.994  14.468 -0.8039 -1.0487 -1.4355
  849MPD2    H112528   0.392   2.891  14.886 -0.6049 -1.7861  0.0059
  849MPD2    H212529   0.048   2.909  14.637  0.4637 -0.5916  1.9114
  849MPD2    H312530   0.146   2.881  14.854  1.8761  0.6522  0.4845
  849MPD2     N12531   0.562   2.952  14.682 -0.1168 -0.1516  0.1696
  849MPD2    H512532   0.606   2.967  14.591  0.2054 -1.9081  0.0341
  849MPD2    N112533   0.183   2.989  14.403  0.1884  0.8455 -0.0429
  849MPD2    H712534   0.251   3.032  14.341  0.5907  0.4542  0.1298
  850MPD2     C12535   3.078   1.425  14.981  0.4189  0.0072 -0.6411
  850MPD2    C112536   3.085   1.462  15.116  0.3375 -0.0421 -0.0030
  850MPD2    C212537   3.200   1.532  15.157  0.9890 -0.1658 -0.3978
  850MPD2    C312538   3.306   1.550  15.074 -0.4592  0.3572 -0.3931
  850MPD2    C412539   3.299   1.515  14.938 -0.7335  0.4596  0.0512
  850MPD2    C512540   3.182   1.457  14.900 -0.8547 -0.0063  0.4339
  850MPD2     H12541   3.226   1.556  15.259  2.2962  0.6589 -0.9149
  850MPD2    H112542   3.375   1.533  14.863 -1.7710 -0.0767 -1.1390
  850MPD2    H212543   2.990   1.372  14.944 -0.9160  0.6285  1.6350
  850MPD2    H312544   3.184   1.428  14.795 -0.1643 -1.2738  0.7958
  850MPD2     N12545   3.430   1.594  15.121 -0.2327  0.1174  0.0639
  850MPD2    H512546   3.497   1.609  15.047 -1.9053 -0.2343 -1.5071
  850MPD2    N112547   2.977   1.445  15.209  0.5779  0.1151  0.2922
  850MPD2    H712548   2.904   1.379  15.183 -0.6985  1.3184  0.8030
  851MPD2     C12549   3.279   1.087  15.630  0.8450  0.1838  0.7275
  851MPD2    C112550   3.163   1.047  15.571 -0.3394  0.0638  0.1831
  851MPD2    C212551   3.177   0.939  15.489  0.4941  0.3840 -0.0663
  851MPD2    C312552   3.301   0.880  15.460 -0.0939  0.2781 -0.4837
  851MPD2    C412553   3.415   0.921  15.517  0.4363  0.0080  0.0298
  851MPD2    C512554   3.401   1.022  15.610 -0.2332 -0.7322 -0.0620
  851MPD2     H12555   3.090   0.884  15.455  0.3843  0.9871 -0.7655
  851MPD2    H112556   3.508   0.867  15.501  0.5015  0.0099  0.4158
  851MPD2    H212557   3.279   1.178  15.689  1.3708  0.5047  0.2381
  851MPD2    H312558   3.492   1.059  15.655 -2.3596  2.3442  1.6308
  851MPD2     N12559   3.290   0.760  15.379 -0.1783  0.9528 -0.0747
  851MPD2    H512560   3.199   0.727  15.350  0.6253 -2.0012  0.7462
  851MPD2    N112561   3.045   1.117  15.602  0.4781  0.2343  0.4647
  851MPD2    H712562   3.048   1.195  15.666 -0.5284 -0.8001  1.7720
  852MPD2     C12563   3.028   3.370  10.009  0.4777  0.1980 -0.2699
  852MPD2    C112564   2.957   3.364  10.125 -0.2187 -0.0082 -0.0387
  852MPD2    C212565   2.965   3.471  10.212  0.3902 -0.2812 -0.2835
  852MPD2    C312566   3.035   3.588  10.186 -0.2388 -0.0996  0.4307
  852MPD2    C412567   3.090   3.597  10.057 -0.7303 -0.7791  0.0464
  852MPD2    C512568   3.096   3.486   9.977  0.5065 -0.7750  0.6093
  852MPD2     H12569   2.916   3.469  10.309  0.6570 -0.6971 -0.1562
  852MPD2    H112570   3.139   3.688  10.023 -1.9802 -0.0249  0.2559
  852MPD2    H212571   3.024   3.288   9.939 -1.8367  0.6676 -0.6804
  852MPD2    H312572   3.137   3.499   9.878 -0.7945  2.9524  0.5785
  852MPD2     N12573   3.038   3.690  10.287  0.1804  0.7094 -0.1303
  852MPD2    H512574   2.996   3.663  10.376 -0.6913  3.3545  0.2709
  852MPD2    N112575   2.891   3.243  10.144 -0.1537 -0.3243  0.5620
  852MPD2    H712576   2.909   3.171  10.076  1.4016 -0.6144  1.2930
  853MPD2     C12577   4.227   3.518  12.415  0.8925 -0.1820  0.0130
  853MPD2    C112578   4.213   3.646  12.362  0.4685  0.2178  0.4170
  853MPD2    C212579   4.199   3.672  12.228  0.7842  0.1607 -0.7560
  853MPD2    C312580   4.191   3.556  12.148 -0.3342  0.1813  0.6138
  853MPD2    C412581   4.202   3.431  12.198 -1.0029  0.2392  0.0709
  853MPD2    C512582   4.217   3.411  12.331 -0.0392 -0.3084 -0.0431
  853MPD2     H12583   4.202   3.771  12.184 -1.2502  0.1037 -1.0408
  853MPD2    H112584   4.203   3.346  12.131 -0.1075  0.3786 -0.0899
  853MPD2    H212585   4.242   3.502  12.521  1.5079  0.7557  0.0637
  853MPD2    H312586   4.220   3.306  12.359 -2.0986 -0.3602  0.0233
  853MPD2     N12587   4.193   3.568  12.009  0.2457 -0.2235 -0.3140
  853MPD2    H512588   4.214   3.483  11.958 -0.8230 -1.9828  2.1724
  853MPD2    N112589   4.216   3.750  12.458 -0.7791 -0.4284  0.1437
  853MPD2    H712590   4.224   3.718  12.554  2.5018  1.2369  0.4508
  854MPD2     C12591   1.512   3.920  12.763 -0.2313 -1.0691  0.7425
  854MPD2    C112592   1.514   3.813  12.845  0.2589 -0.0033 -0.3812
  854MPD2    C212593   1.642   3.745  12.851 -0.0116  0.2747 -0.2742
  854MPD2    C312594   1.749   3.779  12.774  0.1370  0.2987  0.3428
  854MPD2    C412595   1.728   3.869  12.668  0.3429  0.9232 -0.6711
  854MPD2    C512596   1.614   3.943  12.678  0.0925  0.1127  0.0623
  854MPD2     H12597   1.658   3.660  12.917 -0.0783 -0.3519 -1.0661
  854MPD2    H112598   1.815   3.889  12.606 -0.1409  2.3700 -0.8713
  854MPD2    H212599   1.424   3.984  12.753  1.2257  0.8348  0.0396
  854MPD2    H312600   1.611   4.034  12.618  0.4064 -0.2778 -0.5490
  854MPD2     N12601   1.867   3.703  12.789  0.2954  0.0011  1.4554
  854MPD2    H512602   1.863   3.633  12.863 -3.6923 -0.9089  0.3682
  854MPD2    N112603   1.391   3.784  12.916 -0.0057  0.0241  0.4616
  854MPD2    H712604   1.317   3.851  12.898  1.5850  2.0721  1.4439
  855MPD2     C12605   2.265   3.541  13.533 -0.1318  0.5439  0.3653
  855MPD2    C112606   2.249   3.415  13.469 -0.2802 -0.5676  0.3147
  855MPD2    C212607   2.215   3.408  13.340 -0.3494 -0.6564  0.6342
  855MPD2    C312608   2.199   3.526  13.268 -0.5550 -0.3349 -0.1226
  855MPD2    C412609   2.220   3.646  13.330  0.9117  0.0556  0.1694
  855MPD2    C512610   2.246   3.654  13.462  0.0341  0.5311 -0.0769
  855MPD2     H12611   2.214   3.308  13.299 -1.7409 -0.2477 -0.3390
  855MPD2    H112612   2.211   3.743  13.281  0.4984 -0.1536 -0.1755
  855MPD2    H212613   2.283   3.544  13.640 -1.2893  2.0440  0.5279
  855MPD2    H312614   2.246   3.751  13.511 -1.8825  0.5542 -0.1052
  855MPD2     N12615   2.158   3.528  13.132 -0.6269 -0.5341  0.7000
  855MPD2    H512616   2.128   3.618  13.096 -0.1522 -0.8784 -0.5374
  855MPD2    N112617   2.268   3.294  13.538  0.5168 -0.4987 -0.0200
  855MPD2    H712618   2.241   3.204  13.498  2.6530 -1.5890  0.9727
  856MPD2     C12619   3.799   4.323  13.998 -0.3279 -0.3487  0.4221
  856MPD2    C112620   3.834   4.458  14.018  0.1440  0.5305  0.3324
  856MPD2    C212621   3.732   4.553  14.009  0.3795 -0.1075  0.4134
  856MPD2    C312622   3.606   4.523  13.961  0.1697  0.4935 -0.1509
  856MPD2    C412623   3.584   4.388  13.940 -0.6259  0.3952 -0.1790
  856MPD2    C512624   3.675   4.295  13.965  0.0624 -0.4116  0.2349
  856MPD2     H12625   3.760   4.658  14.016 -0.5937  0.1172  0.8562
  856MPD2    H112626   3.490   4.348  13.904 -1.4653  0.8010  1.5597
  856MPD2    H212627   3.865   4.239  14.017 -2.7901 -2.3920 -0.1274
  856MPD2    H312628   3.650   4.195  13.931  0.2117 -0.5253  0.4589
  856MPD2     N12629   3.503   4.614  13.921  0.8357 -0.0351 -0.3505
  856MPD2    H512630   3.426   4.569  13.872  1.0365 -1.2069  0.4108
  856MPD2    N112631   3.970   4.496  14.055 -0.1896 -0.8884 -0.2283
  856MPD2    H712632   3.999   4.593  14.057 -2.0290 -0.3217 -0.8217
  857MPD2     C12633   0.800   1.533  13.117 -0.3816  0.0275  0.1245
  857MPD2    C112634   0.789   1.646  13.040 -0.0061 -0.2505 -0.4454
  857MPD2    C212635   0.823   1.766  13.103 -0.2347 -0.7634 -1.0824
  857MPD2    C312636   0.883   1.767  13.221  0.6954  0.0318  1.1816
  857MPD2    C412637   0.900   1.647  13.295  0.2987  0.0973  0.9192
  857MPD2    C512638   0.861   1.529  13.238 -0.3737 -0.2991  0.3918
  857MPD2     H12639   0.800   1.856  13.047  0.3670  0.4056  0.5608
  857MPD2    H112640   0.953   1.640  13.389 -0.6270  0.1890  1.4453
  857MPD2    H212641   0.777   1.435  13.075  0.7539 -0.6832  1.1716
  857MPD2    H312642   0.882   1.433  13.283  0.8746 -0.1712  0.0875
  857MPD2     N12643   0.924   1.894  13.278  0.1006  0.3826 -0.1927
  857MPD2    H512644   0.888   1.975  13.226 -3.9741 -1.1085  0.2830
  857MPD2    N112645   0.747   1.638  12.905 -0.2182 -0.0668 -0.7177
  857MPD2    H712646   0.726   1.546  12.869  2.0884  0.1289 -2.5581
  858MPD2     C12647   1.255   1.137  16.449  0.7801  0.0711  0.4433
  858MPD2    C112648   1.320   1.042  16.521  0.3426 -0.0454 -0.4284
  858MPD2    C212649   1.316   1.052  16.660  0.2451  0.2291  0.0722
  858MPD2    C312650   1.245   1.147  16.722  0.1268 -0.0426  0.1520
  858MPD2    C412651   1.171   1.231  16.647  0.2284  0.2025 -0.0482
  858MPD2    C512652   1.181   1.234  16.508 -0.1469  0.4882 -0.2574
  858MPD2     H12653   1.381   0.981  16.711 -0.1485  0.1698  0.4862
  858MPD2    H112654   1.101   1.298  16.696  1.1150  0.1243  1.3524
  858MPD2    H212655   1.256   1.136  16.340  2.7146  1.4501  0.4517
  858MPD2    H312656   1.133   1.304  16.441  1.4656  0.2263 -1.6649
  858MPD2     N12657   1.250   1.169  16.864  0.2741  0.0862  0.2797
  858MPD2    H512658   1.208   1.256  16.896  0.3973 -0.1306  1.0454
  858MPD2    N112659   1.376   0.927  16.466 -0.0613  0.2270  0.4240
  858MPD2    H712660   1.412   0.860  16.533  0.2756 -2.4716 -2.4816
  859MPD2     C12661   0.394   3.128  15.823 -0.4765 -0.3405 -0.4073
  859MPD2    C112662   0.348   3.113  15.693  1.2479 -0.0795 -0.8563
  859MPD2    C212663   0.227   3.048  15.671  0.1457 -0.1112 -0.2543
  859MPD2    C312664   0.140   3.015  15.774  0.6873  0.2930 -0.4048
  859MPD2    C412665   0.181   3.052  15.903 -0.7394  0.5642  0.4229
  859MPD2    C512666   0.309   3.105  15.929 -0.3326  0.1555  0.1107
  859MPD2     H12667   0.201   3.024  15.568 -2.2514  0.3494  0.2512
  859MPD2    H112668   0.120   3.027  15.988  1.3845 -1.8816  1.2229
  859MPD2    H212669   0.490   3.172  15.845 -0.3270 -1.8911  2.0600
  859MPD2    H312670   0.331   3.126  16.033 -2.0912 -0.3898  0.5912
  859MPD2     N12671   0.017   2.960  15.752  0.2783  0.1853 -0.0242
  859MPD2    H512672   4.698   2.957  15.836 -1.2921 -2.8307 -1.1711
  859MPD2    N112673   0.431   3.156  15.582  0.2062  0.2098 -0.2169
  859MPD2    H712674   0.519   3.202  15.606 -0.2124  0.5135  0.7438
  860MPD2     C12675   2.818   3.624  11.440  0.2852 -0.3316 -0.6586
  860MPD2    C112676   2.788   3.531  11.535  0.0802 -0.5264 -0.4331
  860MPD2    C212677   2.656   3.506  11.562  0.1532  0.5725  0.2513
  860MPD2    C312678   2.547   3.565  11.499  0.1351  0.2206 -0.3036
  860MPD2    C412679   2.577   3.660  11.403 -0.3995  0.1319  0.3239
  860MPD2    C512680   2.715   3.696  11.376  0.4413 -0.2936  0.3298
  860MPD2     H12681   2.632   3.451  11.652 -2.1182  0.2687 -0.5544
  860MPD2    H112682   2.501   3.725  11.360  0.6157  0.1058 -1.5052
  860MPD2    H212683   2.920   3.648  11.415 -0.0252  0.9598 -0.6626
  860MPD2    H312684   2.728   3.766  11.295  0.6436  0.2878  0.8704
  860MPD2     N12685   2.419   3.540  11.557  0.3145 -0.9851 -0.1608
  860MPD2    H512686   2.423   3.475  11.634 -0.7413 -0.0880  0.6369
  860MPD2    N112687   2.884   3.478  11.618  0.0977 -0.6495  0.0339
  860MPD2    H712688   2.843   3.420  11.690  0.3298  1.4948  1.8717
  861MPD2     C12689   1.275   1.408  11.833  1.1011 -0.0375 -0.3289
  861MPD2    C112690   1.330   1.530  11.806 -0.0016 -0.3208  0.4671
  861MPD2    C212691   1.301   1.592  11.689 -0.3577 -0.2115  0.3616
  861MPD2    C312692   1.208   1.526  11.598  0.0792  1.1540  0.7948
  861MPD2    C412693   1.140   1.409  11.632 -0.4797  0.6028  0.1306
  861MPD2    C512694   1.190   1.346  11.748 -0.3706  0.8161 -0.0605
  861MPD2     H12695   1.357   1.679  11.657  0.9693 -0.6702  1.3974
  861MPD2    H112696   1.063   1.360  11.573  0.2139  0.2630 -0.4944
  861MPD2    H212697   1.305   1.358  11.924  1.3577  2.1987  0.8305
  861MPD2    H312698   1.153   1.251  11.782 -1.4189  1.3675  0.3476
  861MPD2     N12699   1.198   1.577  11.470  0.8106 -0.5324  0.3903
  861MPD2    H512700   1.130   1.539  11.406  1.1124  0.0335 -0.2693
  861MPD2    N112701   1.390   1.613  11.906  0.2683 -0.2446 -0.0458
  861MPD2    H712702   1.447   1.694  11.882 -0.3603 -0.4710 -2.2552
  862MPD2     C12703   0.936   1.589  10.810 -0.0348  0.4788  0.1205
  862MPD2    C112704   1.057   1.597  10.875 -0.2544  0.4231  0.2574
  862MPD2    C212705   1.098   1.483  10.940  0.5803  0.3500  0.4568
  862MPD2    C312706   1.029   1.367  10.954 -0.0164  0.6181  0.3000
  862MPD2    C412707   0.917   1.357  10.882  0.0815 -0.0051 -0.3844
  862MPD2    C512708   0.878   1.468  10.807  0.8663 -0.2642  0.8197
  862MPD2     H12709   1.202   1.477  10.971  0.5870  1.3305  0.6295
  862MPD2    H112710   0.862   1.265  10.891  1.3945 -0.8081 -0.5671
  862MPD2    H212711   0.892   1.668  10.751  1.2134  0.9134 -0.2373
  862MPD2    H312712   0.786   1.458  10.752  1.3598 -0.8199  0.0955
  862MPD2     N12713   1.052   1.265  11.055  0.2891 -0.2381 -0.4142
  862MPD2    H512714   1.002   1.177  11.047  1.4154 -1.1016  2.0361
  862MPD2    N112715   1.115   1.728  10.892 -0.4313 -0.0649 -0.6941
  862MPD2    H712716   1.067   1.804  10.844 -0.5503 -0.3421 -1.0106
  863MPD2     C12717   4.668   0.099  16.529  0.1492 -0.0225 -0.1884
  863MPD2    C112718   4.569   0.019  16.580  0.7408 -0.3569  0.2259
  863MPD2    C212719   4.580   4.706  16.709 -0.0542 -0.3143  0.0790
  863MPD2    C312720   4.694   0.002  16.780  0.2581  0.1923  0.0209
  863MPD2    C412721   0.063   0.071  16.723  0.2984  0.2476 -0.0500
  863MPD2    C512722   0.043   0.134  16.604  0.3156 -0.9004  0.0826
  863MPD2     H12723   4.495   4.650  16.746  0.8474 -0.8386  1.3342
  863MPD2    H112724   0.150   0.079  16.787  0.3391 -0.2571 -0.0378
  863MPD2    H212725   4.666   0.149  16.433 -1.7969  1.6474  0.7253
  863MPD2    H312726   0.125   0.189  16.559 -0.1619 -1.1013 -1.0162
  863MPD2     N12727   4.711   4.703  16.913  0.1796 -0.2119 -0.2209
  863MPD2    H512728   0.064   4.726  16.954 -0.4528 -1.1477  1.6826
  863MPD2    N112729   4.460   0.013  16.490 -0.3723 -0.2986  0.1514
  863MPD2    H712730   4.472   0.072  16.408 -1.3652  0.3465  0.4727
  864MPD2     C12731   0.129   0.591  17.458 -0.3486  0.1842  0.4810
  864MPD2    C112732   0.155   0.585  17.323 -0.1721 -0.1227 -0.4344
  864MPD2    C212733   0.245   0.678  17.270  0.1140 -0.4472 -0.0590
  864MPD2    C312734   0.293   0.778  17.342  0.3072  0.5626  0.2985
  864MPD2    C412735   0.253   0.801  17.465  0.0036 -0.7278  0.1668
  864MPD2    C512736   0.173   0.702  17.525  0.2932 -0.5220 -0.1390
  864MPD2     H12737   0.267   0.678  17.164  0.8438  3.7737  0.0749
  864MPD2    H112738   0.293   0.885  17.521 -0.6620 -0.2214 -0.1222
  864MPD2    H212739   0.071   0.523  17.519 -0.1133 -1.7345 -1.4154
  864MPD2    H312740   0.150   0.715  17.630 -0.1636 -1.3376 -0.1373
  864MPD2     N12741   0.379   0.879  17.291 -0.3329  0.3610  0.7413
  864MPD2    H512742   0.382   0.961  17.349  0.0959  0.3946  0.6763
  864MPD2    N112743   0.094   0.484  17.252 -0.0326  0.4030 -0.1795
  864MPD2    H712744   0.022   0.430  17.301 -1.5653  2.2559 -0.3811
  865MPD2     C12745   0.594   1.473  16.643 -0.8318 -0.3642  0.0410
  865MPD2    C112746   0.542   1.352  16.685 -0.7707  0.0495  0.2061
  865MPD2    C212747   0.492   1.335  16.815  0.1949 -0.2513 -1.0797
  865MPD2    C312748   0.505   1.446  16.903 -0.2134  0.3403  0.1625
  865MPD2    C412749   0.549   1.566  16.850 -0.3866  0.5449  0.4893
  865MPD2    C512750   0.584   1.582  16.719  0.4021 -0.5066 -0.0462
  865MPD2     H12751   0.452   1.238  16.841  0.7451 -0.5277 -1.2431
  865MPD2    H112752   0.543   1.658  16.905 -0.1530  1.3511 -0.8321
  865MPD2    H212753   0.648   1.485  16.550 -1.7650  0.7261 -0.3603
  865MPD2    H312754   0.614   1.681  16.684 -1.2242 -0.6283 -1.7562
  865MPD2     N12755   0.457   1.444  17.037 -0.0133 -0.0413  0.1707
  865MPD2    H512756   0.454   1.538  17.076  0.4362  0.7610 -1.7316
  865MPD2    N112757   0.542   1.253  16.585 -0.0192  0.7044  0.8687
  865MPD2    H712758   0.574   1.273  16.491 -0.6353  1.3509  0.7934
  866MPD2     C12759   2.046   2.034  11.765 -0.1322 -0.0546 -0.7484
  866MPD2    C112760   1.998   1.976  11.651 -0.7802  0.2607 -0.0510
  866MPD2    C212761   1.863   1.997  11.624  0.2787 -0.7678 -0.2845
  866MPD2    C312762   1.786   2.071  11.715  0.4467  0.1033 -0.2248
  866MPD2    C412763   1.844   2.120  11.825 -0.1378 -0.6550  0.2795
  866MPD2    C512764   1.971   2.108  11.848  0.6054  0.4059  0.5043
  866MPD2     H12765   1.821   1.962  11.531  4.1404 -0.5964 -2.0762
  866MPD2    H112766   1.794   2.189  11.892 -1.3895 -2.2329  0.9874
  866MPD2    H212767   2.147   2.026  11.804 -1.5642  0.5712  3.1240
  866MPD2    H312768   2.013   2.171  11.926  0.4011  1.4348 -0.2189
  866MPD2     N12769   1.649   2.096  11.688 -0.4449  0.1742  0.6525
  866MPD2    H512770   1.587   2.131  11.761 -0.1614  2.3215 -0.1353
  866MPD2    N112771   2.085   1.897  11.581  0.0377 -0.3526 -0.9361
  866MPD2    H712772   2.183   1.885  11.604 -0.3040 -0.9441  0.2012
  867MPD2     C12773   3.758   1.042  16.682 -0.2990 -0.3091  0.3019
  867MPD2    C112774   3.807   0.960  16.782  0.3999 -0.2328 -0.0598
  867MPD2    C212775   3.812   0.998  16.915  0.4693  0.5500 -0.0093
  867MPD2    C312776   3.752   1.122  16.949 -0.4657 -0.9404  0.4559
  867MPD2    C412777   3.692   1.198  16.850  0.8095 -0.6476 -0.8621
  867MPD2    C512778   3.700   1.158  16.720 -0.2731  0.3652 -0.0180
  867MPD2     H12779   3.858   0.935  16.990 -0.6803  1.9560  1.8718
  867MPD2    H112780   3.635   1.287  16.876  0.6751 -0.1980 -2.7212
  867MPD2    H212781   3.765   1.020  16.576  0.7319 -0.1298  0.3244
  867MPD2    H312782   3.657   1.227  16.649 -0.9404 -0.2738 -0.2333
  867MPD2     N12783   3.743   1.159  17.079  0.8564 -0.1370  0.5993
  867MPD2    H512784   3.667   1.223  17.099  0.1698 -1.1265  1.1027
  867MPD2    N112785   3.846   0.834  16.732 -0.2912  0.4928 -0.1377
  867MPD2    H712786   3.846   0.824  16.631  0.4989  2.6287 -0.3543
  868MPD2     C12787   1.405   0.308  13.400  0.2596  0.0327  0.2597
  868MPD2    C112788   1.388   0.174  13.399  0.2013  0.4107  0.2345
  868MPD2    C212789   1.303   0.122  13.495  0.5378  0.4409  0.1388
  868MPD2    C312790   1.219   0.198  13.572  0.2171 -0.1039  0.3794
  868MPD2    C412791   1.229   0.330  13.564 -0.0169  0.3586  0.1667
  868MPD2    C512792   1.329   0.383  13.488  0.2196 -0.1442 -0.1268
  868MPD2     H12793   1.293   0.015  13.510 -0.7222  0.3636 -1.2530
  868MPD2    H112794   1.165   0.399  13.618  2.5832  3.3456 -0.5666
  868MPD2    H212795   1.467   0.360  13.328 -0.5923 -0.0292 -0.5002
  868MPD2    H312796   1.334   0.492  13.485 -0.6867 -0.1438 -1.2671
  868MPD2     N12797   1.143   0.135  13.666 -0.2935 -0.8484  0.1708
  868MPD2    H512798   1.150   0.034  13.673 -1.4448 -0.7755  2.3473
  868MPD2    N112799   1.468   0.094  13.315 -0.2786  0.3760 -1.2212
  868MPD2    H712800   1.545   0.137  13.264  0.4233 -0.1010 -0.5664
  869MPD2     C12801   1.416   3.097   1.400 -0.5084 -0.0528 -0.1809
  869MPD2    C112802   1.470   3.201   1.330 -0.2352  0.0352 -0.3961
  869MPD2    C212803   1.606   3.223   1.352  0.4940 -0.4464 -0.9559
  869MPD2    C312804   1.679   3.171   1.457  0.0622  0.0186 -0.2827
  869MPD2    C412805   1.616   3.087   1.539 -0.0193 -0.4756  0.0963
  869MPD2    C512806   1.490   3.049   1.501  0.0620  0.3221  0.1326
  869MPD2     H12807   1.650   3.303   1.294 -0.7632  0.3060 -0.8747
  869MPD2    H112808   1.663   3.052   1.629 -1.1437  0.3383  1.0008
  869MPD2    H212809   1.313   3.063   1.395  0.0463 -1.5073 -1.9329
  869MPD2    H312810   1.442   2.977   1.566  0.3820  0.5545  0.6329
  869MPD2     N12811   1.808   3.219   1.472  0.1841  0.4399 -0.0365
  869MPD2    H512812   1.849   3.282   1.404  2.9867 -0.5857  0.6850
  869MPD2    N112813   1.383   3.270   1.237 -0.3089  0.2157 -0.4585
  869MPD2    H712814   1.286   3.242   1.243 -0.7786  1.7024 -0.8543
  870MPD2     C12815   2.131   1.717   1.515  0.7967  0.4136  0.3830
  870MPD2    C112816   2.045   1.640   1.445 -0.0738 -0.4875  0.3486
  870MPD2    C212817   1.916   1.688   1.428  0.6545 -0.3845  0.7043
  870MPD2    C312818   1.873   1.812   1.473  1.1746 -0.2217  0.6320
  870MPD2    C412819   1.960   1.882   1.556  0.1162  0.0050  0.7626
  870MPD2    C512820   2.090   1.835   1.567  0.1197  0.4025  0.4126
  870MPD2     H12821   1.856   1.629   1.359 -0.9127  1.0854  0.8032
  870MPD2    H112822   1.930   1.974   1.605  1.4145  1.6336 -1.5003
  870MPD2    H212823   2.237   1.692   1.520  0.4893 -1.1810 -0.8930
  870MPD2    H312824   2.158   1.894   1.628  0.8363 -0.0743  0.0747
  870MPD2     N12825   1.756   1.862   1.422  0.0569  0.1163 -0.2380
  870MPD2    H512826   1.713   1.813   1.344  0.7378  1.1916 -1.2947
  870MPD2    N112827   2.088   1.519   1.385 -0.1027  0.9171  0.0995
  870MPD2    H712828   2.185   1.496   1.405 -0.4847 -1.2390 -0.4851
  871MPD2     C12829   2.696   1.358  16.558  0.0866  0.2328  0.1194
  871MPD2    C112830   2.647   1.277  16.665 -0.6273 -0.3354 -0.0208
  871MPD2    C212831   2.672   1.141  16.666 -1.1073  0.2618 -0.8391
  871MPD2    C312832   2.750   1.082  16.563  0.8424 -0.4665  0.2107
  871MPD2    C412833   2.800   1.168  16.467 -0.2954  0.1659 -0.2654
  871MPD2    C512834   2.771   1.300  16.463 -0.5286  0.0585  0.0859
  871MPD2     H12835   2.631   1.088  16.751  1.5110  1.2818  1.0495
  871MPD2    H112836   2.861   1.132  16.385 -0.9489 -0.1342 -0.6194
  871MPD2    H212837   2.691   1.467  16.558 -1.4123  0.1670 -1.7756
  871MPD2    H312838   2.810   1.370  16.390  3.3724  0.6922  2.7677
  871MPD2     N12839   2.775   0.945  16.561  0.6875  0.4388  0.4449
  871MPD2    H512840   2.730   0.884  16.628  0.8380 -1.8448 -1.5066
  871MPD2    N112841   2.572   1.350  16.760 -0.9032 -0.6183  0.3428
  871MPD2    H712842   2.549   1.442  16.724  1.1956  1.3586  4.0382
  872MPD2     C12843   3.756   3.539  13.909 -0.2269 -0.3748 -0.1374
  872MPD2    C112844   3.786   3.647  13.996  0.4482  0.2589 -0.1224
  872MPD2    C212845   3.705   3.682  14.097  0.0599  0.1046  0.5630
  872MPD2    C312846   3.582   3.619  14.115  0.1537  0.5686  0.7927
  872MPD2    C412847   3.546   3.531  14.018 -0.1418 -0.2699 -1.1926
  872MPD2    C512848   3.629   3.492  13.914 -0.2410  0.4899 -0.0013
  872MPD2     H12849   3.735   3.767  14.156 -0.3853  0.2390  0.5917
  872MPD2    H112850   3.449   3.482  14.018  0.9914 -2.5130 -0.7903
  872MPD2    H212851   3.818   3.518  13.822  0.2140 -0.3191  0.1594
  872MPD2    H312852   3.586   3.422  13.842 -0.8885  0.9898 -0.1033
  872MPD2     N12853   3.492   3.651  14.219 -0.6663 -0.3013 -0.2510
  872MPD2    H512854   3.404   3.602  14.214 -0.0635 -1.3893 -0.2391
  872MPD2    N112855   3.906   3.723  13.979 -0.2478 -0.0881 -0.2442
  872MPD2    H712856   3.926   3.795  14.048 -1.2208  1.5984 -1.7301
  873MPD2     C12857   0.317   3.757   0.470 -0.3156 -0.0147 -0.3091
  873MPD2    C112858   0.316   3.721   0.607 -0.1639 -0.5899 -0.2352
  873MPD2    C212859   0.312   3.586   0.645  0.2267 -0.6678 -0.0431
  873MPD2    C312860   0.281   3.484   0.551 -0.0589 -0.5844 -0.3551
  873MPD2    C412861   0.267   3.526   0.420  0.5739 -0.3732  0.0051
  873MPD2    C512862   0.299   3.657   0.377 -0.1254  0.2587 -1.2631
  873MPD2     H12863   0.303   3.560   0.750 -1.8333  1.5886  0.3539
  873MPD2    H112864   0.251   3.454   0.341  0.7128 -1.1722  0.7089
  873MPD2    H212865   0.332   3.858   0.432 -0.5887 -0.1004 -0.6401
  873MPD2    H312866   0.299   3.678   0.271 -0.0099  1.0163 -1.1103
  873MPD2     N12867   0.248   3.355   0.605 -0.1451  0.6179  0.3750
  873MPD2    H512868   0.232   3.349   0.705  0.7909 -0.2509  0.4745
  873MPD2    N112869   0.320   3.830   0.701  0.3726  0.5798 -0.0014
  873MPD2    H712870   0.308   3.923   0.662 -1.5943 -0.3150 -1.4994
  874MPD2     C12871   0.562   3.678  16.268 -0.8188  0.2677 -0.1533
  874MPD2    C112872   0.603   3.686  16.402  0.1155 -0.1497 -0.8228
  874MPD2    C212873   0.711   3.774  16.426  0.5739 -0.7237 -0.7176
  874MPD2    C312874   0.768   3.854  16.332 -0.9712  0.7784  0.2363
  874MPD2    C412875   0.713   3.847  16.204  0.6542 -0.1179 -0.3207
  874MPD2    C512876   0.612   3.759  16.175  0.3482  0.3247  0.7012
  874MPD2     H12877   0.737   3.801  16.528 -0.2114 -0.6322 -0.5428
  874MPD2    H112878   0.750   3.914  16.127 -0.3245 -0.3352 -0.9789
  874MPD2    H212879   0.484   3.607  16.244 -1.2391  0.1612  1.5336
  874MPD2    H312880   0.570   3.758  16.075 -0.3812  1.0541  0.9926
  874MPD2     N12881   0.885   3.933  16.360 -0.1327  0.3843 -0.2948
  874MPD2    H512882   0.899   3.942  16.460 -2.2024 -0.5031  0.0653
  874MPD2    N112883   0.545   3.601  16.499 -0.2374  0.5285  0.3832
  874MPD2    H712884   0.479   3.529  16.472 -1.7600  1.4013  1.8212
  875MPD2     C12885   1.865   1.957  14.803 -0.2569  0.0059 -0.0387
  875MPD2    C112886   1.735   2.002  14.820  0.4089  0.2632 -0.3345
  875MPD2    C212887   1.706   2.091  14.921  0.2509 -0.3469 -0.3128
  875MPD2    C312888   1.806   2.149  14.994 -0.6467  0.1903 -0.5532
  875MPD2    C412889   1.934   2.108  14.975  0.3290  0.0964 -0.6114
  875MPD2    C512890   1.960   2.006  14.885  0.5664  0.2692  0.6682
  875MPD2     H12891   1.600   2.110  14.932  0.9313  3.0512  0.2754
  875MPD2    H112892   2.012   2.145  15.041 -1.6963  1.2488  1.1305
  875MPD2    H212893   1.888   1.886  14.724 -0.9402 -1.3576  0.9879
  875MPD2    H312894   2.061   1.980  14.856  0.3082  0.9218 -0.8380
  875MPD2     N12895   1.780   2.244  15.095 -0.6411 -0.2653 -0.2127
  875MPD2    H512896   1.849   2.265  15.166 -1.1211 -1.8699  0.7281
  875MPD2    N112897   1.624   1.957  14.738 -0.1096 -0.3666 -0.6772
  875MPD2    H712898   1.532   1.995  14.756 -0.1442 -1.7385  2.1625
  876MPD2     C12899   0.791   3.339  16.447  0.6022  0.0944  0.0379
  876MPD2    C112900   0.706   3.299  16.343  0.2266  1.0166 -0.0637
  876MPD2    C212901   0.623   3.182  16.363  0.3290 -0.3537 -0.0815
  876MPD2    C312902   0.637   3.100  16.476  0.3142 -0.7861  0.0425
  876MPD2    C412903   0.721   3.150  16.571  0.1339  0.5050  0.6640
  876MPD2    C512904   0.787   3.266  16.564 -0.1995 -0.3003  0.2801
  876MPD2     H12905   0.556   3.147  16.285 -0.6939  2.5927 -0.5460
  876MPD2    H112906   0.725   3.102  16.668  0.4424 -0.0758  0.3652
  876MPD2    H212907   0.857   3.425  16.436 -1.6131  1.7245 -0.4716
  876MPD2    H312908   0.845   3.296  16.651 -2.0547  1.9596  0.7160
  876MPD2     N12909   0.572   2.973  16.490  0.5833  1.0588  0.6146
  876MPD2    H512910   0.515   2.934  16.415 -0.6120  0.8886  1.6107
  876MPD2    N112911   0.718   3.361  16.216  0.1891  0.3689  0.0947
  876MPD2    H712912   0.792   3.430  16.213 -0.3099  0.8941  0.0687
  877MPD2     C12913   0.378   3.719  15.485  0.6426  0.5341  0.2184
  877MPD2    C112914   0.520   3.713  15.500 -1.0919 -0.2798  0.0693
  877MPD2    C212915   0.600   3.758  15.394 -0.2029 -0.8501  0.3766
  877MPD2    C312916   0.532   3.788  15.271  0.1195  0.1656 -0.2358
  877MPD2    C412917   0.398   3.781  15.258 -0.3996  0.4501  0.4282
  877MPD2    C512918   0.320   3.755  15.365  0.5949  0.5007 -0.8237
  877MPD2     H12919   0.708   3.754  15.402 -0.2985 -1.1578  1.5278
  877MPD2    H112920   0.352   3.812  15.164  0.5785  1.4381  0.2795
  877MPD2    H212921   0.314   3.687  15.566 -0.5266  0.7103 -0.6402
  877MPD2    H312922   0.213   3.762  15.348  0.6185  2.7405 -0.0472
  877MPD2     N12923   0.608   3.836  15.158 -0.1244  0.1863 -0.0024
  877MPD2    H512924   0.572   3.832  15.063  0.3672  0.7984 -0.2101
  877MPD2    N112925   0.579   3.671  15.620  0.1099  0.3568  0.0732
  877MPD2    H712926   0.679   3.676  15.637  0.1892 -0.6888 -0.0859
  878MPD2     C12927   0.064   2.981  13.358  0.5949  0.0921  0.0147
  878MPD2    C112928   0.164   3.059  13.398  0.0536  0.1298 -0.4219
  878MPD2    C212929   0.192   3.062  13.533  0.3913 -0.5922  0.5305
  878MPD2    C312930   0.121   2.995  13.631  0.2652  0.1078 -0.0611
  878MPD2    C412931   0.012   2.921  13.587  0.1920  0.5749 -0.1247
  878MPD2    C512932   4.725   2.911  13.449  0.1041 -0.3365 -0.2427
  878MPD2     H12933   0.270   3.131  13.562  0.1600  0.0486 -0.3587
  878MPD2    H112934   4.690   2.872  13.664 -3.6673  1.7486 -2.3256
  878MPD2    H212935   0.033   2.973  13.255 -0.0165 -2.6362  0.4022
  878MPD2    H312936   4.640   2.854  13.413 -0.7911  1.7981 -1.4871
  878MPD2     N12937   0.157   3.008  13.771  0.2331 -0.2000 -0.6085
  878MPD2    H512938   0.239   3.066  13.780  0.4654 -0.5953 -0.1916
  878MPD2    N112939   0.232   3.132  13.299  0.4550  0.2993  0.2913
  878MPD2    H712940   0.199   3.118  13.204 -0.8863  0.9227  0.6717
  879MPD2     C12941   0.440   0.017  17.032 -0.3752 -0.6676  0.3808
  879MPD2    C112942   0.464   4.654  17.132 -0.8646  0.0043 -0.4055
  879MPD2    C212943   0.437   4.522  17.109  0.6912  0.3716 -0.6101
  879MPD2    C312944   0.400   4.491  16.978  0.4095  0.6164  0.0603
  879MPD2    C412945   0.369   4.583  16.883 -0.1146 -0.1067 -0.0355
  879MPD2    C512946   0.404   4.709  16.910  0.2302  0.3515 -0.3452
  879MPD2     H12947   0.456   4.438  17.174 -1.3550  0.0482 -0.4469
  879MPD2    H112948   0.333   4.555  16.784  2.6088 -0.4979 -0.9021
  879MPD2    H212949   0.460   0.124  17.042  0.5193 -0.5427 -2.7596
  879MPD2    H312950   0.390   0.054  16.840 -2.2718  0.7666  0.6307
  879MPD2     N12951   0.410   4.361  16.928 -0.0963 -0.0168  0.4985
  879MPD2    H512952   0.394   4.340  16.830  1.2330  5.6450 -0.9510
  879MPD2    N112953   0.523   4.709  17.245 -0.8189  0.1310 -0.9148
  879MPD2    H712954   0.529   0.074  17.245  0.3040  0.0702 -3.1066
  880MPD2     C12955   1.607   1.043   0.183 -0.4631 -0.4930  0.1271
  880MPD2    C112956   1.596   1.116   0.297  0.9387 -0.4086  0.1190
  880MPD2    C212957   1.618   1.043   0.418  0.7951  0.4325  0.2417
  880MPD2    C312958   1.652   0.915   0.427  0.1513 -0.1217  0.1657
  880MPD2    C412959   1.674   0.847   0.307  0.1899 -0.4464 -0.4707
  880MPD2    C512960   1.646   0.910   0.187 -0.0456 -0.2792 -0.4909
  880MPD2     H12961   1.593   1.100   0.507  1.0506  0.2962  0.4000
  880MPD2    H112962   1.691   0.741   0.296 -0.4228 -0.5841 -0.0856
  880MPD2    H212963   1.603   1.095   0.088 -2.1405  2.8597  2.0652
  880MPD2    H312964   1.654   0.845   0.100 -1.5486 -1.1005 -0.0161
  880MPD2     N12965   1.665   0.862   0.557 -0.4088  0.5147 -0.1246
  880MPD2    H512966   1.642   0.929   0.631  1.8786  2.4563 -1.1529
  880MPD2    N112967   1.576   1.254   0.289  0.1135 -0.3318 -0.3362
  880MPD2    H712968   1.567   1.303   0.201 -1.8338 -0.0179  0.0267
  881MPD2     C12969   1.212   2.025  17.535  0.2701 -1.0557 -0.3116
  881MPD2    C112970   1.305   1.935  17.502 -0.4193  0.5671  0.5020
  881MPD2    C212971   1.364   1.876  17.619  0.1066  0.6470 -0.1287
  881MPD2    C312972   1.309   1.878   0.001  0.2413 -0.5667 -0.8079
  881MPD2    C412973   1.210   1.971   0.021 -0.5117  0.6406 -0.3524
  881MPD2    C512974   1.159   2.036  17.661  0.9490 -0.3243  0.0217
  881MPD2     H12975   1.454   1.815  17.615 -1.7604 -2.0649 -1.0777
  881MPD2    H112976   1.156   1.979   0.115 -2.6715  1.4150 -1.6546
  881MPD2    H212977   1.164   2.082  17.456 -2.5270  0.6436  2.6174
  881MPD2    H312978   1.070   2.097  17.677  2.3782  1.5623  0.7915
  881MPD2     N12979   1.354   1.802   0.105  0.5655 -0.5945  0.3922
  881MPD2    H512980   1.302   1.793   0.192 -1.4068 -2.6931 -0.9973
  881MPD2    N112981   1.384   1.920  17.377 -0.2057  0.2489  0.0584
  881MPD2    H712982   1.470   1.866  17.378  0.0124  0.6233  1.1527
  882MPD2     C12983   0.845   3.516  14.519  0.0902 -0.1243  0.2885
  882MPD2    C112984   0.757   3.588  14.587  0.1695  0.0906  0.5913
  882MPD2    C212985   0.621   3.556  14.573 -0.3477 -0.3762  0.0887
  882MPD2    C312986   0.576   3.448  14.504  0.4447  0.1231  0.4309
  882MPD2    C412987   0.672   3.377  14.441 -0.1142 -0.2284  0.2522
  882MPD2    C512988   0.801   3.411  14.446 -0.0250 -0.7252 -0.4602
  882MPD2     H12989   0.548   3.605  14.637 -0.5282  1.0002 -1.1635
  882MPD2    H112990   0.641   3.295  14.377  0.1918 -1.6366  1.9127
  882MPD2    H212991   0.951   3.536  14.503  0.3021 -0.4821  1.1857
  882MPD2    H312992   0.865   3.350  14.383 -1.3471 -0.8050 -1.7214
  882MPD2     N12993   0.439   3.405  14.496 -0.4151  0.3886 -0.6693
  882MPD2    H512994   0.409   3.321  14.447  1.1373  1.6955 -3.8310
  882MPD2    N112995   0.800   3.699  14.664  0.9044  0.1428  0.1756
  882MPD2    H712996   0.899   3.701  14.683  1.0220  0.8524 -0.5231
  883MPD2     C12997   2.031   3.904  16.322 -0.1262  0.2520  0.1573
  883MPD2    C112998   2.133   3.965  16.256 -0.8035 -0.4793  0.3693
  883MPD2    C212999   2.265   3.937  16.299  0.2919  0.4290 -0.2712
  883MPD2    C313000   2.299   3.850  16.399 -0.2506 -0.6044 -0.9279
  883MPD2    C413001   2.199   3.784  16.467 -0.0660  0.2986 -0.1809
  883MPD2    C513002   2.071   3.818  16.421 -0.2483 -0.1569 -0.6335
  883MPD2     H13003   2.345   3.973  16.234  0.5305 -1.4104 -0.9950
  883MPD2    H113004   2.209   3.718  16.553 -0.3110  0.4774 -0.0168
  883MPD2    H213005   1.925   3.911  16.302  0.1857 -0.2544 -1.6024
  883MPD2    H313006   1.993   3.764  16.474  1.1249 -0.8431  0.6950
  883MPD2     N13007   2.432   3.826  16.426  0.1963  0.9352 -0.2601
  883MPD2    H513008   2.502   3.884  16.380  0.0512  2.1715  1.0918
  883MPD2    N113009   2.113   4.053  16.149 -0.2410  0.4904 -0.2238
  883MPD2    H713010   2.198   4.086  16.105 -0.1714  1.8136  0.9151
  884MPD2     C13011   4.715   4.345  14.992 -0.2367 -0.5611  0.1278
  884MPD2    C113012   4.705   4.475  14.943  0.3305 -0.1206  0.1902
  884MPD2    C213013   4.580   4.538  14.957 -0.3085  0.9070  0.1305
  884MPD2    C313014   4.471   4.474  15.016  0.0856  0.9349  0.2729
  884MPD2    C413015   4.486   4.340  15.056 -0.2146 -0.4413  0.4193
  884MPD2    C513016   4.608   4.280  15.046  0.4289  0.0851 -1.0192
  884MPD2     H13017   4.576   4.644  14.933  0.5350  1.4364  2.2894
  884MPD2    H113018   4.408   4.283  15.105 -0.7607 -0.5375 -0.5571
  884MPD2    H213019   0.069   4.287  14.980  1.0588  0.9740  2.4139
  884MPD2    H313020   4.627   4.181  15.087  0.9166 -0.2581 -2.0761
  884MPD2     N13021   4.345   4.536  15.014  0.1581  0.1798 -0.0901
  884MPD2    H513022   4.334   4.622  14.961  3.3489 -0.0597 -1.1058
  884MPD2    N113023   0.073   4.555  14.896 -0.0518 -0.0533  0.0823
  884MPD2    H713024   0.046   4.643  14.854 -1.9051  0.4075  2.2990
  885MPD2     C13025   2.169   4.676   0.230  0.3433 -0.1737 -0.1187
  885MPD2    C113026   2.279   0.024   0.234 -0.3689  0.4715 -0.0358
  885MPD2    C213027   2.321   0.087   0.117 -0.3360 -0.2580 -1.2138
  885MPD2    C313028   2.243   0.077   0.001  0.7698  0.4757  0.5600
  885MPD2    C413029   2.131   4.735   0.003 -0.4148  1.1204  0.4116
  885MPD2    C513030   2.097   4.665   0.113 -0.3751  0.4903  0.2201
  885MPD2     H13031   2.408   0.151   0.110 -0.5221 -0.0149 -1.2911
  885MPD2    H113032   2.069   4.712  17.662 -0.2291  0.2201  0.5196
  885MPD2    H213033   2.138   4.611   0.311 -0.4757  1.4368  0.8696
  885MPD2    H313034   2.017   4.593   0.105  0.3804 -0.2822 -0.4105
  885MPD2     N13035   2.274   0.154  17.630  0.2675  0.3963  0.1997
  885MPD2    H513036   2.355   0.214  17.627 -0.2210  1.0035 -1.1698
  885MPD2    N113037   2.361   0.029   0.350  0.0018 -0.0760  0.0471
  885MPD2    H713038   2.336   4.706   0.428 -0.3680 -2.7396 -2.1202
  886MPD2     C13039   3.697   3.269  15.380  0.3098  0.3102  0.5103
  886MPD2    C113040   3.826   3.302  15.426 -0.0228 -0.5482 -0.0755
  886MPD2    C213041   3.933   3.310  15.334 -0.7787 -0.3659  0.6946
  886MPD2    C313042   3.903   3.317  15.203  0.4853  0.4171 -0.9041
  886MPD2    C413043   3.777   3.289  15.160  0.5009 -0.2480 -0.2453
  886MPD2    C513044   3.677   3.261  15.243  0.0690 -0.1750 -0.4393
  886MPD2     H13045   4.035   3.324  15.366 -1.1573  1.9155  0.8698
  886MPD2    H113046   3.759   3.288  15.053  0.4495  0.9550 -0.2487
  886MPD2    H213047   3.619   3.252  15.453 -0.3502 -1.3633 -0.5853
  886MPD2    H313048   3.579   3.235  15.205  0.0696  0.2282 -0.7082
  886MPD2     N13049   4.002   3.357  15.105 -0.3258 -0.1161  1.1108
  886MPD2    H513050   3.973   3.374  15.009 -2.5879 -1.8656  1.4846
  886MPD2    N113051   3.847   3.294  15.564  0.6239 -0.1119 -0.7483
  886MPD2    H713052   3.774   3.250  15.619  1.2920  0.4385  0.5880
  887MPD2     C13053   4.366   3.551  16.200 -0.4401 -0.1473  0.1793
  887MPD2    C113054   4.364   3.518  16.069 -0.7096  0.5677  0.0706
  887MPD2    C213055   4.469   3.560  15.987  0.4028  0.5724  0.5837
  887MPD2    C313056   4.580   3.626  16.039 -0.0570  0.0639 -0.2300
  887MPD2    C413057   4.575   3.657  16.175 -0.3184 -0.2000  0.3921
  887MPD2    C513058   4.473   3.614  16.258 -0.1145  0.3837 -0.4446
  887MPD2     H13059   4.457   3.538  15.882 -1.5025  1.2386  0.6600
  887MPD2    H113060   4.654   3.690  16.241 -0.3408 -2.5060  1.5830
  887MPD2    H213061   4.286   3.525  16.269  1.9745  1.2343  3.5316
  887MPD2    H313062   4.473   3.629  16.366  2.3251 -0.7553 -0.2688
  887MPD2     N13063   4.677   3.679  15.956  0.2373 -0.3852  0.0359
  887MPD2    H513064   4.658   3.664  15.858  0.8346 -1.2442  0.0514
  887MPD2    N113065   4.257   3.451  16.003  0.2029 -0.7292 -0.5700
  887MPD2    H713066   4.259   3.423  15.906  2.6591 -1.3103 -0.3640
  888MPD2     C13067   1.616   3.099  14.943  0.5331 -0.0370 -0.0258
  888MPD2    C113068   1.589   3.137  15.080  1.0069  0.5520 -0.0610
  888MPD2    C213069   1.642   3.245  15.141 -0.5266  0.9045  0.3659
  888MPD2    C313070   1.728   3.325  15.069 -0.0026 -0.4713 -0.6979
  888MPD2    C413071   1.752   3.294  14.936  0.0227  0.2783  0.4233
  888MPD2    C513072   1.704   3.182  14.879  0.1895 -0.4271 -1.0066
  888MPD2     H13073   1.622   3.259  15.247  3.0041  1.6118  0.9319
  888MPD2    H113074   1.809   3.364  14.875  0.9326  0.9623  2.0741
  888MPD2    H213075   1.565   3.018  14.893  0.0547  0.2702 -0.0303
  888MPD2    H313076   1.719   3.159  14.774 -2.5614 -1.8989 -1.0629
  888MPD2     N13077   1.774   3.444  15.121 -0.2862 -0.9061 -0.1417
  888MPD2    H513078   1.713   3.474  15.196 -0.3178 -0.1152 -0.4902
  888MPD2    N113079   1.517   3.054  15.163 -0.3082 -0.2378 -0.3823
  888MPD2    H713080   1.498   3.081  15.259  0.3791 -3.7975  0.7268
  889MPD2     C13081   0.689   2.448  13.079 -0.0183  0.6230  0.4719
  889MPD2    C113082   0.787   2.474  13.165 -0.1660 -0.1785 -0.0974
  889MPD2    C213083   0.767   2.596  13.231 -0.1035  0.0917 -0.2609
  889MPD2    C313084   0.699   2.697  13.175  0.5610  1.1899  0.6872
  889MPD2    C413085   0.615   2.673  13.069 -0.1472  0.2471  0.1710
  889MPD2    C513086   0.615   2.548  13.021  0.4966  0.3007 -0.2465
  889MPD2     H13087   0.834   2.610  13.316  0.4313 -0.5565 -0.5775
  889MPD2    H113088   0.554   2.750  13.023 -2.3291 -0.5796  1.6597
  889MPD2    H213089   0.697   2.357  13.020  1.0507  1.3301 -0.4723
  889MPD2    H313090   0.547   2.511  12.945 -0.1736 -1.9086  1.4067
  889MPD2     N13091   0.716   2.824  13.241 -0.6053 -0.0132 -0.6895
  889MPD2    H513092   0.779   2.834  13.321  0.0720  1.6253 -1.4361
  889MPD2    N113093   0.861   2.363  13.223 -0.8463  0.5610 -0.2896
  889MPD2    H713094   0.846   2.271  13.183 -2.5044  0.6953  0.0279
  890MPD2     C13095   0.548   4.549  14.616 -0.3790  0.0220  0.0447
  890MPD2    C113096   0.649   4.630  14.653  0.5259  0.7914 -0.8100
  890MPD2    C213097   0.748   4.577  14.738 -0.1540 -0.6951 -0.8358
  890MPD2    C313098   0.736   4.450  14.797  0.6311 -0.7580 -0.3736
  890MPD2    C413099   0.626   4.375  14.761  0.3005  0.7975  0.3108
  890MPD2    C513100   0.529   4.425  14.671  0.6445 -0.2915 -0.8404
  890MPD2     H13101   0.826   4.638  14.782  0.1729 -1.2307 -0.6819
  890MPD2    H113102   0.619   4.275  14.801 -0.2380  0.5525 -0.3852
  890MPD2    H213103   0.487   4.586  14.535 -0.8539  1.5624  1.1050
  890MPD2    H313104   0.444   4.366  14.638 -0.7642  0.4713  1.4404
  890MPD2     N13105   0.830   4.418  14.901 -0.3239 -0.3492  1.0284
  890MPD2    H513106   0.909   4.478  14.922 -0.6753  0.6074 -0.4120
  890MPD2    N113107   0.657   0.024  14.596  0.9546 -0.6819  0.3821
  890MPD2    H713108   0.585   0.042  14.526  1.3714  1.5737  0.5547
  891MPD2     C13109   3.271   2.737  16.593  0.1661  0.8310 -0.1471
  891MPD2    C113110   3.273   2.781  16.723  0.2582  0.7150  0.0780
  891MPD2    C213111   3.303   2.699  16.832 -0.2093 -0.4965  0.0301
  891MPD2    C313112   3.330   2.561  16.805  0.7358 -0.2328 -0.3186
  891MPD2    C413113   3.341   2.524  16.671 -0.3210  0.5848  0.3812
  891MPD2    C513114   3.301   2.606  16.571 -0.6886  0.4429 -0.2298
  891MPD2     H13115   3.298   2.729  16.937 -2.4753 -1.1792  0.1188
  891MPD2    H113116   3.376   2.429  16.633  0.3317  1.9434 -2.4133
  891MPD2    H213117   3.252   2.802  16.509 -0.3888  1.8592  0.7665
  891MPD2    H313118   3.297   2.570  16.469 -1.9166  1.8308 -0.6893
  891MPD2     N13119   3.355   2.469  16.910 -0.3749  0.4409  0.7186
  891MPD2    H513120   3.347   2.512  17.001  1.8624  0.3590  0.9523
  891MPD2    N113121   3.241   2.913  16.744 -0.4041  0.0445  0.0555
  891MPD2    H713122   3.176   2.957  16.680  0.3765 -0.7445 -1.2542
  892MPD2     C13123   4.636   4.114  14.430  0.3076  0.0318 -0.3826
  892MPD2    C113124   4.535   4.033  14.474 -0.5902 -0.0730  0.1535
  892MPD2    C213125   4.574   3.902  14.498 -0.1260  0.5619  0.0282
  892MPD2    C313126   4.701   3.850  14.476 -0.2258  0.5817 -0.7333
  892MPD2    C413127   0.065   3.940  14.447 -0.3170 -0.5901 -0.0972
  892MPD2    C513128   0.028   4.067  14.415 -0.0286  0.4437 -0.0097
  892MPD2     H13129   4.491   3.837  14.522  1.1305 -1.0908 -0.0927
  892MPD2    H113130   0.170   3.916  14.443 -0.5554 -1.6022 -0.2760
  892MPD2    H213131   4.622   4.221  14.418  1.9974  0.3262  0.2812
  892MPD2    H313132   0.108   4.137  14.396  0.8556 -1.1082 -1.9876
  892MPD2     N13133   4.734   3.717  14.475 -0.0782  0.3184  0.0668
  892MPD2    H513134   0.096   3.694  14.467 -0.1464 -0.8702  2.4878
  892MPD2    N113135   4.398   4.071  14.488 -0.0913 -0.2359 -0.2285
  892MPD2    H713136   4.331   4.013  14.536 -0.4100 -1.4403 -2.1431
  893MPD2     C13137   4.727   2.621   0.952  0.7472  0.3747  0.8634
  893MPD2    C113138   0.048   2.646   1.077 -0.0249  0.2915 -0.6575
  893MPD2    C213139   4.703   2.646   1.192  0.1785  0.0632 -0.0127
  893MPD2    C313140   4.569   2.624   1.177  0.0583  0.1855 -0.1214
  893MPD2    C413141   4.511   2.589   1.059 -0.0668  0.2476 -0.0684
  893MPD2    C513142   4.595   2.594   0.946  0.0686  0.4933  0.3856
  893MPD2     H13143   0.017   2.666   1.285  0.7768  1.0642 -0.5523
  893MPD2    H113144   4.405   2.566   1.058 -0.3793  1.5674  2.3336
  893MPD2    H213145   0.049   2.609   0.862 -0.8899 -0.2376 -0.1202
  893MPD2    H313146   4.542   2.559   0.858 -0.0444 -1.1357  1.1151
  893MPD2     N13147   4.477   2.624   1.284  0.8450 -0.4381 -0.2036
  893MPD2    H513148   4.384   2.591   1.261  1.1234  0.1081 -2.0686
  893MPD2    N113149   0.186   2.660   1.081  0.0696  1.4200  0.2301
  893MPD2    H713150   0.241   2.664   0.996 -1.1705 -2.1409 -0.7559
  894MPD2     C13151   4.099   0.027   1.407 -0.1877  0.3983 -0.2855
  894MPD2    C113152   4.096   0.139   1.320  0.7445  0.4097  0.3428
  894MPD2    C213153   4.174   0.244   1.353  0.5247  0.5964 -0.3449
  894MPD2    C313154   4.257   0.238   1.461  0.6427 -0.7311 -0.3868
  894MPD2    C413155   4.254   0.128   1.545  0.2594 -0.2624  0.0026
  894MPD2    C513156   4.173   0.026   1.514 -0.2899 -0.6708 -0.9771
  894MPD2     H13157   4.156   0.337   1.300  0.2427 -0.0907 -1.4319
  894MPD2    H113158   4.323   0.125   1.628  1.4563 -1.5969 -1.0332
  894MPD2    H213159   4.041   4.673   1.391  1.3948 -0.8249  0.9200
  894MPD2    H313160   4.168   4.678   1.582 -0.1036  0.0058 -0.1238
  894MPD2     N13161   4.337   0.352   1.485  0.0964  0.0095  0.0900
  894MPD2    H513162   4.338   0.430   1.420 -0.9376 -0.3377 -0.3403
  894MPD2    N113163   4.006   0.157   1.211  0.4276  0.0009 -0.4346
  894MPD2    H713164   4.014   0.246   1.164  0.2699  1.0826  1.6210
  895MPD2     C13165   3.684   3.122  13.763  0.1718  0.4256 -0.1600
  895MPD2    C113166   3.611   3.016  13.703  0.2671  0.1999 -0.6247
  895MPD2    C213167   3.661   2.884  13.708  0.0901  0.4433 -0.5020
  895MPD2    C313168   3.777   2.852  13.775 -0.0009  0.2460  0.0076
  895MPD2    C413169   3.838   2.953  13.843  0.0012  0.4062 -0.1739
  895MPD2    C513170   3.802   3.078  13.828 -0.3942 -0.1155 -0.0099
  895MPD2     H13171   3.591   2.809  13.673 -0.2801  0.6676 -0.2546
  895MPD2    H113172   3.935   2.931  13.887 -0.8866 -1.3882  0.8816
  895MPD2    H213173   3.643   3.223  13.762 -2.3267 -0.5827  0.7472
  895MPD2    H313174   3.868   3.154  13.868 -2.1184  2.0205 -1.1959
  895MPD2     N13175   3.804   2.711  13.772 -0.4953  0.0145  0.2573
  895MPD2    H513176   3.732   2.654  13.729 -3.3102  3.2386  0.7204
  895MPD2    N113177   3.487   3.032  13.633  0.0654  0.0785  0.0854
  895MPD2    H713178   3.443   2.947  13.598 -1.4305  0.7491  0.3680
  896MPD2     C13179   0.834   0.957   1.584  0.1827 -0.2438  0.0664
  896MPD2    C113180   0.801   0.916   1.459 -0.2689 -0.1548  0.2343
  896MPD2    C213181   0.661   0.887   1.435  0.0809  0.1233 -0.0688
  896MPD2    C313182   0.570   0.908   1.528 -0.0579 -0.7094  0.5882
  896MPD2    C413183   0.605   0.961   1.651  0.7568 -0.0209 -0.0166
  896MPD2    C513184   0.739   0.979   1.674 -0.5502 -0.2161  0.0860
  896MPD2     H13185   0.623   0.850   1.340 -1.8406  0.7584  0.4461
  896MPD2    H113186   0.547   0.997   1.735 -0.4203 -1.8723 -0.0472
  896MPD2    H213187   0.935   0.994   1.598  0.6190 -0.8445 -1.4673
  896MPD2    H313188   0.769   1.019   1.771  0.6043  2.2170 -1.2821
  896MPD2     N13189   0.439   0.888   1.492  0.7833  0.2802  1.1561
  896MPD2    H513190   0.424   0.849   1.399  1.4838 -0.3594  1.3050
  896MPD2    N113191   0.901   0.897   1.362  0.2378 -0.2305 -0.1020
  896MPD2    H713192   0.995   0.922   1.392  0.0242  3.5935 -2.6555
  897MPD2     C13193   1.954   2.299  10.487 -0.7254  0.1153 -0.1595
  897MPD2    C113194   1.950   2.428  10.542 -0.2869 -0.1711  0.3152
  897MPD2    C213195   1.851   2.460  10.632  0.0402 -0.6729 -0.1483
  897MPD2    C313196   1.747   2.376  10.648  0.1127 -0.2899 -0.4527
  897MPD2    C413197   1.749   2.252  10.586  0.2269 -0.1226  0.1702
  897MPD2    C513198   1.860   2.206  10.516 -0.1268  0.0121 -0.4375
  897MPD2     H13199   1.838   2.563  10.662 -0.4696 -0.2357 -1.9081
  897MPD2    H113200   1.672   2.184  10.619 -0.5544  0.2147 -0.9851
  897MPD2    H213201   2.030   2.276  10.413  0.6323 -2.3537  1.9942
  897MPD2    H313202   1.862   2.107  10.473 -1.6366  0.9057 -2.5862
  897MPD2     N13203   1.650   2.413  10.741 -0.3219  0.1562 -0.2464
  897MPD2    H513204   1.669   2.495  10.797 -3.0070  0.3603  0.3416
  897MPD2    N113205   2.049   2.520  10.504  0.2496  1.1898 -0.1149
  897MPD2    H713206   2.109   2.504  10.424 -0.1919 -1.0099 -0.0011
  898MPD2     C13207   3.721   3.391  17.482  0.5716  0.5596 -0.8796
  898MPD2    C113208   3.860   3.401  17.470 -0.6212  0.3546  0.3366
  898MPD2    C213209   3.904   3.523  17.433  0.7955 -0.2042 -0.3068
  898MPD2    C313210   3.815   3.627  17.419 -0.0403 -1.1606 -0.4305
  898MPD2    C413211   3.681   3.620  17.450  0.1064 -0.5155  0.3482
  898MPD2    C513212   3.637   3.495  17.480  0.3366 -0.3935 -0.5354
  898MPD2     H13213   4.010   3.544  17.433  0.5659  1.0207  2.0882
  898MPD2    H113214   3.611   3.702  17.438  0.3651 -0.3364  0.0625
  898MPD2    H213215   3.673   3.294  17.492 -0.0411  0.6869 -2.4805
  898MPD2    H313216   3.530   3.481  17.490  0.1485  0.5070 -1.2695
  898MPD2     N13217   3.873   3.759  17.388 -0.2194 -0.0453 -0.1734
  898MPD2    H513218   3.971   3.759  17.362 -0.2886  1.9818 -0.4516
  898MPD2    N113219   3.960   3.297  17.478 -0.1349  0.0216  0.0542
  898MPD2    H713220   4.057   3.313  17.453 -0.0377 -1.9709 -0.8451
  899MPD2     C13221   4.432   4.158  17.420 -0.4621 -0.1249  0.8610
  899MPD2    C113222   4.534   4.245  17.463  0.4544  0.8828 -0.4387
  899MPD2    C213223   4.549   4.256  17.599  0.2727 -0.0515 -0.0775
  899MPD2    C313224   4.463   4.190  17.687 -0.9209 -0.3525  0.1100
  899MPD2    C413225   4.371   4.098  17.632  0.2345 -1.0227 -0.5960
  899MPD2    C513226   4.343   4.095  17.499 -0.1980 -0.1251 -0.9656
  899MPD2     H13227   4.621   4.327  17.638 -0.0435 -0.3064  0.9649
  899MPD2    H113228   4.309   4.037  17.698  1.8216 -0.0081  1.8245
  899MPD2    H213229   4.418   4.156  17.312 -1.2382 -2.6382  1.0125
  899MPD2    H313230   4.257   4.042  17.461  0.5654 -2.3094  0.2935
  899MPD2     N13231   4.448   4.229   0.079  0.0919 -0.0498  0.3994
  899MPD2    H513232   4.356   4.200   0.111 -0.1669 -0.1470 -0.4369
  899MPD2    N113233   4.614   4.313  17.365  0.5828  0.2675  0.0433
  899MPD2    H713234   4.595   4.293  17.267  1.1007 -1.8943  0.3814
  900MPD2     C13235   4.668   0.757  12.903 -0.9142  0.0749 -0.5022
  900MPD2    C113236   4.531   0.736  12.938  0.2752  0.7207  0.6695
  900MPD2    C213237   4.431   0.752  12.845 -0.1038  0.4650 -0.1527
  900MPD2    C313238   4.466   0.785  12.715  0.0968 -0.1035 -0.2331
  900MPD2    C413239   4.595   0.805  12.680  0.0076  0.0849 -0.2868
  900MPD2    C513240   4.698   0.796  12.771  0.4612  0.3026  0.1543
  900MPD2     H13241   4.327   0.732  12.870 -0.0106 -1.7306 -1.5340
  900MPD2    H113242   4.631   0.835  12.582  0.7772 -1.2864 -0.4211
  900MPD2    H213243   0.014   0.748  12.974 -1.2021 -3.1145 -0.5903
  900MPD2    H313244   0.064   0.802  12.738 -0.0437 -1.5577 -1.7475
  900MPD2     N13245   4.357   0.781  12.624  0.3602 -0.2720 -0.2940
  900MPD2    H513246   4.268   0.760  12.667  1.5770 -2.3028  1.2223
  900MPD2    N113247   4.506   0.694  13.075 -0.2111 -0.0283  0.3649
  900MPD2    H713248   4.585   0.676  13.137  2.6225  2.1993 -2.5669
  901MPD2     C13249   3.884   4.590  13.285  0.2342  0.2529 -0.1402
  901MPD2    C113250   4.010   4.565  13.334  0.2247  0.2953  0.5558
  901MPD2    C213251   4.107   4.665  13.339  0.0960  0.6492 -0.1113
  901MPD2    C313252   4.075   0.055  13.295  0.5494 -0.3048  0.2922
  901MPD2    C413253   3.948   0.083  13.246  0.0398  0.8512 -0.1163
  901MPD2    C513254   3.861   4.712  13.233  0.0188  0.2017  0.6639
  901MPD2     H13255   4.207   4.648  13.378 -1.2471 -1.3676  2.4190
  901MPD2    H113256   3.914   0.176  13.202 -0.9561 -0.8483 -2.9471
  901MPD2    H213257   3.820   4.504  13.269 -0.6795  0.8390  0.3551
  901MPD2    H313258   3.763   4.721  13.188  0.8258  0.2758 -1.0497
  901MPD2     N13259   4.183   0.152  13.290 -0.2017 -0.7727 -0.5281
  901MPD2    H513260   4.277   0.123  13.313 -0.4238 -1.6974 -0.7834
  901MPD2    N113261   4.047   4.436  13.362  0.1428  0.0838 -0.4480
  901MPD2    H713262   3.992   4.356  13.332  0.2711  0.6635 -2.2232
  902MPD2     C13263   3.406   3.455  12.937 -0.3345 -0.5398  0.1296
  902MPD2    C113264   3.415   3.498  12.803  0.2344 -0.9149  0.4202
  902MPD2    C213265   3.514   3.445  12.721  0.3698  0.1103 -0.1445
  902MPD2    C313266   3.607   3.358  12.770 -0.2637  0.3141 -0.2150
  902MPD2    C413267   3.599   3.319  12.899  0.1045 -0.4775 -0.2682
  902MPD2    C513268   3.500   3.368  12.982  0.5310 -0.2614  0.3569
  902MPD2     H13269   3.532   3.474  12.618 -0.7890 -0.5957 -0.5393
  902MPD2    H113270   3.653   3.235  12.941 -1.5317 -1.3497  0.1024
  902MPD2    H213271   3.338   3.499  13.009  1.7431  1.4263  0.8892
  902MPD2    H313272   3.504   3.329  13.083 -0.6395  1.1998  0.9710
  902MPD2     N13273   3.717   3.322  12.692  0.7230  1.0051 -0.1733
  902MPD2    H513274   3.700   3.350  12.596 -0.1653  1.1156  0.0206
  902MPD2    N113275   3.328   3.604  12.767 -0.3662 -0.9722  0.2489
  902MPD2    H713276   3.275   3.644  12.844  1.8996  2.6023 -0.0158
  903MPD2     C13277   3.897   3.141  11.915  0.4016  0.1341 -0.4887
  903MPD2    C113278   3.833   3.211  12.020 -0.1521  0.3878  0.3797
  903MPD2    C213279   3.695   3.243  12.003  0.8921  0.2853  0.1744
  903MPD2    C313280   3.637   3.248  11.883  0.5479 -0.3101  0.1499
  903MPD2    C413281   3.709   3.186  11.781 -0.1080 -0.1545 -0.1277
  903MPD2    C513282   3.832   3.128  11.797  0.1075 -0.5626  0.1438
  903MPD2     H13283   3.643   3.280  12.091  1.9642 -0.1988  1.0140
  903MPD2    H113284   3.671   3.169  11.680  1.0468 -1.4995 -0.3394
  903MPD2    H213285   3.993   3.092  11.926 -0.5646 -2.0191 -1.7395
  903MPD2    H313286   3.872   3.068  11.716 -2.6651 -3.3142  0.8217
  903MPD2     N13287   3.510   3.299  11.875 -0.1832  0.0111 -0.4740
  903MPD2    H513288   3.478   3.349  11.957 -0.1990 -0.5510 -0.1385
  903MPD2    N113289   3.890   3.216  12.149  0.5295 -0.0620  0.1031
  903MPD2    H713290   3.986   3.183  12.154  0.8971  0.9850  0.0919
  904MPD2     C13291   3.370   2.594  14.032 -0.3235  0.2367 -1.1847
  904MPD2    C113292   3.343   2.599  14.168  0.3131 -0.4884 -0.2391
  904MPD2    C213293   3.449   2.622  14.260 -0.2498  0.8198  0.0538
  904MPD2    C313294   3.575   2.640  14.212 -0.7368  0.0307 -0.3465
  904MPD2    C413295   3.600   2.651  14.073 -0.2486  0.4034  0.0861
  904MPD2    C513296   3.494   2.622  13.986  0.3585  0.2526  0.3879
  904MPD2     H13297   3.409   2.641  14.359  0.6319  1.7075  0.2377
  904MPD2    H113298   3.692   2.679  14.023  0.0874 -2.0814 -0.6668
  904MPD2    H213299   3.296   2.573  13.955 -0.1029  0.9035 -1.5881
  904MPD2    H313300   3.518   2.630  13.881  1.5220 -2.8247  0.4328
  904MPD2     N13301   3.671   2.664  14.314  0.2944 -0.3475  0.3009
  904MPD2    H513302   3.637   2.675  14.409  1.0637 -1.6951  0.7253
  904MPD2    N113303   3.210   2.596  14.215  0.0107 -0.1276 -0.5439
  904MPD2    H713304   3.194   2.545  14.301 -1.9093 -0.9362 -1.3858
  905MPD2     C13305   3.111   2.445  13.589  0.1074  0.6546 -0.1017
  905MPD2    C113306   3.196   2.540  13.631  0.0667  0.3541  0.1638
  905MPD2    C213307   3.335   2.517  13.624  0.9943  0.6639  0.4550
  905MPD2    C313308   3.384   2.404  13.571 -0.0980  0.0293  0.8360
  905MPD2    C413309   3.292   2.314  13.521 -0.3065  0.2330  0.0390
  905MPD2    C513310   3.159   2.331  13.535 -0.4185  0.3082  0.3638
  905MPD2     H13311   3.406   2.591  13.659 -0.7074  1.5887  1.9425
  905MPD2    H113312   3.313   2.217  13.478  0.7046  0.4137  0.1383
  905MPD2    H213313   3.004   2.455  13.604 -0.0039 -0.9703  0.1936
  905MPD2    H313314   3.090   2.255  13.499 -1.8335  1.8782 -0.2700
  905MPD2     N13315   3.519   2.372  13.587  0.2788 -0.0970 -0.0703
  905MPD2    H513316   3.558   2.282  13.563 -2.0446 -1.7387  2.3019
  905MPD2    N113317   3.134   2.650  13.692 -0.1213 -0.0452 -0.2797
  905MPD2    H713318   3.034   2.640  13.707 -0.3115 -0.2571 -1.6590
  906MPD2     C13319   0.485   3.078  11.418 -0.2295 -0.2082  0.8233
  906MPD2    C113320   0.468   2.968  11.332  0.0707  0.1879  0.4471
  906MPD2    C213321   0.445   2.849  11.389  0.4824  0.0856  0.3807
  906MPD2    C313322   0.437   2.827  11.524  0.4325 -0.4471 -0.4640
  906MPD2    C413323   0.459   2.940  11.606 -0.3315  0.3720  0.3323
  906MPD2    C513324   0.490   3.063  11.550 -0.8914  0.2965 -1.1681
  906MPD2     H13325   0.440   2.761  11.326 -3.2015  0.4962  0.1077
  906MPD2    H113326   0.475   2.931  11.713 -1.2407 -2.2944  0.2382
  906MPD2    H213327   0.511   3.177  11.382 -1.3162  0.7582  2.6922
  906MPD2    H313328   0.517   3.149  11.609  0.4964  0.0779 -1.4788
  906MPD2     N13329   0.423   2.701  11.586 -0.1310  0.8271  0.6249
  906MPD2    H513330   0.435   2.705  11.687 -0.0807  2.2266  0.5600
  906MPD2    N113331   0.483   2.963  11.188  0.4069 -0.3997 -0.0114
  906MPD2    H713332   0.486   2.871  11.145 -0.2732 -0.2325 -0.4164
  907MPD2     C13333   4.203   2.321  15.960  0.2128  0.3708  0.2886
  907MPD2    C113334   4.273   2.206  15.930  0.0209 -0.0602 -0.1210
  907MPD2    C213335   4.375   2.166  16.019 -0.0256 -0.1625  0.0491
  907MPD2    C313336   4.410   2.237  16.133  0.2478  0.0002 -0.4673
  907MPD2    C413337   4.332   2.348  16.161  0.0014  0.3104  0.7142
  907MPD2    C513338   4.237   2.389  16.078  0.1578 -1.0520 -0.3635
  907MPD2     H13339   4.429   2.073  16.000 -2.9649 -1.6799 -0.8731
  907MPD2    H113340   4.359   2.403  16.250 -2.7026  0.1239  1.6544
  907MPD2    H213341   4.137   2.366  15.887  1.7926 -0.1714 -1.4741
  907MPD2    H313342   4.172   2.473  16.102  0.3989 -0.5960 -1.2862
  907MPD2     N13343   4.523   2.199  16.211  0.4480  0.1786  0.0016
  907MPD2    H513344   4.574   2.118  16.179  0.7864  0.2382  0.3866
  907MPD2    N113345   4.241   2.140  15.810 -0.1143 -0.4855 -0.1505
  907MPD2    H713346   4.186   2.194  15.743 -0.0872 -0.8094 -0.4347
  908MPD2     C13347   2.434   2.443   9.764  0.9450  0.4203  0.1698
  908MPD2    C113348   2.361   2.368   9.853 -0.9154  1.0965 -0.6435
  908MPD2    C213349   2.318   2.430   9.967  0.1112  0.3349 -0.1806
  908MPD2    C313350   2.330   2.562   9.995  0.1943 -0.0123  0.6761
  908MPD2    C413351   2.406   2.639   9.903  0.2345  0.1091  0.2168
  908MPD2    C513352   2.448   2.581   9.785  0.0431  0.0429  0.1928
  908MPD2     H13353   2.274   2.364  10.041 -0.3147  0.6299 -0.1762
  908MPD2    H113354   2.432   2.744   9.913  1.2012 -0.3459  2.4149
  908MPD2    H213355   2.465   2.399   9.670 -0.0447 -2.1388  1.0301
  908MPD2    H313356   2.490   2.638   9.703  0.8227 -1.7926 -0.7114
  908MPD2     N13357   2.278   2.613  10.117  0.8001 -0.2985  0.6182
  908MPD2    H513358   2.262   2.535  10.179 -1.6443 -1.7075 -1.7668
  908MPD2    N113359   2.352   2.228   9.822  0.4860  0.7208  0.6054
  908MPD2    H713360   2.399   2.199   9.737 -0.2620  0.3460  0.3206
  909MPD2     C13361   2.378   0.347  12.029 -0.7730 -0.8996  0.6094
  909MPD2    C113362   2.360   0.474  11.978 -0.2199  0.2385 -0.1587
  909MPD2    C213363   2.326   0.574  12.074 -0.3662  0.2226 -0.1170
  909MPD2    C313364   2.335   0.546  12.214 -0.2214 -0.1594  0.7644
  909MPD2    C413365   2.370   0.423  12.258  0.6567 -0.0726 -0.3922
  909MPD2    C513366   2.373   0.325  12.165  0.0325  0.0445  0.4146
  909MPD2     H13367   2.310   0.678  12.048  2.7830  0.2612 -1.9655
  909MPD2    H113368   2.381   0.407  12.365  0.8543  1.4126 -0.1988
  909MPD2    H213369   2.407   0.270  11.958  0.8620  0.6420 -0.4012
  909MPD2    H313370   2.393   0.225  12.202  2.1070  0.6866  1.0320
  909MPD2     N13371   2.319   0.657  12.301 -0.7980 -0.1908 -0.3169
  909MPD2    H513372   2.293   0.744  12.256  0.8291  0.7928  0.6500
  909MPD2    N113373   2.372   0.516  11.845  0.1190 -0.1019  0.2815
  909MPD2    H713374   2.352   0.614  11.826 -0.9985  0.1160  2.5559
  910MPD2     C13375   3.141   2.254  16.373 -0.1455 -0.6227  0.8935
  910MPD2    C113376   3.256   2.247  16.296 -0.8514 -0.0584 -0.1364
  910MPD2    C213377   3.280   2.331  16.183 -0.5879 -0.3493  0.4320
  910MPD2    C313378   3.173   2.401  16.141  0.2695  0.0576 -0.0670
  910MPD2    C413379   3.055   2.405  16.208 -0.8330  0.3507 -0.1117
  910MPD2    C513380   3.046   2.337  16.326  0.8391  0.4928 -0.3107
  910MPD2     H13381   3.378   2.325  16.136 -0.1761  1.0196  1.0985
  910MPD2    H113382   2.973   2.468  16.173  0.9228  2.7985  0.2032
  910MPD2    H213383   3.115   2.208  16.467  1.2857 -3.6192 -0.1782
  910MPD2    H313384   2.954   2.343  16.383  1.0784  1.6971 -0.0467
  910MPD2     N13385   3.171   2.480  16.018  0.0723  0.4916  0.2141
  910MPD2    H513386   3.078   2.517  16.002 -0.8162 -0.3960  3.3491
  910MPD2    N113387   3.360   2.161  16.334 -0.3024  0.0494  0.0486
  910MPD2    H713388   3.443   2.159  16.274 -0.1045 -1.1573  0.3556
  911MPD2     C13389   1.814   3.047  16.588 -0.1722  0.1795  0.7981
  911MPD2    C113390   1.883   3.014  16.475 -0.3853 -0.7101  0.7068
  911MPD2    C213391   1.843   3.067  16.352 -0.9474 -0.4637 -0.2339
  911MPD2    C313392   1.747   3.164  16.351  0.0381 -0.3815  0.1616
  911MPD2    C413393   1.678   3.203  16.467  0.4907 -0.4152 -0.3722
  911MPD2    C513394   1.712   3.136  16.582 -0.1087  0.4870 -0.3554
  911MPD2     H13395   1.898   3.044  16.262 -2.9507 -1.5052 -1.1983
  911MPD2    H113396   1.599   3.277  16.462  0.7771 -0.1281 -0.5754
  911MPD2    H213397   1.841   2.990  16.676 -4.8411 -1.8296  0.9404
  911MPD2    H313398   1.674   3.171  16.677  0.1822 -1.3586  0.4365
  911MPD2     N13399   1.717   3.235  16.232  1.1849 -0.2297  0.0669
  911MPD2    H513400   1.647   3.308  16.240  1.1414  0.2147 -4.2189
  911MPD2    N113401   1.992   2.927  16.484 -0.7427 -0.1079  0.4881
  911MPD2    H713402   2.028   2.910  16.578 -3.0715 -2.0296  1.0364
  912MPD2     C13403   0.979   3.258  15.783 -0.3200 -0.0846  0.0428
  912MPD2    C113404   1.072   3.240  15.881 -0.4923  0.5532  0.3687
  912MPD2    C213405   1.037   3.161  15.991 -0.5065 -0.0466 -0.0872
  912MPD2    C313406   0.912   3.099  16.007 -0.4079  0.2768 -0.4083
  912MPD2    C413407   0.822   3.123  15.905 -0.3330  0.0000 -0.3065
  912MPD2    C513408   0.857   3.194  15.790 -0.0974 -0.4699  0.4791
  912MPD2     H13409   1.110   3.149  16.070 -2.1200 -0.5368  1.3315
  912MPD2    H113410   0.732   3.063  15.897 -0.1040 -0.5719  1.3300
  912MPD2    H213411   1.008   3.302  15.688 -2.6860  3.0446  0.7815
  912MPD2    H313412   0.794   3.186  15.702 -1.6157  0.4237  1.4747
  912MPD2     N13413   0.869   3.022  16.113  0.4722  0.2244  0.6499
  912MPD2    H513414   0.774   2.989  16.104  0.3586  0.3770  1.3087
  912MPD2    N113415   1.212   3.271  15.858  0.0643  0.1953  0.6285
  912MPD2    H713416   1.237   3.303  15.765 -0.5223  0.3590  0.5257
  913MPD2     C13417   0.987   4.181  11.127 -0.4157  0.1773  0.3910
  913MPD2    C113418   1.088   4.273  11.131  0.0472  0.0697 -0.5047
  913MPD2    C213419   1.088   4.380  11.048  0.1398  0.5491  0.7321
  913MPD2    C313420   0.985   4.387  10.947  0.1125 -0.7762  0.2050
  913MPD2    C413421   0.894   4.287  10.932 -0.4537  0.0877  0.3026
  913MPD2    C513422   0.897   4.181  11.024 -0.1631  0.0557 -0.3949
  913MPD2     H13423   1.166   4.455  11.051  0.1372  0.5152  1.5346
  913MPD2    H113424   0.827   4.282  10.847 -1.2325  0.2155  0.9200
  913MPD2    H213425   0.980   4.109  11.207 -1.2662  0.2460  0.3799
  913MPD2    H313426   0.831   4.096  11.012  0.7545 -0.8089  0.6236
  913MPD2     N13427   0.976   4.489  10.852  0.0200 -0.4043 -0.2611
  913MPD2    H513428   0.913   4.469  10.775 -1.6053 -0.7691  1.1870
  913MPD2    N113429   1.187   4.242  11.223  0.2172 -0.4599 -0.0485
  913MPD2    H713430   1.174   4.154  11.270 -1.3223  0.2984  0.9417
  914MPD2     C13431   4.490   4.608  12.704  0.3165 -0.1227 -0.0567
  914MPD2    C113432   4.461   4.663  12.825 -0.0735 -0.3204  0.1367
  914MPD2    C213433   4.432   4.581  12.938 -0.0588 -0.5741 -0.4773
  914MPD2    C313434   4.432   4.442  12.927  0.1883  0.0007  0.4262
  914MPD2    C413435   4.457   4.387  12.802  0.1565  0.1098 -0.2126
  914MPD2    C513436   4.486   4.468  12.698 -0.2501 -0.1983  0.9571
  914MPD2     H13437   4.385   4.617  13.029  2.1934 -0.7773  0.7457
  914MPD2    H113438   4.450   4.280  12.782 -1.4791  0.5660 -2.0025
  914MPD2    H213439   4.503   4.665  12.613  1.3959 -0.1601  0.0810
  914MPD2    H313440   4.506   4.429  12.599 -0.0727  3.2904 -0.3822
  914MPD2     N13441   4.390   4.363  13.038  0.0332 -0.2015 -0.5500
  914MPD2    H513442   4.366   4.410  13.125 -0.1509  0.1856 -0.8090
  914MPD2    N113443   4.449   0.066  12.835  0.5051  0.5733  0.1526
  914MPD2    H713444   4.462   0.117  12.748  1.7727  1.5528  0.9402
  915MPD2     C13445   2.944   4.438  16.226 -0.3420  0.2209  1.0683
  915MPD2    C113446   2.897   4.542  16.145 -0.8060 -0.4371  0.5196
  915MPD2    C213447   2.773   4.598  16.168 -0.6603  0.1516  0.1197
  915MPD2    C313448   2.689   4.544  16.266 -0.1394  0.6165 -0.2395
  915MPD2    C413449   2.743   4.437  16.340 -0.3888  0.1026 -0.1917
  915MPD2    C513450   2.868   4.387  16.327 -0.4861 -0.4057  0.2497
  915MPD2     H13451   2.728   4.665  16.095  0.3990  0.5822 -0.1303
  915MPD2    H113452   2.690   4.389  16.421 -1.1371 -1.1514 -1.4298
  915MPD2    H213453   3.036   4.383  16.206 -0.7597 -0.3802  0.8274
  915MPD2    H313454   2.901   4.315  16.401 -1.9627  1.5349  2.7995
  915MPD2     N13455   2.562   4.600  16.296 -0.4546  0.1253 -0.4608
  915MPD2    H513456   2.528   4.680  16.244  0.1061  1.0471  0.6015
  915MPD2    N113457   2.970   4.561  16.021  0.4914 -0.0002 -0.1812
  915MPD2    H713458   3.051   4.502  16.001 -0.3268 -1.2160  0.1157
  916MPD2     C13459   0.355   2.715  16.034 -0.7806  0.5339 -0.1742
  916MPD2    C113460   0.412   2.613  16.106 -0.4288  0.1098 -0.1499
  916MPD2    C213461   0.481   2.506  16.046  0.5946 -0.2848 -0.5458
  916MPD2    C313462   0.495   2.502  15.910 -0.6870  0.4443 -0.0916
  916MPD2    C413463   0.443   2.609  15.835  0.5897 -0.3166 -0.0183
  916MPD2    C513464   0.370   2.709  15.899 -0.3746  0.1641  0.2563
  916MPD2     H13465   0.530   2.432  16.108  1.4441  1.9781  1.4977
  916MPD2    H113466   0.446   2.612  15.726 -1.2648 -1.7401 -0.0969
  916MPD2    H213467   0.305   2.799  16.081 -1.8706 -0.6844  0.8697
  916MPD2    H313468   0.326   2.788  15.839  2.1660  0.2067 -1.5872
  916MPD2     N13469   0.571   2.396  15.846  0.3554 -0.5724 -0.3798
  916MPD2    H513470   0.590   2.313  15.901 -3.4579 -1.4251 -0.3327
  916MPD2    N113471   0.394   2.621  16.239  0.3729  0.2127 -0.5825
  916MPD2    H713472   0.361   2.710  16.277 -0.9395 -1.1278  1.4069
  917MPD2     C13473   1.526   4.707  12.396  0.4583 -0.4828  0.5051
  917MPD2    C113474   1.436   0.076  12.418  0.6876 -0.0831  0.3623
  917MPD2    C213475   1.463   0.202  12.371  0.2040 -1.1035  0.4417
  917MPD2    C313476   1.577   0.238  12.306 -0.3573 -0.0881 -0.0520
  917MPD2    C413477   1.669   0.126  12.298  0.0920  0.0186  0.3999
  917MPD2    C513478   1.639   0.005  12.340  0.0731  0.8626  0.6098
  917MPD2     H13479   1.378   0.269  12.380 -0.2285 -1.5688 -0.1168
  917MPD2    H113480   1.765   0.142  12.250 -0.4725  3.1490  0.3001
  917MPD2    H213481   1.508   4.611  12.444  0.9970 -0.5810  0.5049
  917MPD2    H313482   1.722   4.672  12.328 -0.0029  0.9101 -0.1536
  917MPD2     N13483   1.604   0.365  12.256 -0.0822 -0.4984  0.2176
  917MPD2    H513484   1.695   0.391  12.221 -0.5642  0.6110 -0.2246
  917MPD2    N113485   1.315   0.045  12.487 -0.3943 -0.0869 -0.1036
  917MPD2    H713486   1.299   4.682  12.492  0.1530 -0.2010 -0.5335
  918MPD2     C13487   1.084   0.782  12.747 -0.1439 -1.0100 -0.3345
  918MPD2    C113488   1.190   0.703  12.755 -0.1668 -0.1889 -0.4913
  918MPD2    C213489   1.161   0.567  12.749 -0.2637  0.5729 -0.3921
  918MPD2    C313490   1.035   0.513  12.744 -0.0804  0.0664  1.0142
  918MPD2    C413491   0.933   0.596  12.716  0.5177  0.0596  0.3278
  918MPD2    C513492   0.960   0.729  12.716 -0.1920  0.0496  0.5072
  918MPD2     H13493   1.240   0.493  12.760 -0.9290 -0.1914 -0.7444
  918MPD2    H113494   0.836   0.553  12.692 -0.0983  2.4794 -1.5082
  918MPD2    H213495   1.096   0.890  12.754  2.5923 -1.2979 -0.7447
  918MPD2    H313496   0.877   0.795  12.696  0.4006 -0.3457 -3.2754
  918MPD2     N13497   1.017   0.372  12.748 -0.2029 -0.1561 -0.0294
  918MPD2    H513498   1.096   0.311  12.768  0.7611  1.5118  1.2103
  918MPD2    N113499   1.320   0.745  12.782 -0.3300  0.9501 -0.3835
  918MPD2    H713500   1.391   0.677  12.806 -0.8117  0.7666  0.5098
  919MPD2     C13501   1.368   4.404  11.757  0.2678  0.1039  0.0966
  919MPD2    C113502   1.308   4.275  11.747 -0.2306  0.1263 -0.6771
  919MPD2    C213503   1.204   4.252  11.665  0.7675 -0.1579 -0.3200
  919MPD2    C313504   1.137   4.356  11.612 -0.4057 -0.1578 -0.0106
  919MPD2    C413505   1.196   4.482  11.616  0.5146 -0.2073  0.3767
  919MPD2    C513506   1.315   4.504  11.683 -0.1620 -0.0260  0.1533
  919MPD2     H13507   1.167   4.151  11.657 -1.0755  0.3147  2.2809
  919MPD2    H113508   1.154   4.564  11.559  1.0516 -0.0482  0.2040
  919MPD2    H213509   1.458   4.429  11.811  0.6439  0.3256 -0.6361
  919MPD2    H313510   1.356   4.604  11.690 -1.2308  0.4638 -0.5182
  919MPD2     N13511   1.020   4.344  11.535 -0.1067  0.8473 -0.2661
  919MPD2    H513512   0.992   4.430  11.488 -1.0262  0.5397 -0.2798
  919MPD2    N113513   1.359   4.165  11.817  0.0394 -0.6885 -0.6281
  919MPD2    H713514   1.323   4.073  11.797 -1.0743 -0.3051 -0.3769
  920MPD2     C13515   0.646   0.005  10.755  0.0505 -1.1938 -0.5874
  920MPD2    C113516   0.551   4.646  10.755 -0.7155 -0.2408  0.3437
  920MPD2    C213517   0.550   4.558  10.863 -0.2886  0.1096 -0.2844
  920MPD2    C313518   0.636   4.577  10.975  0.1258  0.0230  0.4327
  920MPD2    C413519   0.732   4.681  10.968 -0.2274  0.5033 -0.1422
  920MPD2    C513520   0.722   0.030  10.861  0.0815  0.2729 -0.1606
  920MPD2     H13521   0.480   4.475  10.872  0.4322 -0.3801  0.8903
  920MPD2    H113522   0.802   4.717  11.042 -0.1460  0.5539 -0.2449
  920MPD2    H213523   0.671   0.076  10.677 -1.8091 -0.6420 -0.6765
  920MPD2    H313524   0.798   0.107  10.852  0.8291 -0.4092  0.2862
  920MPD2     N13525   0.633   4.479  11.075  0.1185 -0.0895  0.4738
  920MPD2    H513526   0.584   4.391  11.066  0.7183 -0.6067  2.1811
  920MPD2    N113527   0.455   4.632  10.653  0.3087 -0.2953  0.0994
  920MPD2    H713528   0.399   4.549  10.669 -0.9699  0.9084  2.0237
  921MPD2     C13529   2.769   2.710  17.041 -0.7877  0.0839 -0.3832
  921MPD2    C113530   2.752   2.821  16.965  0.2330 -0.7337  0.4236
  921MPD2    C213531   2.646   2.806  16.875 -0.0765  0.9527  0.0842
  921MPD2    C313532   2.562   2.695  16.873 -0.4464 -0.2932 -0.0290
  921MPD2    C413533   2.581   2.588  16.957 -0.4823 -0.1587 -0.0164
  921MPD2    C513534   2.689   2.599  17.038 -0.1800 -0.0594  0.0862
  921MPD2     H13535   2.629   2.888  16.807 -2.6954 -0.6989 -1.2511
  921MPD2    H113536   2.508   2.508  16.953 -1.9141  1.1981 -0.6186
  921MPD2    H213537   2.847   2.717  17.116  0.5421 -0.2333 -1.7331
  921MPD2    H313538   2.726   2.520  17.103  3.2880  0.1995 -1.5473
  921MPD2     N13539   2.454   2.684  16.777 -0.6051  0.0134  0.2064
  921MPD2    H513540   2.408   2.595  16.760 -0.7982 -0.2454  2.1333
  921MPD2    N113541   2.848   2.931  16.965  0.0276 -0.4939  0.5614
  921MPD2    H713542   2.924   2.928  17.031 -0.1970 -0.0770  0.8371
  922MPD2     C13543   2.893   1.448   0.004  0.4038 -0.4150  0.2755
  922MPD2    C113544   2.853   1.373   0.107  0.5431 -0.0758  0.4204
  922MPD2    C213545   2.802   1.249   0.085  0.3142 -0.2610  0.2867
  922MPD2    C313546   2.787   1.201  17.704 -0.0751  0.9042 -0.2734
  922MPD2    C413547   2.811   1.277  17.593 -0.3641 -0.6205  0.7933
  922MPD2    C513548   2.875   1.401  17.621 -0.3040  0.1773  0.1226
  922MPD2     H13549   2.779   1.189   0.172  1.3766 -1.5845 -0.3380
  922MPD2    H113550   2.782   1.248  17.493 -1.2326  1.6519  0.3850
  922MPD2    H213551   2.934   1.549   0.005  0.4312 -0.4318  0.6417
  922MPD2    H313552   2.896   1.479  17.548 -2.4021  0.6894  0.0541
  922MPD2     N13553   2.735   1.070  17.691 -0.0245  0.1571 -0.3429
  922MPD2    H513554   2.697   1.032   0.033 -0.4890 -0.8376 -0.9896
  922MPD2    N113555   2.865   1.409   0.242  0.2789 -0.0475 -0.0638
  922MPD2    H713556   2.850   1.335   0.311  0.4291  0.5882  0.6501
  923MPD2     C13557   4.253   2.493   9.244  0.1869  0.2271  0.4851
  923MPD2    C113558   4.317   2.587   9.320 -0.4283 -0.1262 -0.0415
  923MPD2    C213559   4.429   2.544   9.403 -0.2340  0.2726  0.1994
  923MPD2    C313560   4.475   2.409   9.405  0.4051  0.0373  0.4071
  923MPD2    C413561   4.409   2.322   9.325 -0.3532  0.8670  0.2819
  923MPD2    C513562   4.308   2.369   9.235 -0.1278 -0.2373 -0.6450
  923MPD2     H13563   4.462   2.620   9.473  0.2135  0.6201 -0.3936
  923MPD2    H113564   4.438   2.218   9.329 -0.4666  0.7740 -1.3459
  923MPD2    H213565   4.177   2.521   9.172 -0.1197 -2.1400 -0.1233
  923MPD2    H313566   4.257   2.306   9.162  0.4615  0.1366 -1.3835
  923MPD2     N13567   4.585   2.372   9.486 -0.4129 -0.4162  0.0029
  923MPD2    H513568   4.591   2.275   9.514 -1.3737 -0.5474 -0.2272
  923MPD2    N113569   4.280   2.725   9.311 -0.0215  0.0277  0.0238
  923MPD2    H713570   4.202   2.748   9.251  0.0294 -0.4838 -0.2436
  924MPD2     C13571   0.170   1.635  15.864 -0.1198  0.1231  0.2144
  924MPD2    C113572   0.126   1.611  15.992 -0.6395 -0.1096 -0.6463
  924MPD2    C213573   0.138   1.714  16.088 -0.5444  0.2775 -0.2158
  924MPD2    C313574   0.190   1.837  16.047  0.2631  0.0444 -0.9720
  924MPD2    C413575   0.224   1.857  15.914  0.3148 -0.0346  0.6801
  924MPD2    C513576   0.217   1.751  15.826  0.4638  0.1567 -0.6198
  924MPD2     H13577   0.094   1.706  16.187 -2.2318  2.6201 -0.7664
  924MPD2    H113578   0.253   1.958  15.884 -3.2253  1.4220  2.1316
  924MPD2    H213579   0.151   1.554  15.794 -1.2046 -1.6354  2.5186
  924MPD2    H313580   0.240   1.764  15.721  2.2694 -0.7064 -0.3177
  924MPD2     N13581   0.189   1.948  16.137 -0.1488 -0.4471 -0.1186
  924MPD2    H513582   0.187   2.038  16.090 -0.3302 -0.1848  0.3865
  924MPD2    N113583   0.059   1.487  16.011 -0.5812 -0.0705  0.1164
  924MPD2    H713584   0.059   1.419  15.936  0.8771 -2.4137  2.2267
  925MPD2     C13585   3.434   3.903  15.066 -0.7197  0.2713  0.4230
  925MPD2    C113586   3.341   3.819  15.004  0.7257 -0.0800  0.3686
  925MPD2    C213587   3.241   3.768  15.080 -0.2262  0.2236 -0.7806
  925MPD2    C313588   3.243   3.785  15.217 -0.3132  0.1175  0.4738
  925MPD2    C413589   3.338   3.867  15.277 -0.7838 -0.3277 -0.2063
  925MPD2    C513590   3.427   3.929  15.198  0.0186 -0.1992  0.5339
  925MPD2     H13591   3.157   3.718  15.033  0.9070 -1.6359 -0.8232
  925MPD2    H113592   3.328   3.901  15.380 -2.0410  0.1315 -0.4760
  925MPD2    H213593   3.512   3.957  15.014 -1.2385  0.1356 -0.4975
  925MPD2    H313594   3.501   3.998  15.235  0.0828 -1.0109  1.8896
  925MPD2     N13595   3.130   3.738  15.285 -0.7411  0.0630 -0.2551
  925MPD2    H513596   3.061   3.692  15.227 -0.4206  0.4600 -0.9488
  925MPD2    N113597   3.321   3.802  14.866  0.2954  0.3812  0.6591
  925MPD2    H713598   3.253   3.732  14.838 -0.9530  0.8850  2.4321
  926MPD2     C13599   2.341   2.178  13.569 -0.0561 -0.2945 -0.5055
  926MPD2    C113600   2.264   2.273  13.511 -0.5478 -0.1016  0.2280
  926MPD2    C213601   2.323   2.371  13.431 -0.4878 -0.5867  0.3678
  926MPD2    C313602   2.461   2.379  13.432  0.5077  0.2240 -0.2667
  926MPD2    C413603   2.546   2.291  13.507 -0.4410  0.1663 -0.2843
  926MPD2    C513604   2.484   2.182  13.559 -0.1671 -0.1085 -0.1026
  926MPD2     H13605   2.260   2.440  13.377 -0.6838  0.0801  1.4591
  926MPD2    H113606   2.654   2.298  13.507 -0.3924 -0.4833 -1.0705
  926MPD2    H213607   2.301   2.080  13.591  0.1794 -0.0345  1.0815
  926MPD2    H313608   2.538   2.092  13.585  1.7485  0.4911 -2.0324
  926MPD2     N13609   2.523   2.478  13.361  0.0126 -0.4711 -0.7534
  926MPD2    H513610   2.625   2.472  13.359  0.1020  0.7479  0.8391
  926MPD2    N113611   2.124   2.267  13.522 -0.0608  0.4721 -0.1654
  926MPD2    H713612   2.077   2.345  13.477  0.8320  1.2331  0.2391
  927MPD2     C13613   1.723   3.788  17.625 -0.1713  0.5727 -0.6242
  927MPD2    C113614   1.721   3.929  17.642 -0.2235 -0.0227 -0.1425
  927MPD2    C213615   1.832   3.998  17.590 -0.3528 -0.4697  0.0454
  927MPD2    C313616   1.931   3.931  17.519 -0.1028  0.2863 -0.0792
  927MPD2    C413617   1.929   3.793  17.511 -0.2723  0.1026 -0.1673
  927MPD2    C513618   1.825   3.725  17.563  0.1186 -0.1167 -0.6849
  927MPD2     H13619   1.836   4.106  17.597  1.5560 -0.5652  0.3847
  927MPD2    H113620   1.989   3.739  17.439  0.4645 -0.2322  0.6896
  927MPD2    H213621   1.638   3.732  17.663 -0.3752  1.5543  0.3626
  927MPD2    H313622   1.824   3.616  17.557  2.7421 -0.1616 -0.3200
  927MPD2     N13623   2.036   4.007  17.459 -0.4487  0.2473 -0.0530
  927MPD2    H513624   2.032   4.106  17.481 -2.7304 -0.0343  0.7508
  927MPD2    N113625   1.625   3.993  17.715  0.2092  0.2142 -0.7043
  927MPD2    H713626   1.553   3.934   0.011 -0.7944  0.5438 -1.9797
  928MPD2     C13627   3.933   2.462   0.354 -0.3823 -0.8502  0.2985
  928MPD2    C113628   3.935   2.571   0.435  0.5022 -0.0438 -0.3135
  928MPD2    C213629   4.047   2.649   0.444  0.9400 -0.5421 -0.5919
  928MPD2    C313630   4.157   2.616   0.362 -0.9597  0.1939  0.8894
  928MPD2    C413631   4.156   2.504   0.284  0.6024  0.4350  0.5412
  928MPD2    C513632   4.039   2.431   0.280 -0.0467  0.2220 -0.0950
  928MPD2     H13633   4.056   2.744   0.494  0.4831 -1.3268  0.9792
  928MPD2    H113634   4.242   2.476   0.224 -0.3377  0.2927 -0.7464
  928MPD2    H213635   3.850   2.392   0.350  1.0504 -2.4944 -0.4166
  928MPD2    H313636   4.029   2.344   0.216  3.4400  0.3088 -0.7662
  928MPD2     N13637   4.272   2.690   0.358 -0.6168 -0.7310  0.5237
  928MPD2    H513638   4.328   2.668   0.275 -0.4953  1.6908 -0.0458
  928MPD2    N113639   3.813   2.610   0.497  0.0692 -0.3602  0.0343
  928MPD2    H713640   3.726   2.566   0.469  1.1193 -0.3230 -3.3266
  929MPD2     C13641   4.625   2.816  10.330 -0.4854 -0.8137  0.3551
  929MPD2    C113642   4.574   2.714  10.411  0.1167 -0.1964  0.7276
  929MPD2    C213643   4.458   2.655  10.364  0.0797 -0.1788 -0.6415
  929MPD2    C313644   4.392   2.701  10.250 -0.2841 -0.4876  0.4581
  929MPD2    C413645   4.447   2.807  10.178  0.2705 -0.6248 -0.4602
  929MPD2    C513646   4.565   2.856  10.211  0.3121 -0.4036 -0.0758
  929MPD2     H13647   4.409   2.583  10.428  0.0934 -0.2722 -0.7356
  929MPD2    H113648   4.391   2.855  10.098  0.1957  0.4828  0.2622
  929MPD2    H213649   4.723   2.863  10.339  0.7094 -3.6266  1.8336
  929MPD2    H313650   4.618   2.931  10.153  0.3901  1.5075  2.4780
  929MPD2     N13651   4.261   2.656  10.212 -0.0815 -0.3331  0.5686
  929MPD2    H513652   4.218   2.706  10.134 -1.4422 -1.7981  0.3806
  929MPD2    N113653   4.634   2.690  10.533 -0.4551  0.7045 -0.6438
  929MPD2    H713654   4.711   2.751  10.559 -0.4524 -0.8153  2.9280
  930MPD2     C13655   1.859   0.094  14.403 -0.2093  0.0778  0.3428
  930MPD2    C113656   1.836   0.182  14.298 -0.4176  0.3497  0.2457
  930MPD2    C213657   1.749   0.155  14.195 -0.3220  0.8706 -0.1688
  930MPD2    C313658   1.704   0.022  14.192 -0.4095 -0.9613 -0.0837
  930MPD2    C413659   1.738   4.663  14.290  0.1170  0.0001 -0.0842
  930MPD2    C513660   1.808   4.702  14.403 -0.1314 -0.2740  0.5236
  930MPD2     H13661   1.715   0.231  14.125 -0.7909  0.7521 -0.0705
  930MPD2    H113662   1.692   4.565  14.282  0.8965 -0.4283  0.6922
  930MPD2    H213663   1.912   0.130  14.490 -2.3212  3.1118  0.3608
  930MPD2    H313664   1.827   4.637  14.487  0.7172 -2.0411 -1.0393
  930MPD2     N13665   1.619   4.714  14.088 -0.1520  0.1822  0.0604
  930MPD2    H513666   1.608   4.613  14.088 -0.4018  0.2113  0.4959
  930MPD2    N113667   1.906   0.302  14.306 -0.2261  0.3594 -0.5444
  930MPD2    H713668   1.966   0.325  14.384 -0.9048  0.9179 -0.1805
  931MPD2     C13669   1.671   3.785   0.530  0.4449 -0.4393  0.1875
  931MPD2    C113670   1.556   3.859   0.548 -1.0321 -0.2331 -0.5343
  931MPD2    C213671   1.481   3.857   0.669 -0.1256 -0.5088  0.4505
  931MPD2    C313672   1.525   3.775   0.773  0.2943 -0.0310  0.2856
  931MPD2    C413673   1.629   3.687   0.751 -0.5101 -0.8828 -0.1121
  931MPD2    C513674   1.695   3.690   0.629  0.1316  0.1372  0.1625
  931MPD2     H13675   1.411   3.934   0.701 -1.2733 -0.6143 -1.8023
  931MPD2    H113676   1.661   3.607   0.817  1.4475 -0.4721 -0.5803
  931MPD2    H213677   1.730   3.797   0.441  0.6374 -0.4364  0.3152
  931MPD2    H313678   1.775   3.623   0.599  0.7396  1.0612 -0.2704
  931MPD2     N13679   1.483   3.785   0.908  0.3790 -0.6224  0.0756
  931MPD2    H513680   1.551   3.743   0.970  1.1659 -0.5368 -0.7379
  931MPD2    N113681   1.528   3.939   0.433  0.2656 -0.8401 -0.0037
  931MPD2    H713682   1.600   3.956   0.363  1.8299  1.1484  2.0876
  932MPD2     C13683   3.622   2.816  11.172  0.8204  0.7263  0.4708
  932MPD2    C113684   3.659   2.893  11.284 -0.2323  1.0295  0.7810
  932MPD2    C213685   3.738   2.827  11.380  0.6497  0.4577 -0.2811
  932MPD2    C313686   3.777   2.696  11.370  0.0092 -0.3637 -0.1368
  932MPD2    C413687   3.735   2.622  11.263 -0.3004 -0.1895 -0.0448
  932MPD2    C513688   3.664   2.685  11.167  0.0250  0.3158 -0.0584
  932MPD2     H13689   3.767   2.886  11.466 -1.0635 -1.4476  1.6009
  932MPD2    H113690   3.760   2.517  11.253  0.1631 -0.1883  1.0566
  932MPD2    H213691   3.575   2.861  11.084 -0.9889  1.5966  1.8885
  932MPD2    H313692   3.639   2.632  11.076 -0.3646 -1.0136  0.8349
  932MPD2     N13693   3.863   2.640  11.466 -0.1211 -0.1416 -0.6343
  932MPD2    H513694   3.898   2.547  11.445 -1.5579 -0.1366 -3.0495
  932MPD2    N113695   3.625   3.030  11.280 -0.6130 -0.1738 -0.0274
  932MPD2    H713696   3.570   3.055  11.198  1.0037  0.8391 -0.8175
  933MPD2     C13697   3.355   2.799   0.100 -0.1668  0.0079  0.1050
  933MPD2    C113698   3.362   2.880   0.213 -0.0337 -0.6157  0.4183
  933MPD2    C213699   3.332   3.016   0.198  0.3357 -0.5978  0.1978
  933MPD2    C313700   3.312   3.075   0.075  0.6212 -0.2257  0.1732
  933MPD2    C413701   3.288   2.990  17.709 -0.8104  0.1971 -0.9824
  933MPD2    C513702   3.320   2.856  17.726 -0.1575 -0.0031  0.0909
  933MPD2     H13703   3.339   3.083   0.284  2.1273 -0.0106 -0.4118
  933MPD2    H113704   3.264   3.025  17.610  0.1828  0.0750 -1.2627
  933MPD2    H213705   3.379   2.693   0.105  1.4782  0.4163  0.8702
  933MPD2    H313706   3.296   2.789  17.644  0.3681  0.0353 -0.0961
  933MPD2     N13707   3.328   3.214   0.069  0.3458 -0.1736  0.2733
  933MPD2    H513708   3.347   3.262   0.156  0.9552 -2.4564  1.3942
  933MPD2    N113709   3.400   2.819   0.338 -0.7972  0.2723 -0.3945
  933MPD2    H713710   3.436   2.724   0.335 -0.2385  0.4576  0.3903
  934MPD2     C13711   1.279   0.944   1.799 -0.1484  0.0858 -0.0315
  934MPD2    C113712   1.320   0.846   1.704 -0.1607 -0.1566  0.2631
  934MPD2    C213713   1.226   0.759   1.661 -1.1079 -0.0388  0.2549
  934MPD2    C313714   1.098   0.760   1.714 -0.1320 -1.0513  0.0860
  934MPD2    C413715   1.058   0.843   1.816 -0.3154 -0.6884  0.3137
  934MPD2    C513716   1.153   0.935   1.856 -0.5355 -0.2470  0.1649
  934MPD2     H13717   1.253   0.685   1.587  0.7043  2.5847 -1.7054
  934MPD2    H113718   0.954   0.847   1.849 -0.7758 -0.7857 -1.1597
  934MPD2    H213719   1.338   1.025   1.839 -2.3708  0.5839  2.2264
  934MPD2    H313720   1.124   1.013   1.926 -2.1349 -1.2658  0.6585
  934MPD2     N13721   1.001   0.663   1.672 -0.8677 -0.1758 -0.0623
  934MPD2    H513722   0.915   0.682   1.722 -1.2588 -1.0372 -0.4181
  934MPD2    N113723   1.446   0.829   1.655 -0.3702 -0.0116 -0.3527
  934MPD2    H713724   1.451   0.777   1.568 -0.3648 -0.5142 -0.0554
  935MPD2     C13725   1.041   4.516   1.229 -0.3449 -0.1793  0.1928
  935MPD2    C113726   0.918   4.558   1.187  0.3687  0.0187 -0.6503
  935MPD2    C213727   0.878   4.688   1.226 -0.5914 -0.1019  0.6228
  935MPD2    C313728   0.959   0.030   1.309 -0.5509  0.2874  0.4406
  935MPD2    C413729   1.082   4.715   1.349 -0.4518 -0.0949 -0.0787
  935MPD2    C513730   1.119   4.595   1.309 -0.4105 -0.2866  0.0345
  935MPD2     H13731   0.777   4.718   1.200 -1.7711 -2.1639  2.7933
  935MPD2    H113732   1.150   0.032   1.414  0.2338 -1.7766  0.5780
  935MPD2    H213733   1.087   4.421   1.205 -0.6799  0.2237 -1.9900
  935MPD2    H313734   1.211   4.552   1.346  0.3252  0.3977 -0.9998
  935MPD2     N13735   0.915   0.156   1.356  0.0949  0.4441 -0.0592
  935MPD2    H513736   0.976   0.210   1.416  0.6250 -0.6229  0.3749
  935MPD2    N113737   0.833   4.475   1.111  0.3374  0.1584 -0.4314
  935MPD2    H713738   0.736   4.498   1.093  0.2921  1.4103  1.3942
  936MPD2     C13739   3.633   1.288  12.499  0.0014 -0.0011 -0.0264
  936MPD2    C113740   3.696   1.350  12.603 -0.2513  0.3952  0.1760
  936MPD2    C213741   3.820   1.410  12.579  0.1729  0.5657 -0.4674
  936MPD2    C313742   3.862   1.431  12.452 -0.2919  0.4275  0.1914
  936MPD2    C413743   3.785   1.380  12.340 -0.0693 -0.1480  0.4565
  936MPD2    C513744   3.687   1.292  12.372  0.2086 -0.1577 -0.5010
  936MPD2     H13745   3.882   1.435  12.664 -2.4741 -0.3493  1.7210
  936MPD2    H113746   3.821   1.398  12.239 -0.3353  0.8214  0.5369
  936MPD2    H213747   3.545   1.226  12.513 -1.2565  1.7161 -0.3471
  936MPD2    H313748   3.631   1.237  12.297 -0.6858  0.6014 -0.3920
  936MPD2     N13749   3.985   1.496  12.434 -0.3809  0.2021 -0.4205
  936MPD2    H513750   4.034   1.497  12.523 -0.6695  0.9322 -0.2677
  936MPD2    N113751   3.645   1.353  12.734  0.6605  0.5921  0.0441
  936MPD2    H713752   3.704   1.401  12.801  0.6692 -0.8170  1.0448
  937MPD2     C13753   1.595   3.462  11.804  0.1353  0.2590  0.5280
  937MPD2    C113754   1.582   3.592  11.762 -0.0507 -1.1038  0.0543
  937MPD2    C213755   1.676   3.628  11.660 -0.1074  0.3762  0.3399
  937MPD2    C313756   1.740   3.534  11.583 -0.1251 -0.0212  0.3947
  937MPD2    C413757   1.750   3.403  11.621 -0.2084 -0.2218 -0.4371
  937MPD2    C513758   1.665   3.371  11.730 -0.1246  0.1982  0.7632
  937MPD2     H13759   1.675   3.733  11.633  1.4528  0.8006  1.8981
  937MPD2    H113760   1.801   3.328  11.561  1.3311 -0.7099  1.4655
  937MPD2    H213761   1.540   3.423  11.889 -1.7657  0.2702 -0.6878
  937MPD2    H313762   1.665   3.272  11.773 -0.6982  0.3986  1.2135
  937MPD2     N13763   1.791   3.580  11.458  0.0430  0.3254  0.1388
  937MPD2    H513764   1.773   3.676  11.432 -1.5788  0.7960  3.0067
  937MPD2    N113765   1.540   3.702  11.845  0.3624  0.2680  0.0816
  937MPD2    H713766   1.576   3.792  11.814  0.0869 -0.1869 -1.5592
  938MPD2     C13767   4.170   0.168   0.496 -0.0239 -0.0386 -0.0520
  938MPD2    C113768   4.247   0.235   0.588 -0.4258  1.0101 -0.1275
  938MPD2    C213769   4.257   0.172   0.712 -0.6665  0.0503 -0.2069
  938MPD2    C313770   4.181   0.055   0.743  1.0545 -0.0504 -0.4124
  938MPD2    C413771   4.098   4.732   0.649 -0.1484  0.0299  0.3971
  938MPD2    C513772   4.089   0.057   0.530  0.4635  0.3936 -0.2531
  938MPD2     H13773   4.328   0.223   0.777 -1.5737  1.1465 -0.0665
  938MPD2    H113774   4.026   4.655   0.671  1.1662 -1.8487 -1.9437
  938MPD2    H213775   4.146   0.204   0.397 -0.1007 -0.9654 -0.3660
  938MPD2    H313776   4.013   0.040   0.455  1.3909 -0.2043 -1.0546
  938MPD2     N13777   4.180   4.727   0.871  0.3465  0.5612 -0.1417
  938MPD2    H513778   4.138   4.635   0.882 -1.6908  1.5776  0.6050
  938MPD2    N113779   4.324   0.347   0.561  0.0713  0.2967 -0.4713
  938MPD2    H713780   4.379   0.386   0.636  1.6937 -0.5004 -1.2599
  939MPD2     C13781   0.406   1.072   1.135  0.6831 -0.5600 -0.2029
  939MPD2    C113782   0.524   1.143   1.149  0.5335  0.4323  1.2112
  939MPD2    C213783   0.612   1.138   1.043 -0.0157 -0.2368  0.9907
  939MPD2    C313784   0.588   1.059   0.937  0.2722 -0.0234 -0.4690
  939MPD2    C413785   0.471   0.987   0.924 -0.1722 -0.1317 -0.4179
  939MPD2    C513786   0.386   0.993   1.025  0.4067  0.2140 -0.5536
  939MPD2     H13787   0.704   1.194   1.048  0.2001 -0.3863 -1.0838
  939MPD2    H113788   0.454   0.928   0.835 -1.0747  0.4828 -0.6514
  939MPD2    H213789   0.328   1.077   1.210  0.9302  1.3875 -0.0679
  939MPD2    H313790   0.292   0.938   1.024  0.2421  0.4776  0.3526
  939MPD2     N13791   0.684   1.072   0.838  0.4940 -0.4222 -0.0309
  939MPD2    H513792   0.760   1.138   0.842 -0.3995  0.6026  0.1002
  939MPD2    N113793   0.540   1.227   1.265  0.2551 -0.0225  0.3004
  939MPD2    H713794   0.466   1.226   1.334 -1.2478  1.4516 -1.2634
  940MPD2     C13795   4.501   2.161  12.901 -0.2867  0.7468 -0.7941
  940MPD2    C113796   4.493   2.045  12.980  0.2545 -0.4452 -0.2252
  940MPD2    C213797   4.503   1.923  12.906  0.2364 -0.1782 -0.4085
  940MPD2    C313798   4.527   1.916  12.773  0.7678 -0.9636 -0.4378
  940MPD2    C413799   4.541   2.031  12.705 -0.4048  0.0753 -0.3272
  940MPD2    C513800   4.530   2.157  12.769  0.1530  0.2871  0.2975
  940MPD2     H13801   4.488   1.834  12.967  2.8552  0.4788  1.1577
  940MPD2    H113802   4.567   2.037  12.599  1.9847  0.6321  0.2921
  940MPD2    H213803   4.503   2.259  12.948  0.4928  0.7385 -0.8094
  940MPD2    H313804   4.541   2.251  12.715  1.1980  0.2094  0.3687
  940MPD2     N13805   4.569   1.808  12.697 -0.4719 -0.4030 -0.6923
  940MPD2    H513806   4.592   1.838  12.603  4.3289 -0.5379  0.4646
  940MPD2    N113807   4.493   2.037  13.122 -0.0070  0.7790 -0.2468
  940MPD2    H713808   4.509   1.948  13.167  3.1192  1.1322 -0.6326
  941MPD2     C13809   4.110   0.621  10.307 -0.2803  0.3470 -0.5105
  941MPD2    C113810   4.127   0.761  10.274  0.4723 -0.1413 -0.5225
  941MPD2    C213811   4.012   0.824  10.228  0.0728  0.3371  0.3326
  941MPD2    C313812   3.891   0.763  10.223  0.8252 -0.5537  0.2637
  941MPD2    C413813   3.884   0.631  10.251 -0.0256 -0.4123 -0.3853
  941MPD2    C513814   3.991   0.561  10.300  0.7906  0.0523  0.1750
  941MPD2     H13815   4.024   0.930  10.210 -0.0779  0.2704 -0.1664
  941MPD2    H113816   3.792   0.580  10.228 -1.0404  1.0716  0.3591
  941MPD2    H213817   4.191   0.560  10.343 -0.9789 -0.7816 -0.8406
  941MPD2    H313818   3.980   0.457  10.331 -0.1484 -0.5787 -2.2828
  941MPD2     N13819   3.774   0.828  10.182 -0.4421 -0.2317 -0.1595
  941MPD2    H513820   3.689   0.774  10.198 -1.3843  1.2369 -0.1908
  941MPD2    N113821   4.245   0.834  10.297  0.2219  0.2670 -0.0052
  941MPD2    H713822   4.244   0.935  10.291 -1.6122  0.1544 -1.5695
  942MPD2     C13823   3.288   2.886   9.528  0.8954  0.9990 -0.4946
  942MPD2    C113824   3.279   2.761   9.577 -0.3497 -0.8043 -0.0548
  942MPD2    C213825   3.391   2.681   9.548 -0.1085  0.4096 -0.5189
  942MPD2    C313826   3.501   2.731   9.472 -0.3344 -0.1811 -0.0099
  942MPD2    C413827   3.502   2.864   9.434  0.4460 -0.0272 -0.7889
  942MPD2    C513828   3.394   2.938   9.463  0.8522 -0.3208  0.5648
  942MPD2     H13829   3.392   2.580   9.589  1.7211  0.9984  0.8599
  942MPD2    H113830   3.589   2.908   9.387  1.9373 -0.4471  1.6139
  942MPD2    H213831   3.198   2.945   9.541 -0.2812 -1.1533  1.2503
  942MPD2    H313832   3.385   3.043   9.439  0.6482 -0.5471 -0.3526
  942MPD2     N13833   3.619   2.661   9.444  0.5559  0.4646 -0.1063
  942MPD2    H513834   3.699   2.706   9.401  2.3737 -0.7797  1.9813
  942MPD2    N113835   3.176   2.699   9.655 -0.5598  0.1420 -0.0475
  942MPD2    H713836   3.181   2.599   9.672  1.7338  0.0115 -1.4321
  943MPD2     C13837   1.800   1.061   9.721 -0.3324 -0.2103  0.1283
  943MPD2    C113838   1.842   0.941   9.780 -0.9024  0.9478  0.3644
  943MPD2    C213839   1.972   0.920   9.806 -0.4711 -0.8364 -0.1071
  943MPD2    C313840   2.064   1.019   9.777  0.0125  0.4081 -0.1203
  943MPD2    C413841   2.021   1.134   9.723  0.6466 -0.1166  0.2487
  943MPD2    C513842   1.888   1.160   9.707  0.2725  0.0365 -0.2892
  943MPD2     H13843   2.012   0.828   9.847 -0.0698 -0.2841  0.7491
  943MPD2    H113844   2.098   1.206   9.698 -0.7711  1.1024 -0.6317
  943MPD2    H213845   1.696   1.090   9.710 -0.5431  0.0327  2.8269
  943MPD2    H313846   1.852   1.251   9.661 -0.2122 -0.4651 -0.9042
  943MPD2     N13847   2.201   0.999   9.806  0.6976 -0.6012 -0.1909
  943MPD2    H513848   2.247   1.089   9.802  1.3899 -0.9098  0.5442
  943MPD2    N113849   1.737   0.855   9.808 -0.4051 -0.5452  0.8741
  943MPD2    H713850   1.644   0.882   9.778 -0.9936  0.8986  3.9910
  944MPD2     C13851   2.049   0.626  11.371  0.0573  0.2745  0.5078
  944MPD2    C113852   2.072   0.602  11.504 -0.6702 -0.5216  0.5446
  944MPD2    C213853   2.093   0.713  11.591  0.2509 -0.1743  0.3250
  944MPD2    C313854   2.105   0.838  11.540 -0.1167 -0.1382  0.0799
  944MPD2    C413855   2.093   0.862  11.408 -0.4860  0.1120 -0.6191
  944MPD2    C513856   2.065   0.759  11.327 -1.1067 -0.4039 -0.1742
  944MPD2     H13857   2.104   0.707  11.698  0.4107  0.4816  0.3487
  944MPD2    H113858   2.108   0.960  11.364 -1.8651  1.4989  2.0007
  944MPD2    H213859   2.026   0.543  11.306  4.1909 -1.1256  0.8185
  944MPD2    H313860   2.063   0.788  11.222 -1.9898 -0.2526 -0.1089
  944MPD2     N13861   2.143   0.941  11.635 -0.0969  0.4815  0.1255
  944MPD2    H513862   2.170   0.913  11.728 -2.7661 -0.8356  0.5188
  944MPD2    N113863   2.052   0.470  11.554 -0.5250  0.0513  0.8249
  944MPD2    H713864   2.039   0.391  11.492 -0.4292  1.3730 -0.8474
    1TMC1    C113865   0.545   1.485  15.017  0.8656  0.0684 -0.7474
    1TMC1    C213866   0.527   1.417  14.896 -0.2481  0.6120 -0.7226
    1TMC1    C313867   0.468   1.296  14.907 -1.2432  0.8522 -0.0823
    1TMC1    C413868   0.505   1.437  15.136  0.1136  0.4268 -0.3432
    1TMC1    C513869   0.451   1.308  15.139  0.0809 -0.6012 -0.1523
    1TMC1    C613870   0.436   1.236  15.025 -0.2884 -0.4806 -0.1809
    1TMC1     C13871   0.637   1.595  15.015  0.0206 -0.0460 -0.3052
    1TMC1     O13872   0.701   1.623  15.116 -0.7317  0.2027  0.0832
    1TMC1     H13873   0.581   1.450  14.808  0.5606 -0.8539 -0.7796
    1TMC1    H113874   0.543   1.500  15.215  0.2764  1.7593 -1.4692
    1TMC1    H213875   0.391   1.138  15.035 -0.3288 -0.3013  1.2829
    1TMC1    C713876   0.444   1.236  15.265  0.1465  0.4466  0.2895
    1TMC1    C813877   0.425   1.232  14.790 -0.7058  0.1423 -0.0734
    1TMC1    O113878   0.453   1.113  15.280 -0.2641 -0.0621  0.2636
    1TMC1    O213879   0.394   1.112  14.779  0.4844  0.5721  0.0934
    1TMC1    O313880   0.421   1.324  15.365 -0.1167  0.2863  0.0342
    1TMC1    H313881   0.407   1.414  15.329 -0.9077 -0.4281 -1.4626
    1TMC1    O513882   0.421   1.326  14.685  0.1143 -0.6976 -0.4645
    1TMC1    H513883   0.435   1.421  14.701  0.2113 -0.9921  1.2155
    2MPD2     C13884   0.927   1.940  14.758 -0.2332 -0.2633 -0.2724
    2MPD2    C113885   0.832   1.888  14.674  0.1581  0.2839 -0.2854
    2MPD2    C213886   0.740   1.798  14.726 -0.1210 -1.1612  0.1634
    2MPD2    C313887   0.740   1.752  14.853 -0.0925  0.2587  0.0776
    2MPD2    C413888   0.832   1.809  14.936  0.0636 -0.4034 -0.6687
    2MPD2    C513889   0.929   1.900  14.890 -0.5338  0.2851 -0.7343
    2MPD2     H13890   0.669   1.750  14.660  0.4118 -0.6308 -0.7880
    2MPD2    H113891   0.831   1.780  15.040 -1.9072  0.4811 -0.4345
    2MPD2    H213892   1.004   2.009  14.727 -0.4667  0.1901  0.1669
    2MPD2    H313893   1.000   1.932  14.965 -2.1027  0.0944  0.8531
    2MPD2     N13894   0.639   1.663  14.899  0.0711  1.2924  0.2145
    2MPD2    H513895   0.578   1.637  14.822  0.6836  3.6630 -1.0748
    2MPD2    N113896   0.848   1.924  14.535 -0.2907 -0.6021 -0.3673
    2MPD2    H713897   0.935   1.974  14.521 -0.5088 -0.3156 -0.6852
    3TMC2    C113898   0.840   1.895  14.304 -0.2776  0.7736 -0.4207
    3TMC2    C213899   0.875   1.789  14.226  0.1840  0.0436  0.2170
    3TMC2    C313900   0.959   1.813  14.123 -0.0976 -0.0048 -0.0213
    3TMC2    C413901   0.883   2.017  14.282  0.2580 -0.1544 -0.1519
    3TMC2    C513902   0.954   2.044  14.162  0.1002 -0.5597  0.1849
    3TMC2    C613903   0.994   1.938  14.084  0.6191  0.1589 -0.2687
    3TMC2     C13904   0.780   1.860  14.432 -0.1104 -0.3479  0.2732
    3TMC2     O13905   0.687   1.780  14.431  0.0072  0.3157 -0.2886
    3TMC2     H13906   0.835   1.692  14.253  0.3405 -0.0256  0.2049
    3TMC2    H113907   0.850   2.100  14.344  2.5426  0.6800 -0.0290
    3TMC2    H213908   1.061   1.962  14.001 -0.3633  1.5222 -0.6631
    3TMC2    C713909   0.980   2.178  14.111  0.1086 -0.0847  0.4974
    3TMC2    C813910   1.010   1.697  14.058  0.4064  0.3055  0.0853
    3TMC2    O113911   1.082   2.198  14.046 -0.0315 -0.4265  0.3423
    3TMC2    O213912   0.988   1.577  14.079 -0.0930 -0.3755  0.3473
    3TMC2    O513913   1.029   1.747  13.932  0.5308 -0.6426  0.4944
    3TMC2    H513914   1.039   1.840  13.904  0.0894 -0.6718  0.2294
    4TMC2    C113915   0.226   2.582  13.693 -0.4063 -0.0893  0.7122
    4TMC2    C213916   0.259   2.694  13.616  0.0835 -0.0227 -0.1472
    4TMC2    C313917   0.384   2.731  13.627 -0.1452 -0.1317 -0.8860
    4TMC2    C413918   0.310   2.533  13.783  0.6195 -0.2265  0.6786
    4TMC2    C513919   0.423   2.603  13.810  1.0602  0.4693  0.3729
    4TMC2    C613920   0.467   2.707  13.730  0.2783 -0.0883 -0.6753
    4TMC2     C13921   0.089   2.551  13.718  0.0469  0.7728 -0.1984
    4TMC2     O13922   0.064   2.550  13.836  0.1619  0.1930 -0.3138
    4TMC2     H13923   0.195   2.747  13.546  0.8873 -1.6730 -2.1202
    4TMC2    H113924   0.275   2.452  13.847 -0.8475 -0.2388 -0.1229
    4TMC2    H213925   0.558   2.764  13.739 -0.4434  1.1328 -1.1131
    4TMC2    C713926   0.516   2.540  13.900  0.2985 -0.2770 -0.3325
    4TMC2    C813927   0.424   2.851  13.548  0.1625  0.5059  0.2348
    4TMC2    O113928   0.489   2.440  13.963 -0.0117  0.4421 -0.3237
    4TMC2    O213929   0.490   2.935  13.601 -0.0118 -0.1818 -0.1580
    4TMC2    O513930   0.434   2.817  13.415 -0.4096  0.1347  0.6485
    4TMC2    H513931   0.398   2.727  13.397  0.9134 -0.0210 -1.2642
    5MPD2     C13932   4.335   2.558  13.576 -0.2816  1.0748 -0.3446
    5MPD2    C113933   4.417   2.572  13.467  0.0874 -0.2514  0.7728
    5MPD2    C213934   4.556   2.568  13.477  0.2616 -0.0978  0.4264
    5MPD2    C313935   4.607   2.558  13.608 -0.0306 -0.3808 -0.2257
    5MPD2    C413936   4.523   2.534  13.719 -0.2088 -0.4391  0.2701
    5MPD2    C513937   4.392   2.541  13.704  0.3395  0.3388 -0.0912
    5MPD2     H13938   4.625   2.575  13.394 -0.8941  1.8296 -0.3741
    5MPD2    H113939   4.558   2.530  13.821 -0.3709  1.0258  0.3838
    5MPD2    H213940   4.227   2.556  13.564 -0.3721  1.4717  0.3977
    5MPD2    H313941   4.329   2.523  13.791 -0.5168 -1.5652 -1.1113
    5MPD2     N13942   0.012   2.563  13.610  0.2965  0.0638 -0.6298
    5MPD2    H513943   0.067   2.585  13.527 -0.2577  0.2156 -0.9556
    5MPD2    N113944   4.358   2.603  13.344  0.1784  0.0767 -0.3792
    5MPD2    H713945   4.259   2.622  13.356 -0.2006 -1.7446 -0.7521
    6MPD1     C13946   3.790   4.217  12.525 -0.5039  1.0437  0.5192
    6MPD1    C113947   3.836   4.105  12.452 -0.0562  0.0685  0.0235
    6MPD1    C213948   3.852   3.982  12.521  0.2924  0.0495 -0.0868
    6MPD1    C313949   3.814   3.969  12.648 -0.0779  0.1919 -0.0423
    6MPD1    C413950   3.785   4.078  12.717  0.7111 -0.3172  0.5830
    6MPD1    C513951   3.772   4.198  12.657 -0.4691 -0.6469 -1.0717
    6MPD1     H13952   3.882   3.893  12.467  0.5434  0.5178 -0.7256
    6MPD1    H113953   3.761   4.076  12.823  3.3472 -0.6535  1.1921
    6MPD1    H213954   3.786   4.322  12.498  0.0576  1.4709  2.0973
    6MPD1    H313955   3.754   4.285  12.719  0.0499 -2.3148  1.4339
    6MPD1     N13956   3.839   3.843  12.700 -0.5152 -0.0466 -0.7243
    6MPD1    H513957   3.870   3.772  12.635 -0.5136 -2.5343  1.9996
    6MPD1    N113958   3.868   4.124  12.317  0.0945  0.0837 -0.0798
    6MPD1    H613959   3.851   4.044  12.256 -0.4807 -0.0926  0.3149
    6MPD1    H713960   3.815   4.203  12.280 -0.7225  0.2051  1.3390
    7MPD2     C13961   3.783   3.190  13.320  0.2492 -0.7094  0.1350
    7MPD2    C113962   3.842   3.194  13.201  0.0658 -0.7366  0.3002
    7MPD2    C213963   3.909   3.078  13.158  0.6005 -0.1463  0.7206
    7MPD2    C313964   3.922   2.967  13.231 -0.2237 -0.0862 -0.6551
    7MPD2    C413965   3.867   2.967  13.360 -0.4532  0.0391  0.0392
    7MPD2    C513966   3.792   3.074  13.397  0.3883  0.3359  0.0455
    7MPD2     H13967   3.950   3.087  13.057  2.0026  0.7017  1.3588
    7MPD2    H113968   3.867   2.884  13.429  1.9644 -2.0295 -2.4635
    7MPD2    H213969   3.716   3.265  13.361  3.5371  2.0970  0.3489
    7MPD2    H313970   3.739   3.077  13.492  1.4453 -2.4380  0.7033
    7MPD2     N13971   3.975   2.848  13.184 -0.8435  0.0776  0.5498
    7MPD2    H513972   3.968   2.769  13.247  2.3263 -0.3863  0.3214
    7MPD2    N113973   3.857   3.309  13.118 -0.1543  0.3642 -0.4086
    7MPD2    H713974   3.907   3.300  13.030 -2.9266  0.0513 -1.9621
    8TMC3    C113975   4.113   2.713  13.042 -0.4174  0.5992 -0.1625
    8TMC3    C213976   4.196   2.694  13.143 -0.4474  0.3253 -0.4082
    8TMC3    C313977   4.326   2.651  13.114 -0.3727 -0.5543  0.0935
    8TMC3    C413978   4.158   2.695  12.906  0.0774  0.3397 -0.3324
    8TMC3    C513979   4.289   2.673  12.886 -0.1232  0.1602 -0.4815
    8TMC3    C613980   4.371   2.639  12.989 -0.0528  0.4759 -0.1356
    8TMC3     C13981   4.027   2.830  13.051  0.0424 -0.0175  1.2064
    8TMC3     O13982   4.020   2.913  12.960  0.4573  0.2333  0.2152
    8TMC3     H13983   4.161   2.694  13.246  0.5368 -1.3649 -0.0744
    8TMC3    H113984   4.088   2.730  12.832 -1.1374  1.9513  1.5699
    8TMC3    H213985   4.477   2.627  12.970 -0.0583 -1.1500  0.8314
    8TMC3    C713986   4.351   2.776  12.809 -1.0322  0.3491 -0.5815
    8TMC3    C813987   4.423   2.633  13.222  0.1828 -0.5341  0.3775
    8TMC3    O113988   4.450   2.743  12.746 -0.4068 -0.1946 -0.4921
    8TMC3    O213989   4.541   2.644  13.192  0.3314  0.6985  0.1816
    9TMC3    C113990   3.839   3.670  12.855  0.4696  0.0865  0.4915
    9TMC3    C213991   3.960   3.631  12.807  0.4460  0.7427 -0.4963
    9TMC3    C313992   4.033   3.531  12.870  0.5595  0.2979 -0.3251
    9TMC3    C413993   3.794   3.618  12.974  0.3530 -0.8819  0.3666
    9TMC3    C513994   3.868   3.520  13.031 -0.1914  0.0216  0.1797
    9TMC3    C613995   3.985   3.467  12.983  0.2659 -0.1368 -0.2757
    9TMC3     C13996   3.799   3.802  12.825  0.5849 -0.3143  0.4062
    9TMC3     O13997   3.721   3.857  12.907 -0.1009  0.0703  0.0025
    9TMC3     H13998   3.988   3.664  12.707  2.2569  0.6942 -0.0038
    9TMC3    H113999   3.701   3.654  13.016  1.0271  0.6096  0.6016
    9TMC3    H214000   4.051   3.402  13.040  0.7069  0.1856 -0.4118
    9TMC3    C714001   3.813   3.435  13.140 -0.8446 -0.7816  0.1574
    9TMC3    C814002   4.142   3.473  12.790 -0.5694  0.6481 -0.2096
    9TMC3    O114003   3.724   3.474  13.216 -0.2117 -1.0115 -0.5397
    9TMC3    O214004   4.198   3.557  12.715 -0.0257 -0.3290  0.2612
   10MPD2     C14005   4.424   3.044  12.679 -0.9103 -0.6535 -0.1694
   10MPD2    C114006   4.318   3.015  12.766  0.4061 -0.4908  0.1884
   10MPD2    C214007   4.230   3.113  12.803  0.5020 -0.9360 -0.1503
   10MPD2    C314008   4.250   3.247  12.763 -0.2901 -0.4540  0.0586
   10MPD2    C414009   4.359   3.273  12.683  0.3191  0.5509 -0.0786
   10MPD2    C514010   4.444   3.168  12.643 -0.2767  0.0338 -0.9254
   10MPD2     H14011   4.154   3.096  12.878 -1.2137  2.8062 -1.0276
   10MPD2    H114012   4.391   3.373  12.654  1.9988  0.7737  2.4947
   10MPD2    H214013   4.479   2.958  12.643 -0.0810 -0.2409  0.1185
   10MPD2    H314014   4.531   3.194  12.583  0.8531 -0.0549  0.6759
   10MPD2     N14015   4.160   3.340  12.815 -0.2106 -0.8017  1.2484
   10MPD2    H514016   4.093   3.293  12.874 -1.7046  0.5797  0.6465
   10MPD2    N114017   4.279   2.885  12.820  0.7813  0.0910  0.3302
   10MPD2    H714018   4.201   2.882  12.884  0.7820  0.5236  0.3511
   11MPD2     C14019   0.989   2.483  14.085  0.1749  0.1072  0.5321
   11MPD2    C114020   0.879   2.396  14.078  0.1413  0.0326  0.4054
   11MPD2    C214021   0.764   2.441  14.027  0.1312 -0.0181  0.2029
   11MPD2    C314022   0.748   2.570  13.977 -0.9789  0.2042  0.0378
   11MPD2    C414023   0.859   2.657  13.989  0.6816  0.1707 -0.2427
   11MPD2    C514024   0.982   2.607  14.036  0.0637 -0.0785 -0.5755
   11MPD2     H14025   0.698   2.357  14.012 -1.8518  1.3891  0.9249
   11MPD2    H114026   0.862   2.763  13.968 -0.2694 -0.1540 -2.0084
   11MPD2    H214027   1.087   2.446  14.115  0.2507 -2.0972 -2.3668
   11MPD2    H314028   1.064   2.677  14.044 -0.7512  0.6863  0.9870
   11MPD2     N14029   0.627   2.618  13.919  0.5287  0.3418  0.5302
   11MPD2    H514030   0.623   2.705  13.866  0.1131  0.0372  0.0620
   11MPD2    N114031   0.868   2.257  14.119  0.6644 -0.1513 -0.2512
   11MPD2    H714032   0.782   2.207  14.140  0.8955  0.0118  1.1257
    1MPD1     C14033   4.339   2.365  17.137 -0.6525 -0.6709  0.0096
    1MPD1    C114034   4.225   2.289  17.141  0.5177 -0.1616 -0.4430
    1MPD1    C214035   4.106   2.360  17.116 -0.7368 -0.2947  0.2885
    1MPD1    C314036   4.099   2.485  17.068 -0.3266 -0.4450 -0.3571
    1MPD1    C414037   4.221   2.553  17.044 -0.0975  0.4753  0.6697
    1MPD1    C514038   4.337   2.490  17.073  0.8396 -0.0687  0.2713
    1MPD1     H14039   4.012   2.309  17.127 -0.9233  0.1631  0.8411
    1MPD1    H114040   4.220   2.648  16.991  0.2176  0.2848  0.3242
    1MPD1    H214041   4.435   2.319  17.158  0.1118 -0.3463 -2.7670
    1MPD1    H314042   4.433   2.534  17.049  1.4109 -0.7510  1.2903
    1MPD1     N14043   3.981   2.557  17.036  0.0521  0.0103  0.2830
    1MPD1    H514044   3.997   2.653  17.007  0.5681 -0.0366  0.4006
    1MPD1    N114045   4.231   2.170  17.219 -0.4036  0.6008 -0.0833
    1MPD1    H614046   4.294   2.099  17.181  2.5583  2.8557  0.6238
    1MPD1    H714047   4.147   2.113  17.225  0.8631 -1.2422  0.0669
    2MPD1     C14048   3.663   3.441  16.761  0.1454 -0.5324  0.2201
    2MPD1    C114049   3.543   3.379  16.777 -0.4616  0.0259  0.6324
    2MPD1    C214050   3.554   3.251  16.828 -0.3210  0.9350  0.2360
    2MPD1    C314051   3.674   3.184  16.842  0.4493 -0.4423 -1.1555
    2MPD1    C414052   3.792   3.244  16.807  0.1775 -0.1128  0.3337
    2MPD1    C514053   3.783   3.374  16.769 -0.8118 -0.6888  0.1631
    2MPD1     H14054   3.457   3.210  16.854  0.1562 -0.3055  0.0442
    2MPD1    H114055   3.889   3.196  16.817  0.2367 -0.2942 -1.0066
    2MPD1    H214056   3.665   3.547  16.737 -1.6947 -0.6797 -0.5464
    2MPD1    H314057   3.872   3.433  16.753 -0.3413 -1.4574 -0.0468
    2MPD1     N14058   3.662   3.059  16.907  0.1543  0.5156 -0.1791
    2MPD1    H514059   3.566   3.028  16.920 -0.4970  2.4618 -0.3033
    2MPD1    N114060   3.427   3.459  16.780  0.2600  0.0886  0.3127
    2MPD1    H614061   3.442   3.549  16.735 -1.3544  0.7279  1.0399
    2MPD1    H714062   3.337   3.423  16.746  0.4271  0.3692 -0.4152
    3TMC3    C114063   3.710   2.841  16.983 -0.5752 -0.8541 -0.1585
    3TMC3    C214064   3.599   2.838  17.063 -0.6698 -0.2843 -0.6455
    3TMC3    C314065   3.568   2.725  17.132 -0.0079 -0.1481  1.0718
    3TMC3    C414066   3.798   2.735  16.983  0.0508  0.4132 -0.1211
    3TMC3    C514067   3.754   2.618  17.042 -0.2386 -0.1491 -0.0010
    3TMC3    C614068   3.640   2.609  17.114 -0.3343  0.6480  0.0818
    3TMC3     C14069   3.763   2.971  16.932  0.0284  0.6848 -0.1671
    3TMC3     O14070   3.879   2.973  16.894 -0.4213  0.9441 -0.4259
    3TMC3     H14071   3.535   2.925  17.078 -0.6127 -0.4372  0.4987
    3TMC3    H114072   3.885   2.744  16.918 -1.7748  2.3542 -2.2963
    3TMC3    H214073   3.612   2.516  17.161  0.8178  0.4302  0.3362
    3TMC3    C714074   3.855   2.519  17.069 -0.2581  0.1744 -1.0663
    3TMC3    C814075   3.431   2.716  17.177 -0.4176  0.6187  0.8235
    3TMC3    O114076   3.815   2.421  17.129 -0.1348 -0.0784 -0.1894
    3TMC3    O214077   3.383   2.608  17.143  0.1672  0.0591 -0.2188
    4MPD1     C14078   2.999   2.906  17.388  0.2799 -0.1530 -0.1942
    4MPD1    C114079   3.095   3.002  17.387  0.0519 -0.2527  0.6570
    4MPD1    C214080   3.215   2.981  17.320 -0.5476  0.0337 -0.5129
    4MPD1    C314081   3.243   2.849  17.280 -0.1653 -0.4645  0.5647
    4MPD1    C414082   3.157   2.749  17.285 -0.1868  0.2237 -0.9638
    4MPD1    C514083   3.031   2.778  17.344  0.5609  1.1685  0.0713
    4MPD1     H14084   3.282   3.064  17.302 -0.0254 -0.3054 -0.1472
    4MPD1    H114085   3.179   2.649  17.249  1.8289  0.5775 -0.7016
    4MPD1    H214086   2.899   2.928  17.423  0.3262 -1.3721  0.7153
    4MPD1    H314087   2.950   2.706  17.339  0.7256  0.9953 -0.1486
    4MPD1     N14088   3.374   2.835  17.225  0.4698 -0.3633 -0.0025
    4MPD1    H514089   3.434   2.917  17.223  1.0391 -0.7628  0.8048
    4MPD1    N114090   3.055   3.130  17.417  0.6053 -0.4567  0.1746
    4MPD1    H614091   3.129   3.190  17.453 -1.0013  0.5882  1.7172
    4MPD1    H714092   2.997   3.120  17.500  0.7728  0.0313  0.3514
    1TCq1    O114093   2.212   2.575  11.696 -0.5415 -0.4343 -0.0796
    1TCq1    C114094   2.082   2.608  11.680  0.3195  0.7130  0.2472
    1TCq1    O214095   1.994   2.556  11.749 -0.3676 -0.2525 -0.3329
    1TCq1    C214096   2.055   2.655  11.549 -0.4155 -0.9374 -0.1048
    1TCq1    C314097   2.142   2.627  11.448  0.1713 -0.2417 -0.0438
    1TCq1    C414098   2.113   2.683  11.325 -0.4285 -0.0480 -0.5576
    1TCq1    C514099   1.985   2.721  11.308  0.0667 -0.5642  0.6189
    1TCq1    C614100   1.901   2.745  11.414 -0.9295  0.2087 -0.1373
    1TCq1    C714101   1.938   2.719  11.542 -0.2155  0.8561 -0.6308
    1TCq1    C814102   1.761   2.786  11.381  0.5530  0.3400  0.0808
    1TCq1    O414103   1.734   2.810  11.266 -0.7608 -0.4508  1.0913
    1TCq1    C914104   2.191   2.630  11.217 -0.5184 -0.1723 -0.3948
    1TCq1    O514105   2.139   2.630  11.107  0.3816 -0.1015  0.0312
    1TCq1    O614106   2.302   2.575  11.245 -0.2853 -0.0848 -0.1561
    1TCq1    H114107   2.277   2.628  11.646  0.9614 -2.8004 -0.6578
    1TCq1    H214108   2.240   2.582  11.464  0.4936  0.1838 -0.7916
    1TCq1    H314109   1.948   2.726  11.206 -0.9165  1.5443  1.0811
    1TCq1    H414110   1.874   2.727  11.628 -1.6751 -0.5330 -1.5986
    2MPD1     C14111   1.290   2.928  11.504  0.4987  0.0345  0.1952
    2MPD1    C114112   1.377   2.970  11.603 -0.2433  0.8737 -0.1715
    2MPD1    C214113   1.505   2.922  11.593  0.3613  0.1860 -0.0475
    2MPD1    C314114   1.553   2.853  11.488 -0.1021  0.5063  0.4710
    2MPD1    C414115   1.456   2.812  11.394 -0.0952 -0.5869 -0.2870
    2MPD1    C514116   1.322   2.850  11.399 -0.2890  0.0609 -0.0021
    2MPD1     H14117   1.566   2.948  11.679  0.6048  1.9762 -0.7570
    2MPD1    H114118   1.495   2.751  11.313  0.2639 -1.0706  0.2574
    2MPD1    H214119   1.189   2.965  11.515  1.2355  2.1247 -0.0026
    2MPD1    H314120   1.254   2.818  11.320  0.9353  0.3548 -1.1788
    2MPD1     N14121   1.684   2.815  11.489 -0.0384 -0.3973  0.3989
    2MPD1    H514122   1.734   2.816  11.577 -0.4323  0.9094  0.6080
    2MPD1    N114123   1.332   3.030  11.722 -0.0293 -0.1958  0.1673
    2MPD1    H614124   1.242   3.077  11.715  0.1938  0.2863  0.5256
    2MPD1    H714125   1.402   3.086  11.771  1.0803 -1.4841  0.0556
    1TMC1    C114126   2.435   3.630   0.549 -0.5221 -0.2168 -0.1611
    1TMC1    C214127   2.360   3.539   0.611  0.4174  0.5052 -0.0830
    1TMC1    C314128   2.390   3.501   0.740  0.2046  0.1844 -0.0833
    1TMC1    C414129   2.553   3.680   0.606 -0.0452 -0.0596 -0.1047
    1TMC1    C514130   2.585   3.629   0.732  0.2142  0.5296 -0.0274
    1TMC1    C614131   2.506   3.541   0.798  0.3470  0.1463  0.0473
    1TMC1     C14132   2.375   3.683   0.429 -0.0130 -0.1545  0.2905
    1TMC1     O14133   2.274   3.642   0.384  0.1451 -0.1003 -0.2898
    1TMC1     H14134   2.270   3.504   0.562  0.8711 -1.4840  0.4982
    1TMC1    H114135   2.626   3.752   0.572  1.8997 -1.3370  1.4088
    1TMC1    H214136   2.530   3.505   0.897 -2.1248  0.4041  0.7392
    1TMC1    C714137   2.660   3.725   0.813  0.7456 -1.1701 -0.6446
    1TMC1    C814138   2.290   3.429   0.815 -0.3955  0.3423  0.4219
    1TMC1    O114139   2.686   3.842   0.785 -0.4025  0.0662  0.1864
    1TMC1    O214140   2.198   3.363   0.768  0.2510 -0.3280  0.2556
    1TMC1    O314141   2.707   3.664   0.918  0.2591  0.0781 -0.1182
    1TMC1    H314142   2.697   3.569   0.894  1.4255 -0.5938  2.1258
    1TMC1    O514143   2.321   3.431   0.945  0.4527 -0.0624  0.3462
    1TMC1    H514144   2.374   3.503   0.987 -0.1561  1.3545 -1.3006
    2MPD1     C14145   2.309   4.072   0.096  0.0670 -0.4308 -1.0116
    2MPD1    C114146   2.415   4.107   0.175  0.0537  0.1950 -0.8634
    2MPD1    C214147   2.449   4.011   0.271  0.2450 -0.4667 -0.4923
    2MPD1    C314148   2.382   3.894   0.294  0.2499 -0.3182  0.3499
    2MPD1    C414149   2.283   3.859   0.205 -0.4115  0.3671 -0.3647
    2MPD1    C514150   2.253   3.947   0.110  0.1352 -0.1154 -0.2066
    2MPD1     H14151   2.520   4.041   0.347  0.6402 -0.8486 -0.7102
    2MPD1    H114152   2.218   3.772   0.204 -0.9935  0.7992  0.0788
    2MPD1    H214153   2.279   4.142   0.019  3.1371  1.3681 -0.5794
    2MPD1    H314154   2.174   3.919   0.041  2.2963 -1.9298 -1.9375
    2MPD1     N14155   2.433   3.807   0.397 -0.2201  0.0550  0.2519
    2MPD1    H514156   2.496   3.850   0.464  0.4233  1.6522 -1.3887
    2MPD1    N114157   2.484   4.226   0.181  0.6512  0.3567  0.1048
    2MPD1    H614158   2.582   4.221   0.206  0.7864  0.8622 -0.3088
    2MPD1    H714159   2.484   4.257   0.084 -0.6207  0.7577  0.2385
    1MPD1     C14160   4.473   2.806  12.206 -0.3707 -0.0451 -0.2442
    1MPD1    C114161   4.541   2.807  12.317 -0.3241 -0.3337  0.2590
    1MPD1    C214162   4.668   2.853  12.327  0.2214  0.2284 -0.1721
    1MPD1    C314163   0.010   2.883  12.209  0.0904 -1.0017 -0.2071
    1MPD1    C414164   4.675   2.869  12.094  0.1571  0.0099  0.0071
    1MPD1    C514165   4.543   2.826  12.090  0.3719  0.1342 -0.1988
    1MPD1     H14166   4.714   2.863  12.425 -1.7767  1.6445  0.5969
    1MPD1    H114167   4.721   2.907  12.004  1.5827  0.1550  0.8011
    1MPD1    H214168   4.365   2.799  12.197 -0.0643 -3.6644 -1.2507
    1MPD1    H314169   4.494   2.840  11.995  2.5843 -1.6218 -1.6057
    1MPD1     N14170   0.146   2.934  12.221 -0.2698  0.3073  0.6311
    1MPD1    H514171   0.174   2.958  12.316 -0.3498  0.2245  0.6760
    1MPD1    N114172   4.473   2.787  12.439 -0.5940  0.1990  0.4267
    1MPD1    H614173   4.537   2.747  12.507  1.7636 -2.2158 -3.2167
    1MPD1    H714174   4.391   2.728  12.432  0.8817 -1.7276 -0.7987
    2MPD1     C14175   4.543   4.086  11.251  0.0527 -0.2688 -0.4845
    2MPD1    C114176   4.516   3.982  11.166 -0.0040 -0.1635 -0.0600
    2MPD1    C214177   4.600   3.870  11.151  0.7312 -0.9988  0.7901
    2MPD1    C314178   4.703   3.854  11.241 -0.0811  0.0740 -0.1159
    2MPD1    C414179   4.720   3.948  11.338  0.0236  0.5812  0.0759
    2MPD1    C514180   4.639   4.057  11.339 -0.2010 -0.3487  0.0992
    2MPD1     H14181   4.587   3.799  11.069  1.4485 -1.3397  0.9675
    2MPD1    H114182   0.062   3.932  11.411  0.5968 -0.2237 -0.7162
    2MPD1    H214183   4.488   4.180  11.255 -0.3598 -0.5138 -0.3897
    2MPD1    H314184   4.659   4.140  11.407  0.8118  0.1763 -0.8373
    2MPD1     N14185   0.072   3.756  11.222  0.2851 -0.2955  0.2744
    2MPD1    H514186   0.148   3.769  11.288 -0.6624  0.1429  1.2872
    2MPD1    N114187   4.416   4.008  11.064  0.5722  0.3783 -0.2645
    2MPD1    H614188   4.341   4.059  11.109  0.7556 -0.7877  1.3722
    2MPD1    H714189   4.378   3.921  11.027  0.1211 -0.4967  2.2840
    3MPD1     C14190   0.410   3.142  10.458  0.1349  0.5822  0.1443
    3MPD1    C114191   0.284   3.143  10.508  0.3748  0.1264 -0.5171
    3MPD1    C214192   0.260   3.197  10.634  0.3878 -0.5554 -0.5745
    3MPD1    C314193   0.356   3.265  10.704 -0.2275  0.1476 -0.1025
    3MPD1    C414194   0.483   3.276  10.641  0.1179 -0.6717 -0.0982
    3MPD1    C514195   0.510   3.210  10.524 -0.2780 -0.1815  0.2224
    3MPD1     H14196   0.163   3.169  10.675 -0.3094  0.9317 -1.2065
    3MPD1    H114197   0.550   3.351  10.681 -2.2521  1.6558 -0.5249
    3MPD1    H214198   0.426   3.100  10.359 -3.1924 -3.9392  1.5637
    3MPD1    H314199   0.606   3.225  10.476  0.2236  0.7219  1.5116
    3MPD1     N14200   0.327   3.328  10.825 -0.5852 -0.4953  0.3689
    3MPD1    H514201   0.232   3.320  10.860 -0.4433  1.4981  1.1872
    3MPD1    N114202   0.187   3.066  10.443  0.2266 -0.3226  0.5103
    3MPD1    H614203   0.209   3.058  10.344 -1.9428 -1.6234  0.1193
    3MPD1    H714204   0.102   3.123  10.445  0.6589  0.3443 -0.1226
    4MPD2     C14205   0.752   3.320  12.539 -0.3939 -0.8568 -0.9233
    4MPD2    C114206   0.709   3.315  12.404  0.1208  0.1468  0.3250
    4MPD2    C214207   0.765   3.398  12.307 -0.0560  0.0472  0.5976
    4MPD2    C314208   0.874   3.471  12.346 -0.5643  0.4872 -0.4196
    4MPD2    C414209   0.916   3.481  12.476  0.6148 -0.4053  0.3295
    4MPD2    C514210   0.847   3.411  12.572 -0.5634 -0.3031  0.1159
    4MPD2     H14211   0.732   3.404  12.204  0.3649  1.6845  0.5617
    4MPD2    H114212   0.994   3.549  12.506  1.5137 -0.9417 -0.7506
    4MPD2    H214213   0.705   3.266  12.620  2.3929 -1.2912  0.3946
    4MPD2    H314214   0.882   3.416  12.675 -0.8638  0.7943  0.1651
    4MPD2     N14215   0.956   3.530  12.249  0.7009 -1.0690 -0.2590
    4MPD2    H514216   1.051   3.551  12.277  0.3897 -0.0335  0.0371
    4MPD2    N114217   0.621   3.214  12.352 -0.2757  0.7030  0.3368
    4MPD2    H714218   0.620   3.207  12.251  0.5814 -0.8866  0.4362
    5TMC3    C114219   0.512   3.010  12.329 -0.3279  0.0220  0.2691
    5TMC3    C214220   0.385   3.029  12.285 -0.3143 -0.0016 -0.3290
    5TMC3    C314221   0.361   3.009  12.154 -0.5391 -0.6218  0.2571
    5TMC3    C414222   0.617   2.993  12.236  0.4548 -1.1808  0.3298
    5TMC3    C514223   0.591   2.985  12.101 -0.0519 -0.3456 -0.6538
    5TMC3    C614224   0.457   2.983  12.058 -0.1544 -0.7711 -0.7594
    5TMC3     C14225   0.562   3.112  12.421  0.5307 -0.3583 -0.6219
    5TMC3     O14226   0.542   3.092  12.544 -0.3434 -0.3265  0.4933
    5TMC3     H14227   0.319   3.054  12.367  0.8113  3.0977 -0.3747
    5TMC3    H114228   0.719   3.005  12.270  0.1348 -0.2959  0.9920
    5TMC3    H214229   0.440   2.996  11.952  0.5134 -0.9178 -0.8862
    5TMC3    C714230   0.683   3.063  12.021  0.3129  0.5398 -0.5924
    5TMC3    C814231   0.230   2.950  12.119 -0.0008 -0.8173  0.1994
    5TMC3    O114232   0.742   3.152  12.081 -0.1883  0.0014  0.3550
    5TMC3    O214233   0.215   2.914  12.002 -0.2174  0.1473  0.5710
    6TMC3    C114234   0.211   3.592  11.129 -0.0026 -0.2197  0.3265
    6TMC3    C214235   0.240   3.511  11.015 -0.4137 -0.2067  0.0257
    6TMC3    C314236   0.364   3.457  11.020  0.2964  0.3029  0.2003
    6TMC3    C414237   0.293   3.599  11.241 -0.2738  0.2206  0.1643
    6TMC3    C514238   0.418   3.557  11.215 -0.9904  0.3399 -0.1874
    6TMC3    C614239   0.456   3.480  11.109 -0.5557 -0.6111 -0.5890
    6TMC3     C14240   0.081   3.656  11.129 -0.2939  0.0604 -0.0922
    6TMC3     O14241   0.006   3.615  11.044 -0.4599 -0.0680  0.0187
    6TMC3     H14242   0.168   3.494  10.936 -1.1195 -0.6254  0.7521
    6TMC3    H114243   0.271   3.656  11.330  0.8829  0.0510  0.5617
    6TMC3    H214244   0.559   3.447  11.097 -0.1867  1.1233 -2.1794
    6TMC3    C714245   0.497   3.539  11.334  0.2600 -0.8195  0.5246
    6TMC3    C814246   0.416   3.387  10.903 -0.0171 -0.2744  0.5525
    6TMC3    O114247   0.616   3.526  11.315 -0.2312 -0.0928 -0.1715
    6TMC3    O214248   0.534   3.422  10.883  0.7141  0.0254 -0.0376
    7MPD2     C14249   0.988   3.142  11.617  0.0182 -0.3020  0.0331
    7MPD2    C114250   0.982   3.196  11.741 -0.4370 -0.3141 -1.1550
    7MPD2    C214251   0.886   3.167  11.834  0.1878 -0.0920 -0.4398
    7MPD2    C314252   0.800   3.064  11.805  0.3772  0.2285 -0.1755
    7MPD2    C414253   0.804   2.997  11.685  0.3476 -0.3040 -0.2439
    7MPD2    C514254   0.896   3.043  11.591  0.4307 -0.0483 -0.1593
    7MPD2     H14255   0.897   3.216  11.931  0.2831  0.0723 -0.5340
    7MPD2    H114256   0.728   2.921  11.667 -0.9584  0.9098  0.1009
    7MPD2    H214257   1.056   3.170  11.537  0.0286  0.9863  0.4943
    7MPD2    H314258   0.898   3.002  11.490 -3.6220  0.6080 -0.5054
    7MPD2     N14259   0.703   3.012  11.891  0.1228  0.4642 -0.2559
    7MPD2    H514260   0.666   2.919  11.877 -2.2358  1.4762 -0.6943
    7MPD2    N114261   1.077   3.292  11.767 -0.0562  0.0949  0.0094
    7MPD2    H714262   1.132   3.333  11.692  2.3055 -0.8100  1.2404
    8TMC3    C114263   1.154   3.478  11.897  0.1166 -0.0477  0.2676
    8TMC3    C214264   1.096   3.537  11.785 -0.2326  0.7594  0.1596
    8TMC3    C314265   0.995   3.626  11.801  0.2760  0.4643 -0.2215
    8TMC3    C414266   1.121   3.525  12.021  0.2667 -0.0227  0.2174
    8TMC3    C514267   1.022   3.615  12.033 -0.0282  0.1051 -0.8134
    8TMC3    C614268   0.959   3.672  11.929  0.0455  0.1036  0.5556
    8TMC3     C14269   1.113   3.336  11.893  0.3859  0.0174 -0.1732
    8TMC3     O14270   1.108   3.269  11.998  0.5784 -0.2971  0.1007
    8TMC3     H14271   1.117   3.498  11.686 -0.7333 -2.7762  1.4454
    8TMC3    H114272   1.158   3.465  12.104 -0.1831  0.9109  1.0866
    8TMC3    H214273   0.885   3.750  11.941 -0.5705 -0.6190  1.4326
    8TMC3    C714274   0.915   3.575  12.127 -0.0024  0.1146 -0.2765
    8TMC3    C814275   0.882   3.600  11.712  0.7877  0.2464 -0.5013
    8TMC3    O114276   0.808   3.571  12.070 -0.3534  0.0085 -0.0562
    8TMC3    O214277   0.894   3.601  11.590 -0.1818 -0.6921 -0.2673
    9MPD2     C14278   0.571   3.424  11.818  0.7014 -0.0521  0.8727
    9MPD2    C114279   0.659   3.491  11.736  0.6163 -0.0590  0.2251
    9MPD2    C214280   0.614   3.517  11.606 -0.0199  0.1380  0.4902
    9MPD2    C314281   0.481   3.483  11.570 -0.8176 -0.6062  0.0155
    9MPD2    C414282   0.400   3.431  11.670  0.3382  0.1181  0.3663
    9MPD2    C514283   0.446   3.384  11.786  0.2420 -0.1455  0.1934
    9MPD2     H14284   0.673   3.566  11.529  0.1439  0.8182  1.0443
    9MPD2    H114285   0.300   3.401  11.640  0.3986  0.0127  0.2698
    9MPD2    H214286   0.605   3.390  11.916  0.0170 -1.2932  0.6777
    9MPD2    H314287   0.383   3.345  11.864 -0.3515 -0.2391 -0.3329
    9MPD2     N14288   0.421   3.506  11.444 -0.1681  0.1725  0.2292
    9MPD2    H514289   0.322   3.483  11.437 -0.2599  0.1707  1.6937
    9MPD2    N114290   0.781   3.537  11.784 -0.4236 -0.2938  0.6611
    9MPD2    H714291   0.806   3.523  11.881 -1.4191  2.4861  1.2960
    1MPD1     C14292   0.349   1.274  16.053 -0.4000 -1.7402  0.0706
    1MPD1    C114293   0.278   1.183  16.112  0.1629  0.4922  0.1496
    1MPD1    C214294   0.221   1.195  16.239 -0.4264 -0.4243  0.2786
    1MPD1    C314295   0.267   1.301  16.315 -0.3532  0.4472 -0.3382
    1MPD1    C414296   0.344   1.396  16.258 -0.1122 -0.1501 -0.4369
    1MPD1    C514297   0.381   1.390  16.126  0.2799 -0.6668 -0.1814
    1MPD1     H14298   0.155   1.117  16.274 -0.7573 -1.2447 -2.1318
    1MPD1    H114299   0.369   1.486  16.311  0.8881 -0.4564 -0.3987
    1MPD1    H214300   0.387   1.273  15.951 -1.1434 -2.0951 -0.1998
    1MPD1    H314301   0.434   1.473  16.080  0.0315 -0.3881  0.0376
    1MPD1     N14302   0.233   1.327  16.452 -1.2925 -0.0905 -0.9783
    1MPD1    H514303   0.266   1.420  16.477 -0.3935 -1.3752  2.5627
    1MPD1    N114304   0.230   1.081  16.036  0.1413 -0.8009  0.2205
    1MPD1    H614305   0.291   1.056  15.959 -2.2329 -1.2178 -1.5263
    1MPD1    H714306   0.219   1.002  16.098 -0.1629 -1.4219 -0.6351
    2TMC2    C114307   0.160   1.484  16.819 -0.6412 -0.1531  0.5205
    2TMC2    C214308   0.145   1.405  16.926 -0.4461  0.6425  0.2931
    2TMC2    C314309   0.123   1.275  16.894 -0.8175  0.3564  0.3101
    2TMC2    C414310   0.155   1.448  16.689 -0.9656 -0.1668 -0.3538
    2TMC2    C514311   0.128   1.317  16.664 -0.6687 -0.7304  0.0053
    2TMC2    C614312   0.108   1.228  16.767  0.3777 -0.1372  0.3701
    2TMC2     C14313   0.151   1.625  16.854  0.4222  0.1771  0.0285
    2TMC2     O14314   0.075   1.652  16.947  0.0244 -0.1739  0.7231
    2TMC2     H14315   0.185   1.452  17.015  0.3327 -0.8216  0.7198
    2TMC2    H114316   0.155   1.525  16.613  0.9728  0.5216  0.3296
    2TMC2    H214317   0.076   1.126  16.751 -0.8160  0.6847 -2.5956
    2TMC2    C714318   0.146   1.261  16.534 -0.2468 -0.0136  0.6869
    2TMC2    C814319   0.050   1.203  16.997 -0.1340  0.0089 -0.4223
    2TMC2    O114320   0.094   1.151  16.527  0.2898  0.3614 -0.0281
    2TMC2    O214321   4.716   1.261  17.081 -0.3727  0.3947  0.1268
    2TMC2    O514322   0.128   1.093  17.021 -0.3868  0.5029 -0.2364
    2TMC2    H514323   0.190   1.070  16.948 -1.3818  0.8121 -1.1745
    3MPD1     C14324   0.376   2.092  16.829 -0.1407 -0.0083  0.5194
    3MPD1    C114325   0.439   2.017  16.737  0.1615  0.1153  0.1792
    3MPD1    C214326   0.392   1.885  16.730  0.3198 -0.0039 -0.1696
    3MPD1    C314327   0.290   1.828  16.808  0.3497 -0.5641  0.3951
    3MPD1    C414328   0.232   1.906  16.901  0.2814 -0.6513  0.3245
    3MPD1    C514329   0.269   2.040  16.897 -0.3196  0.5026 -0.1537
    3MPD1     H14330   0.433   1.818  16.655  0.8945  2.7804 -2.3501
    3MPD1    H114331   0.146   1.869  16.957  0.9115 -2.3968  0.1502
    3MPD1    H214332   0.419   2.186  16.861 -0.7724  0.3818  0.1990
    3MPD1    H314333   0.218   2.107  16.966 -0.6573  0.1236 -0.0330
    3MPD1     N14334   0.253   1.693  16.787  0.3655 -0.1469 -0.4213
    3MPD1    H514335   0.321   1.642  16.732  0.3703 -1.2438  0.5995
    3MPD1    N114336   0.532   2.065  16.645 -0.4219  1.0225 -0.0269
    3MPD1    H614337   0.600   1.997  16.614  1.0533  2.1502  0.6889
    3MPD1    H714338   0.562   2.159  16.671  0.1024  1.2263 -1.3842
    1TMC1    C114339   4.282   1.500  13.812  0.3159 -0.1464  0.2939
    1TMC1    C214340   4.343   1.488  13.691 -0.2805  0.2771  1.2194
    1TMC1    C314341   4.477   1.485  13.674 -0.3264 -0.2164  0.0511
    1TMC1    C414342   4.358   1.510  13.927 -0.2253 -0.6603 -1.1079
    1TMC1    C514343   4.494   1.499  13.903  0.0986  0.2260 -0.0324
    1TMC1    C614344   4.551   1.480  13.782 -0.0822 -0.7036  0.3950
    1TMC1     C14345   4.138   1.504  13.818  0.1276 -0.1574 -0.3033
    1TMC1     O14346   4.070   1.512  13.716 -0.2290 -0.2256 -0.1696
    1TMC1     H14347   4.289   1.496  13.598 -0.3291 -0.4246  1.1837
    1TMC1    H114348   4.326   1.546  14.024 -0.3550 -1.0074 -1.0212
    1TMC1    H214349   4.656   1.454  13.772 -0.0578  0.7660 -3.1579
    1TMC1    C714350   4.578   1.512  14.015  0.3004 -0.1568  0.0073
    1TMC1    C814351   4.535   1.444  13.550  0.1647  0.5627  0.1293
    1TMC1    O114352   4.694   1.551  14.001  0.0793  0.2779 -0.1262
    1TMC1    O214353   4.471   1.405  13.463  0.0153 -0.1542  0.1188
    1TMC1    O314354   4.527   1.441  14.117 -0.0094 -0.4454 -0.4580
    1TMC1    H314355   4.432   1.420  14.103 -0.4255  0.8820  0.3582
    1TMC1    O514356   4.655   1.505  13.547  0.5222  0.1482 -0.2030
    1TMC1    H514357   4.662   1.573  13.618 -0.7388  0.4314 -0.3455
    2MPD2     C14358   3.866   1.580  13.936  0.4003  0.3745  0.2940
    2MPD2    C114359   3.983   1.547  14.008  0.1007 -0.5671  0.0750
    2MPD2    C214360   3.970   1.552  14.148  0.4279 -0.1751 -0.5944
    2MPD2    C314361   3.860   1.588  14.204  1.0009  0.1554 -0.6019
    2MPD2    C414362   3.749   1.634  14.139 -0.3679 -0.6878 -0.2909
    2MPD2    C514363   3.757   1.623  13.999 -0.1196 -0.6414 -0.0635
    2MPD2     H14364   4.053   1.521  14.210 -1.1955 -1.3564  1.0007
    2MPD2    H114365   3.658   1.658  14.193 -1.1547 -0.5514 -1.6780
    2MPD2    H214366   3.864   1.563  13.829  0.5915 -2.3679  0.7355
    2MPD2    H314367   3.670   1.643  13.937  1.1304 -1.0620 -1.9617
    2MPD2     N14368   3.861   1.585  14.345 -0.4541  0.2058 -0.1138
    2MPD2    H514369   3.942   1.534  14.379 -1.1278 -0.6580  0.1702
    2MPD2    N114370   4.103   1.498  13.953  0.0078  0.0257  0.1603
    2MPD2    H714371   4.171   1.456  14.016 -1.0385 -0.9911  0.6018
    3TCq1    O114372   3.624   1.358  14.908  0.0921  0.8083 -0.6805
    3TCq1    C114373   3.687   1.473  14.900  0.3063  0.1599  0.3069
    3TCq1    O214374   3.631   1.576  14.928  0.8058  0.2756  0.8877
    3TCq1    C214375   3.769   1.464  14.778 -0.9808 -0.4628  0.1282
    3TCq1    C314376   3.844   1.354  14.750 -0.2789  0.2467  0.2732
    3TCq1    C414377   3.883   1.323  14.628  0.0069 -0.1688  0.2004
    3TCq1    C514378   3.841   1.401  14.528 -0.2771 -0.2495 -0.1552
    3TCq1    C614379   3.772   1.513  14.545 -0.3040 -0.8909 -0.2134
    3TCq1    C714380   3.739   1.544  14.673 -0.6217 -0.9877  0.3713
    3TCq1    C814381   3.753   1.605  14.434  0.4088 -0.2775  0.4878
    3TCq1    O414382   3.653   1.672  14.429  0.1095  0.0477  0.5907
    3TCq1    C914383   3.933   1.189  14.611  0.2946 -0.2178 -0.6135
    3TCq1    O514384   3.986   1.132  14.709  0.1388  1.0561  0.2245
    3TCq1    O614385   3.910   1.131  14.499  0.1437  0.1075 -0.2829
    3TCq1    H114386   3.650   1.291  14.841 -1.3347  0.0406 -0.4697
    3TCq1    H214387   3.846   1.283  14.833  2.2023  0.8284  0.7205
    3TCq1    H314388   3.852   1.356  14.430 -2.3004 -1.8901  0.3715
    3TCq1    H414389   3.683   1.634  14.693  2.1309  0.8268 -0.1987
    1MPD2     C14390   3.622   2.548  15.271 -0.2739  0.0151 -0.1119
    1MPD2    C114391   3.485   2.520  15.255 -0.6639 -0.0754  0.9831
    1MPD2    C214392   3.440   2.398  15.295 -0.0304  0.0642 -0.3814
    1MPD2    C314393   3.531   2.302  15.342 -0.5049  0.1800  0.5959
    1MPD2    C414394   3.663   2.340  15.368  0.0512  0.5166 -0.1322
    1MPD2    C514395   3.712   2.465  15.330 -0.4262  0.6372 -0.2790
    1MPD2     H14396   3.336   2.370  15.300 -0.1693  0.4910 -0.8746
    1MPD2    H114397   3.740   2.277  15.411 -0.9589 -0.8636 -0.3038
    1MPD2    H214398   3.665   2.642  15.240  1.2853 -1.2419 -1.6886
    1MPD2    H314399   3.818   2.484  15.339 -0.3657 -0.3753  1.1542
    1MPD2     N14400   3.459   2.177  15.355 -0.7601 -0.6725  0.1828
    1MPD2    H514401   3.364   2.159  15.324 -0.4052 -1.4127 -0.4739
    1MPD2    N114402   3.393   2.621  15.204  0.3535  0.0754 -0.1478
    1MPD2    H714403   3.429   2.715  15.192  1.9027 -0.3305  1.2896
    2TMC3    C114404   3.193   2.730  15.140 -0.4581 -0.5610 -0.4927
    2TMC3    C214405   3.060   2.701  15.154  0.2713 -0.3582 -0.9094
    2TMC3    C314406   2.990   2.723  15.038 -0.4320  0.0475 -0.8260
    2TMC3    C414407   3.249   2.780  15.032  0.7310 -0.7680 -0.7605
    2TMC3    C514408   3.170   2.811  14.929  0.2019  0.5507  0.1624
    2TMC3    C614409   3.037   2.786  14.929 -0.2658 -0.3145  0.1391
    2TMC3     C14410   3.256   2.610  15.190 -0.1243  0.2746  0.1730
    2TMC3     O14411   3.187   2.511  15.212 -0.1201  0.1021 -0.7785
    2TMC3     H14412   3.017   2.644  15.235 -1.9628 -0.0676 -1.8805
    2TMC3    H114413   3.356   2.795  15.022  0.7400  0.2456  0.8367
    2TMC3    H214414   2.980   2.803  14.838 -0.1656  0.3503  0.2013
    2TMC3    C714415   3.221   2.920  14.848 -0.2703  0.2963  0.5872
    2TMC3    C814416   2.902   2.608  15.002 -0.4788  0.0606 -0.1087
    2TMC3    O114417   3.178   2.923  14.737 -0.4538 -0.1309 -0.2226
    2TMC3    O214418   2.799   2.626  14.933 -0.2846  0.3057  0.1355
    3TCq1    O114419   3.869   3.899  15.284  0.3401  0.1707  0.1136
    3TCq1    C114420   3.890   3.782  15.221  0.3546 -0.7089  0.5901
    3TCq1    O214421   3.974   3.764  15.129  0.0583  0.3501 -0.0298
    3TCq1    C214422   3.759   3.717  15.221 -0.8160 -0.2480  0.3440
    3TCq1    C314423   3.686   3.693  15.343  0.0858  0.1846 -0.0573
    3TCq1    C414424   3.573   3.618  15.332 -0.2867 -0.6021  0.3175
    3TCq1    C514425   3.527   3.591  15.207  0.4227  0.1394 -0.6583
    3TCq1    C614426   3.603   3.609  15.096  0.3303  0.5313  0.3486
    3TCq1    C714427   3.724   3.668  15.100  0.2419  0.2396  0.6863
    3TCq1    C814428   3.575   3.531  14.978  0.0790  0.4303 -0.0877
    3TCq1    O414429   3.649   3.542  14.877  0.2383  0.0238  0.1603
    3TCq1    C914430   3.490   3.593  15.453 -0.0201 -0.7406 -0.2410
    3TCq1    O514431   3.389   3.517  15.440  0.0576 -0.3315 -0.2002
    3TCq1    O614432   3.526   3.648  15.562  0.8480  0.1487  0.6487
    3TCq1    H114433   3.781   3.913  15.324  0.2862  3.3538 -1.1050
    3TCq1    H214434   3.714   3.724  15.443  1.4549 -3.1161  0.5910
    3TCq1    H314435   3.423   3.561  15.197 -0.1219  1.0227  2.6881
    3TCq1    H414436   3.793   3.672  15.016 -1.2742 -0.4677 -0.5710
    4MPD2     C14437   3.463   3.360  14.765  0.1246  0.1219 -0.1174
    4MPD2    C114438   3.455   3.337  14.904 -0.2547 -0.0730 -0.2611
    4MPD2    C214439   3.410   3.210  14.946  0.1144 -0.2418 -0.2699
    4MPD2    C314440   3.351   3.121  14.859 -0.1108 -0.3111  0.2279
    4MPD2    C414441   3.366   3.142  14.718  0.0852  0.3407 -0.6364
    4MPD2    C514442   3.435   3.254  14.681 -0.1080  0.1782 -0.3044
    4MPD2     H14443   3.404   3.191  15.052 -1.3242 -0.3102 -0.3711
    4MPD2    H114444   3.338   3.070  14.642 -1.0746 -0.2915  0.3829
    4MPD2    H214445   3.498   3.456  14.729  0.5174 -0.0947 -0.3155
    4MPD2    H314446   3.454   3.260  14.574  1.0904 -4.6206 -0.3610
    4MPD2     N14447   3.292   3.012  14.924  1.0079  0.4924  0.2414
    4MPD2    H514448   3.303   3.006  15.025 -0.2787 -1.5668  0.2677
    4MPD2    N114449   3.497   3.426  15.005  0.6522  0.2275  0.6177
    4MPD2    H714450   3.471   3.406  15.101  1.5520 -1.5756  0.4667
    5TMC2    C114451   3.190   1.949  15.324 -0.2389 -0.1202  0.3675
    5TMC2    C214452   3.146   1.890  15.436 -0.5731  0.3327 -0.3017
    5TMC2    C314453   3.250   1.850  15.521 -0.0357  0.4080 -0.4855
    5TMC2    C414454   3.324   1.977  15.296  0.1130 -0.8880  0.1639
    5TMC2    C514455   3.421   1.948  15.387  0.1679  0.5976  0.0166
    5TMC2    C614456   3.390   1.875  15.501  0.9446 -0.0870 -0.8505
    5TMC2     C14457   3.120   2.069  15.282 -0.4511  0.3437 -0.4146
    5TMC2     O14458   3.199   2.162  15.278  0.0234 -0.4654  0.2706
    5TMC2     H14459   3.041   1.886  15.460 -0.3051 -1.8074  0.5423
    5TMC2    H114460   3.356   2.028  15.206 -1.3758  0.9504  0.6645
    5TMC2    H214461   3.475   1.846  15.562  0.5811  5.1084  2.0752
    5TMC2    C714462   3.513   2.066  15.407 -0.4022  0.3389 -0.2556
    5TMC2    C814463   3.229   1.750  15.619  0.4706 -0.7088  0.6765
    5TMC2    O114464   3.616   2.056  15.466 -0.2650  0.4749 -0.1918
    5TMC2    O214465   3.298   1.754  15.716 -0.1125 -0.1637 -0.2345
    5TMC2    O514466   3.117   1.682  15.593  0.0443  0.2545  0.1432
    5TMC2    H514467   3.092   1.697  15.500  0.1803 -1.2883 -0.1430
    6MPD2     C14468   2.783   2.331  15.000 -0.3070  0.7687 -0.2699
    6MPD2    C114469   2.894   2.370  15.070  0.2827  0.4325  0.7942
    6MPD2    C214470   2.962   2.279  15.145 -0.0265 -0.3196  0.6093
    6MPD2    C314471   2.934   2.148  15.136 -0.4782 -0.1042 -0.9529
    6MPD2    C414472   2.822   2.104  15.071  0.0547  0.3929 -0.2249
    6MPD2    C514473   2.747   2.196  15.000 -0.0413 -0.0759  0.7433
    6MPD2     H14474   3.041   2.311  15.213  0.2448  0.8815 -0.2759
    6MPD2    H114475   2.796   1.999  15.074  1.1637  0.1497  0.9070
    6MPD2    H214476   2.728   2.395  14.932  1.7884  0.8049 -1.9252
    6MPD2    H314477   2.671   2.149  14.938  2.9322 -0.0367 -2.9376
    6MPD2     N14478   3.004   2.045  15.204 -0.2051 -0.0629 -0.2779
    6MPD2    H514479   2.972   1.950  15.189 -1.6283  0.6084 -1.6049
    6MPD2    N114480   2.946   2.502  15.072 -0.5737  0.3400  0.0397
    6MPD2    H714481   3.027   2.512  15.133 -0.4007 -0.0609 -0.1302
  945NH3     N114482   3.506   3.725  13.196  0.8133 -0.2250  0.1818
  945NH3     H214483   3.576   3.654  13.214  0.6610 -0.3193  0.3891
  945NH3     H314484   3.487   3.761  13.288 -1.1647  0.3553 -0.4465
  945NH3     H414485   3.419   3.675  13.184  1.7009 -1.5926 -0.5292
  946SOD     NA14486   0.243   2.913  15.221  0.1931 -0.2724  0.3880
  947SOD     NA14487   2.752   0.049   5.029 -0.5087  0.3865 -0.2569
  948SOD     NA14488   2.046   0.601   9.876 -0.2419 -0.1113 -0.4183
  949SOD     NA14489   4.049   3.532   2.080  0.1261  0.1700 -0.0095
  950SOD     NA14490   1.054   1.550   7.786 -0.2233 -0.1539 -0.0709
  951SOD     NA14491   4.504   1.501   7.324  0.4833  0.2814 -0.0735
  952SOD     NA14492   2.523   3.271  15.588 -0.7049  0.1148  0.0254
  953SOD     NA14493   3.519   1.129  15.115 -1.2114  0.0322  0.3366
  954SOL     OW14494   1.879   1.096   3.643 -0.0297 -0.2876  0.0446
  954SOL    HW114495   1.972   1.099   3.620 -0.5571  2.7103 -1.7654
  954SOL    HW214496   1.858   1.186   3.668 -0.2672 -0.0195 -1.1061
  955SOL     OW14497   1.525   0.930   6.929 -0.4229  0.3094  0.6559
  955SOL    HW114498   1.567   0.889   7.004  0.2692  0.4806  0.3597
  955SOL    HW214499   1.604   0.969   6.891  0.2125 -1.2804  0.3633
  956SOL     OW14500   0.470   4.302   7.612 -0.7225  0.2376  0.2416
  956SOL    HW114501   0.378   4.280   7.623 -0.2280 -1.8227  0.2618
  956SOL    HW214502   0.458   4.375   7.552 -3.3808  0.3736  0.9452
  957SOL     OW14503   4.229   4.408   1.540 -0.0852 -0.4153  0.1417
  957SOL    HW114504   4.238   4.319   1.575 -1.4174 -0.5470  0.1381
  957SOL    HW214505   4.138   4.427   1.562  0.0007  1.7473 -1.3602
  958SOL     OW14506   2.262   3.739   9.838  0.5309 -0.2313 -0.4567
  958SOL    HW114507   2.251   3.827   9.875 -1.5527 -0.9476  0.5734
  958SOL    HW214508   2.347   3.712   9.872 -0.8149 -1.7092  1.7239
  959SOL     OW14509   0.978   2.964   5.586 -0.0523  0.1047 -0.1518
  959SOL    HW114510   0.951   2.915   5.665  1.6480  0.0146  0.3715
  959SOL    HW214511   1.073   2.953   5.589 -0.2188 -1.3915 -0.0193
  960SOL     OW14512   0.781   1.946   4.971 -0.2973  0.3833  0.0146
  960SOL    HW114513   0.847   1.884   4.943 -0.0609  0.9297 -0.6311
  960SOL    HW214514   0.716   1.952   4.901 -1.2151 -0.6763  0.7624
  961SOL     OW14515   0.129   2.518   3.059 -0.1297  0.2021  0.3671
  961SOL    HW114516   0.145   2.425   3.045  0.4362  0.3856 -0.2069
  961SOL    HW214517   0.208   2.540   3.109  0.1957  0.2319 -0.1580
  962SOL     OW14518   0.201   4.548   1.757 -0.0573 -0.3629 -0.0827
  962SOL    HW114519   0.126   4.599   1.788 -0.5842 -0.1355 -1.7487
  962SOL    HW214520   0.167   4.462   1.780  0.2834  0.8148  4.8280
  963SOL     OW14521   1.829   3.966   0.741 -0.2995  0.5359  0.1265
  963SOL    HW114522   1.896   3.960   0.809 -0.0177  4.5606  0.1934
  963SOL    HW214523   1.881   3.925   0.672  2.4278  2.6471  0.9530
  964SOL     OW14524   1.759   1.179  16.332  0.3220  0.8321 -0.2825
  964SOL    HW114525   1.677   1.228  16.332  0.0241  0.3335  2.1153
  964SOL    HW214526   1.744   1.101  16.386  0.5369  0.5087 -0.6895
  965SOL     OW14527   3.304   0.699   4.792 -0.0193 -0.1703 -0.7495
  965SOL    HW114528   3.220   0.719   4.831  0.4510  1.0044 -0.3292
  965SOL    HW214529   3.277   0.686   4.701 -2.1636  0.0918 -0.1271
  966SOL     OW14530   1.870   4.130  12.730  0.2258  0.2854 -0.2042
  966SOL    HW114531   1.875   4.108  12.637  0.0500  0.7182 -0.3126
  966SOL    HW214532   1.838   4.220  12.729 -1.9582 -0.5105 -1.0050
  967SOL     OW14533   3.239   3.225   7.687 -0.5006  0.1883  0.6761
  967SOL    HW114534   3.268   3.163   7.753 -1.1968 -0.5407  0.3103
  967SOL    HW214535   3.227   3.297   7.748  0.4696 -0.3673  1.5175
  968SOL     OW14536   0.093   2.118   7.175 -0.1514 -0.6729  0.1810
  968SOL    HW114537   0.164   2.174   7.142 -0.9508  0.4225  0.3144
  968SOL    HW214538   0.032   2.179   7.215 -0.6262  0.6557 -2.5353
  969SOL     OW14539   0.290   4.378  10.992 -0.4972  0.1686 -0.0349
  969SOL    HW114540   0.333   4.293  10.981  0.8159  0.7657  0.4692
  969SOL    HW214541   0.231   4.343  11.060  0.1271 -3.4606 -1.3254
  970SOL     OW14542   0.522   0.235   6.285 -0.5825  0.1061 -0.4013
  970SOL    HW114543   0.559   0.311   6.241  1.3639 -1.7807 -2.0271
  970SOL    HW214544   0.595   0.209   6.342 -1.1827  0.0662  0.3411
  971SOL     OW14545   1.808   2.948  11.046  0.1088 -0.2664 -0.2068
  971SOL    HW114546   1.802   2.921  11.138  1.9659  0.1062  0.0252
  971SOL    HW214547   1.872   2.886  11.012 -0.1372  0.2612 -1.6369
  972SOL     OW14548   3.187   2.649   4.155  0.5971 -0.8102 -0.2657
  972SOL    HW114549   3.223   2.620   4.239 -0.7666 -3.2891 -0.5303
  972SOL    HW214550   3.230   2.586   4.097 -1.0363 -1.6117 -0.6047
  973SOL     OW14551   3.371   0.789   3.169  0.4370  0.2040  0.2371
  973SOL    HW114552   3.466   0.800   3.166  0.4848 -0.1775  0.4283
  973SOL    HW214553   3.365   0.720   3.235 -0.7776  1.5920  1.5741
  974SOL     OW14554   4.147   4.180   0.907 -0.6211 -0.0565  0.7959
  974SOL    HW114555   4.053   4.196   0.908 -0.2910  2.0076  0.1586
  974SOL    HW214556   4.163   4.088   0.891  0.3736  0.3880 -0.7573
  975SOL     OW14557   4.053   0.251   4.921 -0.1220 -0.6600 -0.4705
  975SOL    HW114558   4.145   0.263   4.898 -0.6218  1.0337 -1.5992
  975SOL    HW214559   4.025   0.184   4.858 -2.3881 -0.2897  0.1390
  976SOL     OW14560   1.462   4.631   2.462  0.4864  0.1049  0.1431
  976SOL    HW114561   1.455   4.708   2.405  4.2108  0.9531  0.8824
  976SOL    HW214562   1.436   4.658   2.550 -1.3173 -0.3893 -0.2203
  977SOL     OW14563   0.517   2.304  14.203 -0.1326 -0.2929  0.5475
  977SOL    HW114564   0.498   2.363  14.129  0.9628  1.9687  2.0894
  977SOL    HW214565   0.487   2.227  14.154  0.4147  0.9750 -1.7682
  978SOL     OW14566   3.019   2.410   6.082  0.0185  0.1440 -0.1013
  978SOL    HW114567   3.062   2.488   6.048  1.6895 -0.0953  1.4689
  978SOL    HW214568   3.062   2.398   6.167 -1.1614  2.2096  0.8046
  979SOL     OW14569   1.164   4.349  14.623  0.0106 -0.3381 -0.5536
  979SOL    HW114570   1.097   4.416  14.638  0.7217 -0.3100  2.4463
  979SOL    HW214571   1.213   4.396  14.555 -0.0623  0.0327 -0.3497
  980SOL     OW14572   0.620   0.014   2.571 -0.3165  0.1287  0.1073
  980SOL    HW114573   0.664   0.084   2.620  1.2261 -1.7922  1.4704
  980SOL    HW214574   0.529   0.046   2.575 -0.8949 -1.6972  1.6135
  981SOL     OW14575   1.123   1.623  12.911 -0.3565  0.0302 -0.1240
  981SOL    HW114576   1.108   1.611  13.005  2.7899  0.8748  0.4867
  981SOL    HW214577   1.181   1.699  12.902  0.9207 -0.8053  1.0992
  982SOL     OW14578   0.533   1.699   6.750  0.5282  0.0493  0.3209
  982SOL    HW114579   0.511   1.768   6.812 -1.6634 -0.0667 -0.3636
  982SOL    HW214580   0.472   1.717   6.680  1.3969  0.7123 -0.2649
  983SOL     OW14581   4.309   1.361   3.434  0.3463  0.2725  0.9179
  983SOL    HW114582   4.287   1.272   3.460 -0.7476  0.2995  0.0993
  983SOL    HW214583   4.243   1.378   3.366  1.7252 -2.8785 -1.1862
  984SOL     OW14584   3.443   2.422   1.620 -0.2150  0.3810 -0.0936
  984SOL    HW114585   3.467   2.376   1.540 -1.7529  0.6485 -0.7030
  984SOL    HW214586   3.485   2.359   1.677 -3.1744 -0.4979  1.1124
  985SOL     OW14587   3.458   2.185   0.251  0.2667  0.0640 -0.2313
  985SOL    HW114588   3.385   2.201   0.310  0.7688  2.3162 -0.2330
  985SOL    HW214589   3.409   2.150   0.176 -1.9231  0.5523  1.0010
  986SOL     OW14590   0.565   3.336   4.508  0.0064  0.1358 -0.0469
  986SOL    HW114591   0.649   3.290   4.503  0.2713  0.5507  0.5895
  986SOL    HW214592   0.575   3.350   4.602  1.6650 -1.8949  0.0765
  987SOL     OW14593   4.732   4.719   4.980 -0.7488  0.5171  0.3649
  987SOL    HW114594   0.045   4.706   5.060  1.5129  0.7770 -0.9903
  987SOL    HW214595   0.044   0.054   4.939 -1.0782  0.1013 -0.7645
  988SOL     OW14596   0.691   4.486  15.840 -0.4509 -0.2672 -0.7139
  988SOL    HW114597   0.614   4.541  15.849  1.8742  2.4021  2.6991
  988SOL    HW214598   0.764   4.547  15.833  0.9758 -1.9990 -1.0961
  989SOL     OW14599   1.956   4.410  14.010  0.0303  0.3940  0.2931
  989SOL    HW114600   2.041   4.366  14.011 -1.5673 -2.7573 -0.5738
  989SOL    HW214601   1.922   4.373  13.928 -0.9865 -0.5339  1.1240
  990SOL     OW14602   4.250   1.703   7.713 -0.1810 -0.3515 -0.1922
  990SOL    HW114603   4.300   1.763   7.769 -1.5887  1.1275 -0.5015
  990SOL    HW214604   4.196   1.644   7.764 -0.4587  0.2566  0.2190
  991SOL     OW14605   2.812   1.109   3.065 -0.0579 -0.2995 -0.5568
  991SOL    HW114606   2.762   1.106   3.147  0.0671  0.5636 -0.4477
  991SOL    HW214607   2.788   1.028   3.019 -0.9152  0.4198 -1.3862
  992SOL     OW14608   1.635   2.413   5.581  0.4223 -0.6428  0.2896
  992SOL    HW114609   1.574   2.482   5.605  2.1724  0.7651  0.7143
  992SOL    HW214610   1.591   2.365   5.511 -1.5682 -0.1635  1.2343
  993SOL     OW14611   3.426   1.001   8.972  0.6284 -0.1094 -0.7454
  993SOL    HW114612   3.480   1.059   8.919  2.4841  0.4529  1.7700
  993SOL    HW214613   3.391   1.070   9.030 -3.6168 -4.4000  1.8300
  994SOL     OW14614   0.192   2.141   5.421 -0.3117  0.2579  0.2395
  994SOL    HW114615   0.139   2.109   5.348 -4.0131  0.1828  2.9027
  994SOL    HW214616   0.214   2.057   5.462 -0.7279  0.6361  1.2536
  995SOL     OW14617   1.518   1.567   1.317 -0.1503  0.2769 -0.1490
  995SOL    HW114618   1.454   1.497   1.309  1.3102 -1.0629 -0.2254
  995SOL    HW214619   1.560   1.562   1.231  1.4831 -2.4287  0.8056
  996SOL     OW14620   1.708   1.110   4.505 -0.3550 -0.0959  0.2717
  996SOL    HW114621   1.763   1.183   4.535 -0.4994 -1.0995  2.9518
  996SOL    HW214622   1.647   1.116   4.578  0.6851  2.2711  0.9581
  997SOL     OW14623   0.945   2.748  17.381 -0.5892  0.0033  0.2171
  997SOL    HW114624   0.871   2.724  17.436 -0.6658  1.4866  0.7570
  997SOL    HW214625   0.904   2.755  17.295  1.5833  1.5489 -0.6965
  998SOL     OW14626   0.265   0.663   8.892 -0.2447  0.0819 -0.3707
  998SOL    HW114627   0.191   0.675   8.951 -1.3327  0.6126 -1.8556
  998SOL    HW214628   0.330   0.709   8.945 -0.3339  1.3533 -1.3624
  999SOL     OW14629   2.310   4.183  11.815  0.0464 -0.4318 -0.0334
  999SOL    HW114630   2.315   4.256  11.754  2.9428  0.4424  1.2546
  999SOL    HW214631   2.247   4.221  11.875 -0.8058  1.1592 -1.9585
 1000SOL     OW14632   2.197   0.158  16.726 -0.0719 -0.0027  0.3879
 1000SOL    HW114633   2.194   0.122  16.815 -2.7459  1.0559  0.7248
 1000SOL    HW214634   2.290   0.144  16.711  0.4700  0.1706  3.6412
 1001SOL     OW14635   3.848   1.184   6.267  0.3586  0.2193 -0.7267
 1001SOL    HW114636   3.820   1.118   6.331  1.5577  1.5035  1.0981
 1001SOL    HW214637   3.943   1.172   6.274  0.3322 -0.4856 -1.6001
 1002SOL     OW14638   3.930   0.867   5.417  0.0167 -0.1522  0.2966
 1002SOL    HW114639   4.018   0.843   5.388  1.0634  1.4054  2.2050
 1002SOL    HW214640   3.951   0.940   5.475 -0.9885 -1.1513  1.9204
 1003SOL     OW14641   4.460   0.942  16.113  0.1108  0.8403 -0.4006
 1003SOL    HW114642   4.545   0.940  16.068  0.0902  0.7973 -0.4375
 1003SOL    HW214643   4.405   0.958  16.036 -2.6769 -2.6902  0.8178
 1004SOL     OW14644   2.638   0.237   3.423 -0.6000  0.5345  0.4386
 1004SOL    HW114645   2.543   0.225   3.424 -0.3354 -1.6325 -0.5727
 1004SOL    HW214646   2.647   0.224   3.328 -1.3303  2.3448  0.1294
 1005SOL     OW14647   2.525   4.646   3.700 -0.0784  1.0892 -0.1499
 1005SOL    HW114648   2.434   4.627   3.678  0.3118 -0.3273 -0.6094
 1005SOL    HW214649   2.574   4.628   3.619 -0.9807 -0.2329 -0.4159
 1006SOL     OW14650   2.683   2.098   9.925 -0.6161 -0.3530  0.8345
 1006SOL    HW114651   2.743   2.031   9.958  0.1757  0.3100  0.7438
 1006SOL    HW214652   2.736   2.135   9.855 -1.4471 -1.6036 -0.4692
 1007SOL     OW14653   1.392   1.404   3.227  0.2313  0.1901  0.3661
 1007SOL    HW114654   1.310   1.439   3.192  0.4090 -0.3167 -0.5389
 1007SOL    HW214655   1.405   1.330   3.168 -0.2516 -1.2222  2.0117
 1008SOL     OW14656   1.277   3.299  11.569  0.3905 -0.1542  0.1687
 1008SOL    HW114657   1.254   3.258  11.486  1.9299 -1.2350  0.2627
 1008SOL    HW214658   1.371   3.319  11.561  0.5673 -0.3799  1.8187
 1009SOL     OW14659   1.399   4.332   5.674  0.1895  0.0200 -0.4844
 1009SOL    HW114660   1.395   4.331   5.578  2.5818 -0.5813 -0.5808
 1009SOL    HW214661   1.492   4.342   5.695 -0.1425 -0.5233  1.2325
 1010SOL     OW14662   1.463   0.199   6.393 -0.0660  0.4056  0.0649
 1010SOL    HW114663   1.398   0.152   6.445  0.5299  0.9310  1.2667
 1010SOL    HW214664   1.525   0.126   6.389  0.3424  0.6709  1.7524
 1011SOL     OW14665   0.981   1.854   6.616 -0.0034  0.4219 -0.1764
 1011SOL    HW114666   1.006   1.941   6.586 -1.1356  0.9105  0.3251
 1011SOL    HW214667   0.886   1.843   6.611  0.4068 -2.8785 -0.8676
 1012SOL     OW14668   3.017   0.334   5.669 -0.2805  0.7742  0.0416
 1012SOL    HW114669   3.098   0.381   5.686 -0.8224  1.9815 -0.7555
 1012SOL    HW214670   3.033   0.315   5.577 -0.6360 -1.7574  0.4881
 1013SOL     OW14671   4.565   0.033   7.482  0.0765 -0.2375  0.5995
 1013SOL    HW114672   4.475   0.041   7.512 -0.2436 -2.1127  0.0990
 1013SOL    HW214673   4.560   0.007   7.391  0.7192 -1.2653  0.8514
 1014SOL     OW14674   2.435   3.486   9.689  0.7395  0.0093  0.5017
 1014SOL    HW114675   2.350   3.474   9.646  1.6928 -1.5419 -0.9353
 1014SOL    HW214676   2.484   3.530   9.620 -0.2917 -0.7104 -0.6892
 1015SOL     OW14677   0.409   2.843  14.032  0.2106  0.0410 -0.1833
 1015SOL    HW114678   0.474   2.851  13.962  0.5168  0.4315  0.1438
 1015SOL    HW214679   0.468   2.848  14.107  1.9468 -1.1956 -1.4420
 1016SOL     OW14680   3.624   1.352   6.366 -0.2820  0.1076 -0.3608
 1016SOL    HW114681   3.662   1.429   6.323  0.0328 -0.5809 -1.3104
 1016SOL    HW214682   3.660   1.282   6.312 -1.5877 -0.7243 -0.1768
 1017SOL     OW14683   1.249   2.852  13.593  0.3697  0.0525 -0.2727
 1017SOL    HW114684   1.177   2.807  13.638 -0.5539  1.1929 -0.6252
 1017SOL    HW214685   1.254   2.780  13.530  1.8676  0.2743 -0.3884
 1018SOL     OW14686   3.623   0.278  13.202 -0.4597  0.3837  0.1581
 1018SOL    HW114687   3.594   0.207  13.259  0.3809 -0.2122 -0.1522
 1018SOL    HW214688   3.647   0.235  13.120 -0.3174 -0.6414  0.7446
 1019SOL     OW14689   1.094   3.736   3.845  0.1880  0.0183 -0.0747
 1019SOL    HW114690   1.072   3.718   3.936 -1.4936 -2.4203 -0.9612
 1019SOL    HW214691   1.169   3.678   3.835  1.4411  1.8797 -1.3911
 1020SOL     OW14692   3.563   1.359  16.412 -0.5115  0.0535 -0.6585
 1020SOL    HW114693   3.614   1.415  16.471  0.1213  0.4975 -1.6448
 1020SOL    HW214694   3.511   1.417  16.357  0.6575  0.2396 -1.5713
 1021SOL     OW14695   2.230   4.665   2.342 -0.4745  0.4575  0.1577
 1021SOL    HW114696   2.281   4.656   2.262 -0.0980  2.5321  0.1462
 1021SOL    HW214697   2.305   4.655   2.400 -0.2291  0.2680 -0.2009
 1022SOL     OW14698   2.649   3.799   3.767  0.0539  0.9771  0.8352
 1022SOL    HW114699   2.555   3.778   3.766 -0.0519  1.6076 -1.4626
 1022SOL    HW214700   2.680   3.774   3.854  1.9571 -2.8465 -0.9638
 1023SOL     OW14701   3.082   1.475   2.910  0.6282  0.1055  0.1560
 1023SOL    HW114702   3.076   1.408   2.842 -0.3562 -1.1128  1.4387
 1023SOL    HW214703   3.167   1.459   2.952  0.3085  3.0724  1.9531
 1024SOL     OW14704   1.611   2.832   9.155  0.1132  0.7394  0.7926
 1024SOL    HW114705   1.557   2.769   9.204  1.4397  0.1874  1.5475
 1024SOL    HW214706   1.699   2.804   9.180 -0.4862 -2.1367 -0.2982
 1025SOL     OW14707   4.157   2.727   5.691  0.0460  0.3433 -0.5368
 1025SOL    HW114708   4.152   2.635   5.716 -2.4175  0.2677 -1.2533
 1025SOL    HW214709   4.240   2.736   5.738 -0.5272  1.3332  0.2691
 1026SOL     OW14710   3.567   0.363   4.001  0.5257 -0.4257 -0.1872
 1026SOL    HW114711   3.587   0.451   4.031  1.0909 -1.3659  2.1653
 1026SOL    HW214712   3.488   0.394   3.958 -1.3597 -3.4989  1.0647
 1027SOL     OW14713   4.440   3.630   6.022 -0.1706 -0.5194 -0.2152
 1027SOL    HW114714   4.490   3.633   5.940 -4.0585  2.9968 -2.4985
 1027SOL    HW214715   4.434   3.719   6.057  1.1299 -0.1311 -0.9765
 1028SOL     OW14716   3.259   3.574   6.084  0.2715  0.1524 -0.4219
 1028SOL    HW114717   3.234   3.488   6.052  0.0777  1.5770 -4.1028
 1028SOL    HW214718   3.172   3.605   6.111  0.8670  1.3946  0.0565
 1029SOL     OW14719   4.598   3.251   3.254  0.3606 -0.3183 -0.1710
 1029SOL    HW114720   4.588   3.338   3.213  1.3801  0.4726  1.2793
 1029SOL    HW214721   4.505   3.227   3.248 -0.1166  1.4785 -0.0497
 1030SOL     OW14722   3.521   4.570  15.495 -0.0135 -0.4102  0.0748
 1030SOL    HW114723   3.509   4.533  15.582  0.2557  0.1091  0.3312
 1030SOL    HW214724   3.572   4.649  15.514  1.0909 -0.8401 -1.1548
 1031SOL     OW14725   3.776   2.947  10.923  0.0329 -0.0264 -0.3170
 1031SOL    HW114726   3.692   2.991  10.937 -0.3832 -0.3037 -2.0040
 1031SOL    HW214727   3.768   2.877  10.988  1.9602  0.6340  0.6340
 1032SOL     OW14728   4.178   0.925   4.013  0.2682  0.2640 -0.0783
 1032SOL    HW114729   4.119   0.948   4.084  0.9199 -0.3912  0.6756
 1032SOL    HW214730   4.230   0.858   4.056 -0.3245  0.2223  0.5613
 1033SOL     OW14731   0.291   4.656  11.055 -0.3568  0.1526  0.1957
 1033SOL    HW114732   0.212   4.613  11.087 -0.8445  1.1931  0.3771
 1033SOL    HW214733   0.347   4.591  11.011  0.1110  0.7452 -0.0869
 1034SOL     OW14734   2.577   3.428   6.251  0.0807  0.0340 -0.6195
 1034SOL    HW114735   2.573   3.334   6.233 -0.3861  0.1068 -0.8922
 1034SOL    HW214736   2.510   3.435   6.319 -0.6232 -0.3997 -1.2762
 1035SOL     OW14737   0.588   4.305   1.737  0.1150  0.0881  0.4077
 1035SOL    HW114738   0.528   4.252   1.684 -1.4082  3.1058 -0.9070
 1035SOL    HW214739   0.669   4.254   1.740 -0.3749 -0.6881  0.4873
 1036SOL     OW14740   1.753   2.951  10.473 -0.5478  0.3025 -0.2215
 1036SOL    HW114741   1.766   2.967  10.566 -2.5363  0.7249 -0.0205
 1036SOL    HW214742   1.718   3.039  10.462 -0.5196  0.0605 -2.2671
 1037SOL     OW14743   0.062   2.198   2.415 -0.2977  0.6940 -0.3021
 1037SOL    HW114744   0.030   2.283   2.385  0.0136  0.8307 -0.2411
 1037SOL    HW214745   0.042   2.200   2.509  0.9619 -0.4243 -0.0042
 1038SOL     OW14746   2.940   2.842   3.678  0.0464 -0.0717  0.1249
 1038SOL    HW114747   2.968   2.912   3.619  0.5697 -0.1919  0.2379
 1038SOL    HW214748   2.954   2.890   3.760  1.2622  0.8197 -0.6061
 1039SOL     OW14749   0.130   2.756   9.097 -0.1998 -0.3485 -0.3937
 1039SOL    HW114750   0.184   2.817   9.047  1.6571  0.6954  2.9304
 1039SOL    HW214751   0.155   2.779   9.186  0.2278 -0.7125 -0.4211
 1040SOL     OW14752   4.257   2.425   6.188  0.1341  0.1108  0.3588
 1040SOL    HW114753   4.195   2.476   6.136  0.3984  0.4932  0.4254
 1040SOL    HW214754   4.191   2.397   6.252 -0.7496  0.9659 -0.1776
 1041SOL     OW14755   3.897   1.741   2.525 -0.0713 -0.2603  0.0454
 1041SOL    HW114756   3.805   1.737   2.502  0.1400 -2.4646 -0.4432
 1041SOL    HW214757   3.937   1.713   2.443  0.6671 -3.0277  1.3213
 1042SOL     OW14758   0.041   3.994  16.530  0.0579 -0.5601  0.1772
 1042SOL    HW114759   0.093   3.932  16.479  0.7697  0.7182 -0.6307
 1042SOL    HW214760   4.700   4.005  16.475  1.1304 -0.1929 -1.2486
 1043SOL     OW14761   4.152   1.222  15.706  0.2948 -0.2575 -0.7063
 1043SOL    HW114762   4.065   1.249  15.678  0.5083 -0.2141 -1.3292
 1043SOL    HW214763   4.198   1.306  15.701 -1.2745  0.7656  2.3508
 1044SOL     OW14764   1.369   3.163  13.266 -0.5157  0.1158  0.3981
 1044SOL    HW114765   1.283   3.205  13.257  0.1282  1.6373  1.5064
 1044SOL    HW214766   1.364   3.150  13.361 -1.4091  0.0015  0.3354
 1045SOL     OW14767   0.405   3.492  13.708  0.4778 -0.0452  0.8247
 1045SOL    HW114768   0.448   3.407  13.694  0.4026 -0.0309  0.4947
 1045SOL    HW214769   0.457   3.549  13.764  0.0596  1.0964  0.0446
 1046SOL     OW14770   4.602   3.380   3.566 -0.2658 -0.4196 -0.0592
 1046SOL    HW114771   4.681   3.394   3.514 -0.6485  0.9579 -0.2701
 1046SOL    HW214772   4.536   3.433   3.521 -1.6401 -1.7248  0.4133
 1047SOL     OW14773   0.120   1.126   0.450 -0.0262 -0.0753 -0.0253
 1047SOL    HW114774   0.180   1.101   0.379  0.8466  0.3420  0.5697
 1047SOL    HW214775   0.181   1.116   0.523 -0.8774 -0.4100  0.6420
 1048SOL     OW14776   3.884   2.530   8.669 -0.4345 -0.7638  0.0418
 1048SOL    HW114777   3.837   2.448   8.678 -0.9626 -0.2005  2.4201
 1048SOL    HW214778   3.939   2.528   8.747  0.0215  0.4075 -0.2376
 1049SOL     OW14779   3.451   3.631   2.757 -0.7899  0.1881  0.0200
 1049SOL    HW114780   3.534   3.617   2.803 -0.6086  2.8034  0.4928
 1049SOL    HW214781   3.412   3.703   2.805 -1.6359  1.1676 -2.1414
 1050SOL     OW14782   2.233   1.363   6.547  0.0369  0.3520  0.2826
 1050SOL    HW114783   2.300   1.424   6.519  0.9456 -1.5833 -1.7145
 1050SOL    HW214784   2.270   1.275   6.543 -1.9198 -0.5637  1.8276
 1051SOL     OW14785   0.285   0.890   7.020 -0.1120  0.3858 -0.1498
 1051SOL    HW114786   0.351   0.828   6.990 -1.7133 -1.4523  0.1034
 1051SOL    HW214787   0.209   0.858   6.971 -0.8119  1.1585  0.4248
 1052SOL     OW14788   2.533   1.435   4.312 -0.5498 -0.6771  0.2355
 1052SOL    HW114789   2.615   1.467   4.350 -0.4660  0.5009 -0.9506
 1052SOL    HW214790   2.495   1.367   4.368 -1.8412 -1.2013 -1.2902
 1053SOL     OW14791   1.878   0.482   3.914  0.7994 -0.3313 -0.5731
 1053SOL    HW114792   1.921   0.420   3.855 -0.2895 -2.5898  1.0174
 1053SOL    HW214793   1.850   0.420   3.981 -0.5775  0.6974 -0.1988
 1054SOL     OW14794   1.159   4.379   4.627 -0.4137  0.4847  0.3979
 1054SOL    HW114795   1.183   4.341   4.543 -2.1063  1.5707 -0.5834
 1054SOL    HW214796   1.064   4.384   4.611 -0.3692  2.6358  0.8258
 1055SOL     OW14797   0.870   2.015   3.026 -0.0466 -0.3890 -0.7575
 1055SOL    HW114798   0.859   2.098   2.980 -1.9907  1.4838  3.1032
 1055SOL    HW214799   0.839   2.026   3.116  1.3141 -0.7511 -0.2487
 1056SOL     OW14800   2.408   0.975  14.220  0.5553 -0.3016  0.1070
 1056SOL    HW114801   2.486   1.014  14.261  0.2961  0.8297 -0.5114
 1056SOL    HW214802   2.450   0.909  14.165  0.8746 -0.0557  0.0581
 1057SOL     OW14803   0.336   0.026   1.770 -0.2469 -0.0882  0.7995
 1057SOL    HW114804   0.291   4.680   1.787  0.7040 -0.3062  2.2792
 1057SOL    HW214805   0.423   4.728   1.749 -1.0599 -1.0235 -1.0378
 1058SOL     OW14806   3.288   2.228   3.454  0.1495  0.3558  0.0246
 1058SOL    HW114807   3.381   2.236   3.433  0.6490 -1.2476  1.6514
 1058SOL    HW214808   3.261   2.157   3.395  1.5709 -0.7158  0.6541
 1059SOL     OW14809   3.829   2.080   2.951  0.3406 -0.0586  0.2799
 1059SOL    HW114810   3.858   2.013   2.890 -2.6925 -0.0303 -1.1850
 1059SOL    HW214811   3.806   2.150   2.890  2.3420 -0.5683 -1.0510
 1060SOL     OW14812   1.652   4.706   9.272  0.1682 -0.5950  0.6605
 1060SOL    HW114813   1.708   4.703   9.194 -0.3591  0.5588  0.2455
 1060SOL    HW214814   1.695   4.649   9.336  0.9736 -4.2656 -3.1381
 1061SOL     OW14815   0.020   1.159   6.403 -0.9064 -0.2377  0.6517
 1061SOL    HW114816   0.040   1.091   6.339 -3.0586 -1.5826  1.4087
 1061SOL    HW214817   0.018   1.238   6.349  0.6598 -0.6061  0.0420
 1062SOL     OW14818   4.439   0.543   3.632  0.2061 -0.1415 -0.1209
 1062SOL    HW114819   4.345   0.530   3.618 -0.1325  1.9770  0.2259
 1062SOL    HW214820   4.434   0.559   3.726 -2.1021 -2.0499  0.0728
 1063SOL     OW14821   0.111   3.234   3.327  0.1551 -0.2760 -0.2383
 1063SOL    HW114822   0.024   3.242   3.289  0.8225  0.6229 -1.5530
 1063SOL    HW214823   0.133   3.141   3.322  4.8587  0.9155 -1.2261
 1064SOL     OW14824   3.104   3.555   5.279  0.0540 -0.2534  0.7051
 1064SOL    HW114825   3.039   3.486   5.271  0.4686 -0.4968 -0.5203
 1064SOL    HW214826   3.058   3.616   5.337 -0.4497 -0.8710  0.9534
 1065SOL     OW14827   2.107   1.379  15.839  0.4494 -0.6982  0.1543
 1065SOL    HW114828   2.184   1.344  15.884  1.1163  1.4006  0.6349
 1065SOL    HW214829   2.086   1.294  15.800 -1.5594 -0.0707 -0.1380
 1066SOL     OW14830   3.675   2.399   5.755  0.0126  0.2137  0.2970
 1066SOL    HW114831   3.761   2.394   5.713  0.3785 -0.1388  1.1063
 1066SOL    HW214832   3.639   2.472   5.703 -0.8964  0.0905  0.7522
 1067SOL     OW14833   0.240   3.881   5.794  0.2935  0.3653 -0.5508
 1067SOL    HW114834   0.276   3.926   5.870  0.5132 -1.3543  0.3751
 1067SOL    HW214835   0.314   3.826   5.768  0.2248 -0.3082  0.6871
 1068SOL     OW14836   3.404   3.808  16.956  0.0866 -0.4624  0.0234
 1068SOL    HW114837   3.427   3.832  17.046 -1.8342 -1.1926  0.7041
 1068SOL    HW214838   3.316   3.845  16.951  0.2567 -0.3076 -1.8136
 1069SOL     OW14839   0.030   4.356   5.279  0.4330  0.4564  0.0331
 1069SOL    HW114840   0.085   4.358   5.201 -0.5979  3.6787 -0.6267
 1069SOL    HW214841   4.687   4.396   5.244  0.2048 -0.8544 -0.9605
 1070SOL     OW14842   2.761   2.925   4.321  0.1304  0.6323  0.7744
 1070SOL    HW114843   2.805   2.841   4.305  1.0837  1.2863 -0.0696
 1070SOL    HW214844   2.708   2.899   4.396 -0.2455  0.6208  0.5089
 1071SOL     OW14845   1.560   0.143   2.321  0.1007 -0.2076  0.0446
 1071SOL    HW114846   1.579   0.136   2.227 -1.5221  1.1792 -0.3910
 1071SOL    HW214847   1.584   0.233   2.341  0.4497 -0.5230  1.0385
 1072SOL     OW14848   1.530   3.055   4.614 -0.0108 -0.0752  0.4066
 1072SOL    HW114849   1.471   3.014   4.551  0.9615 -0.5087 -0.2158
 1072SOL    HW214850   1.599   2.989   4.617  0.1107  0.0246 -0.2916
 1073SOL     OW14851   2.231   2.274   8.688 -0.0216 -0.2803 -0.2627
 1073SOL    HW114852   2.161   2.248   8.747 -1.4564 -0.1694 -1.8980
 1073SOL    HW214853   2.252   2.363   8.715 -0.8611 -0.5759  1.3365
 1074SOL     OW14854   3.664   4.330   1.536  0.5297  0.0359 -0.2209
 1074SOL    HW114855   3.710   4.378   1.467 -1.0606  0.7432 -0.7807
 1074SOL    HW214856   3.593   4.290   1.485 -0.5782  1.5132  0.1665
 1075SOL     OW14857   2.650   4.256  11.761 -0.1163  0.1251 -0.0736
 1075SOL    HW114858   2.590   4.233  11.831  2.7144  0.9828  2.6067
 1075SOL    HW214859   2.607   4.223  11.682  0.7368 -0.2321 -0.3904
 1076SOL     OW14860   3.157   4.225   8.873 -0.2533 -0.1871 -0.2424
 1076SOL    HW114861   3.108   4.219   8.791 -1.5562  0.9283  0.4566
 1076SOL    HW214862   3.166   4.136   8.909  1.5682 -0.0178 -0.2774
 1077SOL     OW14863   1.427   0.122   3.541  0.8565 -0.4447 -0.8176
 1077SOL    HW114864   1.370   0.176   3.596  0.9521 -3.0925  1.8683
 1077SOL    HW214865   1.416   0.155   3.452 -0.4015  0.6307 -0.2737
 1078SOL     OW14866   1.832   2.537   1.998  0.0461 -0.3240  0.1056
 1078SOL    HW114867   1.807   2.468   1.937 -3.0995  2.2556 -1.5746
 1078SOL    HW214868   1.906   2.590   1.967 -0.3328 -1.5283 -2.7965
 1079SOL     OW14869   3.901   2.352  14.367 -0.4141 -0.7647  0.3376
 1079SOL    HW114870   3.979   2.308  14.333 -0.1121 -0.2340  0.3524
 1079SOL    HW214871   3.841   2.333  14.295 -0.4343 -1.9070  0.6509
 1080SOL     OW14872   0.673   3.397   6.585 -0.4280  0.2977 -0.4499
 1080SOL    HW114873   0.722   3.340   6.644  1.3995 -0.0797 -2.3196
 1080SOL    HW214874   0.727   3.476   6.587 -1.1138  0.7701 -0.6984
 1081SOL     OW14875   3.265   0.415  16.890 -0.1051  0.7890  0.1101
 1081SOL    HW114876   3.256   0.330  16.846  0.3210  1.1079 -0.5908
 1081SOL    HW214877   3.249   0.403  16.984  2.1432 -0.9125  0.2700
 1082SOL     OW14878   0.262   1.376   7.262 -0.1724 -0.2061 -0.2906
 1082SOL    HW114879   0.287   1.468   7.265  1.6537 -0.7757  2.0810
 1082SOL    HW214880   0.233   1.358   7.352 -2.7566  2.5976 -0.5818
 1083SOL     OW14881   3.794   2.725  12.764 -0.2979 -0.4699  1.0739
 1083SOL    HW114882   3.740   2.742  12.687  1.2670  2.8212  0.7288
 1083SOL    HW214883   3.880   2.750  12.731  0.2318 -2.0323  1.2415
 1084SOL     OW14884   3.491   2.419   6.882  0.4812 -0.3627 -0.1866
 1084SOL    HW114885   3.513   2.331   6.853  0.9032 -1.0650  2.2097
 1084SOL    HW214886   3.418   2.399   6.942  1.7254 -0.2475  1.3563
 1085SOL     OW14887   4.633   4.621   5.981  0.7869  0.6656  0.4287
 1085SOL    HW114888   4.653   4.706   6.022  1.3306  0.4418  0.6182
 1085SOL    HW214889   4.715   4.586   6.015  0.0685 -2.5236 -1.1553
 1086SOL     OW14890   3.123   0.985   6.401 -0.2279 -0.2456  0.6871
 1086SOL    HW114891   3.173   1.058   6.363  1.4364 -0.9468  1.5027
 1086SOL    HW214892   3.188   0.919   6.424  0.0552 -0.4720 -0.7986
 1087SOL     OW14893   3.364   3.146   2.145 -0.1491 -0.1752 -0.1743
 1087SOL    HW114894   3.401   3.170   2.230 -0.8658 -0.9898  0.3680
 1087SOL    HW214895   3.367   3.051   2.153 -0.3733 -0.2341 -0.7734
 1088SOL     OW14896   3.240   4.465   9.741 -0.0921 -0.2512  0.1380
 1088SOL    HW114897   3.145   4.478   9.742 -0.3282 -1.9940  1.0501
 1088SOL    HW214898   3.263   4.458   9.834 -4.0941  1.0497  1.2286
 1089SOL     OW14899   0.634   0.956   8.677  0.9736  0.0641 -0.0101
 1089SOL    HW114900   0.542   0.982   8.671  0.6755 -0.8229  0.7241
 1089SOL    HW214901   0.678   1.040   8.664  0.7773  0.0635 -0.6544
 1090SOL     OW14902   3.586   0.121  11.679 -0.5153  0.2697  0.4044
 1090SOL    HW114903   3.566   0.032  11.651  1.2062  0.2523 -0.7752
 1090SOL    HW214904   3.508   0.169  11.650  0.8471  2.5819  0.5383
 1091SOL     OW14905   0.756   1.021   5.985 -0.5987  0.5457  0.2833
 1091SOL    HW114906   0.843   0.981   5.980 -1.4445 -1.4964  1.9512
 1091SOL    HW214907   0.710   0.965   6.048 -0.2528 -2.7382 -2.3891
 1092SOL     OW14908   1.831   0.808   7.827 -0.0122 -0.2221  0.1409
 1092SOL    HW114909   1.760   0.866   7.854 -1.1389 -2.7570  2.7117
 1092SOL    HW214910   1.815   0.738   7.890 -1.6068 -0.9018 -1.0038
 1093SOL     OW14911   0.305   0.392   6.055 -0.1566 -0.2611  0.0952
 1093SOL    HW114912   0.293   0.297   6.057 -0.7388 -0.1573  1.4766
 1093SOL    HW214913   0.238   0.406   5.988 -0.8497 -1.8698  0.4595
 1094SOL     OW14914   2.412   4.552  12.478 -0.1674  0.3618 -0.1861
 1094SOL    HW114915   2.392   4.641  12.449 -1.1680 -0.3686 -1.8023
 1094SOL    HW214916   2.489   4.571  12.532  0.3351 -2.8087  0.2261
 1095SOL     OW14917   0.650   2.700  10.162 -0.4949  0.1266 -0.1189
 1095SOL    HW114918   0.600   2.618  10.170  0.7640 -0.7232 -0.8951
 1095SOL    HW214919   0.659   2.743  10.247  2.3841  2.7617 -1.7680
 1096SOL     OW14920   0.717   0.266   4.419 -0.1433 -1.2804 -0.0008
 1096SOL    HW114921   0.721   0.242   4.326 -1.6840  0.8388 -0.6122
 1096SOL    HW214922   0.627   0.295   4.428  0.2506  0.1611 -0.6699
 1097SOL     OW14923   2.273   1.913   7.917 -0.0133 -0.0753 -0.4289
 1097SOL    HW114924   2.187   1.883   7.947  0.3235 -0.9734 -0.3412
 1097SOL    HW214925   2.287   1.987   7.976 -2.2101 -0.6504  0.8353
 1098SOL     OW14926   1.021   4.667   3.095 -0.3433 -0.0447 -0.0297
 1098SOL    HW114927   1.027   0.016   3.138  3.9327 -1.1977  1.7168
 1098SOL    HW214928   0.956   4.695   3.031 -0.7814  0.7017  0.7327
 1099SOL     OW14929   2.010   3.350   2.927  0.6212  0.4258  0.5832
 1099SOL    HW114930   1.953   3.288   2.973 -1.1564  0.9256 -0.9410
 1099SOL    HW214931   1.986   3.328   2.837  0.9089 -0.8425  0.8180
 1100SOL     OW14932   1.979   1.821  15.770 -0.2761 -0.2185 -0.0190
 1100SOL    HW114933   1.919   1.852  15.838  0.0959 -1.5657  0.9132
 1100SOL    HW214934   1.944   1.733  15.761  1.3791 -0.8692 -0.0102
 1101SOL     OW14935   2.534   4.555  10.355  0.3829 -0.7616 -0.2669
 1101SOL    HW114936   2.529   4.496  10.431 -3.6173  1.4340  1.1921
 1101SOL    HW214937   2.492   4.503  10.287 -0.9709 -1.4460  1.0921
 1102SOL     OW14938   1.775   0.296   5.625 -0.2092 -0.1707 -0.5149
 1102SOL    HW114939   1.796   0.358   5.555  1.2180  0.2916  0.3176
 1102SOL    HW214940   1.742   0.360   5.688  1.0415 -1.1598  1.1484
 1103SOL     OW14941   2.963   2.206   3.961  0.3528 -0.3355 -0.3289
 1103SOL    HW114942   2.897   2.138   3.948 -1.1713  1.2308 -0.7011
 1103SOL    HW214943   2.954   2.250   3.877  0.5494  2.2916  1.0093
 1104SOL     OW14944   1.726   1.521  11.321  0.1964 -0.5145  0.3840
 1104SOL    HW114945   1.766   1.495  11.238 -1.6662 -0.3835 -0.5544
 1104SOL    HW214946   1.707   1.611  11.297  0.1189 -0.0989  1.9829
 1105SOL     OW14947   0.963   3.005   1.171 -0.0804  0.3406 -0.6365
 1105SOL    HW114948   1.046   2.969   1.142 -1.0620 -2.0156 -0.5213
 1105SOL    HW214949   0.969   3.073   1.104 -0.3180  2.1030  1.1151
 1106SOL     OW14950   2.444   3.565   5.691  0.6230 -0.0759 -0.2548
 1106SOL    HW114951   2.491   3.647   5.705 -0.6404  0.5706  0.2033
 1106SOL    HW214952   2.406   3.573   5.604 -1.0523  0.2809  0.5146
 1107SOL     OW14953   1.401   4.417  10.125 -0.2223 -0.8727  0.1532
 1107SOL    HW114954   1.436   4.476  10.192 -3.4613  0.7604  0.3847
 1107SOL    HW214955   1.415   4.475  10.050  2.8966 -2.9329 -0.8826
 1108SOL     OW14956   3.764   4.433   5.628 -0.5895  0.3554  0.4010
 1108SOL    HW114957   3.760   4.367   5.697 -0.6485 -0.7389 -0.6349
 1108SOL    HW214958   3.750   4.369   5.558  1.6729  0.1844  0.0983
 1109SOL     OW14959   3.021   3.332   9.633 -0.0895 -0.6709 -0.9121
 1109SOL    HW114960   2.969   3.252   9.645  0.0145 -0.4099  1.2796
 1109SOL    HW214961   2.949   3.395   9.646  0.8250 -0.2497  2.0736
 1110SOL     OW14962   0.451   0.366   4.372  1.0124 -0.1454  0.5040
 1110SOL    HW114963   0.477   0.380   4.281  0.6888 -0.0067  0.4299
 1110SOL    HW214964   0.357   0.354   4.357  1.0882 -2.0307  1.5039
 1111SOL     OW14965   1.689   3.420   7.328 -0.0318  0.0268  0.0122
 1111SOL    HW114966   1.645   3.338   7.350 -0.8193  0.1817 -1.0036
 1111SOL    HW214967   1.655   3.438   7.240 -0.7300  0.9183  0.4651
 1112SOL     OW14968   3.617   4.622   5.944 -0.1519 -0.5252 -0.6650
 1112SOL    HW114969   3.660   4.538   5.958 -0.2343 -0.6444 -1.1066
 1112SOL    HW214970   3.582   4.626   6.033 -1.7873  1.1712 -1.3816
 1113SOL     OW14971   2.510   3.590  15.391  0.0181 -0.5636 -0.4196
 1113SOL    HW114972   2.490   3.584  15.484 -2.0671  1.6866 -0.7301
 1113SOL    HW214973   2.530   3.683  15.391 -2.9612  0.0812 -1.4331
 1114SOL     OW14974   1.210   2.162   5.369 -0.6367 -0.7602  0.1895
 1114SOL    HW114975   1.191   2.222   5.441  0.9082 -1.1161  0.8860
 1114SOL    HW214976   1.170   2.079   5.394  0.2607 -1.0424  0.6953
 1115SOL     OW14977   4.402   3.323   1.531  0.4100  0.3121 -0.0734
 1115SOL    HW114978   4.462   3.248   1.539 -2.1686 -1.8494 -0.9284
 1115SOL    HW214979   4.460   3.396   1.551  3.3884 -1.5308 -1.9652
 1116SOL     OW14980   2.636   3.671   6.112 -0.5004 -0.3180 -0.2904
 1116SOL    HW114981   2.541   3.684   6.123 -0.7568 -2.0493 -0.3469
 1116SOL    HW214982   2.640   3.593   6.167 -2.4296  1.2565  2.0995
 1117SOL     OW14983   1.753   1.816   9.163 -0.1809 -0.0274  0.8451
 1117SOL    HW114984   1.695   1.780   9.097 -0.0377  0.8258  0.2618
 1117SOL    HW214985   1.793   1.740   9.207  0.8286  0.6945  1.1765
 1118SOL     OW14986   1.000   3.435   1.742  0.3773  0.2202 -0.2315
 1118SOL    HW114987   1.080   3.383   1.743  0.9078  1.0094 -2.3425
 1118SOL    HW214988   0.929   3.371   1.748  0.8634 -0.4337 -1.4956
 1119SOL     OW14989   0.884   3.976   5.649 -0.2054 -0.3708 -0.7230
 1119SOL    HW114990   0.862   3.915   5.579 -1.3285 -2.0967  1.1482
 1119SOL    HW214991   0.915   4.051   5.598 -0.6168  0.8625  0.8334
 1120SOL     OW14992   3.290   4.018  15.873 -0.0210 -0.2876  0.6513
 1120SOL    HW114993   3.328   3.932  15.857  0.8225 -0.5267  3.9868
 1120SOL    HW214994   3.352   4.074  15.827  0.5734  0.6300  2.5855
 1121SOL     OW14995   2.559   3.218  14.896  0.7992  0.7090  0.1407
 1121SOL    HW114996   2.575   3.218  14.802 -1.6379  0.4597 -0.2874
 1121SOL    HW214997   2.548   3.312  14.903  2.2828  0.8540  0.4048
 1122SOL     OW14998   4.458   0.139   4.537  0.0957 -0.0003 -0.3042
 1122SOL    HW114999   4.419   0.219   4.573 -0.9302 -1.0964  1.0259
 1122SOL    HW215000   4.464   0.081   4.612 -2.4991 -1.2776 -1.0544
 1123SOL     OW15001   4.710   1.751   5.947  0.2935  0.0090 -0.2334
 1123SOL    HW115002   4.663   1.668   5.957  1.1309 -0.4416 -0.0884
 1123SOL    HW215003   4.699   1.765   5.853  0.6420 -2.0030 -0.5630
 1124SOL     OW15004   4.606   3.638   7.711  0.0090 -0.1290 -0.3928
 1124SOL    HW115005   4.602   3.581   7.788  0.6632 -0.2127 -0.4241
 1124SOL    HW215006   4.624   3.573   7.644  0.6490  0.9854 -1.2957
 1125SOL     OW15007   4.143   3.589   4.529 -0.2658  0.1436  0.0964
 1125SOL    HW115008   4.109   3.527   4.594 -5.6635 -0.1969 -2.9740
 1125SOL    HW215009   4.188   3.529   4.469  1.5173  0.4298  1.1614
 1126SOL     OW15010   0.936   0.943   8.443 -0.2866 -0.1409  0.2751
 1126SOL    HW115011   0.943   0.922   8.536  1.4410 -1.1782 -0.0914
 1126SOL    HW215012   0.973   0.865   8.402  0.7884  0.8094 -0.5896
 1127SOL     OW15013   2.011   2.702   1.864  0.3942  0.0071  0.7023
 1127SOL    HW115014   2.019   2.651   1.784  0.8798  0.5357  0.4158
 1127SOL    HW215015   1.998   2.792   1.834  0.4203 -0.1615  0.1826
 1128SOL     OW15016   2.314   0.097   7.809 -0.0095 -0.0462  0.0446
 1128SOL    HW115017   2.385   0.151   7.774 -3.1914  2.1069 -3.1315
 1128SOL    HW215018   2.268   0.056   7.735  0.4611 -0.0832 -0.2279
 1129SOL     OW15019   3.826   0.709  13.792  0.1521  0.2138  0.3436
 1129SOL    HW115020   3.788   0.726  13.878 -1.1655  2.5893 -0.7237
 1129SOL    HW215021   3.776   0.633  13.761 -0.0308  1.0742 -1.4922
 1130SOL     OW15022   3.218   4.545  13.431 -0.1712  1.0122  0.2871
 1130SOL    HW115023   3.182   4.634  13.433  0.0084  1.0750  0.6225
 1130SOL    HW215024   3.236   4.537  13.524  0.7775  1.5152  0.1421
 1131SOL     OW15025   1.683   1.984   9.414  0.0565  0.0596  0.6362
 1131SOL    HW115026   1.728   1.932   9.348  0.2856  2.6048 -1.2026
 1131SOL    HW215027   1.710   2.076   9.410 -0.4424  0.1848  0.2258
 1132SOL     OW15028   2.944   3.940   4.952  0.1809 -0.3010  0.0550
 1132SOL    HW115029   2.950   3.931   4.857 -1.7412  0.0850 -0.0934
 1132SOL    HW215030   2.868   3.994   4.971 -0.5567 -1.0540 -0.7704
 1133SOL     OW15031   1.617   1.568   3.187 -0.7625 -0.2298 -0.1880
 1133SOL    HW115032   1.537   1.523   3.162 -0.8679  1.0493 -2.1635
 1133SOL    HW215033   1.630   1.629   3.114 -1.5450  1.9326  1.4664
 1134SOL     OW15034   0.878   0.322   8.953  0.6722  0.2368 -0.0814
 1134SOL    HW115035   0.806   0.383   8.971 -0.0476 -1.3859  2.6710
 1134SOL    HW215036   0.926   0.335   9.035 -2.5173  0.4654  1.7789
 1135SOL     OW15037   1.179   0.837   5.683 -0.2361 -0.6649 -0.3580
 1135SOL    HW115038   1.180   0.778   5.608 -1.4589 -2.2329  0.8655
 1135SOL    HW215039   1.211   0.783   5.756  0.8441  0.8655  0.3032
 1136SOL     OW15040   3.836   2.466   2.412  0.3092  0.0365  0.2736
 1136SOL    HW115041   3.810   2.558   2.404  1.5012  0.3276 -0.2341
 1136SOL    HW215042   3.801   2.458   2.501  0.0970  2.8923  0.4347
 1137SOL     OW15043   4.135   3.049  12.156  0.5461  0.7349  0.0193
 1137SOL    HW115044   4.186   3.042  12.076  0.9444 -1.0885  0.4127
 1137SOL    HW215045   4.202   3.078  12.218  1.6413 -0.8124 -0.4413
 1138SOL     OW15046   3.933   1.684   6.432  0.4264 -0.0259  0.5672
 1138SOL    HW115047   3.884   1.615   6.388  1.2163  0.4370 -1.0405
 1138SOL    HW215048   3.885   1.758   6.395 -1.7191 -1.0317  1.3286
 1139SOL     OW15049   2.743   1.992   5.626 -0.1628 -0.7157 -0.0231
 1139SOL    HW115050   2.832   2.027   5.631 -0.7299  0.4801  1.5137
 1139SOL    HW215051   2.756   1.897   5.630  0.4987 -0.5836  0.8368
 1140SOL     OW15052   1.317   1.057   3.584 -0.3842 -0.2192 -0.0790
 1140SOL    HW115053   1.402   1.095   3.562  0.2118  0.3773  3.2889
 1140SOL    HW215054   1.351   1.008   3.659 -1.4207  0.8717  1.1200
 1141SOL     OW15055   2.277   3.121   1.721  0.2309 -0.2114  0.3836
 1141SOL    HW115056   2.371   3.112   1.735  0.1586 -3.1810 -0.9223
 1141SOL    HW215057   2.273   3.181   1.795 -0.7431  0.3570 -0.1341
 1142SOL     OW15058   3.224   2.477   8.249  0.1483 -0.5831 -0.1379
 1142SOL    HW115059   3.264   2.533   8.182 -1.0283  0.4640  0.0559
 1142SOL    HW215060   3.143   2.524   8.268 -0.5750 -2.1981  0.7411
 1143SOL     OW15061   0.388   0.834   7.401 -0.1529 -0.6757  0.3488
 1143SOL    HW115062   0.339   0.771   7.454 -0.4989 -0.9389 -0.2921
 1143SOL    HW215063   0.322   0.902   7.392  0.3168 -0.3825 -0.8863
 1144SOL     OW15064   3.850   2.263   2.767 -0.7722  0.4089 -0.0944
 1144SOL    HW115065   3.908   2.237   2.695 -0.1972 -0.8525  0.8126
 1144SOL    HW215066   3.791   2.320   2.718 -0.5294 -0.1233 -1.0323
 1145SOL     OW15067   1.681   1.893   7.635 -0.4270  0.2000  0.5155
 1145SOL    HW115068   1.696   1.987   7.636  2.2512 -0.2186  0.9305
 1145SOL    HW215069   1.736   1.864   7.708 -0.5314  0.2598  0.6188
 1146SOL     OW15070   4.637   1.416   6.744  0.2492 -0.5996  0.1364
 1146SOL    HW115071   4.653   1.506   6.770 -1.4211  0.3772 -2.2468
 1146SOL    HW215072   4.718   1.368   6.763 -0.2528 -1.6576 -0.3593
 1147SOL     OW15073   3.376   0.292   6.930  0.1739 -0.0169  1.4629
 1147SOL    HW115074   3.432   0.224   6.894 -0.0563 -0.8446  2.6922
 1147SOL    HW215075   3.297   0.271   6.879  0.5686  3.2279 -0.5211
 1148SOL     OW15076   0.973   0.183   8.131 -0.0043 -0.5330  0.6886
 1148SOL    HW115077   0.991   0.201   8.223 -1.8343  1.8704  0.5466
 1148SOL    HW215078   1.055   0.139   8.108 -0.1317 -0.1255 -0.5477
 1149SOL     OW15079   2.043   0.840  10.912  0.3754 -0.0242 -0.3104
 1149SOL    HW115080   2.096   0.847  10.832  0.8107  0.7155  0.0407
 1149SOL    HW215081   1.977   0.909  10.901  0.8839  0.7382  1.4338
 1150SOL     OW15082   3.255   4.576   8.192 -1.3205  0.1092  0.4115
 1150SOL    HW115083   3.190   4.572   8.122 -0.3430 -2.0343 -0.3876
 1150SOL    HW215084   3.271   4.670   8.203  0.1308 -0.3272  2.0937
 1151SOL     OW15085   1.172   0.043   5.964 -0.5751  0.3557  0.1855
 1151SOL    HW115086   1.137   4.697   5.999  0.1354  0.3745  0.9435
 1151SOL    HW215087   1.213   0.012   5.884 -1.8043 -1.1156  0.1320
 1152SOL     OW15088   0.254   0.120   7.543  0.0897 -0.1090 -0.1619
 1152SOL    HW115089   0.307   0.176   7.599  0.6284 -0.8291  0.0507
 1152SOL    HW215090   0.188   0.085   7.602  1.1978  0.2708  1.3148
 1153SOL     OW15091   1.262   2.602   7.733 -0.2082 -0.4183  0.0945
 1153SOL    HW115092   1.329   2.664   7.763 -0.7012 -0.8275  2.0519
 1153SOL    HW215093   1.201   2.669   7.701 -0.2448 -0.2070  0.6169
 1154SOL     OW15094   2.929   3.569   2.312  0.5195 -0.3552  0.0877
 1154SOL    HW115095   2.943   3.477   2.286  1.0245 -0.9431  2.4258
 1154SOL    HW215096   2.989   3.618   2.256  0.3907  0.0852  0.3431
 1155SOL     OW15097   4.254   1.013  11.769 -0.5459 -0.1449 -0.1122
 1155SOL    HW115098   4.221   1.035  11.682  0.0005 -0.1705 -0.3221
 1155SOL    HW215099   4.284   0.927  11.740  0.5024  0.1342  0.1545
 1156SOL     OW15100   3.659   1.241  15.256  0.2419  0.6045  0.0388
 1156SOL    HW115101   3.628   1.224  15.345  0.9734 -1.4013 -0.0778
 1156SOL    HW215102   3.744   1.279  15.275  0.0280  1.0959 -0.0017
 1157SOL     OW15103   1.806   0.072   3.327 -0.3978 -0.1739  1.0577
 1157SOL    HW115104   1.821   0.150   3.274 -3.5636  0.0008  0.4098
 1157SOL    HW215105   1.818   0.004   3.260  2.6887 -0.0310  1.4611
 1158SOL     OW15106   1.180   2.302   2.325 -0.1908  0.4158  0.4441
 1158SOL    HW115107   1.122   2.375   2.304 -2.0643 -1.0083  0.5879
 1158SOL    HW215108   1.210   2.273   2.240 -1.2533  1.7208 -0.3818
 1159SOL     OW15109   1.650   3.982   6.170  0.9087 -0.1718  0.7789
 1159SOL    HW115110   1.676   3.984   6.078  0.3376 -0.9764  0.6078
 1159SOL    HW215111   1.559   3.954   6.168  0.3065  1.9333 -0.7438
 1160SOL     OW15112   3.658   4.049  15.894  0.3114  0.2530 -0.3845
 1160SOL    HW115113   3.721   3.991  15.852 -0.3117 -1.2298  0.7000
 1160SOL    HW215114   3.614   3.987  15.953  0.0544 -0.7019 -1.5802
 1161SOL     OW15115   2.357   3.283   5.009  0.4838 -0.2487  0.2119
 1161SOL    HW115116   2.313   3.252   4.929 -0.7556 -1.0532  1.2013
 1161SOL    HW215117   2.293   3.256   5.074 -0.4485 -1.7344 -1.2891
 1162SOL     OW15118   2.048   2.906  15.910  0.4038 -0.5776  0.1094
 1162SOL    HW115119   2.016   2.844  15.975  1.0159 -1.0839 -0.0679
 1162SOL    HW215120   2.037   2.989  15.957 -0.9935  0.0938 -1.3763
 1163SOL     OW15121   1.771   4.222  12.035  0.2474  0.1780  0.0969
 1163SOL    HW115122   1.751   4.230  12.128 -2.0614 -0.7008 -0.3393
 1163SOL    HW215123   1.696   4.211  11.978 -0.2575 -0.0257  0.8061
 1164SOL     OW15124   0.967   0.134  15.377  0.7105 -0.3535 -0.4865
 1164SOL    HW115125   1.040   0.191  15.350  1.7042 -1.6960 -0.6088
 1164SOL    HW215126   1.007   0.075  15.441 -1.7370  0.0082  1.3919
 1165SOL     OW15127   4.565   2.540   4.305  0.3667 -0.0529 -0.3005
 1165SOL    HW115128   4.559   2.569   4.213  0.0148 -0.2367 -0.3380
 1165SOL    HW215129   4.477   2.503   4.316  0.8151 -0.5710  1.3928
 1166SOL     OW15130   1.549   1.562   7.769 -0.6935  0.7847  0.3604
 1166SOL    HW115131   1.613   1.490   7.771 -0.1392  1.2731  0.1517
 1166SOL    HW215132   1.581   1.615   7.842 -1.9513 -0.3148  1.7050
 1167SOL     OW15133   3.670   4.685   4.165 -0.0948 -0.4257 -0.7329
 1167SOL    HW115134   3.658   4.718   4.254 -0.1842 -0.8070 -0.6032
 1167SOL    HW215135   3.738   0.009   4.133  0.9690 -2.5070 -2.3921
 1168SOL     OW15136   1.324   4.695  11.198 -0.3706 -0.3996  0.2095
 1168SOL    HW115137   1.230   4.693  11.213 -0.4395 -0.8719 -0.2900
 1168SOL    HW215138   1.354   4.604  11.201 -0.2931 -0.3886 -0.1930
 1169SOL     OW15139   1.689   1.422   6.350 -0.0037 -0.1905 -0.0560
 1169SOL    HW115140   1.700   1.368   6.272  0.0878  0.1021 -0.2477
 1169SOL    HW215141   1.640   1.367   6.410 -1.3126  0.5220 -0.4528
 1170SOL     OW15142   0.701   4.472   6.067 -0.0748  0.5635 -0.1498
 1170SOL    HW115143   0.719   4.566   6.065 -2.5311  1.0580  2.5234
 1170SOL    HW215144   0.727   4.448   5.978  0.7482 -0.2484  0.3074
 1171SOL     OW15145   0.104   4.349   6.465 -0.1569  0.7472  0.3111
 1171SOL    HW115146   0.163   4.417   6.431 -0.2688 -0.5784 -2.4870
 1171SOL    HW215147   0.148   4.267   6.441 -1.7322  0.7431 -2.5324
 1172SOL     OW15148   0.083   4.539  14.183  0.1559 -0.1534  0.0273
 1172SOL    HW115149   0.115   4.451  14.205  1.3067  0.1754 -0.3310
 1172SOL    HW215150   0.053   4.521  14.093 -0.4531  1.4522 -0.0864
 1173SOL     OW15151   0.199   0.725   4.442 -0.1106  0.0841  0.4038
 1173SOL    HW115152   0.249   0.789   4.391  1.1624 -0.7705  0.5866
 1173SOL    HW215153   0.248   0.643   4.443 -0.5337 -0.1735 -1.6957
 1174SOL     OW15154   3.573   4.401   2.731 -0.1757  0.0864  0.1002
 1174SOL    HW115155   3.480   4.420   2.720  0.0556 -0.1586 -2.4041
 1174SOL    HW215156   3.601   4.383   2.641 -1.8485  1.6278 -0.7532
 1175SOL     OW15157   0.519   1.431  12.920  0.0004  0.0794  0.3233
 1175SOL    HW115158   0.505   1.394  13.007 -1.3777  0.0010  0.0673
 1175SOL    HW215159   0.477   1.514  12.939  1.1596  1.1265 -1.6326
 1176SOL     OW15160   1.315   0.010  17.005 -0.2582  0.2261  0.0137
 1176SOL    HW115161   1.373   4.673  17.025  0.4262  1.0715  1.1096
 1176SOL    HW215162   1.378   0.080  17.026  1.4890 -1.4941  0.4902
 1177SOL     OW15163   1.047   0.719   2.559  0.0044  0.6368 -0.0300
 1177SOL    HW115164   1.129   0.689   2.520 -1.1125  0.5763 -2.3422
 1177SOL    HW215165   0.990   0.731   2.483 -0.8643 -3.9145 -0.1080
 1178SOL     OW15166   2.718   2.869  16.087  0.0696  0.2361 -0.3660
 1178SOL    HW115167   2.647   2.891  16.147 -1.4735 -0.6572 -1.8427
 1178SOL    HW215168   2.681   2.896  16.003 -1.0004 -0.7144 -0.1900
 1179SOL     OW15169   3.104   0.338  15.618 -0.4644  0.4811 -0.4931
 1179SOL    HW115170   3.125   0.268  15.557 -0.7382 -0.8885  1.0067
 1179SOL    HW215171   3.146   0.310  15.699  0.7224  1.0157 -0.9164
 1180SOL     OW15172   0.322   0.788   8.471 -0.2096 -0.1506 -0.0212
 1180SOL    HW115173   0.262   0.796   8.397 -0.4783 -3.8979 -0.1947
 1180SOL    HW215174   0.292   0.864   8.522 -2.0561 -2.2470  2.0890
 1181SOL     OW15175   2.710   3.250  16.632  0.3805  0.3201  0.4585
 1181SOL    HW115176   2.618   3.272  16.648  0.2140  0.3889 -0.6122
 1181SOL    HW215177   2.726   3.188  16.703  0.8811  2.2454  2.0431
 1182SOL     OW15178   0.207   3.074   3.971 -0.3145 -0.2600 -0.2427
 1182SOL    HW115179   0.134   3.078   3.909 -0.1776 -0.6291 -0.4268
 1182SOL    HW215180   0.227   2.983   3.952  2.8677  0.2835  0.4809
 1183SOL     OW15181   4.715   0.851   8.943  0.3289 -0.2061 -0.0556
 1183SOL    HW115182   4.642   0.817   8.994 -0.4555  0.0700 -1.0019
 1183SOL    HW215183   4.687   0.831   8.854 -1.1506 -1.2794  0.6475
 1184SOL     OW15184   4.441   1.895   0.310  0.3878  0.3763  0.1462
 1184SOL    HW115185   4.392   1.969   0.344  0.3892 -0.5454  2.1157
 1184SOL    HW215186   4.389   1.870   0.233  0.8687 -1.0555  0.2936
 1185SOL     OW15187   3.022   0.915  13.499  0.3215  0.1845 -0.1317
 1185SOL    HW115188   2.984   0.831  13.472  2.5429 -1.0389  0.5368
 1185SOL    HW215189   3.096   0.922  13.438 -0.4685 -0.6001 -1.1694
 1186SOL     OW15190   0.136   4.048   4.346 -0.6178  0.5312 -0.1646
 1186SOL    HW115191   0.223   4.008   4.336 -1.3461 -0.8509 -1.0052
 1186SOL    HW215192   0.081   3.977   4.380  1.2981 -1.5327 -1.3664
 1187SOL     OW15193   0.076   1.776  12.930 -0.1826 -0.0607 -0.2355
 1187SOL    HW115194   0.093   1.870  12.919 -0.8101  0.3220  2.0965
 1187SOL    HW215195   4.722   1.772  12.899 -0.5745  1.5151  0.7145
 1188SOL     OW15196   3.513   0.065  12.005  0.3214  0.5756  0.0158
 1188SOL    HW115197   3.418   0.055  12.006  0.2582  0.8977 -1.8611
 1188SOL    HW215198   3.535   0.002  11.936 -1.2267 -0.5528  0.5769
 1189SOL     OW15199   2.763   1.352  12.693  0.0567  0.2424 -0.3445
 1189SOL    HW115200   2.780   1.421  12.757  0.4249 -1.3957  1.3316
 1189SOL    HW215201   2.668   1.366  12.687  0.0781 -0.3378 -1.9741
 1190SOL     OW15202   2.009   4.549   7.579 -0.1797  0.2374  0.1146
 1190SOL    HW115203   1.931   4.504   7.611  0.4006  0.2269  1.5443
 1190SOL    HW215204   2.010   4.621   7.642  2.0274 -1.4875  2.0752
 1191SOL     OW15205   2.499   2.482   0.283 -0.0095  0.2316  0.2027
 1191SOL    HW115206   2.498   2.486   0.188  1.1535 -4.1925  0.0055
 1191SOL    HW215207   2.540   2.397   0.298  0.0731  0.3123  0.4491
 1192SOL     OW15208   0.077   0.818   5.075 -0.5356 -0.0400 -0.1849
 1192SOL    HW115209   0.172   0.821   5.063 -0.5083 -1.4010 -0.2865
 1192SOL    HW215210   0.052   0.908   5.051  1.5638  0.3450 -0.9052
 1193SOL     OW15211   0.618   0.852   2.677  0.1188  0.0370 -0.3716
 1193SOL    HW115212   0.610   0.769   2.630  2.0464 -0.8711  0.8839
 1193SOL    HW215213   0.713   0.854   2.688  0.3390 -1.8463 -1.9658
 1194SOL     OW15214   1.391   2.324  14.862 -0.2320 -0.0832 -0.1204
 1194SOL    HW115215   1.339   2.245  14.876 -0.4712  0.0763 -0.1102
 1194SOL    HW215216   1.456   2.303  14.930  0.2429  2.3258  0.1647
 1195SOL     OW15217   2.771   2.548   1.872 -0.1203  0.3074 -0.1013
 1195SOL    HW115218   2.846   2.590   1.830 -0.0187  0.9934  0.7599
 1195SOL    HW215219   2.811   2.463   1.890 -0.2149  0.2795 -0.0217
 1196SOL     OW15220   0.773   2.900   4.160  0.0909  0.0656  0.4058
 1196SOL    HW115221   0.820   2.920   4.241 -4.2950  0.8178  2.7763
 1196SOL    HW215222   0.773   2.805   4.163  1.4682 -0.0143 -2.2086
 1197SOL     OW15223   2.104   4.020   3.399 -0.5775  0.1737  0.4469
 1197SOL    HW115224   2.111   4.112   3.423 -0.1603  0.5219 -1.0035
 1197SOL    HW215225   2.012   4.008   3.422 -1.0695 -1.0865 -2.1108
 1198SOL     OW15226   1.436   0.489   4.315  0.2072 -0.2923 -0.2630
 1198SOL    HW115227   1.349   0.508   4.352  0.7492  1.1517  0.2697
 1198SOL    HW215228   1.477   0.445   4.390 -0.0612  0.8552  0.5550
 1199SOL     OW15229   0.700   0.808   8.894  0.5976  0.4022 -0.4843
 1199SOL    HW115230   0.614   0.813   8.936  1.4258  0.5937  1.1820
 1199SOL    HW215231   0.683   0.862   8.818 -0.0684  1.7681  0.6394
 1200SOL     OW15232   4.382   2.982  14.018 -0.1313 -0.0477 -0.1500
 1200SOL    HW115233   4.287   2.987  14.001  0.0172 -0.7015 -1.1821
 1200SOL    HW215234   4.401   2.898  13.975 -1.3694  0.3118 -1.4189
 1201SOL     OW15235   2.720   2.529   7.278 -0.0917  0.3568 -0.6667
 1201SOL    HW115236   2.641   2.495   7.319 -1.3110  0.8334 -2.6072
 1201SOL    HW215237   2.780   2.545   7.351  0.1203 -0.4378 -0.6647
 1202SOL     OW15238   4.596   4.370   1.931 -0.0679  0.2221 -0.3953
 1202SOL    HW115239   4.614   4.462   1.912 -2.2757  1.0718  1.5920
 1202SOL    HW215240   4.535   4.348   1.860 -2.0060  1.6268  0.8121
 1203SOL     OW15241   0.857   1.105   6.838  0.4922  0.0344  0.6400
 1203SOL    HW115242   0.881   1.165   6.767 -0.4314  0.8556  1.0357
 1203SOL    HW215243   0.763   1.103   6.825  0.6268  1.2003 -0.4713
 1204SOL     OW15244   3.275   3.037   2.972  0.3417 -0.3859 -0.4570
 1204SOL    HW115245   3.255   2.966   3.033 -1.3746 -0.3447 -0.9652
 1204SOL    HW215246   3.213   3.027   2.900  0.6772 -1.8492 -0.5471
 1205SOL     OW15247   0.752   2.489  17.309 -0.4910 -0.9254  0.0193
 1205SOL    HW115248   0.793   2.412  17.349  0.9592 -0.6865 -1.0023
 1205SOL    HW215249   0.708   2.529  17.384 -2.3967 -1.3512 -0.8800
 1206SOL     OW15250   1.547   0.548   2.583 -0.1431  0.4904  0.1214
 1206SOL    HW115251   1.466   0.597   2.573 -0.9710 -1.3386 -2.1873
 1206SOL    HW215252   1.557   0.554   2.678  0.7993 -1.7949  0.1925
 1207SOL     OW15253   4.311   4.055  15.222 -0.3095  0.6068 -0.0832
 1207SOL    HW115254   4.312   4.128  15.161  2.0276  1.4201  0.9292
 1207SOL    HW215255   4.258   3.988  15.178  0.6340 -1.3712  1.7406
 1208SOL     OW15256   3.722   0.716   2.921 -0.4271  0.2032 -0.3576
 1208SOL    HW115257   3.807   0.700   2.961 -0.1137 -0.3832 -1.2667
 1208SOL    HW215258   3.688   0.630   2.946  1.0561 -1.0358 -2.6563
 1209SOL     OW15259   2.396   3.160  15.109 -0.3280 -0.7353  0.3897
 1209SOL    HW115260   2.471   3.181  15.054  0.2009 -0.9572  1.0248
 1209SOL    HW215261   2.353   3.245  15.113 -0.1644 -0.6225 -0.2597
 1210SOL     OW15262   3.285   1.310   7.503 -0.2405 -0.1336  0.3563
 1210SOL    HW115263   3.338   1.348   7.573 -0.5854  0.5118  0.2639
 1210SOL    HW215264   3.348   1.309   7.431 -0.8203  0.4971 -0.1511
 1211SOL     OW15265   3.053   2.362  12.937  0.3946 -0.0062 -0.2258
 1211SOL    HW115266   3.047   2.326  13.025  0.4362 -2.0402 -1.0621
 1211SOL    HW215267   2.965   2.354  12.902  1.4372  0.4331 -2.9221
 1212SOL     OW15268   2.654   1.108  14.298  0.1297  0.8182  0.6632
 1212SOL    HW115269   2.750   1.108  14.299  0.1651 -2.6028 -2.6760
 1212SOL    HW215270   2.635   1.193  14.338 -3.1804 -0.3407  1.5629
 1213SOL     OW15271   0.563   2.748   8.843 -0.4378 -0.0549 -0.1289
 1213SOL    HW115272   0.525   2.827   8.881  1.7168  1.1124 -0.4352
 1213SOL    HW215273   0.485   2.709   8.803 -1.2713 -0.8141  2.2031
 1214SOL     OW15274   3.532   2.323   7.591  0.4131 -0.1149  0.4959
 1214SOL    HW115275   3.513   2.230   7.601  2.5621 -0.2664  3.1154
 1214SOL    HW215276   3.626   2.321   7.608  0.3173  0.1443  1.0837
 1215SOL     OW15277   3.856   0.959  13.675  0.2872  0.2266  0.5024
 1215SOL    HW115278   3.846   0.887  13.737  2.3261 -1.1702 -0.7895
 1215SOL    HW215279   3.766   0.981  13.651  0.2287 -1.2829 -0.6144
 1216SOL     OW15280   1.228   0.701  13.360  0.1317 -0.5077  0.3063
 1216SOL    HW115281   1.223   0.738  13.272 -1.4651  1.7883  1.3820
 1216SOL    HW215282   1.187   0.766  13.417 -1.2510  0.0216 -1.2885
 1217SOL     OW15283   4.423   1.065   1.153  0.1411 -0.2559  0.2428
 1217SOL    HW115284   4.330   1.085   1.144  0.2027  0.2133  0.6665
 1217SOL    HW215285   4.431   0.978   1.193 -0.1478 -0.0554  0.7297
 1218SOL     OW15286   1.175   0.893   8.117  0.4939  0.4175 -0.2373
 1218SOL    HW115287   1.131   0.938   8.045 -0.2026  1.5989  0.9388
 1218SOL    HW215288   1.105   0.881   8.181  0.6781  0.8436  0.0462
 1219SOL     OW15289   0.894   2.832   3.401 -0.5556 -0.0583  0.4275
 1219SOL    HW115290   0.891   2.850   3.495 -2.0613  0.7461  0.2315
 1219SOL    HW215291   0.989   2.819   3.402 -0.4364  0.7904 -0.2232
 1220SOL     OW15292   3.418   3.957   1.031 -0.4000  0.1118  0.0868
 1220SOL    HW115293   3.390   4.041   0.993  2.0755  2.0050  2.4337
 1220SOL    HW215294   3.443   3.904   0.955  0.9768 -0.2224  0.7681
 1221SOL     OW15295   0.231   4.596   9.086  0.4552 -0.6634  0.4750
 1221SOL    HW115296   0.197   4.679   9.053  2.0015 -0.9406 -1.8841
 1221SOL    HW215297   0.279   4.574   9.005 -0.9746 -1.5081 -0.1398
 1222SOL     OW15298   2.511   1.993   0.441 -0.3700  0.3138  0.2291
 1222SOL    HW115299   2.475   1.972   0.527 -0.0807  1.6125  0.6648
 1222SOL    HW215300   2.504   1.908   0.399 -1.3508 -0.2024  1.4310
 1223SOL     OW15301   4.245   1.659   0.529 -0.0228  0.2734 -0.3225
 1223SOL    HW115302   4.180   1.608   0.481 -0.4196  1.1064 -0.6619
 1223SOL    HW215303   4.328   1.617   0.505 -0.2531 -1.8922  2.5554
 1224SOL     OW15304   4.492   0.300   8.801  0.0579  0.5111  0.1731
 1224SOL    HW115305   4.572   0.339   8.834  0.5422  0.3506 -0.8243
 1224SOL    HW215306   4.438   0.379   8.805  1.3352  1.4700 -1.9472
 1225SOL     OW15307   4.457   4.424  13.726 -0.1407 -0.0443  0.0783
 1225SOL    HW115308   4.503   4.340  13.733 -2.5040 -1.3023  0.5362
 1225SOL    HW215309   4.362   4.408  13.728 -0.2040  0.7934  2.4634
 1226SOL     OW15310   2.029   2.736   7.589  0.1385  0.3436  0.8550
 1226SOL    HW115311   1.984   2.820   7.596  0.2749  0.5745 -1.0809
 1226SOL    HW215312   2.049   2.740   7.683  0.8661 -0.6530  0.7355
 1227SOL     OW15313   2.554   1.772   0.743 -0.0266  0.1835 -0.3204
 1227SOL    HW115314   2.589   1.689   0.776  0.6720  0.2180 -0.9769
 1227SOL    HW215315   2.623   1.796   0.682  0.1822  1.3055  0.3553
 1228SOL     OW15316   1.149   3.802  11.553 -0.1837  0.7932 -0.0223
 1228SOL    HW115317   1.056   3.810  11.575 -0.1117  1.0493  0.1950
 1228SOL    HW215318   1.150   3.720  11.505  1.2481  0.4447  0.6069
 1229SOL     OW15319   0.123   3.845   8.369 -0.2710 -0.2029 -0.4359
 1229SOL    HW115320   0.178   3.913   8.329 -0.3345  0.1282  0.0364
 1229SOL    HW215321   0.039   3.860   8.326 -0.1602 -1.2985 -1.0094
 1230SOL     OW15322   2.088   2.002   5.504  0.1191 -0.0073 -0.5450
 1230SOL    HW115323   2.077   1.977   5.595  1.0183  0.6187 -0.2683
 1230SOL    HW215324   2.006   1.964   5.473 -0.2370 -0.1142  0.5347
 1231SOL     OW15325   4.573   4.511   5.119  0.2689  0.1873  0.0760
 1231SOL    HW115326   4.616   4.562   5.050 -1.3495  1.6739  0.1731
 1231SOL    HW215327   4.543   4.573   5.185  0.6905  2.4332 -1.8574
 1232SOL     OW15328   0.520   4.675   5.076 -0.1202  0.2417 -0.3242
 1232SOL    HW115329   0.577   4.633   5.140 -2.2598  0.4078  1.6704
 1232SOL    HW215330   0.443   4.621   5.095 -0.8438  1.1377 -0.7146
 1233SOL     OW15331   0.435   0.899   9.303 -0.3534 -0.4059  0.2830
 1233SOL    HW115332   0.442   0.811   9.341  2.4557  0.1352  1.0811
 1233SOL    HW215333   0.342   0.906   9.283 -0.3532  2.2220  1.1815
 1234SOL     OW15334   2.297   1.577   2.277  0.1976  0.4161  0.1218
 1234SOL    HW115335   2.347   1.653   2.306 -0.8085  0.4897  1.6449
 1234SOL    HW215336   2.204   1.600   2.277 -0.2140 -1.3592  3.1206
 1235SOL     OW15337   3.676   3.867   6.006 -0.0266  0.1662  0.3896
 1235SOL    HW115338   3.751   3.820   5.971  0.2693  0.1476  1.0432
 1235SOL    HW215339   3.623   3.795   6.042  1.5149 -0.5947  1.1477
 1236SOL     OW15340   1.583   3.445   6.683 -0.2182 -0.2169 -0.3760
 1236SOL    HW115341   1.666   3.427   6.727 -1.7438  1.0999  2.9674
 1236SOL    HW215342   1.607   3.467   6.592 -3.9370  1.5084 -0.9255
 1237SOL     OW15343   0.812   2.943   2.963 -0.4644 -0.1055 -0.4865
 1237SOL    HW115344   0.866   3.006   2.916  0.1658  2.1993  3.3980
 1237SOL    HW215345   0.752   2.916   2.893 -3.1595 -0.2425  1.8829
 1238SOL     OW15346   2.013   4.314   4.389  0.7055  0.1806  0.5665
 1238SOL    HW115347   1.947   4.325   4.321  0.7215  1.6728  0.7984
 1238SOL    HW215348   1.960   4.277   4.459  4.1340  0.2490  3.1591
 1239SOL     OW15349   1.873   2.783   3.094 -0.3510 -0.2621  0.0277
 1239SOL    HW115350   1.806   2.715   3.101  2.8125 -3.0356  3.3301
 1239SOL    HW215351   1.831   2.844   3.153  1.0232 -0.0215  0.7653
 1240SOL     OW15352   1.518   2.510   8.081  0.2027 -0.2529 -0.3666
 1240SOL    HW115353   1.505   2.568   8.155  1.2056 -1.0165  0.4068
 1240SOL    HW215354   1.430   2.478   8.059  0.8048 -1.3079 -1.2822
 1241SOL     OW15355   1.034   2.615   2.006  0.1264 -0.1034  0.1390
 1241SOL    HW115356   1.129   2.628   2.007 -0.0171  1.0643 -1.2664
 1241SOL    HW215357   1.029   2.525   1.974  0.7777 -0.6908  1.6987
 1242SOL     OW15358   1.694   4.368  12.586  0.3484 -0.6643  0.4921
 1242SOL    HW115359   1.779   4.370  12.543  0.5471  0.9137  0.9675
 1242SOL    HW215360   1.669   4.453  12.621 -0.8428 -0.6061 -0.4803
 1243SOL     OW15361   1.345   1.519  16.948 -0.1861  0.1031 -0.1262
 1243SOL    HW115362   1.375   1.600  16.908  0.3966 -0.2316 -0.3645
 1243SOL    HW215363   1.412   1.455  16.924  1.0069  0.8393  1.2407
 1244SOL     OW15364   1.581   1.551  15.611  0.0158 -0.3300 -0.5379
 1244SOL    HW115365   1.573   1.538  15.705 -1.5456  1.3450 -0.4307
 1244SOL    HW215366   1.518   1.493  15.568  1.5483 -0.5291 -2.4960
 1245SOL     OW15367   2.137   2.255   6.123 -0.0731  0.2566 -0.1426
 1245SOL    HW115368   2.063   2.233   6.180  1.4052 -3.0569  0.4800
 1245SOL    HW215369   2.193   2.181   6.146  1.7164  2.1626  1.6806
 1246SOL     OW15370   0.172   1.452  15.054 -1.0200  0.0047 -0.2008
 1246SOL    HW115371   0.191   1.420  14.966  0.4624 -1.4199  0.6208
 1246SOL    HW215372   0.080   1.433  15.070 -1.6382  1.8284 -1.6422
 1247SOL     OW15373   2.304   1.290  14.856 -0.2587  0.0450  0.6135
 1247SOL    HW115374   2.370   1.346  14.896  1.4563 -0.8627 -0.9773
 1247SOL    HW215375   2.284   1.220  14.919  1.7757 -0.3400  0.8347
 1248SOL     OW15376   0.466   0.375   8.849  0.2579 -0.2307  0.3418
 1248SOL    HW115377   0.503   0.298   8.804  1.9620  0.9914 -0.3577
 1248SOL    HW215378   0.458   0.438   8.778 -1.4062 -0.3982  0.3806
 1249SOL     OW15379   3.367   2.028   6.604 -0.4886  0.7022 -0.4238
 1249SOL    HW115380   3.323   1.952   6.567 -1.8450  2.3028 -2.0953
 1249SOL    HW215381   3.330   2.100   6.554 -1.3605 -0.5109 -1.5307
 1250SOL     OW15382   0.128   3.455  16.135  0.7315  0.4571 -0.3076
 1250SOL    HW115383   0.132   3.548  16.114  0.7519  0.0564 -2.0797
 1250SOL    HW215384   0.142   3.422  16.046  0.2895 -0.4725 -0.0403
 1251SOL     OW15385   3.980   2.997   2.687 -0.4575 -0.1161 -0.4005
 1251SOL    HW115386   3.956   3.040   2.605 -0.6220 -0.7378 -0.6859
 1251SOL    HW215387   4.048   3.058   2.713 -0.0025 -1.7388  2.3030
 1252SOL     OW15388   0.070   0.465  12.362 -0.2979  0.1340  0.4968
 1252SOL    HW115389   0.128   0.514  12.304 -0.1143 -0.0277  0.5435
 1252SOL    HW215390   0.121   0.447  12.441  0.7724  0.1759 -0.1957
 1253SOL     OW15391   1.170   0.973   3.339 -0.0271  0.2073  0.3261
 1253SOL    HW115392   1.199   0.979   3.430 -0.6137 -1.6581  0.6548
 1253SOL    HW215393   1.129   0.886   3.337 -1.5682  0.9036  2.6767
 1254SOL     OW15394   2.138   2.696  12.763 -0.9092 -0.9986 -0.0933
 1254SOL    HW115395   2.182   2.729  12.841 -0.5410 -0.8685 -0.3556
 1254SOL    HW215396   2.064   2.650  12.802 -0.0328 -1.3088  1.1893
 1255SOL     OW15397   4.558   1.406   4.019  0.3238 -0.1197  0.2866
 1255SOL    HW115398   4.613   1.484   4.021 -1.3965  1.1081 -1.0128
 1255SOL    HW215399   4.625   1.338   4.010  1.5725  1.3934 -1.8265
 1256SOL     OW15400   2.261   3.109   7.528 -0.0220 -0.1339  0.0157
 1256SOL    HW115401   2.254   3.106   7.432  0.4419  3.1538 -0.1145
 1256SOL    HW215402   2.272   3.015   7.538  0.4464 -0.0678  0.1081
 1257SOL     OW15403   3.787   1.729  12.210 -0.0552  0.2457 -0.5406
 1257SOL    HW115404   3.833   1.790  12.153 -0.7356 -0.9705 -2.4204
 1257SOL    HW215405   3.858   1.669  12.233 -0.6715  0.4073  1.7756
 1258SOL     OW15406   1.834   2.530   3.915  0.3854  0.1005 -0.3997
 1258SOL    HW115407   1.842   2.461   3.981 -1.5526 -1.0953 -1.4469
 1258SOL    HW215408   1.872   2.607   3.958 -0.6606 -0.8453  2.2027
 1259SOL     OW15409   4.691   0.692   6.087  0.0139  0.4589 -0.0961
 1259SOL    HW115410   4.736   0.714   6.006 -1.6013  0.8106 -0.9170
 1259SOL    HW215411   4.633   0.622   6.056  2.2947 -1.2076 -0.5646
 1260SOL     OW15412   2.910   4.484   6.899 -0.5533  0.6595 -0.2105
 1260SOL    HW115413   2.977   4.533   6.946  0.1080  0.4196 -0.9063
 1260SOL    HW215414   2.860   4.548   6.849 -3.0207 -0.0089  1.4163
 1261SOL     OW15415   4.006   2.380   6.356 -0.0942 -0.0595  0.0570
 1261SOL    HW115416   3.963   2.383   6.271 -0.2360  1.7292  0.2082
 1261SOL    HW215417   3.946   2.423   6.416  0.7479 -1.0662  1.6350
 1262SOL     OW15418   2.690   0.310   9.831  0.2374 -0.5905 -0.2725
 1262SOL    HW115419   2.697   0.403   9.854  0.2986 -0.0305 -2.5046
 1262SOL    HW215420   2.777   0.273   9.849  1.3259  1.3449 -1.5117
 1263SOL     OW15421   3.018   0.900   6.671  0.3722 -0.4610 -0.7046
 1263SOL    HW115422   3.100   0.948   6.658  0.1274  0.1972  0.2089
 1263SOL    HW215423   3.017   0.884   6.765  2.7386 -0.6392 -0.7169
 1264SOL     OW15424   2.292   3.720   3.295 -0.5570  0.9030 -0.0786
 1264SOL    HW115425   2.378   3.763   3.296  0.0867 -0.3928  1.4399
 1264SOL    HW215426   2.316   3.627   3.298  1.3273  1.4019  0.3735
 1265SOL     OW15427   2.321   4.308   2.082  0.1166 -0.1413 -0.0577
 1265SOL    HW115428   2.351   4.391   2.119  0.0764 -0.5038  0.7878
 1265SOL    HW215429   2.237   4.332   2.042 -0.0516 -1.7801 -0.6862
 1266SOL     OW15430   2.996   3.480  17.470  0.3928 -0.6489 -0.2567
 1266SOL    HW115431   2.971   3.388  17.480  0.0696 -0.3557  1.6968
 1266SOL    HW215432   2.925   3.520  17.520 -1.5589 -1.3529 -2.4476
 1267SOL     OW15433   4.576   1.058   8.724 -0.3565  0.4028 -0.3666
 1267SOL    HW115434   4.504   1.004   8.691  0.3832  0.5699 -2.2343
 1267SOL    HW215435   4.537   1.144   8.710  0.0692  0.7224  0.4026
 1268SOL     OW15436   3.624   2.300   6.333  0.2907  0.5874  0.2036
 1268SOL    HW115437   3.642   2.252   6.414  2.5843 -1.0332 -1.2509
 1268SOL    HW215438   3.704   2.352   6.325 -0.1013  0.6214 -3.3969
 1269SOL     OW15439   3.249   2.474   7.420  0.5308  0.5049 -0.6511
 1269SOL    HW115440   3.317   2.420   7.379 -0.0090 -2.2509  2.0701
 1269SOL    HW215441   3.280   2.481   7.511  0.9886 -0.8238 -0.7014
 1270SOL     OW15442   2.807   2.504   1.228  0.1157  0.0075 -0.4773
 1270SOL    HW115443   2.719   2.476   1.202  1.0710 -2.0187 -1.5184
 1270SOL    HW215444   2.826   2.577   1.169 -1.6081  2.3800  1.9100
 1271SOL     OW15445   4.165   0.762   8.876 -0.0954  0.0811 -0.0055
 1271SOL    HW115446   4.157   0.790   8.785 -0.1356  0.1925  0.0327
 1271SOL    HW215447   4.076   0.740   8.906 -0.1802 -0.6513 -0.7791
 1272SOL     OW15448   4.635   1.087   0.975  0.1026  0.0050  0.5107
 1272SOL    HW115449   4.569   1.128   1.031 -0.0950  2.5941 -1.5878
 1272SOL    HW215450   4.662   1.013   1.029 -1.3673 -0.8970  0.0231
 1273SOL     OW15451   1.094   0.976   6.130 -0.7890 -0.1887  0.0822
 1273SOL    HW115452   1.188   0.979   6.114 -1.2885  1.4086 -2.6101
 1273SOL    HW215453   1.056   0.944   6.048  0.0075  0.8163 -0.6725
 1274SOL     OW15454   3.198   1.920   0.413  0.0378 -0.4615 -0.2465
 1274SOL    HW115455   3.197   1.994   0.474 -2.3753 -0.0552 -0.7601
 1274SOL    HW215456   3.118   1.940   0.365 -0.2231 -1.5339 -0.2401
 1275SOL     OW15457   1.026   4.194   9.570 -0.1856 -0.0408  0.5310
 1275SOL    HW115458   1.029   4.100   9.587 -1.2355 -0.2595 -0.4589
 1275SOL    HW215459   1.102   4.226   9.618  0.7272 -1.7878  0.2447
 1276SOL     OW15460   3.762   0.693   0.362 -0.5357 -0.1220  0.0305
 1276SOL    HW115461   3.730   0.674   0.274  0.3011 -0.7396 -0.1317
 1276SOL    HW215462   3.832   0.628   0.371  0.5643  1.1990  1.1296
 1277SOL     OW15463   0.746   2.022   3.281  0.5442  0.1134  0.1045
 1277SOL    HW115464   0.795   2.026   3.363  1.1012 -1.3490 -0.1670
 1277SOL    HW215465   0.726   2.116   3.285 -0.6496 -0.2599  2.9116
 1278SOL     OW15466   4.573   4.328   6.547  0.2062 -0.6634 -0.5821
 1278SOL    HW115467   4.584   4.371   6.632 -3.6752  0.0715 -0.4636
 1278SOL    HW215468   4.656   4.356   6.506  1.2059 -1.5982  0.8067
 1279SOL     OW15469   0.799   1.032   7.111  0.0859 -0.3701  0.1040
 1279SOL    HW115470   0.809   0.937   7.108 -0.0623 -0.4337  1.4628
 1279SOL    HW215471   0.835   1.050   7.024  0.3561 -3.1823 -0.3619
 1280SOL     OW15472   3.438   2.167  17.641  0.4119 -0.3056 -0.1826
 1280SOL    HW115473   3.391   2.250  17.633 -0.7813 -0.9329  0.4210
 1280SOL    HW215474   3.530   2.191  17.627  0.2597  1.0267  1.0879
 1281SOL     OW15475   2.305   0.712   3.057  0.0442 -0.3487  0.1333
 1281SOL    HW115476   2.261   0.776   3.113  0.7954 -0.4036  0.7931
 1281SOL    HW215477   2.257   0.720   2.975  2.1050 -2.1276 -1.2463
 1282SOL     OW15478   3.502   3.801  17.238 -0.0634 -0.0978  0.3343
 1282SOL    HW115479   3.549   3.865  17.292  2.2936  0.5620 -2.4554
 1282SOL    HW215480   3.455   3.750  17.304 -0.2877 -0.6762 -0.2741
 1283SOL     OW15481   3.747   0.655  12.851 -0.2117  0.0962  0.4939
 1283SOL    HW115482   3.777   0.691  12.767 -3.4840 -0.5193 -0.9623
 1283SOL    HW215483   3.718   0.570  12.817  2.0390  0.0778 -1.4044
 1284SOL     OW15484   1.891   4.648   8.651 -0.2911 -0.8735 -0.3508
 1284SOL    HW115485   1.939   4.568   8.671 -2.4156 -2.0873 -0.0967
 1284SOL    HW215486   1.878   4.679   8.740 -3.5856 -0.5108 -0.9631
 1285SOL     OW15487   4.461   1.476   3.134 -0.3613  0.3552 -0.1095
 1285SOL    HW115488   4.505   1.394   3.156 -0.5474  0.2455 -0.1374
 1285SOL    HW215489   4.519   1.517   3.070 -0.9182 -0.2434 -0.9950
 1286SOL     OW15490   2.262   2.636   9.078  0.4045 -0.1225 -0.1931
 1286SOL    HW115491   2.232   2.614   9.166  0.6308  2.1394  0.4543
 1286SOL    HW215492   2.352   2.667   9.089  0.2477  0.0010  0.7057
 1287SOL     OW15493   0.172   0.175  12.218  0.4514  0.3186 -0.0907
 1287SOL    HW115494   0.246   0.236  12.217  2.8965 -2.6659  1.8961
 1287SOL    HW215495   0.181   0.128  12.300  1.7318 -0.7816 -0.8685
 1288SOL     OW15496   0.809   2.857   8.318  0.2137  0.2453 -0.1307
 1288SOL    HW115497   0.758   2.922   8.268  1.1673  0.2465 -1.0996
 1288SOL    HW215498   0.887   2.909   8.338  1.0771 -1.1145  0.0633
 1289SOL     OW15499   0.944   3.678   4.986 -0.0299  0.0111 -0.3917
 1289SOL    HW115500   0.936   3.683   5.081  1.8408 -2.4593 -0.1120
 1289SOL    HW215501   0.861   3.639   4.960  1.7352 -0.4142 -5.5511
 1290SOL     OW15502   3.274   1.965   8.089 -0.1260  0.1801  0.1320
 1290SOL    HW115503   3.248   2.044   8.137 -0.1987 -0.7579  1.6530
 1290SOL    HW215504   3.369   1.968   8.104 -0.0958 -0.2401  0.0117
 1291SOL     OW15505   2.656   2.003  15.730 -0.1725 -0.2413  0.5630
 1291SOL    HW115506   2.657   1.932  15.795 -1.3990  0.6777  1.5817
 1291SOL    HW215507   2.656   2.075  15.793 -0.8146 -1.1734  1.6467
 1292SOL     OW15508   2.079   2.074   5.859  0.2647 -0.1057  0.0253
 1292SOL    HW115509   2.026   2.109   5.930  0.1030  0.6298 -0.4591
 1292SOL    HW215510   2.122   2.011   5.917 -0.4544 -1.3548 -0.8374
 1293SOL     OW15511   4.118   0.786   8.024 -0.3146 -0.3992  0.5130
 1293SOL    HW115512   4.097   0.693   8.009 -1.9394  0.2593 -1.3503
 1293SOL    HW215513   4.213   0.780   8.032 -0.2105  1.3564  0.6406
 1294SOL     OW15514   4.409   3.991   8.311  0.4510 -1.0210  0.4387
 1294SOL    HW115515   4.390   4.077   8.275 -2.6143 -1.2521  1.5565
 1294SOL    HW215516   4.378   3.997   8.401 -3.5112  0.2414 -1.0100
 1295SOL     OW15517   1.118   0.673   8.796  0.1625 -0.3003 -0.5668
 1295SOL    HW115518   1.146   0.610   8.863  1.6688 -0.6286 -1.5245
 1295SOL    HW215519   1.201   0.718   8.782  0.2379 -0.5546 -0.9486
 1296SOL     OW15520   0.886   2.113   1.549 -0.5086  0.4936  0.1793
 1296SOL    HW115521   0.979   2.115   1.528 -0.3284 -1.4399  0.7710
 1296SOL    HW215522   0.848   2.145   1.467 -1.4118  2.6948  1.4598
 1297SOL     OW15523   0.599   1.353   3.917 -0.2523  0.5326  0.4706
 1297SOL    HW115524   0.673   1.364   3.858 -0.7479  0.4091 -0.1736
 1297SOL    HW215525   0.540   1.428   3.910 -0.4710  0.6435  3.3110
 1298SOL     OW15526   0.883   2.918   9.374 -0.6867  0.6809 -0.3182
 1298SOL    HW115527   0.894   2.956   9.286  1.4117 -1.0471 -0.7993
 1298SOL    HW215528   0.791   2.892   9.379 -0.3657 -0.5176 -0.6431
 1299SOL     OW15529   1.927   4.471   3.608  0.1911  0.3807 -0.1650
 1299SOL    HW115530   1.856   4.493   3.668  1.0094 -0.0656  0.9745
 1299SOL    HW215531   1.871   4.428   3.544  0.2148  0.4384 -0.2242
 1300SOL     OW15532   3.221   0.386   2.771 -0.0868 -0.2433 -0.0692
 1300SOL    HW115533   3.176   0.306   2.744  0.9701 -0.4411 -1.1906
 1300SOL    HW215534   3.270   0.357   2.848 -0.8780  1.5755  1.1155
 1301SOL     OW15535   2.353   0.938  16.890  0.2772 -0.2440 -0.7453
 1301SOL    HW115536   2.417   1.008  16.898  1.0647 -1.0448 -0.0467
 1301SOL    HW215537   2.301   0.972  16.817  0.5291 -1.2943 -1.4204
 1302SOL     OW15538   4.517   4.221  16.306 -0.3682 -0.1840  0.2659
 1302SOL    HW115539   4.472   4.203  16.224 -1.5571 -2.2205  1.3656
 1302SOL    HW215540   4.602   4.181  16.285 -0.5915 -0.5517  0.0653
 1303SOL     OW15541   4.716   4.235   0.590  0.2669 -0.4887 -0.0327
 1303SOL    HW115542   4.632   4.280   0.600  1.8764  2.0422  2.1434
 1303SOL    HW215543   4.730   4.213   0.683  0.2860 -3.3614 -0.6968
 1304SOL     OW15544   3.460   3.750   6.195  0.1263 -0.1558 -0.0595
 1304SOL    HW115545   3.417   3.676   6.152 -1.3684 -0.6153  2.2740
 1304SOL    HW215546   3.470   3.714   6.283  1.5071  3.3492  1.2031
 1305SOL     OW15547   4.342   4.129   1.136 -0.1868  0.4909  0.1010
 1305SOL    HW115548   4.339   4.116   1.041  1.2034 -2.7889  0.4869
 1305SOL    HW215549   4.249   4.117   1.158 -0.3469  0.7272 -0.4492
 1306SOL     OW15550   0.636   2.254   3.239  0.2923  0.2418  0.1703
 1306SOL    HW115551   0.572   2.272   3.307 -0.7658 -1.4985 -0.3570
 1306SOL    HW215552   0.578   2.222   3.170  1.7936  0.4753 -1.2253
 1307SOL     OW15553   2.721   4.125   5.170 -0.7638  0.6528 -0.5312
 1307SOL    HW115554   2.662   4.117   5.094  2.3596  0.0442 -2.8895
 1307SOL    HW215555   2.708   4.219   5.181 -0.5565  0.5556  0.5708
 1308SOL     OW15556   4.038   4.714  16.623  0.2676 -0.1810 -0.1591
 1308SOL    HW115557   4.092   4.663  16.685  0.2671 -0.7215 -0.6030
 1308SOL    HW215558   3.969   4.649  16.608  2.0283 -1.7418 -1.5150
 1309SOL     OW15559   0.139   4.052  16.762 -0.4884  0.7681  0.1297
 1309SOL    HW115560   0.109   4.007  16.683  1.8017  1.5172 -1.1708
 1309SOL    HW215561   0.191   4.126  16.729  1.2281 -0.2746  0.5291
 1310SOL     OW15562   1.530   0.383   3.000 -0.0607  0.4013 -0.0311
 1310SOL    HW115563   1.526   0.287   3.008 -2.1615  0.5701  0.9882
 1310SOL    HW215564   1.618   0.396   3.034 -0.2996 -0.4514  0.9423
 1311SOL     OW15565   1.868   4.411   4.946  0.1038  0.2381 -0.3767
 1311SOL    HW115566   1.796   4.437   4.888  0.6461  3.6790  0.4708
 1311SOL    HW215567   1.824   4.366   5.017  0.3680  0.0457 -0.3351
 1312SOL     OW15568   2.116   4.245  14.927  0.7340 -0.1007  0.0213
 1312SOL    HW115569   2.187   4.202  14.975  1.6059  0.2457 -0.9654
 1312SOL    HW215570   2.070   4.164  14.902 -0.1186  0.7688 -1.2694
 1313SOL     OW15571   3.498   4.287   6.184  0.6348 -0.2566 -0.1083
 1313SOL    HW115572   3.439   4.229   6.136  0.6932 -0.2783 -0.1556
 1313SOL    HW215573   3.446   4.367   6.187 -0.4631 -1.0315  1.4096
 1314SOL     OW15574   3.955   0.377   2.082  0.3245 -0.5563 -0.1043
 1314SOL    HW115575   3.871   0.406   2.117  0.3389  2.0469 -2.2172
 1314SOL    HW215576   3.951   0.411   1.992  0.7319 -3.6677 -1.3081
 1315SOL     OW15577   3.936   0.494   4.487  0.0237 -0.3384  0.5794
 1315SOL    HW115578   3.878   0.557   4.444  1.2926  0.9403  0.7646
 1315SOL    HW215579   4.020   0.540   4.489 -0.4474  0.3804  2.9006
 1316SOL     OW15580   2.608   0.729   1.665 -0.1810  0.0929  0.4540
 1316SOL    HW115581   2.698   0.704   1.683 -0.6455 -1.1832  1.0211
 1316SOL    HW215582   2.587   0.678   1.586 -4.3144  0.6034  1.2250
 1317SOL     OW15583   2.170   0.295   1.304 -0.3169 -0.5249  0.8779
 1317SOL    HW115584   2.156   0.201   1.288 -1.1848 -0.3744  0.7785
 1317SOL    HW215585   2.265   0.301   1.304 -0.2129 -2.1301 -0.3114
 1318SOL     OW15586   2.252   1.450  13.496  0.2912  0.0379  0.3539
 1318SOL    HW115587   2.182   1.455  13.562  0.3403  1.5336  0.2932
 1318SOL    HW215588   2.306   1.519  13.534  0.2678 -0.5293  1.4179
 1319SOL     OW15589   2.732   1.580   3.038 -0.4853 -0.2157  0.3447
 1319SOL    HW115590   2.790   1.563   2.963 -0.0391 -3.1235  1.3530
 1319SOL    HW215591   2.690   1.494   3.039 -0.4515 -0.2526 -1.8831
 1320SOL     OW15592   3.658   3.513  10.497 -0.1109 -0.5087  0.2507
 1320SOL    HW115593   3.684   3.424  10.473 -0.9498 -0.3039 -1.4480
 1320SOL    HW215594   3.688   3.557  10.418 -1.0997  0.2878  0.3191
 1321SOL     OW15595   3.980   0.512   0.335 -0.1782 -0.0992 -0.1937
 1321SOL    HW115596   4.056   0.471   0.295  2.4675  1.1660  3.5782
 1321SOL    HW215597   4.018   0.520   0.422  0.6791 -1.6234 -0.4389
 1322SOL     OW15598   4.009   2.218   9.163 -0.3153  0.3785  0.4141
 1322SOL    HW115599   4.055   2.263   9.092 -1.5342  1.3270  0.2320
 1322SOL    HW215600   3.937   2.170   9.120  0.7460  0.1858 -1.1520
 1323SOL     OW15601   2.298   4.022  15.361  0.3617 -0.0324  0.0163
 1323SOL    HW115602   2.208   4.007  15.392  1.2532  0.1032  2.6948
 1323SOL    HW215603   2.348   3.968  15.423  0.7380 -1.2488 -1.3469
 1324SOL     OW15604   3.056   3.061   3.515 -0.0937 -0.2563  0.2765
 1324SOL    HW115605   3.150   3.041   3.520 -0.0555  0.3711  2.0270
 1324SOL    HW215606   3.058   3.149   3.553  1.9713 -0.8360  1.5440
 1325SOL     OW15607   4.688   2.151   8.713  0.1257  0.5442 -0.3147
 1325SOL    HW115608   4.628   2.077   8.702 -0.7665  1.4890 -1.8709
 1325SOL    HW215609   4.626   2.223   8.724  1.0756  1.6861 -2.5144
 1326SOL     OW15610   2.863   3.463   7.163  0.6006 -0.5114  0.3684
 1326SOL    HW115611   2.915   3.447   7.242  2.3108  0.2391 -0.5968
 1326SOL    HW215612   2.860   3.558   7.178  0.2825 -0.8282  2.3847
 1327SOL     OW15613   4.594   3.335   0.023  0.1885  0.7638  0.7142
 1327SOL    HW115614   4.654   3.264   0.046  0.8089  1.0042 -0.1606
 1327SOL    HW215615   4.508   3.301   0.047  0.2203  1.8129  2.3356
 1328SOL     OW15616   4.604   3.636   2.630  0.1659  0.4939  0.1674
 1328SOL    HW115617   4.643   3.681   2.556  0.0218  2.2695  1.1654
 1328SOL    HW215618   4.686   3.594   2.657  1.3552  1.5721 -1.7852
 1329SOL     OW15619   1.797   2.282  12.320  0.1731  0.0828 -0.2716
 1329SOL    HW115620   1.815   2.205  12.266 -0.2919  1.2916 -2.1447
 1329SOL    HW215621   1.886   2.310  12.337 -0.0486  0.9518 -0.5293
 1330SOL     OW15622   2.049   3.645   5.553 -0.2401 -0.2682 -0.0804
 1330SOL    HW115623   2.069   3.611   5.466  1.6326  2.1561 -0.6036
 1330SOL    HW215624   2.013   3.565   5.592  1.7778 -1.4063 -0.5414
 1331SOL     OW15625   1.913   2.427   9.259  0.3419 -0.5172 -0.7002
 1331SOL    HW115626   1.994   2.435   9.210 -1.6732  1.0543 -3.7418
 1331SOL    HW215627   1.894   2.519   9.274 -0.6307 -0.8470  0.0951
 1332SOL     OW15628   3.837   0.160  12.743 -0.0577 -0.4118  0.6681
 1332SOL    HW115629   3.931   0.144  12.745  0.2941  1.3304 -1.3363
 1332SOL    HW215630   3.810   0.100  12.674 -0.6722  1.0553 -0.3761
 1333SOL     OW15631   3.574   3.718   6.572 -0.4164  0.0448  0.5658
 1333SOL    HW115632   3.627   3.772   6.512 -1.8267  0.3407 -0.4000
 1333SOL    HW215633   3.618   3.742   6.654 -0.5160 -1.9623  1.1966
 1334SOL     OW15634   1.222   0.530   8.983 -0.6705 -0.1151 -0.6294
 1334SOL    HW115635   1.240   0.448   8.936 -2.4330 -0.4539 -0.7168
 1334SOL    HW215636   1.295   0.527   9.045 -0.7165 -0.4485 -0.5872
 1335SOL     OW15637   0.491   3.165   8.719 -0.7062  0.5459 -0.4607
 1335SOL    HW115638   0.486   3.258   8.739  0.7306  0.3045  1.0438
 1335SOL    HW215639   0.496   3.168   8.623  0.3828  0.6631 -0.4012
 1336SOL     OW15640   2.772   0.871   4.109 -0.5883  0.3967 -0.6304
 1336SOL    HW115641   2.684   0.897   4.081 -1.3542 -1.0557  0.4116
 1336SOL    HW215642   2.829   0.864   4.032 -0.5387  1.4685 -0.6933
 1337SOL     OW15643   3.999   3.386   3.760  0.0095 -0.4989  0.3715
 1337SOL    HW115644   4.011   3.344   3.675  4.2436  1.2082  0.0880
 1337SOL    HW215645   4.069   3.452   3.758 -1.1836  0.8101  1.5386
 1338SOL     OW15646   0.721   4.538   7.810  0.3523 -0.6045  0.1593
 1338SOL    HW115647   0.803   4.492   7.790  0.4947  0.0834 -0.8156
 1338SOL    HW215648   0.675   4.474   7.864  1.0829 -0.6713  0.7091
 1339SOL     OW15649   4.288   1.364  11.941 -0.3726  0.2952  0.3045
 1339SOL    HW115650   4.346   1.339  11.869 -0.3236  0.7652  0.1774
 1339SOL    HW215651   4.279   1.277  11.979  2.0251  0.3683  1.0555
 1340SOL     OW15652   0.949   3.069   1.964  0.6302  1.0515  0.4990
 1340SOL    HW115653   0.897   3.140   2.002 -1.3091  0.1076 -0.3782
 1340SOL    HW215654   0.946   3.009   2.039 -0.8885 -0.7983 -1.0603
 1341SOL     OW15655   3.451   4.707  11.359 -0.1056 -0.5070 -0.1350
 1341SOL    HW115656   3.412   4.708  11.272  0.4718  1.2420 -0.3611
 1341SOL    HW215657   3.412   4.628  11.397 -2.7634  1.7911  1.8667
 1342SOL     OW15658   1.696   3.570  15.916  0.5507 -0.3009  0.2088
 1342SOL    HW115659   1.728   3.643  15.969 -1.3966  0.6439  0.0892
 1342SOL    HW215660   1.616   3.561  15.968  0.0525  0.4008 -0.4402
 1343SOL     OW15661   0.419   0.310  17.194 -0.5020 -0.6453 -0.1172
 1343SOL    HW115662   0.335   0.268  17.210 -0.2683 -1.0723  0.0081
 1343SOL    HW215663   0.432   0.354  17.279 -1.4417 -2.9491  1.2263
 1344SOL     OW15664   0.762   1.735  10.463 -0.2416 -0.1335  0.0495
 1344SOL    HW115665   0.703   1.666  10.494  1.2106  0.1410  3.4102
 1344SOL    HW215666   0.699   1.807  10.459  2.5585  2.3205  0.8658
 1345SOL     OW15667   3.688   0.741  14.041  0.0168 -0.2653 -0.5009
 1345SOL    HW115668   3.649   0.819  14.001 -1.0903 -1.1147 -1.0527
 1345SOL    HW215669   3.763   0.783  14.085  0.7196  0.3254 -2.2578
 1346SOL     OW15670   4.486   3.940   1.544  0.4291  0.1738 -0.1882
 1346SOL    HW115671   4.396   3.909   1.542  0.2177  0.8281 -1.4015
 1346SOL    HW215672   4.482   3.960   1.450  0.3183  3.4714  0.5083
 1347SOL     OW15673   2.459   3.310  16.684  0.1384  0.7504 -0.3073
 1347SOL    HW115674   2.403   3.252  16.736 -2.2118  1.8933 -1.5718
 1347SOL    HW215675   2.404   3.388  16.675 -1.2936  0.0221  2.0740
 1348SOL     OW15676   2.010   3.311   7.134 -0.1065 -0.0420  0.1309
 1348SOL    HW115677   2.009   3.218   7.110 -0.5407 -0.1407  0.5351
 1348SOL    HW215678   2.036   3.317   7.226 -0.4381 -1.8537  0.3408
 1349SOL     OW15679   1.068   3.699   4.117 -0.8321  0.0860  0.4210
 1349SOL    HW115680   1.076   3.669   4.208 -1.5442 -1.5508 -0.0606
 1349SOL    HW215681   0.973   3.694   4.107 -0.8020  0.4490 -0.0333
 1350SOL     OW15682   4.082   4.060   3.444  0.3588  0.3621  0.1002
 1350SOL    HW115683   4.166   4.096   3.417 -1.1244  2.2229 -2.0501
 1350SOL    HW215684   4.054   4.034   3.357  0.2763 -2.2617  0.9224
 1351SOL     OW15685   1.164   2.985   1.775 -0.5152  0.3145 -0.0511
 1351SOL    HW115686   1.233   2.958   1.837 -2.6490  1.6130  2.8881
 1351SOL    HW215687   1.088   2.995   1.832 -1.6877  0.8552 -1.7137
 1352SOL     OW15688   4.466   3.085   0.868 -0.6761 -0.4828  0.2856
 1352SOL    HW115689   4.399   3.148   0.896  0.7626  1.6101 -1.0377
 1352SOL    HW215690   4.478   3.117   0.779 -0.1674  1.4085  1.0261
 1353SOL     OW15691   0.157   1.729   4.600 -0.4297  0.1636 -0.4010
 1353SOL    HW115692   0.225   1.756   4.539  0.0708 -0.9171 -0.3262
 1353SOL    HW215693   0.161   1.804   4.660 -0.5026 -1.3266  1.4726
 1354SOL     OW15694   2.059   1.254   2.601  0.1597 -0.3372  0.2071
 1354SOL    HW115695   1.971   1.285   2.577 -0.8709 -2.1112  1.6379
 1354SOL    HW215696   2.037   1.201   2.678 -1.1578 -1.1725 -0.7367
 1355SOL     OW15697   2.923   0.780   7.247  0.6417  0.2331 -0.1380
 1355SOL    HW115698   2.897   0.762   7.156 -0.1752  0.7882 -0.0124
 1355SOL    HW215699   2.885   0.866   7.264  1.5219  0.3972  0.9541
 1356SOL     OW15700   1.507   3.095   5.314  0.2729 -0.1584  0.5503
 1356SOL    HW115701   1.596   3.109   5.282 -0.3033 -1.1277 -1.4204
 1356SOL    HW215702   1.460   3.061   5.238 -1.5842 -2.7255  2.8351
 1357SOL     OW15703   3.937   2.593  13.292 -0.4556 -0.0354 -0.1059
 1357SOL    HW115704   3.993   2.525  13.331  0.1517 -0.2922 -1.4318
 1357SOL    HW215705   3.867   2.542  13.251  0.1378  0.3728 -1.6167
 1358SOL     OW15706   2.168   0.422   7.212  0.5370 -0.2971  0.5356
 1358SOL    HW115707   2.156   0.420   7.117  2.0518  1.6898  0.3154
 1358SOL    HW215708   2.113   0.347   7.238  0.0432 -0.1297 -0.0151
 1359SOL     OW15709   2.745   1.512   8.801 -0.0814 -0.1311 -0.1134
 1359SOL    HW115710   2.788   1.509   8.715  0.1068 -1.4529  0.0334
 1359SOL    HW215711   2.817   1.539   8.858 -0.3566  0.2528  0.0467
 1360SOL     OW15712   1.820   3.946   4.175 -0.4559 -0.0668  0.0996
 1360SOL    HW115713   1.886   3.986   4.119 -1.2698  1.7346  0.4409
 1360SOL    HW215714   1.765   4.022   4.193  1.2232  1.0147  0.6978
 1361SOL     OW15715   1.385   4.252   9.396 -0.1605 -0.0026  0.3262
 1361SOL    HW115716   1.312   4.231   9.454  0.1921  0.5077  0.9563
 1361SOL    HW215717   1.459   4.226   9.451 -0.2362 -1.2435 -0.1716
 1362SOL     OW15718   0.733   1.669  11.067  0.2034 -0.4552 -0.5079
 1362SOL    HW115719   0.755   1.740  11.006 -1.4680  2.1389  1.9258
 1362SOL    HW215720   0.769   1.598  11.013  1.3391 -1.1393  1.1813
 1363SOL     OW15721   1.213   0.715   0.590  0.2106  0.3162 -0.3138
 1363SOL    HW115722   1.140   0.682   0.642  0.8458  0.1361  0.4636
 1363SOL    HW215723   1.251   0.765   0.663 -0.7895 -0.0348  0.4402
 1364SOL     OW15724   3.185   0.134   5.072 -0.4309  0.0277 -0.0344
 1364SOL    HW115725   3.130   0.075   5.021  1.2610 -2.1073  0.6527
 1364SOL    HW215726   3.248   0.154   5.003  0.0503 -2.4467 -0.3034
 1365SOL     OW15727   1.256   4.478   7.956  0.3638  0.1012  0.0577
 1365SOL    HW115728   1.339   4.514   7.986 -1.0999  2.8528  0.8621
 1365SOL    HW215729   1.266   4.437   7.871 -0.7489 -2.9006  1.3646
 1366SOL     OW15730   4.289   1.048  15.538  0.3296 -0.0191  0.6651
 1366SOL    HW115731   4.354   0.998  15.587  1.3691  1.6826  1.0452
 1366SOL    HW215732   4.244   1.096  15.608 -2.9917 -0.5400 -1.1157
 1367SOL     OW15733   3.398   4.549   0.600  0.4177 -0.5627  0.1135
 1367SOL    HW115734   3.379   4.503   0.518  0.8616 -1.1622  0.3489
 1367SOL    HW215735   3.372   4.634   0.564  1.3417 -0.3741 -0.1134
 1368SOL     OW15736   2.757   4.243  17.195  1.0656 -0.6565  0.6237
 1368SOL    HW115737   2.832   4.208  17.243  2.5024  1.0652 -0.3751
 1368SOL    HW215738   2.814   4.307  17.152  0.3157 -0.1192  0.4219
 1369SOL     OW15739   1.691   1.304  15.058 -0.8435 -0.6359  0.1027
 1369SOL    HW115740   1.603   1.327  15.089 -0.1332  1.2248  0.7100
 1369SOL    HW215741   1.748   1.329  15.130  0.6610  0.6311 -1.5441
 1370SOL     OW15742   1.479   3.670   5.209  0.3509  0.6044 -0.8064
 1370SOL    HW115743   1.556   3.717   5.242  1.4605 -2.2604  0.7195
 1370SOL    HW215744   1.523   3.647   5.127  0.2533  0.8447 -0.9243
 1371SOL     OW15745   4.447   1.538   6.288  0.6259  0.6436  0.1678
 1371SOL    HW115746   4.455   1.471   6.356 -2.4146  0.6907  0.5812
 1371SOL    HW215747   4.355   1.560   6.300  0.5309  0.9040 -1.1151
 1372SOL     OW15748   2.705   0.900   8.224 -0.1071  0.3368  0.2606
 1372SOL    HW115749   2.701   0.938   8.312  1.2614 -1.6592  1.1784
 1372SOL    HW215750   2.614   0.898   8.193  0.0723  1.0737 -0.3145
 1373SOL     OW15751   2.883   4.700   7.282  0.0342  0.7892 -0.1051
 1373SOL    HW115752   2.959   0.017   7.261 -1.2349  1.6807 -2.4210
 1373SOL    HW215753   2.818   0.027   7.252  1.3766  0.9398 -2.7028
 1374SOL     OW15754   1.271   1.125  12.508  0.1987  0.6665  0.2721
 1374SOL    HW115755   1.180   1.107  12.487  1.0821 -1.1083 -1.9619
 1374SOL    HW215756   1.280   1.064  12.581  0.8098 -1.2133 -1.4033
 1375SOL     OW15757   0.793   2.552   6.296  0.2695 -0.6083  0.6459
 1375SOL    HW115758   0.698   2.567   6.294  0.1731 -1.2555  0.3373
 1375SOL    HW215759   0.788   2.457   6.305  0.3090 -0.4110  2.6803
 1376SOL     OW15760   4.031   2.534   3.518  0.5642 -0.0928  0.0463
 1376SOL    HW115761   4.015   2.497   3.432 -0.5171  1.7868 -0.5683
 1376SOL    HW215762   3.962   2.492   3.568  0.6055  1.5846  1.5217
 1377SOL     OW15763   3.385   2.749   7.378 -0.4853 -0.3641  0.1145
 1377SOL    HW115764   3.398   2.679   7.443 -1.8664  0.4585  1.2727
 1377SOL    HW215765   3.382   2.702   7.295  0.6859  1.4153 -0.9515
 1378SOL     OW15766   1.812   1.966   4.194 -0.0667 -0.0911  0.3564
 1378SOL    HW115767   1.893   1.926   4.164 -1.2961 -0.4787 -2.4415
 1378SOL    HW215768   1.789   2.009   4.112  2.0330  2.1793  0.9495
 1379SOL     OW15769   2.884   2.051   5.913  0.8664 -0.2824  0.2715
 1379SOL    HW115770   2.968   2.097   5.909  1.0376 -0.5560  0.7062
 1379SOL    HW215771   2.913   1.962   5.934 -0.4072 -1.3964 -2.6408
 1380SOL     OW15772   1.953   3.659   0.893 -0.6287  0.5347  0.8330
 1380SOL    HW115773   1.971   3.592   0.960  1.7559  0.4436  0.1058
 1380SOL    HW215774   1.866   3.689   0.921 -1.2870 -2.3991  1.9298
 1381SOL     OW15775   4.177   2.957   5.510  0.3330  0.4294  0.2636
 1381SOL    HW115776   4.164   2.901   5.587 -1.0052 -2.0410 -1.7423
 1381SOL    HW215777   4.151   2.892   5.444  1.5218 -1.1733  1.3797
 1382SOL     OW15778   0.029   1.278   3.442  0.3971  0.0060 -0.3805
 1382SOL    HW115779   4.715   1.216   3.495  1.3132  1.4468  2.1987
 1382SOL    HW215780   0.113   1.280   3.488  0.1971  2.3308 -0.1016
 1383SOL     OW15781   0.617   4.522   5.299  0.1988 -0.5573 -0.0891
 1383SOL    HW115782   0.638   4.459   5.230  0.2929 -1.8737  1.1175
 1383SOL    HW215783   0.556   4.475   5.356 -0.8445 -0.9159 -1.5138
 1384SOL     OW15784   3.651   2.638   6.242 -0.3449  0.1883 -0.2687
 1384SOL    HW115785   3.636   2.586   6.162  0.3853  0.4940 -0.6036
 1384SOL    HW215786   3.736   2.676   6.222 -1.7925  2.4444 -2.1814
 1385SOL     OW15787   0.443   4.654  15.781 -0.0392  0.1574 -0.4487
 1385SOL    HW115788   0.363   4.706  15.785  0.6878  1.2063  0.5837
 1385SOL    HW215789   0.477   4.686  15.697 -0.9838  0.3139 -0.7645
 1386SOL     OW15790   0.167   3.617   6.293  0.0611  0.2296 -0.3837
 1386SOL    HW115791   0.117   3.535   6.294  1.7566 -0.8244 -1.2510
 1386SOL    HW215792   0.106   3.672   6.244 -1.5385 -3.0807 -2.1950
 1387SOL     OW15793   0.468   1.232   5.783  0.1119 -0.3856  0.2703
 1387SOL    HW115794   0.382   1.260   5.816 -1.2059 -1.1318 -2.4988
 1387SOL    HW215795   0.467   1.140   5.807  0.2852 -0.2248  0.8852
 1388SOL     OW15796   3.031   0.501  10.048 -0.0269  0.3665  0.1617
 1388SOL    HW115797   3.098   0.504  10.117 -0.7588  0.2453  0.8844
 1388SOL    HW215798   2.961   0.551  10.090 -1.1589 -0.2770 -0.9374
 1389SOL     OW15799   1.002   0.584   7.011  0.2462 -0.1069  0.0484
 1389SOL    HW115800   0.957   0.634   7.078  0.6940  1.4861 -0.8439
 1389SOL    HW215801   0.928   0.551   6.960 -0.2043  0.3158  0.4361
 1390SOL     OW15802   3.036   1.282   3.160  0.2190 -0.0893  0.0742
 1390SOL    HW115803   2.949   1.275   3.121  0.0460  0.8297  0.2916
 1390SOL    HW215804   3.095   1.252   3.091  2.0926  2.7761  0.4409
 1391SOL     OW15805   2.576   3.072  15.521 -0.1521 -0.1312 -0.6636
 1391SOL    HW115806   2.495   3.058  15.471 -0.1299  2.5469 -1.4400
 1391SOL    HW215807   2.588   2.983  15.554  0.6265  0.6097  1.0515
 1392SOL     OW15808   1.011   3.138   2.383  0.6206  0.3836 -0.6644
 1392SOL    HW115809   0.990   3.057   2.430 -2.0937  2.5918  1.9708
 1392SOL    HW215810   0.929   3.186   2.375  0.7303  0.7213  0.2013
 1393SOL     OW15811   3.660   4.292   8.159 -0.5496  0.4911 -0.0918
 1393SOL    HW115812   3.660   4.224   8.226  0.0193  0.8636  0.2881
 1393SOL    HW215813   3.571   4.327   8.163 -0.3886  0.7846  0.8297
 1394SOL     OW15814   3.526   3.866  10.398 -0.0669  0.2697  0.3466
 1394SOL    HW115815   3.578   3.794  10.435  0.1058 -0.1525 -0.7308
 1394SOL    HW215816   3.445   3.815  10.391 -0.7796  1.2653  1.2371
 1395SOL     OW15817   2.012   1.097   2.164  0.2198  0.0123 -0.3926
 1395SOL    HW115818   2.087   1.142   2.203  1.5618 -3.0181  0.5431
 1395SOL    HW215819   1.958   1.089   2.243 -0.4781 -0.9323 -0.9725
 1396SOL     OW15820   3.608   3.200  10.685 -0.2499 -0.0086 -0.8580
 1396SOL    HW115821   3.634   3.213  10.594 -1.5216  2.8110 -0.8344
 1396SOL    HW215822   3.694   3.198  10.727 -0.9013 -2.5906  0.3797
 1397SOL     OW15823   0.594   3.298   8.384  0.4716 -0.2432 -0.6408
 1397SOL    HW115824   0.690   3.303   8.384  0.3894  1.4510 -0.0178
 1397SOL    HW215825   0.576   3.385   8.349  2.9081  0.5814  0.1504
 1398SOL     OW15826   0.237   4.134   7.696 -0.0366 -0.0459 -0.2024
 1398SOL    HW115827   0.173   4.176   7.754 -1.0244  1.1036 -2.1095
 1398SOL    HW215828   0.183   4.079   7.640 -1.5412  1.1598  0.0658
 1399SOL     OW15829   0.341   2.277   3.718  0.2681 -0.5844 -0.0355
 1399SOL    HW115830   0.329   2.361   3.761 -0.3376  0.4826 -2.2736
 1399SOL    HW215831   0.332   2.218   3.793 -0.3017  1.2220  1.2979
 1400SOL     OW15832   2.685   1.771   5.068 -0.1750 -0.1309  0.5920
 1400SOL    HW115833   2.605   1.804   5.108 -0.2986 -0.5451  0.6839
 1400SOL    HW215834   2.673   1.784   4.974 -0.6404  0.8285  0.7876
 1401SOL     OW15835   0.500   0.650   5.809 -0.1208 -0.2092 -0.4101
 1401SOL    HW115836   0.479   0.739   5.783  0.4684  0.5167  1.6095
 1401SOL    HW215837   0.583   0.638   5.763  0.4416 -1.8602  1.0353
 1402SOL     OW15838   4.151   3.844   4.446 -0.2188 -0.2815 -0.0334
 1402SOL    HW115839   4.211   3.860   4.519  0.8931  0.0501 -1.0215
 1402SOL    HW215840   4.136   3.750   4.457 -2.6731  0.2236  1.0991
 1403SOL     OW15841   1.125   0.743  13.088  0.0663 -0.1721  0.3527
 1403SOL    HW115842   1.187   0.813  13.068 -0.2710 -0.2106 -0.8069
 1403SOL    HW215843   1.134   0.685  13.012 -2.6883 -0.5193  0.3034
 1404SOL     OW15844   3.417   0.081   6.740 -0.7924  0.1707  0.0022
 1404SOL    HW115845   3.489   0.052   6.685 -0.2061  0.9941  0.3450
 1404SOL    HW215846   3.366   4.737   6.728 -1.8768  1.0347 -1.2839
 1405SOL     OW15847   2.962   3.878   4.667  0.5913 -0.6037 -0.3853
 1405SOL    HW115848   3.045   3.925   4.678  0.6996 -1.1485  1.1953
 1405SOL    HW215849   2.987   3.799   4.620 -4.0171 -1.3729 -1.5160
 1406SOL     OW15850   1.366   2.392   4.254  0.3321  0.2567  0.0988
 1406SOL    HW115851   1.350   2.459   4.188 -0.9386 -0.0128  0.1335
 1406SOL    HW215852   1.295   2.388   4.318  0.8688  0.3942  0.6993
 1407SOL     OW15853   4.724   1.077   5.135 -0.3217 -0.3758  0.0136
 1407SOL    HW115854   0.056   1.144   5.140 -1.7076  0.8100  2.8330
 1407SOL    HW215855   4.651   1.130   5.101  0.0696  0.2444  0.1396
 1408SOL     OW15856   2.679   2.530   8.526 -0.0673  0.1232 -0.1794
 1408SOL    HW115857   2.665   2.447   8.571  0.3499  0.2281  0.1483
 1408SOL    HW215858   2.612   2.528   8.457 -1.1768  1.7925  0.8439
 1409SOL     OW15859   4.648   3.085   8.370 -0.0338 -0.1708  0.1351
 1409SOL    HW115860   4.721   3.075   8.310  0.0334  0.0297  0.1813
 1409SOL    HW215861   4.574   3.054   8.318  0.6818 -0.7237 -0.5433
 1410SOL     OW15862   1.581   2.117   6.953  0.1179 -0.0554 -0.4780
 1410SOL    HW115863   1.585   2.041   6.895  3.3391 -0.2029 -0.0581
 1410SOL    HW215864   1.495   2.109   6.992 -0.5782 -0.5283 -2.1234
 1411SOL     OW15865   3.144   0.867  12.798 -0.6471  0.7186  0.4410
 1411SOL    HW115866   3.138   0.961  12.780 -1.5907  0.4055 -0.9085
 1411SOL    HW215867   3.138   0.861  12.893  1.6292  1.3931  0.6197
 1412SOL     OW15868   2.667   0.146   1.750 -0.1445 -0.0005  0.2884
 1412SOL    HW115869   2.750   0.194   1.743  0.3703 -0.7948  0.9006
 1412SOL    HW215870   2.602   0.212   1.775 -0.3780  0.3490 -1.2764
 1413SOL     OW15871   4.357   3.052   6.767  0.4432  0.9471  0.1934
 1413SOL    HW115872   4.307   3.127   6.735 -1.1403 -1.1212 -2.2296
 1413SOL    HW215873   4.410   3.089   6.837 -0.7317  1.2263  0.9327
 1414SOL     OW15874   3.025   4.567   1.613  0.2099  0.4282 -0.2619
 1414SOL    HW115875   3.120   4.552   1.614  0.0630 -0.4609  0.4585
 1414SOL    HW215876   3.002   4.499   1.549  1.2727 -0.0044 -0.1846
 1415SOL     OW15877   2.352   2.085   9.128  0.2799  0.0977 -0.0735
 1415SOL    HW115878   2.417   2.046   9.186 -2.1493 -0.4616  2.3218
 1415SOL    HW215879   2.395   2.158   9.085 -0.3974 -0.0750 -1.0450
 1416SOL     OW15880   0.742   2.421  10.162  0.1353 -0.2950 -0.6032
 1416SOL    HW115881   0.647   2.428  10.153  0.1758  0.7435 -0.2151
 1416SOL    HW215882   0.758   2.367  10.084  1.9087  0.8571 -1.0412
 1417SOL     OW15883   1.860   4.598   7.006 -0.3486 -0.5034 -0.5383
 1417SOL    HW115884   1.829   4.556   6.927 -0.8576  0.1986 -0.7167
 1417SOL    HW215885   1.841   4.691   6.992  0.4507 -0.3401 -0.5459
 1418SOL     OW15886   3.032   4.258   8.379 -0.2195 -0.4223  0.5790
 1418SOL    HW115887   3.117   4.214   8.382 -0.0441 -0.1112  0.0935
 1418SOL    HW215888   2.969   4.189   8.356  0.4597 -0.9520  0.2891
 1419SOL     OW15889   2.698   2.134   8.519 -0.1794 -0.4638 -0.0748
 1419SOL    HW115890   2.649   2.052   8.513 -2.2705  0.9598 -3.0046
 1419SOL    HW215891   2.727   2.148   8.429 -0.5094 -2.3797 -0.4854
 1420SOL     OW15892   1.077   2.527  11.261 -0.5175  0.5937 -0.1237
 1420SOL    HW115893   1.054   2.435  11.270 -1.6279  0.8465 -0.3658
 1420SOL    HW215894   1.170   2.519  11.279  0.1489  0.5071 -3.5864
 1421SOL     OW15895   0.518   0.452   8.261  0.1461  0.0325 -0.2871
 1421SOL    HW115896   0.580   0.433   8.190  1.3185  0.3375  0.6495
 1421SOL    HW215897   0.561   0.410   8.335 -2.3268 -1.2787  0.3821
 1422SOL     OW15898   1.332   4.566   5.827 -0.1670 -0.1348  0.2463
 1422SOL    HW115899   1.358   4.615   5.750  1.2093 -2.2709 -0.6516
 1422SOL    HW215900   1.324   4.473   5.804 -0.8561 -0.0050 -0.0400
 1423SOL     OW15901   0.119   1.222   1.205 -0.3547 -0.2915  0.0625
 1423SOL    HW115902   0.158   1.202   1.121 -2.2525 -0.9203 -0.6754
 1423SOL    HW215903   0.109   1.317   1.195 -0.2438  0.1171  3.7383
 1424SOL     OW15904   4.336   3.174   3.235 -0.3226 -0.1260 -0.0229
 1424SOL    HW115905   4.315   3.222   3.155 -0.6064 -0.1197  0.0557
 1424SOL    HW215906   4.249   3.147   3.263 -0.2120  1.1951  1.5836
 1425SOL     OW15907   3.256   1.393   2.213  0.3125  0.3730 -0.3305
 1425SOL    HW115908   3.293   1.481   2.203 -1.5364  1.0285 -1.4400
 1425SOL    HW215909   3.173   1.401   2.165  0.7387  1.5715 -0.8772
 1426SOL     OW15910   1.737   4.498   4.682 -0.4089  0.2710  0.1445
 1426SOL    HW115911   1.775   4.424   4.634  0.3265  1.5837 -1.2824
 1426SOL    HW215912   1.645   4.473   4.671  0.3354 -1.8516 -1.3038
 1427SOL     OW15913   2.485   1.252   9.478 -0.2978  0.9471 -0.5472
 1427SOL    HW115914   2.417   1.313   9.506 -0.2665  0.7264 -0.0015
 1427SOL    HW215915   2.445   1.225   9.395  1.2437  0.5727 -1.1801
 1428SOL     OW15916   0.796   2.767   1.566  0.3591 -0.4025 -0.9828
 1428SOL    HW115917   0.863   2.742   1.630  0.1127  1.8019  0.1221
 1428SOL    HW215918   0.839   2.841   1.523  1.3339 -0.0828  0.5210
 1429SOL     OW15919   1.113   2.869   7.434 -0.3675 -0.4053  1.0325
 1429SOL    HW115920   1.186   2.897   7.488  0.5034  0.0464 -0.3607
 1429SOL    HW215921   1.159   2.797   7.389 -0.2887 -0.0675  0.5676
 1430SOL     OW15922   4.356   0.958  16.384  0.0321  0.3550  0.1308
 1430SOL    HW115923   4.392   0.942  16.297 -0.7470 -0.4307 -0.0522
 1430SOL    HW215924   4.261   0.968  16.373 -0.4174 -2.1117  1.6494
 1431SOL     OW15925   2.781   1.950   7.853 -0.3143 -0.0482  0.1282
 1431SOL    HW115926   2.687   1.944   7.839 -0.2599  0.8064 -0.5862
 1431SOL    HW215927   2.819   1.866   7.828  2.6056  2.0895 -2.7126
 1432SOL     OW15928   3.007   0.644   1.970 -0.4580  0.7814 -0.4691
 1432SOL    HW115929   3.059   0.724   1.963 -0.2689  0.6569 -0.5036
 1432SOL    HW215930   2.990   0.619   1.879  1.5906  0.6127 -0.8112
 1433SOL     OW15931   3.071   3.802   9.582 -0.1885 -0.4185 -0.2194
 1433SOL    HW115932   3.094   3.710   9.574  0.0586 -0.4318  0.5913
 1433SOL    HW215933   3.133   3.841   9.644  0.4904 -0.5541 -0.8066
 1434SOL     OW15934   0.894   2.875   5.844 -0.2650  0.4992  0.2339
 1434SOL    HW115935   0.801   2.894   5.844 -0.0844  1.3721 -0.2970
 1434SOL    HW215936   0.899   2.829   5.928  0.7870 -0.6381 -0.4464
 1435SOL     OW15937   1.625   0.539   3.748 -0.1627  0.2352  0.3667
 1435SOL    HW115938   1.620   0.539   3.844  1.2103  2.7389  0.4189
 1435SOL    HW215939   1.688   0.609   3.731 -1.5069  1.7605  1.6581
 1436SOL     OW15940   2.971   1.651   8.870 -0.1377  0.1845  0.3229
 1436SOL    HW115941   2.960   1.728   8.926  1.1366  0.9975 -0.5333
 1436SOL    HW215942   2.956   1.685   8.782 -0.3135 -0.7033  0.0157
 1437SOL     OW15943   0.489   3.887   2.846  0.5877 -0.3797  0.0930
 1437SOL    HW115944   0.487   3.928   2.932  1.7660 -1.3978  0.5867
 1437SOL    HW215945   0.472   3.795   2.865  2.3560 -0.4305  1.4352
 1438SOL     OW15946   2.591   4.475   2.947 -0.4347  0.1068  0.2770
 1438SOL    HW115947   2.589   4.481   2.851 -2.2073 -0.1607  0.3059
 1438SOL    HW215948   2.513   4.424   2.965  0.9838 -2.4350 -0.8589
 1439SOL     OW15949   3.382   3.837   5.280 -0.1811  0.5614 -0.4195
 1439SOL    HW115950   3.302   3.867   5.237 -0.1255 -0.8520 -1.5005
 1439SOL    HW215951   3.454   3.882   5.236 -0.4311  1.3068 -0.0710
 1440SOL     OW15952   4.391   1.026   9.989  0.6143 -0.0549  0.7018
 1440SOL    HW115953   4.387   0.935   9.960 -0.7837  0.7906 -1.8474
 1440SOL    HW215954   4.383   1.063   9.900 -2.1502  0.0495  0.9823
 1441SOL     OW15955   1.340   0.567   2.909  0.2449  0.5271  0.4863
 1441SOL    HW115956   1.259   0.540   2.952  1.6322 -0.9472  2.1698
 1441SOL    HW215957   1.403   0.513   2.957 -0.9716 -2.3456 -1.0983
 1442SOL     OW15958   3.436   2.100   7.873  0.3256 -0.1498  0.6348
 1442SOL    HW115959   3.380   2.177   7.877  0.9390  0.3224  0.1446
 1442SOL    HW215960   3.451   2.093   7.779 -2.2424 -0.3006  0.2521
 1443SOL     OW15961   2.375   3.789  10.722  0.1247  0.1107  0.0266
 1443SOL    HW115962   2.349   3.879  10.705 -0.2060  0.2751  1.3674
 1443SOL    HW215963   2.292   3.742  10.730  1.5525 -2.6003 -0.8276
 1444SOL     OW15964   1.458   1.825   9.247  0.3665  0.3451 -0.0879
 1444SOL    HW115965   1.552   1.841   9.234  0.5964 -1.0469 -0.1994
 1444SOL    HW215966   1.455   1.854   9.338 -0.8622 -0.2167  0.0473
 1445SOL     OW15967   0.783   3.245   2.118 -0.4158  0.6957 -0.2465
 1445SOL    HW115968   0.802   3.321   2.173 -0.1743  1.9638 -2.1039
 1445SOL    HW215969   0.702   3.210   2.154  0.0295 -2.6662 -2.5517
 1446SOL     OW15970   1.444   1.674   8.129  0.1066 -0.3353  0.1768
 1446SOL    HW115971   1.527   1.691   8.083 -1.1481  0.5471 -1.7830
 1446SOL    HW215972   1.377   1.715   8.074  0.2940  2.2621  1.8553
 1447SOL     OW15973   0.943   0.552  13.641  0.8268 -0.5064  0.9689
 1447SOL    HW115974   0.933   0.569  13.547  0.7948  0.3822  1.1287
 1447SOL    HW215975   0.931   0.458  13.650  1.3288 -0.8975 -2.5300
 1448SOL     OW15976   2.374   3.815   7.136 -0.2760 -0.2222 -0.1052
 1448SOL    HW115977   2.432   3.891   7.143 -0.9434  0.6034 -3.4978
 1448SOL    HW215978   2.314   3.845   7.067  0.6464 -0.5021 -1.0374
 1449SOL     OW15979   0.666   2.815  15.909 -0.0086 -0.1219  1.1307
 1449SOL    HW115980   0.636   2.726  15.929  1.7594 -0.8066  0.7690
 1449SOL    HW215981   0.742   2.797  15.853 -0.6108  3.5894 -0.8955
 1450SOL     OW15982   3.156   0.104  10.759  0.3483  0.6172  0.8962
 1450SOL    HW115983   3.225   0.113  10.694 -1.3079  0.6796 -0.8514
 1450SOL    HW215984   3.123   0.016  10.740  0.8680  0.5168  0.4547
 1451SOL     OW15985   2.630   4.000   0.568  0.1972 -0.0170 -0.1604
 1451SOL    HW115986   2.598   4.090   0.569  0.0123 -0.0669 -2.3052
 1451SOL    HW215987   2.660   3.977   0.656  0.6957 -0.1988 -0.3755
 1452SOL     OW15988   1.508   1.293   6.502  0.0905 -0.1570  0.6348
 1452SOL    HW115989   1.476   1.204   6.512  1.3379 -0.7610 -0.6587
 1452SOL    HW215990   1.523   1.309   6.595 -0.1483 -1.2675  0.8565
 1453SOL     OW15991   1.153   2.809  12.414  0.1725 -0.2132 -0.1262
 1453SOL    HW115992   1.181   2.737  12.358 -0.7051 -0.2995 -0.4483
 1453SOL    HW215993   1.236   2.852  12.436 -0.5447  0.2468  1.7321
 1454SOL     OW15994   2.870   2.278   7.696  0.9242 -0.6964  1.0962
 1454SOL    HW115995   2.799   2.340   7.710  0.2870 -0.9200 -1.1810
 1454SOL    HW215996   2.914   2.319   7.621  1.1374 -0.5050  1.3276
 1455SOL     OW15997   3.475   1.048   7.460  0.3444  0.6058  0.2058
 1455SOL    HW115998   3.518   1.073   7.379  0.3296  0.6174  0.2017
 1455SOL    HW215999   3.531   1.091   7.524  2.1180  1.9188 -2.2488
 1456SOL     OW16000   0.534   0.742  15.364  0.2936  0.1433  0.1273
 1456SOL    HW116001   0.535   0.701  15.451 -1.9919  0.4507  0.2888
 1456SOL    HW216002   0.618   0.786  15.376 -0.3090  1.0437  1.0301
 1457SOL     OW16003   0.823   3.343  11.180 -0.5443 -0.4813  0.5123
 1457SOL    HW116004   0.774   3.387  11.249 -2.8038  1.2011 -2.1897
 1457SOL    HW216005   0.789   3.255  11.193  0.3618 -1.1265 -1.4881
 1458SOL     OW16006   3.554   2.206   6.710 -0.9973 -0.5853 -0.4930
 1458SOL    HW116007   3.626   2.221   6.648  0.4188  0.9913  1.5264
 1458SOL    HW216008   3.484   2.160   6.665  0.5085 -1.9009 -1.4888
 1459SOL     OW16009   4.554   4.632   8.330 -0.5350  0.1404  0.7154
 1459SOL    HW116010   4.593   4.550   8.359  0.2715  0.3544  0.2401
 1459SOL    HW216011   4.621   4.700   8.341  0.7755 -0.9978 -0.1832
 1460SOL     OW16012   4.364   2.925  16.497  0.0949  0.3511  0.8866
 1460SOL    HW116013   4.306   2.849  16.489  0.2946  0.3693 -0.7224
 1460SOL    HW216014   4.340   2.983  16.424  2.5344  1.0168  0.6165
 1461SOL     OW16015   4.410   3.740   7.021 -0.0544  0.2722 -0.2769
 1461SOL    HW116016   4.388   3.792   6.944  0.1163  0.6843 -0.0465
 1461SOL    HW216017   4.373   3.799   7.086  0.7270  0.3394  0.1049
 1462SOL     OW16018   4.210   0.031   3.979 -0.0512 -0.0106 -0.4940
 1462SOL    HW116019   4.203   0.022   4.074  1.3801  2.8212 -0.1265
 1462SOL    HW216020   4.124   0.015   3.939 -0.8190  2.4274  0.1934
 1463SOL     OW16021   2.500   1.978   7.732  0.7402  0.3589  0.2099
 1463SOL    HW116022   2.501   1.920   7.656 -0.2606 -0.6572  0.9748
 1463SOL    HW216023   2.422   1.963   7.784  1.1259 -1.4441  0.2707
 1464SOL     OW16024   4.078   3.486   7.078  0.1458 -0.4727  0.2083
 1464SOL    HW116025   4.104   3.577   7.060 -0.0004 -0.6372 -0.8528
 1464SOL    HW216026   4.004   3.472   7.018  0.6062 -1.2425 -0.1776
 1465SOL     OW16027   3.797   2.634   8.422  0.2624  0.7001 -0.2089
 1465SOL    HW116028   3.867   2.693   8.395  0.5814 -0.0560 -1.0042
 1465SOL    HW216029   3.835   2.595   8.501  0.6594 -0.9670 -1.2205
 1466SOL     OW16030   0.275   1.722  12.698  0.3969  0.6970  0.1939
 1466SOL    HW116031   0.332   1.716  12.774  0.4348 -0.3435  0.0917
 1466SOL    HW216032   0.247   1.813  12.703  0.1544  0.8209 -3.0869
 1467SOL     OW16033   2.656   0.241   6.173  0.2199 -0.4197 -0.2721
 1467SOL    HW116034   2.744   0.226   6.207  0.7358  1.0152 -0.9893
 1467SOL    HW216035   2.642   0.328   6.211 -2.7131 -1.4248  0.9672
 1468SOL     OW16036   0.176   0.487   3.400  0.2529 -0.3728  0.8868
 1468SOL    HW116037   0.228   0.500   3.320 -1.1988 -0.6933 -0.1043
 1468SOL    HW216038   0.179   0.393   3.416  0.5369 -0.6192 -0.5698
 1469SOL     OW16039   0.499   2.032  16.360  0.0567  0.0611  0.4016
 1469SOL    HW116040   0.494   2.032  16.456 -0.5942  0.4792  0.3707
 1469SOL    HW216041   0.542   2.117  16.357 -0.5178  0.2349 -3.2197
 1470SOL     OW16042   3.367   1.346  15.501 -0.1158  0.0526  0.2988
 1470SOL    HW116043   3.293   1.344  15.562  0.0828  0.5051  0.5539
 1470SOL    HW216044   3.376   1.438  15.477  3.8238 -0.5241 -0.4488
 1471SOL     OW16045   4.502   1.362  17.499  0.2477  0.4450 -0.2395
 1471SOL    HW116046   4.410   1.359  17.471  0.1107  1.7341  0.0479
 1471SOL    HW216047   4.517   1.271  17.524 -2.7490 -0.3509 -1.2960
 1472SOL     OW16048   0.202   1.933   0.696 -0.4608  0.1203 -0.0215
 1472SOL    HW116049   0.133   1.990   0.727  0.1666  0.0613  1.4827
 1472SOL    HW216050   0.285   1.966   0.732 -1.6425  1.3876  1.5204
 1473SOL     OW16051   1.253   1.000  15.724 -0.3921 -0.0038  0.0595
 1473SOL    HW116052   1.239   0.990  15.818 -0.7451 -1.8199 -0.1888
 1473SOL    HW216053   1.318   0.930  15.713  1.4277  1.5249  0.9131
 1474SOL     OW16054   2.323   2.734   0.146  0.4602  0.6674 -0.2061
 1474SOL    HW116055   2.419   2.732   0.148  0.4785  1.9238 -0.0475
 1474SOL    HW216056   2.301   2.641   0.142  0.0852  0.7878 -0.8554
 1475SOL     OW16057   0.240   1.046   3.420 -0.2418  0.1209 -0.6232
 1475SOL    HW116058   0.291   1.057   3.339 -0.6424  0.0921 -0.8774
 1475SOL    HW216059   0.312   1.052   3.484 -1.1348  1.9939  0.1757
 1476SOL     OW16060   0.344   0.854  14.655 -0.1128  0.4551  0.0798
 1476SOL    HW116061   0.415   0.846  14.591 -0.8985  1.9120 -0.9697
 1476SOL    HW216062   0.382   0.920  14.714  1.2752  0.9287 -1.3536
 1477SOL     OW16063   2.044   1.159   6.365 -0.2698  0.4138 -0.0296
 1477SOL    HW116064   2.121   1.144   6.419 -2.1181 -1.9332  1.9694
 1477SOL    HW216065   2.085   1.225   6.309  2.4477 -1.6264 -0.4252
 1478SOL     OW16066   3.901   3.859  15.757 -0.1839 -0.7591 -0.4608
 1478SOL    HW116067   3.955   3.887  15.683  0.1161  1.3051  0.5345
 1478SOL    HW216068   3.863   3.778  15.724 -0.2176 -0.9823  0.1178
 1479SOL     OW16069   1.806   4.718   5.912  0.3211 -0.1113 -0.1779
 1479SOL    HW116070   1.755   0.056   5.880 -0.5679 -1.2687 -1.4516
 1479SOL    HW216071   1.737   4.669   5.956  0.1015  3.1705  3.1171
 1480SOL     OW16072   1.167   2.822   9.343  0.8018  0.4328  0.1714
 1480SOL    HW116073   1.081   2.844   9.308  1.2241  0.3170 -0.9286
 1480SOL    HW216074   1.149   2.734   9.378 -1.4161  1.5606  1.8800
 1481SOL     OW16075   2.823   3.385  11.173  0.1459  0.1384  0.4367
 1481SOL    HW116076   2.917   3.402  11.170  0.4362 -1.1953  2.1195
 1481SOL    HW216077   2.793   3.441  11.244  0.7976  0.1767  0.6759
 1482SOL     OW16078   1.153   3.982   7.428 -0.1280 -0.3820  0.4914
 1482SOL    HW116079   1.166   3.895   7.391 -0.3157  0.1759 -0.8694
 1482SOL    HW216080   1.087   3.963   7.495 -0.4739  0.9083  0.5160
 1483SOL     OW16081   2.016   0.663   7.236  0.5018  0.3878 -0.1774
 1483SOL    HW116082   2.035   0.688   7.327  3.9981 -0.4078 -0.6882
 1483SOL    HW216083   2.068   0.584   7.225 -2.3186 -1.2545 -1.7611
 1484SOL     OW16084   1.441   2.981  16.461 -0.5838 -0.6342 -0.7917
 1484SOL    HW116085   1.435   3.021  16.374 -0.9147  1.9883  0.4358
 1484SOL    HW216086   1.511   3.035  16.499 -1.7678  0.2211  0.1600
 1485SOL     OW16087   3.934   0.228   4.505  0.1013  0.1060  0.3101
 1485SOL    HW116088   3.922   0.321   4.524 -2.3925 -0.4082  1.2108
 1485SOL    HW216089   4.025   0.229   4.473  0.4183  1.3512  1.2060
 1486SOL     OW16090   1.899   0.015   4.752 -0.0884 -0.3860  0.9577
 1486SOL    HW116091   1.936   0.032   4.839 -0.6915  1.7461  0.8006
 1486SOL    HW216092   1.913   4.657   4.750 -0.8135 -0.4711  0.2762
 1487SOL     OW16093   2.218   3.454   7.029 -0.1398  0.5974 -0.2646
 1487SOL    HW116094   2.194   3.487   6.943  2.0567  1.0555 -0.7146
 1487SOL    HW216095   2.139   3.415   7.066 -0.5912  2.8862  1.2054
 1488SOL     OW16096   0.403   1.935   3.617 -0.2327 -0.2695 -0.6745
 1488SOL    HW116097   0.312   1.903   3.616  0.1302 -1.2965 -0.8514
 1488SOL    HW216098   0.393   2.018   3.570  1.3869  1.1042  1.4359
 1489SOL     OW16099   1.124   3.411   5.864 -0.0723  0.7698 -0.1472
 1489SOL    HW116100   1.065   3.350   5.907  1.8991 -0.8611  0.2689
 1489SOL    HW216101   1.067   3.442   5.795 -0.1262 -0.0466 -0.4660
 1490SOL     OW16102   3.952   3.318   4.168  0.8028 -0.1866  0.3866
 1490SOL    HW116103   4.004   3.242   4.143 -1.6556 -1.4986 -0.7199
 1490SOL    HW216104   3.864   3.289   4.143  0.8145 -2.2197  2.6827
 1491SOL     OW16105   4.108   0.505  15.809  0.4617 -0.0916 -0.5243
 1491SOL    HW116106   4.118   0.601  15.811 -0.6503  0.0405 -1.4494
 1491SOL    HW216107   4.045   0.490  15.738  1.1963 -1.7251 -0.8331
 1492SOL     OW16108   3.159   4.607   5.760 -0.3549  0.1671  0.2279
 1492SOL    HW116109   3.119   4.692   5.778 -0.7421  0.4733 -1.9801
 1492SOL    HW216110   3.250   4.637   5.757 -0.0514 -0.6189  1.3676
 1493SOL     OW16111   0.466   0.406   0.831 -0.4734  0.3972  0.0706
 1493SOL    HW116112   0.449   0.500   0.832 -0.6678  0.3658 -0.2030
 1493SOL    HW216113   0.451   0.388   0.738 -0.0985  1.2487 -0.1626
 1494SOL     OW16114   3.566   0.687   9.900  0.4052 -0.1083  0.2500
 1494SOL    HW116115   3.489   0.630   9.896 -0.2422  0.7397  0.6009
 1494SOL    HW216116   3.587   0.683   9.993  3.5616 -0.8670 -0.5202
 1495SOL     OW16117   0.067   3.079   6.201  0.2857 -0.0722 -0.3970
 1495SOL    HW116118   4.712   3.105   6.193 -0.3629 -1.6577  1.6547
 1495SOL    HW216119   0.073   2.999   6.148 -3.0199 -0.1916 -0.5730
 1496SOL     OW16120   3.646   1.658   2.451 -0.2159 -0.0672 -0.0312
 1496SOL    HW116121   3.620   1.750   2.454  1.3190  0.2868  2.2207
 1496SOL    HW216122   3.594   1.620   2.522 -0.5089 -0.2667 -0.3528
 1497SOL     OW16123   1.838   1.856   5.477 -0.1441 -0.0008 -0.1887
 1497SOL    HW116124   1.792   1.790   5.529  1.7530 -0.0934  1.3899
 1497SOL    HW216125   1.819   1.939   5.520 -0.7640 -0.5995  0.6930
 1498SOL     OW16126   4.588   3.952   5.319 -0.2923  0.4252 -0.4979
 1498SOL    HW116127   4.607   3.931   5.410 -3.5791  0.1611  0.1329
 1498SOL    HW216128   4.515   3.894   5.298 -1.0217  1.0580  0.3165
 1499SOL     OW16129   1.387   0.827   6.238  0.1409 -0.4576 -0.2920
 1499SOL    HW116130   1.427   0.891   6.297  2.6630 -0.3760 -2.1235
 1499SOL    HW216131   1.455   0.760   6.233  0.1780 -0.4414  0.0119
 1500SOL     OW16132   2.095   4.361   1.928  0.0517  0.0713 -0.3876
 1500SOL    HW116133   2.069   4.269   1.923 -0.7812  0.2438  0.7059
 1500SOL    HW216134   2.031   4.393   1.991 -0.6715  0.1836 -1.1747
 1501SOL     OW16135   3.338   4.323   5.429  0.1934 -0.2377  0.3610
 1501SOL    HW116136   3.260   4.375   5.409  0.2918 -0.8345 -1.6602
 1501SOL    HW216137   3.396   4.398   5.442 -0.2940  0.4490 -1.3732
 1502SOL     OW16138   4.327   0.904   4.515  0.0300 -0.2071 -0.4223
 1502SOL    HW116139   4.340   0.971   4.582  0.3419  1.2166 -1.8762
 1502SOL    HW216140   4.410   0.858   4.522  0.3165  0.7366  2.4823
 1503SOL     OW16141   0.523   0.894   6.590 -0.0241 -0.6443 -0.2954
 1503SOL    HW116142   0.458   0.961   6.569 -1.2160 -1.5076  0.5897
 1503SOL    HW216143   0.468   0.816   6.586 -0.4530 -0.3781  0.3856
 1504SOL     OW16144   0.323   2.989   2.291 -0.5967  0.2402 -0.4675
 1504SOL    HW116145   0.233   3.017   2.276 -0.7591  1.5512  3.0456
 1504SOL    HW216146   0.327   2.894   2.279  2.1515  0.2934  0.0413
 1505SOL     OW16147   3.844   2.159   8.570 -0.4498  0.3891  0.5121
 1505SOL    HW116148   3.800   2.242   8.586 -1.1725  0.4921 -2.0009
 1505SOL    HW216149   3.935   2.179   8.550  0.4940 -2.3708  2.0873
 1506SOL     OW16150   3.498   1.910   5.791  0.4471  0.5052  0.1004
 1506SOL    HW116151   3.411   1.945   5.772  0.0565  0.3109  1.5071
 1506SOL    HW216152   3.546   1.992   5.784 -0.9049  1.2028 -0.9901
 1507SOL     OW16153   4.438   2.205  17.423 -0.2724  0.2200  0.4659
 1507SOL    HW116154   4.385   2.185  17.346  0.3741  1.0878 -0.2034
 1507SOL    HW216155   4.404   2.147  17.492  0.5845  0.0278  0.7285
 1508SOL     OW16156   0.196   3.349  13.807 -0.1408 -0.1132 -0.1372
 1508SOL    HW116157   0.119   3.406  13.810 -0.5779 -0.6505 -1.2263
 1508SOL    HW216158   0.260   3.400  13.758  0.4457  0.3374  1.0830
 1509SOL     OW16159   2.606   3.896  16.169 -0.2007 -0.3016  0.4600
 1509SOL    HW116160   2.678   3.957  16.180  0.9331 -1.2578 -1.5541
 1509SOL    HW216161   2.655   3.830  16.120 -0.2112 -1.7018  2.3623
 1510SOL     OW16162   3.845   1.415   4.183  0.0538  0.0990 -0.1480
 1510SOL    HW116163   3.885   1.452   4.105 -0.6079  2.3176  0.5657
 1510SOL    HW216164   3.858   1.477   4.256 -1.5160  0.1489  0.0766
 1511SOL     OW16165   0.545   3.621   9.697 -0.2584  0.1807  0.0077
 1511SOL    HW116166   0.597   3.602   9.619 -1.2783 -0.2330 -0.5875
 1511SOL    HW216167   0.592   3.699   9.725 -0.2372 -0.5461  1.9559
 1512SOL     OW16168   2.062   1.739   4.428  0.0883  0.0445  0.0219
 1512SOL    HW116169   2.046   1.673   4.360 -1.6241 -2.1143  2.5176
 1512SOL    HW216170   2.107   1.804   4.374  1.5755 -1.0929 -0.1184
 1513SOL     OW16171   0.958   4.079   7.258  0.3763 -0.2803  0.3110
 1513SOL    HW116172   1.026   4.053   7.196 -0.8749 -1.9246 -0.3587
 1513SOL    HW216173   1.024   4.090   7.326 -0.5413  2.4602  0.7648
 1514SOL     OW16174   3.252   1.585   9.004 -0.3096  0.0919 -0.5717
 1514SOL    HW116175   3.274   1.495   9.028 -0.2044  0.5238  0.9552
 1514SOL    HW216176   3.157   1.577   8.989 -0.2722 -1.9889  0.3012
 1515SOL     OW16177   0.258   3.155   2.675 -0.2138  0.3384 -0.3159
 1515SOL    HW116178   0.170   3.119   2.687  0.1730  0.3987  2.6112
 1515SOL    HW216179   0.277   3.180   2.766  0.7924 -0.0189 -0.4289
 1516SOL     OW16180   3.171   0.493  11.326  0.2066  0.2214 -0.5560
 1516SOL    HW116181   3.263   0.466  11.327 -0.1898 -1.1167 -0.9018
 1516SOL    HW216182   3.135   0.410  11.357  1.7425  0.4426  1.8263
 1517SOL     OW16183   0.134   4.038   6.326 -0.5563  0.9488  0.5791
 1517SOL    HW116184   0.218   4.050   6.371 -0.4487 -2.2416  1.2302
 1517SOL    HW216185   0.078   4.005   6.397 -0.2573 -0.2758  0.2583
 1518SOL     OW16186   2.043   0.515   6.227  0.0857 -0.3798 -0.1817
 1518SOL    HW116187   1.982   0.536   6.297  0.1688 -0.7634  0.0098
 1518SOL    HW216188   2.109   0.581   6.245 -0.9560  0.1305  1.7655
 1519SOL     OW16189   3.055   0.605  15.547  0.0576 -0.0132  0.1006
 1519SOL    HW116190   3.040   0.578  15.456  3.4801 -1.3128 -0.0516
 1519SOL    HW216191   3.078   0.520  15.584 -1.0952 -0.2463  0.2998
 1520SOL     OW16192   3.058   4.682  11.562  0.2448  0.1239  0.3268
 1520SOL    HW116193   2.976   4.652  11.522  0.1139  2.5083 -1.1348
 1520SOL    HW216194   3.050   4.734  11.642 -1.7789  1.5706 -0.8297
 1521SOL     OW16195   1.873   2.957   7.180 -0.2518  0.0348 -0.2721
 1521SOL    HW116196   1.969   2.962   7.179 -0.0965 -2.3538  2.2215
 1521SOL    HW216197   1.851   2.864   7.183  0.0671 -0.0480 -0.3865
 1522SOL     OW16198   3.960   0.535   3.305  0.2216  0.1842 -0.0146
 1522SOL    HW116199   3.943   0.447   3.272  0.0381  0.7985 -1.5382
 1522SOL    HW216200   3.869   0.562   3.317 -0.6514 -2.5275 -0.6136
 1523SOL     OW16201   1.254   4.601   9.663  0.8049 -0.6492  0.0680
 1523SOL    HW116202   1.167   4.632   9.689  1.5794  0.3729  1.4452
 1523SOL    HW216203   1.237   4.583   9.570  2.2679  0.5643 -0.4268
 1524SOL     OW16204   3.849   0.167  15.932  0.1534 -0.5226  0.3608
 1524SOL    HW116205   3.926   0.188  15.985  0.7562 -2.5530  0.2975
 1524SOL    HW216206   3.882   0.187  15.844  2.5303  1.9530  1.8334
 1525SOL     OW16207   2.035   4.660   4.972  0.0392  0.0221  0.7057
 1525SOL    HW116208   2.014   4.569   4.953 -1.8714  0.5854  0.0970
 1525SOL    HW216209   2.128   4.646   4.991  0.1319 -2.2991 -1.3929
 1526SOL     OW16210   3.059   1.787   8.074 -0.1020  0.1565  0.1943
 1526SOL    HW116211   3.124   1.858   8.077  2.2149 -1.8840 -0.9859
 1526SOL    HW216212   3.118   1.714   8.091  1.1781  1.2044  0.2820
 1527SOL     OW16213   2.165   3.942  11.523 -0.3072 -0.0802 -0.2418
 1527SOL    HW116214   2.221   3.883  11.473  1.7449 -0.0906  2.0753
 1527SOL    HW216215   2.226   3.970  11.591  2.3954  0.0091 -2.6595
 1528SOL     OW16216   0.102   4.535   5.460 -0.0943  0.7087 -0.1484
 1528SOL    HW116217   0.111   4.487   5.543  1.4720 -1.5604 -1.6280
 1528SOL    HW216218   0.072   4.465   5.402 -2.7215  0.8220  1.0984
 1529SOL     OW16219   2.939   0.360   6.107 -0.5295 -0.8211  0.3299
 1529SOL    HW116220   3.000   0.294   6.072 -0.3930 -0.7629  0.4570
 1529SOL    HW216221   3.000   0.410   6.162 -0.2049  1.3074 -1.9627
 1530SOL     OW16222   1.875   4.565  15.238 -0.1016 -0.2572 -0.5670
 1530SOL    HW116223   1.819   4.488  15.222 -1.9131  0.4408  2.3652
 1530SOL    HW216224   1.810   4.596  15.301  1.8648  0.9874  0.8600
 1531SOL     OW16225   3.189   3.483  13.801 -0.0055  0.4503  0.1301
 1531SOL    HW116226   3.117   3.520  13.750  0.7640  1.2123 -0.4080
 1531SOL    HW216227   3.258   3.490  13.735  0.6231 -1.3909  0.6024
 1532SOL     OW16228   2.858   3.337   6.685  0.6565  0.2794 -0.2100
 1532SOL    HW116229   2.804   3.370   6.614  1.8582 -0.1814 -1.3322
 1532SOL    HW216230   2.811   3.371   6.761  0.1347  1.1353 -0.9226
 1533SOL     OW16231   4.663   3.765   2.407  0.6210 -0.3397  0.1367
 1533SOL    HW116232   0.011   3.756   2.362  1.7778 -2.4794  2.7467
 1533SOL    HW216233   4.646   3.858   2.392  1.1298 -0.1472  0.7238
 1534SOL     OW16234   4.703   3.289  17.462 -0.6957  0.2111  0.5238
 1534SOL    HW116235   4.653   3.220  17.419  1.6427 -1.1478 -0.0322
 1534SOL    HW216236   4.698   3.262  17.554  1.7177  2.5518  1.3438
 1535SOL     OW16237   3.312   0.115   8.277 -0.4757  0.2380  0.2083
 1535SOL    HW116238   3.335   0.207   8.280 -0.1416  0.1154  1.2711
 1535SOL    HW216239   3.355   0.097   8.193 -2.3349 -1.0509 -0.4695
 1536SOL     OW16240   0.588   0.544   7.456 -0.1143  0.2679  0.0874
 1536SOL    HW116241   0.548   0.486   7.392  1.6161  1.2994 -1.9235
 1536SOL    HW216242   0.675   0.509   7.476  0.2151 -0.4338 -2.5041
 1537SOL     OW16243   4.218   0.294   9.279  0.1140  0.5015 -0.1768
 1537SOL    HW116244   4.300   0.247   9.266 -0.4060 -0.4017 -0.2027
 1537SOL    HW216245   4.224   0.365   9.215 -0.6760  2.4031  1.8948
 1538SOL     OW16246   4.681   3.133   4.473 -0.1321  0.0791 -0.2371
 1538SOL    HW116247   4.673   3.077   4.396 -0.7736  0.6010 -0.5510
 1538SOL    HW216248   4.716   3.218   4.445 -0.9922  0.0874 -1.3149
 1539SOL     OW16249   4.327   1.940   3.286  0.0985  0.6212  0.5964
 1539SOL    HW116250   4.334   1.851   3.320  1.8147  1.2860  1.9685
 1539SOL    HW216251   4.358   1.993   3.360 -0.4204 -1.7142  2.5038
 1540SOL     OW16252   1.918   1.533   2.755 -0.0829 -0.5460 -0.3052
 1540SOL    HW116253   1.857   1.596   2.718  0.4021 -2.8412 -4.9816
 1540SOL    HW216254   1.971   1.582   2.818  0.8908  1.4025 -2.6677
 1541SOL     OW16255   0.336   1.248   9.362  0.0655  0.0144  0.0489
 1541SOL    HW116256   0.426   1.215   9.356  0.4434  0.7405  1.7904
 1541SOL    HW216257   0.330   1.299   9.282  0.1353  0.7123  0.4858
 1542SOL     OW16258   4.127   1.341   4.739  0.2028  0.6804  0.2456
 1542SOL    HW116259   4.053   1.377   4.691 -0.3356 -0.6767  0.0633
 1542SOL    HW216260   4.111   1.247   4.733  0.5069  0.6788 -0.4819
 1543SOL     OW16261   2.426   2.912   4.721 -0.3275 -0.0079 -0.0367
 1543SOL    HW116262   2.500   2.970   4.739 -0.5047 -0.0859  0.9431
 1543SOL    HW216263   2.389   2.909   4.809  0.6733 -2.2181  0.2900
 1544SOL     OW16264   1.616   3.422  12.897 -0.0562  0.2514  0.3217
 1544SOL    HW116265   1.557   3.481  12.945  0.4889  0.8962  0.1946
 1544SOL    HW216266   1.693   3.445  12.949  0.9643  1.5945 -1.7989
 1545SOL     OW16267   2.005   2.872   8.285 -0.1867  0.3496  0.1511
 1545SOL    HW116268   1.966   2.951   8.320 -2.0372 -0.3199 -0.4230
 1545SOL    HW216269   1.983   2.875   8.192  1.9162 -0.2581 -0.3745
 1546SOL     OW16270   2.461   0.144   6.004  0.4336 -0.2338  0.3536
 1546SOL    HW116271   2.525   0.191   6.057 -0.3200 -1.5630  2.4380
 1546SOL    HW216272   2.521   0.092   5.949  0.9788  0.0167  0.7068
 1547SOL     OW16273   3.364   4.411   9.472 -0.1934 -0.4683  0.8759
 1547SOL    HW116274   3.438   4.469   9.453  0.2870 -1.0942  0.8500
 1547SOL    HW216275   3.339   4.440   9.560  1.7081  0.9489  0.9646
 1548SOL     OW16276   0.751   4.040   9.413  0.1926 -0.5136 -0.5910
 1548SOL    HW116277   0.723   4.070   9.500 -1.3400 -2.7574 -0.3231
 1548SOL    HW216278   0.806   3.966   9.438 -0.7363 -1.1299 -0.3361
 1549SOL     OW16279   1.550   1.539  17.476  0.4061 -0.3418 -0.2391
 1549SOL    HW116280   1.459   1.513  17.466 -0.4314  1.9306  1.3448
 1549SOL    HW216281   1.551   1.534  17.572 -1.6046  1.1073 -0.1388
 1550SOL     OW16282   2.321   0.834   7.286 -0.3608 -0.1527 -0.0016
 1550SOL    HW116283   2.254   0.793   7.340  0.4662 -0.6158  0.6692
 1550SOL    HW216284   2.264   0.904   7.256  1.4317  1.9825  1.6041
 1551SOL     OW16285   4.078   2.286   7.447 -0.5912  0.2592 -0.2046
 1551SOL    HW116286   4.133   2.266   7.522 -0.2745 -0.8092 -0.7206
 1551SOL    HW216287   4.006   2.225   7.464 -2.3867  2.0958 -1.1671
 1552SOL     OW16288   2.839   4.472  11.748  0.0351  0.2087  0.3100
 1552SOL    HW116289   2.762   4.421  11.771  0.8262  0.1628  2.8745
 1552SOL    HW216290   2.843   4.469  11.652 -1.3405 -1.5728  0.3133
 1553SOL     OW16291   0.190   3.475  15.891 -0.2590 -0.1057  0.2975
 1553SOL    HW116292   0.248   3.520  15.829 -1.2199 -0.4103 -0.8123
 1553SOL    HW216293   0.129   3.433  15.831  0.2625 -0.5453  0.0811
 1554SOL     OW16294   0.555   1.198  12.781 -0.0259  0.1864 -0.6510
 1554SOL    HW116295   0.545   1.293  12.787 -0.1891 -0.0326  2.5513
 1554SOL    HW216296   0.639   1.189  12.826 -0.3794  3.9287  0.7128
 1555SOL     OW16297   1.947   2.769   8.023  0.2735  0.6255 -0.0965
 1555SOL    HW116298   2.031   2.728   8.002  1.1007  1.4934  1.5228
 1555SOL    HW216299   1.882   2.702   8.006 -0.4668  1.3879 -0.2466
 1556SOL     OW16300   2.462   3.890   5.269 -0.1610  0.4611 -0.7990
 1556SOL    HW116301   2.521   3.822   5.300 -1.1201 -0.4702 -1.0289
 1556SOL    HW216302   2.509   3.960   5.314 -0.6238  0.7792 -0.8072
 1557SOL     OW16303   1.084   3.323   8.663  0.7049  0.0152  0.1002
 1557SOL    HW116304   1.176   3.302   8.648  0.2883 -2.9261  1.6800
 1557SOL    HW216305   1.060   3.275   8.743  2.6344  0.2849  0.8276
 1558SOL     OW16306   1.166   0.458  12.389  0.0513  0.0490  0.0394
 1558SOL    HW116307   1.209   0.432  12.308 -1.1122  1.0481 -0.9083
 1558SOL    HW216308   1.200   0.387  12.443 -0.6267  0.3966  0.9238
 1559SOL     OW16309   2.848   0.023   1.561 -0.1830  0.0110  0.3309
 1559SOL    HW116310   2.912   4.690   1.577 -0.1890 -0.1732 -0.4339
 1559SOL    HW216311   2.816   0.048   1.647 -1.0648  0.9340 -0.2538
 1560SOL     OW16312   2.300   2.448  16.820  0.3289 -0.6130  0.3686
 1560SOL    HW116313   2.214   2.406  16.820  0.5930 -1.1610 -1.6631
 1560SOL    HW216314   2.297   2.486  16.908  1.3781  0.6146 -0.1292
 1561SOL     OW16315   3.107   0.378  10.544  0.4419 -0.1547 -0.3855
 1561SOL    HW116316   3.106   0.338  10.632  2.2169  3.0907  1.1133
 1561SOL    HW216317   3.166   0.448  10.571 -0.1364 -0.5198  1.8810
 1562SOL     OW16318   1.041   1.623   2.851  0.1507  0.5299  0.4555
 1562SOL    HW116319   1.044   1.719   2.849  2.2111  0.4704  0.2183
 1562SOL    HW216320   0.965   1.610   2.907  0.3792 -1.8587  0.1878
 1563SOL     OW16321   0.499   4.498  12.675  0.1085  0.2362  0.3564
 1563SOL    HW116322   0.517   4.556  12.750  0.6336 -1.6204  1.6484
 1563SOL    HW216323   0.572   4.525  12.619 -0.6074 -0.2992 -0.8336
 1564SOL     OW16324   4.717   2.066  11.956 -0.6073  0.1231  0.4765
 1564SOL    HW116325   4.713   1.974  11.932  0.2805 -0.1506  1.3611
 1564SOL    HW216326   0.034   2.102  11.885 -1.9737 -0.0200 -0.6237
 1565SOL     OW16327   0.425   0.946   3.828 -0.4328 -0.1400  0.5111
 1565SOL    HW116328   0.410   0.940   3.734  0.0213 -1.4909  0.5264
 1565SOL    HW216329   0.342   0.915   3.864 -0.1647 -0.0487  1.2097
 1566SOL     OW16330   0.919   0.170   1.810 -0.1047  0.1055  0.3608
 1566SOL    HW116331   0.983   0.149   1.743  2.6047 -0.2667  3.0799
 1566SOL    HW216332   0.837   0.132   1.778 -0.2710  1.3337 -0.6652
 1567SOL     OW16333   4.206   1.767   8.578  0.1635  0.3878  0.2038
 1567SOL    HW116334   4.255   1.839   8.540  0.9171 -0.3773 -0.2821
 1567SOL    HW216335   4.127   1.813   8.607  1.4461  1.1585  2.4238
 1568SOL     OW16336   2.428   3.668   4.452  0.1620 -0.2975 -0.2717
 1568SOL    HW116337   2.429   3.637   4.542 -2.5212 -2.5201 -0.9892
 1568SOL    HW216338   2.372   3.746   4.450  0.7600  0.1317 -0.0839
 1569SOL     OW16339   4.300   1.129   3.072 -0.5651  0.3260 -0.5475
 1569SOL    HW116340   4.392   1.136   3.098 -0.3761 -1.0158 -0.8757
 1569SOL    HW216341   4.262   1.109   3.158  0.7424  0.8875  0.1675
 1570SOL     OW16342   0.683   3.397   3.838 -0.1157  0.1918 -0.2409
 1570SOL    HW116343   0.737   3.476   3.839 -2.1702  1.5699  0.5377
 1570SOL    HW216344   0.638   3.418   3.756  3.6293  0.7643 -2.1768
 1571SOL     OW16345   4.325   2.004   2.078  0.9034 -0.0632 -0.1627
 1571SOL    HW116346   4.340   1.912   2.055 -1.6677 -0.5043 -0.0768
 1571SOL    HW216347   4.238   1.998   2.117  1.1936 -0.1585  0.4614
 1572SOL     OW16348   3.226   4.583   7.471 -0.1308 -0.2365  0.5314
 1572SOL    HW116349   3.245   4.499   7.429 -0.5978  0.3101 -0.7800
 1572SOL    HW216350   3.229   4.638   7.392 -1.1513  1.7818  1.9075
 1573SOL     OW16351   4.522   0.552   5.366 -0.4258  0.3845  0.4228
 1573SOL    HW116352   4.433   0.515   5.369  0.2264 -1.4029 -2.9341
 1573SOL    HW216353   4.514   0.616   5.295 -0.5545  1.3219  1.2783
 1574SOL     OW16354   2.375   2.571   2.623  0.4110 -0.0949 -0.4940
 1574SOL    HW116355   2.404   2.524   2.544 -1.1181 -0.4064 -0.8696
 1574SOL    HW216356   2.384   2.501   2.689  1.3466  1.3109  0.8619
 1575SOL     OW16357   1.976   2.184   7.055 -0.5001  0.4960  0.1270
 1575SOL    HW116358   2.020   2.167   7.139  0.9234  1.5960 -0.3941
 1575SOL    HW216359   1.933   2.101   7.040  0.2294  0.1099  0.1740
 1576SOL     OW16360   1.707   4.532   3.755 -0.1913 -0.0016  0.7715
 1576SOL    HW116361   1.646   4.596   3.792 -1.3851  0.5088 -2.0414
 1576SOL    HW216362   1.668   4.543   3.668  3.6551 -2.4471 -1.2147
 1577SOL     OW16363   3.920   3.432   2.477 -0.2013  0.2598 -0.3426
 1577SOL    HW116364   3.925   3.384   2.560  0.5006 -0.7982 -0.9848
 1577SOL    HW216365   3.911   3.521   2.510  1.0441  0.0538  0.5556
 1578SOL     OW16366   1.033   0.454   6.409  0.4102  0.0459  0.4238
 1578SOL    HW116367   1.102   0.494   6.357 -1.3008  2.3661 -0.0840
 1578SOL    HW216368   1.029   0.360   6.389  1.1603 -0.3916  2.3934
 1579SOL     OW16369   3.108   0.017   2.332  0.3085  0.1057 -0.6368
 1579SOL    HW116370   3.174   0.081   2.307  0.9159  0.2085  1.2412
 1579SOL    HW216371   3.028   0.067   2.315 -1.6853 -2.3710  1.4271
 1580SOL     OW16372   4.092   0.675  13.647 -0.4034  0.3986  0.4334
 1580SOL    HW116373   4.020   0.701  13.704 -0.7499 -0.8392  0.5538
 1580SOL    HW216374   4.049   0.618  13.583  1.3661  0.1754 -0.5565
 1581SOL     OW16375   0.745   1.591   5.126 -0.0415  0.3624  0.3310
 1581SOL    HW116376   0.760   1.615   5.035 -0.3664  0.5557  0.3299
 1581SOL    HW216377   0.820   1.542   5.160 -0.2688  0.5985  1.1949
 1582SOL     OW16378   1.789   2.108   2.168 -0.2791  0.2177 -0.2245
 1582SOL    HW116379   1.721   2.150   2.115  0.0534  1.2676  0.1868
 1582SOL    HW216380   1.820   2.048   2.100 -0.9357  0.3108 -0.6121
 1583SOL     OW16381   1.076   3.395  12.894  0.1514 -0.8621  0.2982
 1583SOL    HW116382   1.154   3.340  12.903 -0.2184 -1.3373  0.6021
 1583SOL    HW216383   1.103   3.469  12.840 -2.2514  0.2043  0.5930
 1584SOL     OW16384   4.120   1.802   7.499 -0.1462  0.0208  0.1060
 1584SOL    HW116385   4.027   1.779   7.499  0.0047 -0.6032  1.2044
 1584SOL    HW216386   4.152   1.768   7.583 -0.1821  1.7327  0.8055
 1585SOL     OW16387   4.091   0.345   8.287 -0.3151 -0.3000  0.5120
 1585SOL    HW116388   4.112   0.288   8.361  1.0236  0.7372  0.9453
 1585SOL    HW216389   4.038   0.288   8.232 -2.0457  1.2048  0.6248
 1586SOL     OW16390   3.819   3.127   2.959 -0.1651 -0.1346 -0.0231
 1586SOL    HW116391   3.726   3.151   2.961  0.0394  0.5112  1.8814
 1586SOL    HW216392   3.817   3.045   3.009  1.7256 -0.1303  0.0874
 1587SOL     OW16393   4.521   1.499   8.960 -0.4424  0.4354  0.2516
 1587SOL    HW116394   4.493   1.420   9.008 -0.5335  0.8855  0.9465
 1587SOL    HW216395   4.607   1.521   8.995 -0.7375 -0.2057  1.3901
 1588SOL     OW16396   1.539   3.944   9.460  0.2493  0.3387  0.1813
 1588SOL    HW116397   1.452   3.953   9.422  0.3379  1.8193  0.3223
 1588SOL    HW216398   1.559   4.022   9.513  0.7087  0.1930  0.2289
 1589SOL     OW16399   0.589   1.335  17.544  0.5975  0.1662 -0.2628
 1589SOL    HW116400   0.641   1.278  17.487  2.6530  0.5339  1.2599
 1589SOL    HW216401   0.658   1.378  17.594 -0.3336  0.7636  0.5027
 1590SOL     OW16402   1.514   3.256  10.761  0.3361 -0.1665 -0.2636
 1590SOL    HW116403   1.573   3.246  10.836  1.1387 -1.4924 -1.0691
 1590SOL    HW216404   1.541   3.187  10.701 -2.9958 -0.9356 -0.8704
 1591SOL     OW16405   0.437   3.737   1.701 -0.0356  0.1332  0.4135
 1591SOL    HW116406   0.519   3.780   1.676  0.7586  0.2854  3.3864
 1591SOL    HW216407   0.452   3.643   1.687 -0.1124  0.5235 -2.3549
 1592SOL     OW16408   1.341   2.157   6.262 -0.0772 -0.5122  0.1293
 1592SOL    HW116409   1.307   2.172   6.350 -0.4136  2.8109 -0.5744
 1592SOL    HW216410   1.376   2.243   6.238 -0.1733 -0.2547  0.9296
 1593SOL     OW16411   2.919   0.705   9.072  0.1677  0.4988 -0.9230
 1593SOL    HW116412   2.832   0.665   9.073 -0.3163  1.6074  1.9320
 1593SOL    HW216413   2.974   0.640   9.117 -1.7210 -0.2658  0.2931
 1594SOL     OW16414   3.882   1.373   9.228  0.0957  0.0187  0.2637
 1594SOL    HW116415   3.845   1.328   9.152 -0.2540  2.0280 -0.7564
 1594SOL    HW216416   3.816   1.438   9.249 -0.5897 -0.1879 -1.2746
 1595SOL     OW16417   3.155   0.275  14.572  0.6184  0.3385  0.0205
 1595SOL    HW116418   3.086   0.341  14.582  0.2746  0.0008 -0.1021
 1595SOL    HW216419   3.218   0.317  14.515 -0.4262 -1.8158 -2.7009
 1596SOL     OW16420   2.672   3.208   8.739  0.3786  0.1793  0.1029
 1596SOL    HW116421   2.703   3.236   8.653 -0.2939  1.1400  0.1809
 1596SOL    HW216422   2.683   3.284   8.795 -3.0721 -0.9274  2.3063
 1597SOL     OW16423   1.952   3.171   3.158 -0.7247 -0.1143  0.8170
 1597SOL    HW116424   1.899   3.098   3.189 -1.0607  0.0283  0.5857
 1597SOL    HW216425   2.035   3.126   3.170  1.5610  4.6583  2.6850
 1598SOL     OW16426   1.349   2.622   2.098  0.0073  0.3520 -0.5327
 1598SOL    HW116427   1.365   2.531   2.074  0.8051  0.4054 -0.2235
 1598SOL    HW216428   1.441   2.644   2.117  0.3488 -0.6695 -1.0185
 1599SOL     OW16429   1.060   4.292   8.152  0.3549 -0.2189  0.1692
 1599SOL    HW116430   1.087   4.268   8.064  2.2222 -2.5649  1.4033
 1599SOL    HW216431   1.140   4.254   8.188 -1.0369 -1.3046  2.0934
 1600SOL     OW16432   4.533   0.330  15.734  0.5579 -0.3630 -0.3380
 1600SOL    HW116433   4.524   0.417  15.696 -2.3135  0.4022  2.0145
 1600SOL    HW216434   4.442   0.301  15.733 -0.4739  2.8609  1.0620
 1601SOL     OW16435   1.638   2.720  10.425  0.1795  0.9615  0.3670
 1601SOL    HW116436   1.614   2.720  10.518  3.3923 -0.0992  1.1674
 1601SOL    HW216437   1.686   2.802  10.434 -1.7542  2.0837  0.4538
 1602SOL     OW16438   2.750   3.596   6.582  0.1422 -0.1642 -0.3105
 1602SOL    HW116439   2.746   3.690   6.565  3.6868  0.0789  0.0941
 1602SOL    HW216440   2.840   3.592   6.616 -0.9292  1.8160  2.8116
 1603SOL     OW16441   0.854   0.783   4.722 -0.0172 -0.3351 -0.1561
 1603SOL    HW116442   0.798   0.822   4.654 -2.5239 -1.6458  1.1893
 1603SOL    HW216443   0.849   0.689   4.706  0.4419 -0.2726 -0.6822
 1604SOL     OW16444   3.712   2.612   7.966 -0.1028 -0.0264 -0.2001
 1604SOL    HW116445   3.711   2.638   8.058 -2.5075 -2.6257  0.5211
 1604SOL    HW216446   3.693   2.518   7.966 -1.7021  0.2935  1.8617
 1605SOL     OW16447   4.031   3.122   4.443 -0.5207 -0.0611 -0.0295
 1605SOL    HW116448   4.123   3.102   4.454 -0.8945 -0.9440  1.4181
 1605SOL    HW216449   4.014   3.093   4.353  1.6128 -1.2081 -0.0431
 1606SOL     OW16450   0.151   3.663   8.885 -0.6092 -0.6774 -0.0480
 1606SOL    HW116451   0.075   3.640   8.832  0.7064 -2.2508 -1.2217
 1606SOL    HW216452   0.206   3.594   8.848 -0.3993 -0.9324  0.7515
 1607SOL     OW16453   3.676   2.328  17.593  0.1835 -0.4055 -0.5871
 1607SOL    HW116454   3.641   2.413  17.621 -3.1831 -0.9314 -3.1777
 1607SOL    HW216455   3.709   2.357  17.508 -0.1503 -0.1292 -0.6201
 1608SOL     OW16456   4.336   4.680   8.495  0.1976 -0.4198  0.3081
 1608SOL    HW116457   4.364   0.033   8.514 -1.6851 -0.4618  3.2657
 1608SOL    HW216458   4.421   4.642   8.473  0.1280 -1.0055  1.0600
 1609SOL     OW16459   3.830   2.442  12.758  0.0374 -0.6149  0.4800
 1609SOL    HW116460   3.895   2.422  12.826  0.9354  0.3366 -0.1080
 1609SOL    HW216461   3.785   2.522  12.784  1.4073  0.1729  0.3953
 1610SOL     OW16462   4.578   0.290  14.959 -1.0481  0.0193  0.4153
 1610SOL    HW116463   4.642   0.360  14.947  0.1864 -1.4507 -1.5848
 1610SOL    HW216464   4.506   0.350  14.937  0.3794  1.7514  0.4545
 1611SOL     OW16465   2.764   1.323  13.759 -0.2010  0.1266 -0.3424
 1611SOL    HW116466   2.792   1.252  13.700 -1.8002 -0.2793 -0.6171
 1611SOL    HW216467   2.754   1.276  13.842 -0.9267 -1.0861 -1.1156
 1612SOL     OW16468   0.727   1.293   9.270  0.0724  0.1774  0.1646
 1612SOL    HW116469   0.701   1.215   9.319 -0.8145 -0.1107 -0.7879
 1612SOL    HW216470   0.667   1.361   9.300  1.2887  0.8783  1.0141
 1613SOL     OW16471   3.373   2.033   8.977  0.3594  0.7004 -0.4866
 1613SOL    HW116472   3.356   2.124   8.953 -1.5062  0.6059  0.4451
 1613SOL    HW216473   3.392   2.033   9.071 -2.4919 -0.0589  0.0895
 1614SOL     OW16474   2.870   3.061   8.045  0.4631  0.4875 -0.2911
 1614SOL    HW116475   2.812   2.997   8.087  2.2342 -0.6228  0.4624
 1614SOL    HW216476   2.884   3.038   7.953 -0.5698  1.5710 -0.7111
 1615SOL     OW16477   3.973   2.418  11.282  0.0881  0.6842  0.0778
 1615SOL    HW116478   3.955   2.326  11.261 -0.4777  1.0919 -1.2527
 1615SOL    HW216479   3.978   2.456  11.194  0.4355  1.9921  0.6604
 1616SOL     OW16480   2.656   1.583   4.061 -0.0975  0.0614  0.4959
 1616SOL    HW116481   2.691   1.640   3.992  2.7581  0.2721  2.1333
 1616SOL    HW216482   2.714   1.507   4.063  0.2256  0.3304  1.6855
 1617SOL     OW16483   1.911   2.616  12.871  0.1435 -0.1788  0.2425
 1617SOL    HW116484   1.823   2.652  12.869  0.3508  0.4195  1.6652
 1617SOL    HW216485   1.892   2.523  12.857  0.2869 -0.4323  1.7093
 1618SOL     OW16486   1.608   0.072   9.990 -0.1508 -0.0402  0.1350
 1618SOL    HW116487   1.623   0.131   9.916 -3.2837 -1.0429 -1.3135
 1618SOL    HW216488   1.655   0.128  10.052  1.3771 -0.2539 -0.8563
 1619SOL     OW16489   1.372   4.085   1.759  0.5818  0.7782  0.0262
 1619SOL    HW116490   1.466   4.084   1.740  0.2609 -0.0232 -1.5444
 1619SOL    HW216491   1.375   4.152   1.827  0.0058  0.0529  0.7655
 1620SOL     OW16492   0.100   1.233   4.767  0.0726 -0.2407 -0.0037
 1620SOL    HW116493   0.113   1.310   4.711  0.6523  0.2844  0.8658
 1620SOL    HW216494   0.063   1.270   4.847  1.2485  0.3258  0.2729
 1621SOL     OW16495   0.841   4.567   3.327 -0.0320 -0.2082 -0.3162
 1621SOL    HW116496   0.934   4.549   3.335 -0.1051  0.2379  1.5527
 1621SOL    HW216497   0.850   4.585   3.233 -0.7699 -0.4389 -0.4367
 1622SOL     OW16498   0.733   1.374   4.759  0.3207 -0.0207  0.0644
 1622SOL    HW116499   0.693   1.296   4.720  0.7906 -0.6556  0.8660
 1622SOL    HW216500   0.810   1.332   4.798  0.7441  2.4419  1.8468
 1623SOL     OW16501   1.685   4.648   1.925  0.0164 -0.3707 -0.4461
 1623SOL    HW116502   1.624   4.605   1.986 -0.0815 -0.3532 -0.5306
 1623SOL    HW216503   1.711   4.560   1.898 -2.1636 -1.7282  1.8443
 1624SOL     OW16504   3.675   3.111   2.178  0.5863  0.0231 -0.0887
 1624SOL    HW116505   3.627   3.050   2.123  0.2968 -0.6740  0.9277
 1624SOL    HW216506   3.629   3.094   2.260 -1.0712  0.4126 -0.9291
 1625SOL     OW16507   0.081   0.694   3.012 -0.0480 -0.1013 -0.3507
 1625SOL    HW116508   0.137   0.754   2.962  0.2811 -2.8751 -3.3783
 1625SOL    HW216509   0.084   0.606   2.974  1.2771 -0.2191  0.0160
 1626SOL     OW16510   3.671   1.793   2.070 -0.1741  0.3147  0.2097
 1626SOL    HW116511   3.648   1.867   2.126 -1.5550  0.8147 -0.9985
 1626SOL    HW216512   3.582   1.779   2.038 -0.0451  2.2213 -1.0109
 1627SOL     OW16513   4.576   1.612   0.210  0.0974  0.0488  0.1509
 1627SOL    HW116514   4.509   1.642   0.150  0.3685  2.2654  0.9767
 1627SOL    HW216515   4.652   1.610   0.151 -1.6273  0.4878 -2.0794
 1628SOL     OW16516   2.023   1.257  16.185  0.5240  0.5851 -0.4795
 1628SOL    HW116517   1.933   1.250  16.155  0.8605 -1.1032 -1.0550
 1628SOL    HW216518   2.042   1.349  16.169  3.3418 -0.1897 -1.5879
 1629SOL     OW16519   4.269   2.929   3.472 -0.1217 -0.1759  0.2985
 1629SOL    HW116520   4.350   2.977   3.492  0.3501 -0.6476 -0.5024
 1629SOL    HW216521   4.227   2.926   3.558 -3.1249 -1.0712 -1.2105
 1630SOL     OW16522   1.567   1.412   8.140 -0.0871  0.2457  0.1436
 1630SOL    HW116523   1.487   1.375   8.104  1.3650  0.7055 -3.5730
 1630SOL    HW216524   1.622   1.448   8.070 -0.6457 -1.7424 -1.3062
 1631SOL     OW16525   4.145   1.342   9.234 -0.0137 -0.2935  0.1550
 1631SOL    HW116526   4.050   1.352   9.228 -0.2087 -2.3579 -0.0680
 1631SOL    HW216527   4.174   1.401   9.164 -2.9092 -0.1748 -0.9495
 1632SOL     OW16528   0.942   4.088  10.337  1.0604  0.0483  0.0556
 1632SOL    HW116529   0.937   4.155  10.405  1.2805 -1.3783  1.4632
 1632SOL    HW216530   0.918   4.136  10.257 -0.9984  1.1130  1.2959
 1633SOL     OW16531   3.581   4.294  16.034  0.1661  0.7413 -0.4873
 1633SOL    HW116532   3.643   4.230  15.999 -1.3160 -1.6112  1.1240
 1633SOL    HW216533   3.520   4.232  16.076 -1.5462  2.1522 -0.9227
 1634SOL     OW16534   1.875   1.196   5.500 -0.3111 -0.0604  0.0525
 1634SOL    HW116535   1.918   1.137   5.438  0.5566  0.2674  0.3505
 1634SOL    HW216536   1.817   1.250   5.446  2.0333  1.3695 -1.0269
 1635SOL     OW16537   1.969   2.747  10.972  0.1145  0.1815  0.5490
 1635SOL    HW116538   1.993   2.717  10.884  0.0341  1.5434  0.0652
 1635SOL    HW216539   2.027   2.693  11.026 -3.4141 -2.7834  1.3802
 1636SOL     OW16540   1.877   2.031   3.750 -0.1215  0.1924 -0.0433
 1636SOL    HW116541   1.815   2.053   3.820  1.4291  0.1695  1.3224
 1636SOL    HW216542   1.955   2.047   3.803  0.7599  1.3006 -1.6619
 1637SOL     OW16543   2.338   0.401   0.567 -0.4246 -0.2952  0.0477
 1637SOL    HW116544   2.380   0.352   0.638 -2.3758  0.4301  1.7081
 1637SOL    HW216545   2.296   0.480   0.599  2.5284  0.9606  0.8168
 1638SOL     OW16546   2.894   0.735   1.653 -0.0820 -0.5195  0.6631
 1638SOL    HW116547   2.890   0.755   1.559 -2.2815  2.2739  1.3520
 1638SOL    HW216548   2.980   0.694   1.660 -0.0185 -0.2178  1.6020
 1639SOL     OW16549   4.341   3.664   3.882  0.2699  0.0525 -0.5224
 1639SOL    HW116550   4.422   3.698   3.843  0.9881 -0.2262  0.7322
 1639SOL    HW216551   4.311   3.739   3.934  0.0969 -1.1397  1.0984
 1640SOL     OW16552   0.961   4.102  17.095 -0.1003 -0.2887 -0.3918
 1640SOL    HW116553   0.980   4.106  17.188 -1.2727  1.9602 -0.2345
 1640SOL    HW216554   0.970   4.195  17.073  1.4881 -0.3858 -0.1440
 1641SOL     OW16555   3.647   1.656   4.674 -0.3079  0.2667 -0.2081
 1641SOL    HW116556   3.556   1.659   4.704 -0.7070 -0.9725 -1.2670
 1641SOL    HW216557   3.685   1.709   4.744 -1.7106  1.0391 -0.0331
 1642SOL     OW16558   4.576   2.486   2.573  0.5307 -0.2556  0.1384
 1642SOL    HW116559   4.531   2.561   2.536  0.9896 -0.2055 -0.3239
 1642SOL    HW216560   4.641   2.480   2.503  0.5930  0.4468  0.1376
 1643SOL     OW16561   3.571   4.563   4.447  0.6551  0.6863 -0.2352
 1643SOL    HW116562   3.610   4.550   4.360  1.4541 -1.9038  0.5077
 1643SOL    HW216563   3.495   4.619   4.435  0.1502 -0.2876 -1.5818
 1644SOL     OW16564   2.227   4.731   9.480  0.0558  0.1614  0.2606
 1644SOL    HW116565   2.227   0.077   9.528 -0.7851  0.6613 -0.5935
 1644SOL    HW216566   2.313   0.004   9.439 -0.6114 -0.4575 -1.2864
 1645SOL     OW16567   2.927   2.019   3.626  0.2413 -0.1954 -0.5911
 1645SOL    HW116568   3.014   2.057   3.618 -0.7453  1.3802 -3.6438
 1645SOL    HW216569   2.946   1.925   3.631  0.8050 -0.0851 -0.7441
 1646SOL     OW16570   0.018   3.183   5.360  0.2550  0.1890  0.4998
 1646SOL    HW116571   0.041   3.185   5.452  0.8951  2.7232  0.2736
 1646SOL    HW216572   4.732   3.091   5.342  0.8664  0.4963 -1.9131
 1647SOL     OW16573   1.316   0.786   3.080  0.3738 -0.0470  0.0956
 1647SOL    HW116574   1.361   0.857   3.126 -1.7274  1.0888  0.4227
 1647SOL    HW216575   1.386   0.726   3.053  2.1644  2.7675 -1.5025
 1648SOL     OW16576   2.762   3.864   6.537 -0.4459  0.1553  0.0143
 1648SOL    HW116577   2.680   3.913   6.534 -0.3231  0.2596 -1.5423
 1648SOL    HW216578   2.793   3.874   6.447  0.5889  0.8226  0.4471
 1649SOL     OW16579   4.233   2.670  14.337  0.4426 -0.4440 -0.3959
 1649SOL    HW116580   4.290   2.738  14.372 -3.5238  1.9522  1.3830
 1649SOL    HW216581   4.293   2.597  14.352  1.2212 -0.1245 -1.8866
 1650SOL     OW16582   3.335   0.375   8.656 -0.3650 -0.2105 -0.5943
 1650SOL    HW116583   3.317   0.438   8.726  0.4595  1.3028 -1.7549
 1650SOL    HW216584   3.334   0.290   8.701  1.4232  1.5258  2.7254
 1651SOL     OW16585   1.786   0.285   4.090  0.4911 -0.3820 -0.0468
 1651SOL    HW116586   1.712   0.264   4.034 -0.1150  4.0606 -0.9361
 1651SOL    HW216587   1.814   0.197   4.112  0.0573 -0.3734  0.5284
 1652SOL     OW16588   0.616   1.787   7.209 -0.8126 -0.2697  0.3913
 1652SOL    HW116589   0.607   1.848   7.136  0.7457  0.6691  0.9891
 1652SOL    HW216590   0.616   1.709   7.154  0.4168  0.7336 -0.9927
 1653SOL     OW16591   1.245   0.978   8.455 -0.0916  0.0830 -0.4387
 1653SOL    HW116592   1.220   0.889   8.428  1.8669 -0.9295  1.1283
 1653SOL    HW216593   1.330   0.974   8.498 -0.7081 -0.5102  0.7086
 1654SOL     OW16594   1.618   0.300   9.723  0.1182 -0.4051 -0.1301
 1654SOL    HW116595   1.666   0.350   9.658 -1.1974 -0.4728 -1.1577
 1654SOL    HW216596   1.588   0.232   9.662  0.5443 -3.4708  3.0355
 1655SOL     OW16597   0.482   2.526   2.056  0.1256 -0.1752 -0.0629
 1655SOL    HW116598   0.543   2.463   2.017  0.9588  0.7727 -0.2862
 1655SOL    HW216599   0.400   2.520   2.006  0.1961  3.2475 -0.5920
 1656SOL     OW16600   4.080   0.368  11.461  0.3968 -0.2908 -0.2412
 1656SOL    HW116601   4.123   0.329  11.538 -0.3680 -1.5324 -0.4494
 1656SOL    HW216602   4.000   0.316  11.462  0.0270  0.2489 -1.9128
 1657SOL     OW16603   3.769   1.540   6.243 -0.2122 -0.2093 -0.4260
 1657SOL    HW116604   3.815   1.489   6.176  0.3646 -1.1227  0.6682
 1657SOL    HW216605   3.767   1.627   6.203  1.7682 -0.2254 -0.5658
 1658SOL     OW16606   4.627   4.642  13.688 -0.1417  0.1199 -0.2961
 1658SOL    HW116607   4.560   4.574  13.689 -1.1799  1.1599  0.9915
 1658SOL    HW216608   4.588   4.699  13.755  1.1815 -1.3664  1.7399
 1659SOL     OW16609   3.834   2.848   9.329  0.0232 -0.1579 -0.7304
 1659SOL    HW116610   3.879   2.915   9.381 -0.4411  1.2737 -2.1954
 1659SOL    HW216611   3.782   2.902   9.270 -0.0717 -0.2577 -0.7379
 1660SOL     OW16612   2.868   3.510   5.100  0.0617 -0.2647  0.1230
 1660SOL    HW116613   2.937   3.527   5.036 -0.9984 -2.2868 -1.5588
 1660SOL    HW216614   2.823   3.430   5.076 -0.4724  0.5040 -1.4065
 1661SOL     OW16615   4.268   0.456  10.550  0.2226 -0.8503 -0.6715
 1661SOL    HW116616   4.350   0.407  10.534 -0.3787 -1.8363 -0.7703
 1661SOL    HW216617   4.280   0.534  10.497  0.6317 -2.6601 -3.2691
 1662SOL     OW16618   4.198   2.074   0.081 -0.3417 -0.1606  0.1022
 1662SOL    HW116619   4.150   2.145   0.037  0.8184  0.3361 -0.3702
 1662SOL    HW216620   4.122   2.021   0.106  1.2923 -2.0022  1.1130
 1663SOL     OW16621   0.810   3.678  13.932 -0.1868  0.2239  0.0031
 1663SOL    HW116622   0.812   3.762  13.979  1.8268  0.2425 -0.1310
 1663SOL    HW216623   0.735   3.637  13.975  1.4509 -0.6079  1.9988
 1664SOL     OW16624   3.386   0.042   1.894 -0.5537 -0.1070  0.3408
 1664SOL    HW116625   3.463   0.095   1.914 -0.1123 -0.5118 -0.2703
 1664SOL    HW216626   3.366   4.715   1.962  1.1058  1.6565  2.4462
 1665SOL     OW16627   4.529   4.043  12.521 -0.2405  0.1525 -0.0032
 1665SOL    HW116628   4.581   4.005  12.450  0.7914 -0.1650  0.9250
 1665SOL    HW216629   4.602   4.066  12.579 -1.3442  0.9112  1.0731
 1666SOL     OW16630   0.675   1.122  10.994 -0.3625 -0.0113  0.3622
 1666SOL    HW116631   0.592   1.161  11.021  1.3408  2.6108  1.9139
 1666SOL    HW216632   0.641   1.043  10.954  0.6781 -0.2713 -0.0086
 1667SOL     OW16633   1.046   3.572   2.960  0.7909 -0.3930 -0.3323
 1667SOL    HW116634   1.019   3.503   3.020  2.2281 -2.0543 -1.6046
 1667SOL    HW216635   0.972   3.572   2.899  0.3217 -0.3747  0.2414
 1668SOL     OW16636   3.903   1.257   8.964 -0.1909  0.4297  0.2511
 1668SOL    HW116637   3.979   1.308   8.938 -0.8564  1.0297 -0.5445
 1668SOL    HW216638   3.897   1.190   8.896  1.0824  0.3887  0.1917
 1669SOL     OW16639   3.590   1.978   8.061 -0.8470  0.3449  1.0347
 1669SOL    HW116640   3.542   2.008   7.984 -0.9290  2.3091  1.8587
 1669SOL    HW216641   3.677   2.017   8.056 -0.7784 -0.0193 -0.5671
 1670SOL     OW16642   0.412   1.160   9.633  0.7180 -0.5258 -0.0457
 1670SOL    HW116643   0.321   1.131   9.641  0.6602  0.2975  2.0770
 1670SOL    HW216644   0.401   1.250   9.603  2.8825 -0.5281 -0.8346
 1671SOL     OW16645   3.324   4.525   6.189 -0.2883 -0.0919  0.4264
 1671SOL    HW116646   3.267   4.513   6.112  1.2594 -1.2654 -0.5246
 1671SOL    HW216647   3.261   4.505   6.259  0.0455 -0.0022  0.7475
 1672SOL     OW16648   1.127   1.857  15.326  0.4082 -0.4026 -0.1989
 1672SOL    HW116649   1.206   1.896  15.289 -0.5901  1.0827 -0.7308
 1672SOL    HW216650   1.068   1.932  15.319 -0.6524 -1.1395  0.7724
 1673SOL     OW16651   0.216   4.152  17.356  0.2584  0.0537 -0.0543
 1673SOL    HW116652   0.261   4.202  17.288 -0.6907  0.7422 -0.1664
 1673SOL    HW216653   0.175   4.081  17.306  1.0091 -1.7657  1.9230
 1674SOL     OW16654   1.416   3.431   2.790  0.0538 -0.5767 -0.6711
 1674SOL    HW116655   1.374   3.461   2.871 -1.1233  0.3268 -1.6154
 1674SOL    HW216656   1.376   3.348   2.764 -2.0149  0.1677  0.1222
 1675SOL     OW16657   4.431   4.568   1.600 -0.5092 -0.4471  0.4542
 1675SOL    HW116658   4.470   4.591   1.516  1.8770  2.0900  2.2396
 1675SOL    HW216659   4.370   4.499   1.572  0.6946  0.2024 -3.6530
 1676SOL     OW16660   3.306   0.799   4.484  0.7713 -0.0494  0.3442
 1676SOL    HW116661   3.281   0.885   4.516 -1.2803 -1.0620  1.4558
 1676SOL    HW216662   3.399   0.812   4.467  0.4648  0.3533 -1.0597
 1677SOL     OW16663   0.112   2.901   8.770 -0.9079  0.2876  0.2202
 1677SOL    HW116664   0.040   2.879   8.712  0.5572  0.5735 -1.7285
 1677SOL    HW216665   0.141   2.982   8.727 -3.6109  0.5652 -1.0425
 1678SOL     OW16666   2.935   0.910   9.350  0.3760 -0.2194  0.1345
 1678SOL    HW116667   2.988   0.831   9.344  1.5758  0.4497  2.0546
 1678SOL    HW216668   2.874   0.897   9.277 -0.2612  3.5925 -0.0197
 1679SOL     OW16669   1.122   1.709   8.265  0.2733  0.4615  0.5938
 1679SOL    HW116670   1.217   1.696   8.258  0.4205  2.3074 -0.9971
 1679SOL    HW216671   1.094   1.630   8.311  0.0648 -1.0010 -2.0215
 1680SOL     OW16672   4.731   3.408   4.674 -0.6955 -0.6234 -0.0022
 1680SOL    HW116673   0.020   3.500   4.687  1.4512 -1.2461  0.2416
 1680SOL    HW216674   4.727   3.419   4.579 -2.3573 -0.4200  0.0965
 1681SOL     OW16675   3.223   4.175   4.900 -0.0376  0.5908  0.5446
 1681SOL    HW116676   3.254   4.168   4.990 -1.1485 -2.0301  0.7364
 1681SOL    HW216677   3.269   4.251   4.865 -2.0803  1.1781 -0.9057
 1682SOL     OW16678   1.441   1.511   4.067  0.3284  0.0703 -0.4530
 1682SOL    HW116679   1.358   1.519   4.114  0.5097 -2.4766  0.2744
 1682SOL    HW216680   1.443   1.429   4.019  2.0710 -1.1139  1.6147
 1683SOL     OW16681   0.639   3.843   5.528 -0.1828 -0.4903 -0.5133
 1683SOL    HW116682   0.626   3.928   5.485  2.7158  0.7100  0.9638
 1683SOL    HW216683   0.657   3.799   5.445 -0.1562 -1.2796 -0.0846
 1684SOL     OW16684   1.178   3.944  11.788  0.2089 -0.7507  0.2388
 1684SOL    HW116685   1.083   3.948  11.804  0.1112 -2.5339  0.1097
 1684SOL    HW216686   1.175   3.902  11.702 -0.6943 -2.0762  0.9048
 1685SOL     OW16687   0.020   3.237   4.180 -1.1415 -0.3412  0.0597
 1685SOL    HW116688   4.711   3.153   4.177 -1.3001 -0.1708 -2.0648
 1685SOL    HW216689   0.105   3.218   4.141 -1.4355 -2.1261  0.2996
 1686SOL     OW16690   2.147   3.780   4.284 -0.3181  0.5410 -0.2515
 1686SOL    HW116691   2.070   3.836   4.278  0.1477  1.3406  1.2065
 1686SOL    HW216692   2.165   3.779   4.378  1.4217 -0.3535 -0.5982
 1687SOL     OW16693   0.281   1.648   3.477 -0.2182 -0.0725 -0.6637
 1687SOL    HW116694   0.318   1.687   3.398  0.4820  0.0194 -0.2898
 1687SOL    HW216695   0.278   1.735   3.517 -1.2282 -1.2134  1.7634
 1688SOL     OW16696   4.160   0.152   8.044  0.3219  0.1629 -0.6719
 1688SOL    HW116697   4.094   0.088   8.020 -0.3950  1.0235 -0.9748
 1688SOL    HW216698   4.216   0.109   8.108  1.4132  1.3584 -0.8114
 1689SOL     OW16699   2.256   0.998  17.118 -0.9674  0.2392  0.8301
 1689SOL    HW116700   2.296   0.946  17.188  2.4710  1.9420  0.1093
 1689SOL    HW216701   2.294   0.959  17.040 -0.3264  0.9288  0.8066
 1690SOL     OW16702   1.927   4.128   1.922  0.1344 -0.6033  0.2515
 1690SOL    HW116703   1.932   4.074   2.002 -0.8477  0.5889  1.1195
 1690SOL    HW216704   1.832   4.118   1.930 -0.3144  2.5621 -1.3448
 1691SOL     OW16705   1.203   0.307   9.757  0.1345 -0.2557  0.5781
 1691SOL    HW116706   1.203   0.248   9.832  0.9744 -1.5423 -0.4245
 1691SOL    HW216707   1.216   0.249   9.681 -0.7006  0.3356 -0.0241
 1692SOL     OW16708   1.747   4.005  13.068 -0.1036 -0.0922  0.3219
 1692SOL    HW116709   1.698   3.957  13.001 -2.2346  1.3602  0.8686
 1692SOL    HW216710   1.685   3.995  13.140 -3.5414  1.9501 -2.3615
 1693SOL     OW16711   1.568   2.113   9.698  0.9607  0.1792  0.3067
 1693SOL    HW116712   1.590   2.203   9.672 -1.4116  1.0600  1.3198
 1693SOL    HW216713   1.492   2.089   9.645  1.7380  1.7189 -1.4973
 1694SOL     OW16714   2.956   0.029  14.197  0.1503  0.2068  0.1439
 1694SOL    HW116715   3.032   4.719  14.161  0.0120 -0.0498  0.1817
 1694SOL    HW216716   2.971   0.010  14.290 -1.0332 -2.6273 -0.2256
 1695SOL     OW16717   0.438   4.187   1.542  0.5164  0.0125 -0.8026
 1695SOL    HW116718   0.433   4.092   1.529 -0.0040 -0.0511 -0.1624
 1695SOL    HW216719   0.454   4.189   1.448  1.0260  1.1036 -0.6849
 1696SOL     OW16720   4.200   4.352   3.044  0.5685  0.3883 -0.5985
 1696SOL    HW116721   4.284   4.384   3.077  0.3036  1.3001 -0.7991
 1696SOL    HW216722   4.145   4.428   3.064 -1.5478 -0.5700 -2.8040
 1697SOL     OW16723   3.361   2.594   2.162  0.1933 -0.1651 -0.4895
 1697SOL    HW116724   3.348   2.499   2.168  1.6561 -0.1073  3.0872
 1697SOL    HW216725   3.421   2.602   2.088 -0.0369 -1.8346 -0.8702
 1698SOL     OW16726   3.673   3.509  13.487 -0.4400 -0.4276 -0.2739
 1698SOL    HW116727   3.740   3.573  13.513 -0.1742 -0.2241 -1.4783
 1698SOL    HW216728   3.702   3.463  13.409  1.3090 -1.9468  1.2963
 1699SOL     OW16729   1.561   2.342   3.535  0.3548  0.3509  0.3266
 1699SOL    HW116730   1.566   2.430   3.572 -0.0951 -0.8975  3.3601
 1699SOL    HW216731   1.654   2.319   3.535  0.2006 -0.2822 -0.9646
 1700SOL     OW16732   4.201   4.180   2.380 -0.2221  0.4517  0.1443
 1700SOL    HW116733   4.118   4.195   2.424 -0.6085  0.7505 -0.6964
 1700SOL    HW216734   4.249   4.261   2.400  2.1465 -1.2937  1.6663
 1701SOL     OW16735   4.075   0.915   2.933  0.3378  0.2682  0.2227
 1701SOL    HW116736   4.151   0.950   2.886 -0.5038 -1.6050 -2.5490
 1701SOL    HW216737   4.063   0.824   2.906  0.4476  0.0050  1.0808
 1702SOL     OW16738   4.321   3.905   4.644  0.3482  0.1339  0.2493
 1702SOL    HW116739   4.401   3.951   4.619  1.3623 -0.8664  1.7218
 1702SOL    HW216740   4.353   3.824   4.683  1.4862  0.7454  0.5874
 1703SOL     OW16741   2.104   2.660   3.986  0.2027 -0.2045  0.6723
 1703SOL    HW116742   2.126   2.682   3.895 -1.4292 -1.5169 -0.0368
 1703SOL    HW216743   2.032   2.720   4.002  0.5021  1.0041 -2.4152
 1704SOL     OW16744   0.373   2.836   3.110  0.1938  0.0406  0.0334
 1704SOL    HW116745   0.358   2.856   3.018  2.4528  0.3263 -0.2844
 1704SOL    HW216746   0.449   2.894   3.114 -0.4952  0.8527  1.3469
 1705SOL     OW16747   1.046   2.516   6.612  0.1198  0.0582 -0.0403
 1705SOL    HW116748   0.983   2.451   6.579 -0.5645  1.3397 -1.2579
 1705SOL    HW216749   1.037   2.577   6.538  5.4395  1.2270  0.3073
 1706SOL     OW16750   0.728   0.732   8.557 -0.6195 -0.0271 -0.1421
 1706SOL    HW116751   0.688   0.794   8.617 -1.7871 -2.4333  1.5799
 1706SOL    HW216752   0.821   0.751   8.571 -1.1213  1.4307  1.1785
 1707SOL     OW16753   0.220   4.335   9.458 -0.1437 -0.0951  0.4243
 1707SOL    HW116754   0.297   4.321   9.513 -0.1278 -2.8611 -0.3417
 1707SOL    HW216755   0.211   4.260   9.400 -0.3459 -0.0878  0.4464
 1708SOL     OW16756   4.703   0.489   3.758  0.4911 -0.4952 -0.4025
 1708SOL    HW116757   0.030   0.502   3.829  1.1325 -1.8906 -0.7172
 1708SOL    HW216758   4.642   0.562   3.769  0.7783 -0.5112  1.2484
 1709SOL     OW16759   2.370   1.417   7.104  0.2862  0.1012 -0.6324
 1709SOL    HW116760   2.356   1.361   7.181 -0.8229  0.4953 -0.5422
 1709SOL    HW216761   2.453   1.387   7.066  1.1244  1.3231  0.2513
 1710SOL     OW16762   0.363   4.283   4.359  0.1306 -0.2593 -0.2655
 1710SOL    HW116763   0.274   4.250   4.345  0.1372 -0.1343 -0.6016
 1710SOL    HW216764   0.352   4.328   4.442  0.9629  1.9969 -1.3831
 1711SOL     OW16765   4.209   1.791  14.410  0.6214  0.1825 -0.4728
 1711SOL    HW116766   4.155   1.870  14.399  1.6365  1.0602  0.8520
 1711SOL    HW216767   4.271   1.823  14.475  0.2332  0.3879 -0.1954
 1712SOL     OW16768   3.863   1.674   7.488 -0.1429 -0.7411  0.0279
 1712SOL    HW116769   3.785   1.634   7.526 -0.2127  1.4375  2.1490
 1712SOL    HW216770   3.821   1.699   7.405 -0.0098  0.2599  0.2623
 1713SOL     OW16771   1.056   2.473  17.310  0.5476 -0.5587 -0.3063
 1713SOL    HW116772   1.005   2.551  17.331  1.7852  0.1213  0.2029
 1713SOL    HW216773   0.993   2.402  17.320 -0.2224  0.3209  1.1132
 1714SOL     OW16774   3.366   2.399   5.070 -0.4191 -0.0072  0.8558
 1714SOL    HW116775   3.306   2.465   5.036 -0.0829  0.0124  0.2937
 1714SOL    HW216776   3.456   2.427   5.052 -0.2608 -0.9176  0.2207
 1715SOL     OW16777   1.103   3.912   6.217 -0.0789 -0.2846  0.1223
 1715SOL    HW116778   1.046   3.988   6.228 -1.6485 -1.1710 -1.8438
 1715SOL    HW216779   1.092   3.874   6.303 -0.5706 -1.4141 -0.4417
 1716SOL     OW16780   3.980   4.564  15.783  0.4560 -0.0194  0.0673
 1716SOL    HW116781   3.963   4.479  15.824 -0.6380  0.6109  0.9106
 1716SOL    HW216782   3.918   4.550  15.712  0.1113  0.3805  0.2903
 1717SOL     OW16783   0.641   1.356   4.419 -0.2577 -0.2007  0.1036
 1717SOL    HW116784   0.676   1.445   4.428  0.4758 -0.2612 -2.2365
 1717SOL    HW216785   0.561   1.361   4.472 -0.1902  0.1503  0.1713
 1718SOL     OW16786   4.366   3.496   8.918  0.5760  0.3691  0.2025
 1718SOL    HW116787   4.458   3.475   8.929  0.3434 -1.1813 -0.6778
 1718SOL    HW216788   4.360   3.566   8.983  0.9545  0.4656  0.1309
 1719SOL     OW16789   0.229   3.163   2.937 -0.4173  0.0123 -0.2541
 1719SOL    HW116790   0.146   3.153   2.984  0.0983 -0.2927  0.6042
 1719SOL    HW216791   0.280   3.213   3.001 -2.6348  1.2544  0.5143
 1720SOL     OW16792   3.160   0.992   7.905  0.2371 -0.2247  0.2440
 1720SOL    HW116793   3.169   1.009   7.811  1.9132 -0.6154  0.3407
 1720SOL    HW216794   3.077   0.945   7.897  0.1970 -0.1575  0.2654
 1721SOL     OW16795   3.510   0.473   6.438  0.2765  0.1043 -0.0375
 1721SOL    HW116796   3.506   0.504   6.347  0.3633 -0.8930 -0.3770
 1721SOL    HW216797   3.537   0.551   6.486 -1.2779 -0.0269  1.0706
 1722SOL     OW16798   1.801   0.401  12.035 -0.4230  0.4050  0.1785
 1722SOL    HW116799   1.881   0.455  12.034 -1.4549  1.9379  0.8582
 1722SOL    HW216800   1.767   0.421  11.948  2.5388 -0.8517 -1.2998
 1723SOL     OW16801   2.015   1.237   9.003  0.1134  0.0118 -0.5327
 1723SOL    HW116802   1.986   1.189   9.081  1.3132  1.2548  0.6829
 1723SOL    HW216803   1.933   1.238   8.954 -0.2322 -0.0802  0.0361
 1724SOL     OW16804   3.749   0.570   0.112  0.5264 -0.1518 -0.3519
 1724SOL    HW116805   3.737   0.509   0.039 -0.0036  0.1367 -0.5090
 1724SOL    HW216806   3.831   0.612   0.084  0.6146  1.0075  1.6548
 1725SOL     OW16807   1.013   2.710   0.950 -0.1262  0.0040 -0.1165
 1725SOL    HW116808   0.939   2.653   0.930 -0.9867  1.1073 -0.0393
 1725SOL    HW216809   1.002   2.783   0.890  0.1071 -1.1810 -1.6243
 1726SOL     OW16810   2.616   3.776   8.773  0.1354 -0.8567  0.2228
 1726SOL    HW116811   2.551   3.712   8.742  0.2324  0.4438 -2.6393
 1726SOL    HW216812   2.693   3.723   8.791  0.4114 -0.3897  0.3984
 1727SOL     OW16813   2.656   0.346   9.227 -0.2064  0.5539 -0.1737
 1727SOL    HW116814   2.661   0.387   9.141 -0.9023 -1.1861 -1.0515
 1727SOL    HW216815   2.733   0.290   9.230 -1.7906 -1.5982  0.4797
 1728SOL     OW16816   2.747   0.399   3.954 -0.0461  0.3519 -0.7006
 1728SOL    HW116817   2.663   0.443   3.969 -0.3850 -0.9708  1.3135
 1728SOL    HW216818   2.737   0.305   3.969  0.1029  0.4111 -0.2302
 1729SOL     OW16819   4.637   4.050   0.378  0.1305  0.1074 -0.4107
 1729SOL    HW116820   4.694   4.060   0.455 -0.5239 -0.3746  0.1364
 1729SOL    HW216821   4.694   4.072   0.305  2.0795  0.3622  1.1799
 1730SOL     OW16822   4.693   0.091  14.794  0.2311 -0.3113  0.0560
 1730SOL    HW116823   4.671   0.160  14.857  0.1131  0.3673 -0.7321
 1730SOL    HW216824   4.704   0.138  14.712 -1.4049 -1.0480 -0.5862
 1731SOL     OW16825   2.058   4.444   8.708  0.0094  0.4952 -0.3940
 1731SOL    HW116826   2.078   4.389   8.783 -3.2175  0.0416  0.1403
 1731SOL    HW216827   2.142   4.490   8.700  1.4203 -2.0347  0.0532
 1732SOL     OW16828   4.546   1.775   8.148 -0.5726 -0.1894 -0.3082
 1732SOL    HW116829   4.572   1.781   8.240 -3.8147 -0.3357  0.6092
 1732SOL    HW216830   4.603   1.704   8.117  1.3519  1.6366 -0.9628
 1733SOL     OW16831   2.452   1.452  17.491  0.0483  0.1122  0.4964
 1733SOL    HW116832   2.446   1.372  17.438 -0.2762  0.1006  0.5513
 1733SOL    HW216833   2.429   1.518  17.425 -3.3274 -0.5603  1.0106
 1734SOL     OW16834   2.929   3.603   0.664 -0.0385  0.6887 -0.3660
 1734SOL    HW116835   2.913   3.668   0.596  1.8503  1.1021 -0.3968
 1734SOL    HW216836   2.869   3.537   0.628 -0.2346  1.6599 -1.7799
 1735SOL     OW16837   1.235   0.567   6.711 -0.4752  0.5033  0.7078
 1735SOL    HW116838   1.232   0.616   6.628 -0.8795 -0.5414  0.1121
 1735SOL    HW216839   1.140   0.566   6.726 -0.7062 -2.0309 -0.9741
 1736SOL     OW16840   0.844   2.332   6.547 -0.2605  0.6951 -0.2475
 1736SOL    HW116841   0.790   2.316   6.469 -1.7291  1.3170  0.6476
 1736SOL    HW216842   0.797   2.304   6.625  3.9678 -0.2260  1.9526
 1737SOL     OW16843   4.056   1.173   8.441 -0.1048  0.5189 -0.2202
 1737SOL    HW116844   3.967   1.196   8.468  0.1153  2.1222 -0.8908
 1737SOL    HW216845   4.057   1.080   8.464  2.3434  0.0903 -2.1184
 1738SOL     OW16846   2.430   2.362   2.799 -0.3463 -0.0901  0.0287
 1738SOL    HW116847   2.499   2.296   2.796 -0.6650 -0.4877  1.3112
 1738SOL    HW216848   2.353   2.305   2.801 -0.8541  0.6034  0.6228
 1739SOL     OW16849   2.641   0.845  16.831  0.0764 -0.4599 -0.0644
 1739SOL    HW116850   2.641   0.750  16.828  1.1771 -0.5191  1.8838
 1739SOL    HW216851   2.550   0.861  16.856  0.3226  2.0385 -0.7632
 1740SOL     OW16852   0.325   0.286  16.442  0.1086 -0.1476 -0.4038
 1740SOL    HW116853   0.320   0.198  16.481  1.5243  0.1063  0.3346
 1740SOL    HW216854   0.339   0.330  16.526  1.1794 -2.9456  0.8951
 1741SOL     OW16855   1.320   1.862   7.913  0.3859  0.0693 -0.6532
 1741SOL    HW116856   1.295   1.931   7.975 -1.0106  0.5543 -1.7389
 1741SOL    HW216857   1.371   1.912   7.849  2.0038 -0.7393  0.0150
 1742SOL     OW16858   1.529   3.317  12.443 -0.2941  0.9161 -0.1434
 1742SOL    HW116859   1.586   3.242  12.424 -1.8069 -0.3501  0.3248
 1742SOL    HW216860   1.500   3.335  12.353 -0.4253 -3.3157 -0.9609
 1743SOL     OW16861   3.440   0.995   6.097 -0.3291  0.3393  0.3845
 1743SOL    HW116862   3.367   0.942   6.065 -0.6873  1.0791 -0.0331
 1743SOL    HW216863   3.443   0.970   6.189  1.3469 -0.1453  0.1952
 1744SOL     OW16864   3.770   3.020   3.831  0.0825  0.3333 -0.7330
 1744SOL    HW116865   3.680   3.037   3.805  0.4124  1.3899 -1.1985
 1744SOL    HW216866   3.766   3.025   3.926 -0.1425 -4.1965 -0.4704
 1745SOL     OW16867   3.596   1.095  16.350 -0.0829 -0.1288  0.0031
 1745SOL    HW116868   3.560   1.051  16.428  1.2086  0.7469  1.0803
 1745SOL    HW216869   3.582   1.188  16.369  1.0559  0.4512 -2.0370
 1746SOL     OW16870   4.418   3.813  15.454  0.1676  0.4676 -0.1485
 1746SOL    HW116871   4.428   3.889  15.512  0.2675  2.1853 -2.3839
 1746SOL    HW216872   4.333   3.779  15.481  0.7920 -0.5274  0.5633
 1747SOL     OW16873   2.325   2.712   2.861 -0.1393  0.3369  0.2191
 1747SOL    HW116874   2.344   2.683   2.772  0.8429  0.5653  0.3460
 1747SOL    HW216875   2.230   2.708   2.859 -0.1633  0.4939  1.1645
 1748SOL     OW16876   2.917   3.595   7.663 -0.1017 -0.0696  0.2519
 1748SOL    HW116877   2.880   3.683   7.678  2.0800  0.9198 -0.1793
 1748SOL    HW216878   2.972   3.582   7.740 -3.0994  0.4893  2.5311
 1749SOL     OW16879   3.020   2.120   7.443 -0.7729 -0.0672  0.0313
 1749SOL    HW116880   2.986   2.202   7.477  0.6725  1.3435 -1.8962
 1749SOL    HW216881   2.980   2.122   7.356 -1.3241 -0.0503  0.2851
 1750SOL     OW16882   3.513   1.012   8.078  0.5088 -0.2396 -0.0281
 1750SOL    HW116883   3.560   0.986   8.157  1.3088  0.6810 -0.1992
 1750SOL    HW216884   3.427   1.039   8.110 -0.2694 -2.6925 -0.0437
 1751SOL     OW16885   4.001   3.678   1.917  0.0448 -0.1484 -0.3611
 1751SOL    HW116886   3.921   3.726   1.935  0.8309  0.9569  0.2242
 1751SOL    HW216887   4.046   3.760   1.897  1.8168 -1.0076  0.0202
 1752SOL     OW16888   2.471   2.675  16.162 -0.1153  0.3815  0.2968
 1752SOL    HW116889   2.479   2.741  16.232 -0.9996 -1.2608  1.9265
 1752SOL    HW216890   2.437   2.723  16.086  0.4831  0.8097  0.2949
 1753SOL     OW16891   0.684   2.303   6.321  0.0522 -0.8345 -0.3234
 1753SOL    HW116892   0.609   2.257   6.358 -0.1323 -1.1191 -1.0534
 1753SOL    HW216893   0.676   2.254   6.238 -2.2778  0.4157 -0.8190
 1754SOL     OW16894   1.485   0.453   9.442  0.7855  0.9080  0.2912
 1754SOL    HW116895   1.474   0.370   9.396 -5.0783  1.9043 -0.0866
 1754SOL    HW216896   1.572   0.435   9.477  1.0864  0.2794 -0.7873
 1755SOL     OW16897   1.645   1.963   8.745  0.0178 -0.0597 -0.4686
 1755SOL    HW116898   1.733   1.966   8.708  1.5864 -0.1009  3.2678
 1755SOL    HW216899   1.644   2.044   8.796  0.7503 -0.1280 -0.3460
 1756SOL     OW16900   2.831   4.412   3.337 -0.1895  0.2435 -0.4408
 1756SOL    HW116901   2.924   4.424   3.353 -0.2970 -0.2638  0.5347
 1756SOL    HW216902   2.825   4.404   3.242  0.0640  1.6697 -0.5724
 1757SOL     OW16903   3.089   3.576   1.882  0.6961  0.4251 -0.2541
 1757SOL    HW116904   3.009   3.575   1.830 -1.7368  0.6386  3.4318
 1757SOL    HW216905   3.129   3.658   1.855  1.3619 -0.1999 -1.1350
 1758SOL     OW16906   1.652   1.313  12.597 -0.1694  0.0822  0.1391
 1758SOL    HW116907   1.662   1.375  12.525 -0.5372 -1.5406 -1.3069
 1758SOL    HW216908   1.628   1.366  12.673 -0.1693 -1.6487  1.3593
 1759SOL     OW16909   1.809   0.695   4.647  0.5104  0.3006  0.8499
 1759SOL    HW116910   1.716   0.673   4.657 -0.0849  2.2774 -0.3755
 1759SOL    HW216911   1.810   0.782   4.607 -1.8500 -0.1741 -0.2118
 1760SOL     OW16912   3.670   1.061   6.920 -0.0565  0.0053 -0.1940
 1760SOL    HW116913   3.684   0.967   6.909  2.0455  0.4486 -1.3246
 1760SOL    HW216914   3.576   1.070   6.900 -0.5083 -2.5900  0.7303
 1761SOL     OW16915   3.175   1.653   5.502  0.5805 -0.0846 -0.0132
 1761SOL    HW116916   3.163   1.680   5.593 -2.1560 -1.1768 -0.0493
 1761SOL    HW216917   3.141   1.564   5.507  1.5800 -0.6655 -3.7276
 1762SOL     OW16918   0.876   0.533   8.262  0.1518 -0.8725 -0.1369
 1762SOL    HW116919   0.835   0.481   8.193 -1.8630 -1.0833  1.2467
 1762SOL    HW216920   0.861   0.471   8.333  1.2428  0.6270  1.3954
 1763SOL     OW16921   3.134   0.040   0.840  0.0111 -0.1874  0.0892
 1763SOL    HW116922   3.079   0.099   0.892 -0.0544  1.0829 -1.4281
 1763SOL    HW216923   3.217   0.070   0.877  0.4025  2.1563 -2.6436
 1764SOL     OW16924   1.660   3.584   9.034 -0.2018 -0.3734 -0.0230
 1764SOL    HW116925   1.637   3.517   8.970 -0.8512 -0.5896  0.4336
 1764SOL    HW216926   1.723   3.537   9.088  2.0834  0.2872 -2.1241
 1765SOL     OW16927   3.408   0.143  10.611 -0.2513 -0.4472  0.7594
 1765SOL    HW116928   3.475   0.112  10.551  0.5546  1.2023  0.8012
 1765SOL    HW216929   3.439   0.225  10.651 -0.1117 -0.5151  0.7877
 1766SOL     OW16930   1.071   3.306   9.093 -0.2369 -0.0954 -0.2315
 1766SOL    HW116931   1.074   3.273   9.004 -1.5929 -0.4245 -0.1474
 1766SOL    HW216932   1.024   3.387   9.072 -3.0687 -1.1622  1.9712
 1767SOL     OW16933   0.310   2.545   9.324 -0.2295  0.2521 -0.2794
 1767SOL    HW116934   0.304   2.535   9.229 -2.4327 -1.7877  0.0819
 1767SOL    HW216935   0.320   2.458   9.361 -1.2266  0.0345 -0.5175
 1768SOL     OW16936   0.682   3.649   8.807  0.1708  0.2057  0.4543
 1768SOL    HW116937   0.621   3.721   8.796 -0.7043 -0.2406  2.3051
 1768SOL    HW216938   0.732   3.677   8.884  1.0144 -0.9875  0.3517
 1769SOL     OW16939   3.149   1.919   4.360 -0.0062 -0.2131  0.3887
 1769SOL    HW116940   3.159   1.935   4.454  0.3081 -2.0542  0.6685
 1769SOL    HW216941   3.063   1.961   4.348 -0.6028 -0.8864  2.2904
 1770SOL     OW16942   2.217   1.519   7.389  1.0357  0.3088  0.1803
 1770SOL    HW116943   2.166   1.501   7.310  0.3915  0.6551  0.5139
 1770SOL    HW216944   2.148   1.514   7.454  1.2034  1.7125  0.4684
 1771SOL     OW16945   0.043   1.289   7.093 -0.1354 -0.3121 -0.1189
 1771SOL    HW116946   0.114   1.352   7.104  0.2215 -0.2973 -2.3305
 1771SOL    HW216947   0.075   1.256   7.008  2.5804  2.0771 -0.0173
 1772SOL     OW16948   1.099   3.509   7.351  0.1118  0.6001  0.1669
 1772SOL    HW116949   1.080   3.474   7.438 -1.0133  1.2407  0.1790
 1772SOL    HW216950   1.153   3.439   7.315  0.4091  1.1940 -0.5469
 1773SOL     OW16951   3.833   2.422  17.396 -0.4995 -0.5761  0.0875
 1773SOL    HW116952   3.909   2.367  17.414  0.7775  1.4276  0.7758
 1773SOL    HW216953   3.846   2.419  17.301  0.2421 -0.2512  0.1787
 1774SOL     OW16954   4.549   1.894   5.438 -0.1734 -0.3930  0.3436
 1774SOL    HW116955   4.581   1.827   5.499 -1.2623 -1.3188 -0.1259
 1774SOL    HW216956   4.593   1.971   5.476  3.5314 -2.3127 -0.0075
 1775SOL     OW16957   1.141   2.850   8.558  0.0369  0.6433 -0.3797
 1775SOL    HW116958   1.166   2.858   8.650  1.1942 -1.1933 -0.5427
 1775SOL    HW216959   1.227   2.828   8.523 -0.7873 -1.8018 -0.8787
 1776SOL     OW16960   3.383   1.158  15.301  0.4888  0.6135 -0.0530
 1776SOL    HW116961   3.374   1.252  15.316  1.8283  0.6748  0.3772
 1776SOL    HW216962   3.355   1.128  15.387 -1.5357  1.6814 -0.3591
 1777SOL     OW16963   2.834   4.573  11.016 -0.2415 -0.1806  0.0965
 1777SOL    HW116964   2.898   4.615  11.073 -3.0189  1.1554  2.2688
 1777SOL    HW216965   2.872   4.572  10.928  0.9552 -1.8364  0.6338
 1778SOL     OW16966   0.894   3.464  10.624 -0.3807  0.8647 -0.2971
 1778SOL    HW116967   0.822   3.522  10.599 -0.8178  0.5799  0.2995
 1778SOL    HW216968   0.858   3.442  10.710  0.2681 -1.0895 -0.5337
 1779SOL     OW16969   4.171   3.696  15.287 -0.6173 -0.1652  0.3140
 1779SOL    HW116970   4.127   3.615  15.263 -0.3053  0.6068 -2.8002
 1779SOL    HW216971   4.148   3.756  15.216 -0.0269  1.8717  1.8386
 1780SOL     OW16972   4.694   2.515   1.741 -0.3199  0.0326  0.0230
 1780SOL    HW116973   4.649   2.457   1.679 -1.3402  1.4599 -0.5737
 1780SOL    HW216974   0.006   2.569   1.679  2.3808 -1.7186  0.6467
 1781SOL     OW16975   4.059   0.553   0.580  0.0130  0.1855 -0.1146
 1781SOL    HW116976   4.048   0.491   0.652  2.1220  0.2033  0.2243
 1781SOL    HW216977   4.137   0.601   0.607 -0.8326  0.5406  1.7120
 1782SOL     OW16978   0.495   3.031   2.573 -0.2197 -0.3076  0.6540
 1782SOL    HW116979   0.408   3.053   2.606 -0.9254 -0.4626 -1.0659
 1782SOL    HW216980   0.479   2.941   2.544 -0.5348  0.5584 -1.8876
 1783SOL     OW16981   3.805   0.424   8.315  0.1316  0.2308 -0.2373
 1783SOL    HW116982   3.816   0.367   8.239 -5.1726 -0.0482 -0.8020
 1783SOL    HW216983   3.738   0.383   8.369 -0.1506  0.6454 -0.2653
 1784SOL     OW16984   0.195   4.054   4.740 -0.1030 -0.7353  0.4388
 1784SOL    HW116985   0.177   4.132   4.686 -0.4638 -1.6486 -0.7600
 1784SOL    HW216986   0.105   4.022   4.752 -0.2241 -0.9947 -1.1384
 1785SOL     OW16987   1.506   2.386   7.184 -0.1360  0.1932 -0.3484
 1785SOL    HW116988   1.601   2.380   7.191 -0.1649 -0.5796 -0.5692
 1785SOL    HW216989   1.485   2.377   7.091 -0.7986  1.0421 -0.2820
 1786SOL     OW16990   1.776   2.405  17.405 -0.2836  0.4801  0.0568
 1786SOL    HW116991   1.816   2.489  17.382 -1.2829  0.8010 -0.5361
 1786SOL    HW216992   1.701   2.401  17.345 -1.2120 -0.1153  1.2412
 1787SOL     OW16993   4.670   1.670   0.834  0.0602  0.4564 -0.0786
 1787SOL    HW116994   4.635   1.602   0.777  0.6522  1.0933 -1.2092
 1787SOL    HW216995   0.011   1.621   0.863  1.8494  2.4662 -1.4497
 1788SOL     OW16996   4.573   3.780   3.255 -0.1696  0.0362  0.0848
 1788SOL    HW116997   4.540   3.853   3.203  1.2064  0.4747 -0.1805
 1788SOL    HW216998   4.669   3.786   3.257 -0.1654 -0.0935  0.2583
 1789SOL     OW16999   2.514   1.517  12.290 -0.2480 -0.3112 -0.3862
 1789SOL    HW117000   2.591   1.557  12.332 -0.0171  0.1041 -1.2063
 1789SOL    HW217001   2.536   1.521  12.197  0.1371  1.0026 -0.2396
 1790SOL     OW17002   0.596   4.016   2.327 -0.1103 -0.8750 -0.5826
 1790SOL    HW117003   0.580   3.930   2.288  0.2685 -2.1272  2.0460
 1790SOL    HW217004   0.507   4.050   2.314  0.3446  0.3292 -0.5406
 1791SOL     OW17005   1.559   4.389  14.085  0.6738 -0.2514  0.1258
 1791SOL    HW117006   1.599   4.364  14.169 -0.6922 -1.1868  0.4836
 1791SOL    HW217007   1.613   4.346  14.019  0.3869 -1.6558  0.8189
 1792SOL     OW17008   4.081   0.484  11.204 -0.0228 -0.1140 -0.3771
 1792SOL    HW117009   4.120   0.554  11.257  0.6701 -1.1890  0.5316
 1792SOL    HW217010   4.066   0.420  11.274  1.7244  0.4697  0.5198
 1793SOL     OW17011   0.963   1.526   4.452 -0.2795  0.8873 -0.5487
 1793SOL    HW117012   0.944   1.441   4.492 -0.5881  1.2582  0.0900
 1793SOL    HW217013   1.053   1.499   4.432  0.1099  2.6110 -1.1241
 1794SOL     OW17014   4.161   0.259   2.818  0.0365 -0.4706  0.2158
 1794SOL    HW117015   4.215   0.291   2.890 -0.1196 -1.8896  0.9482
 1794SOL    HW217016   4.147   0.338   2.765 -1.7784  0.0429  1.5011
 1795SOL     OW17017   3.065   1.661  10.655  0.4305 -0.1063 -0.5418
 1795SOL    HW117018   3.059   1.754  10.638 -1.2202  0.1279  1.2849
 1795SOL    HW217019   3.151   1.660  10.696  0.2415  1.3026 -0.1195
 1796SOL     OW17020   4.037   3.192   6.453 -0.7720  0.3829  0.0703
 1796SOL    HW117021   4.035   3.198   6.548 -0.2594  1.2517  0.0324
 1796SOL    HW217022   4.025   3.281   6.420  0.4701 -0.2674 -2.1498
 1797SOL     OW17023   3.622   1.348   6.827  0.2237 -0.2289  0.0660
 1797SOL    HW117024   3.688   1.323   6.892 -0.7094 -1.0590  0.6902
 1797SOL    HW217025   3.677   1.363   6.750 -0.3046 -0.0813 -0.2868
 1798SOL     OW17026   2.582   4.427  10.904 -0.0742 -0.1810 -0.2556
 1798SOL    HW117027   2.541   4.476  10.976 -0.0887 -0.5003 -0.0449
 1798SOL    HW217028   2.672   4.457  10.919  0.1009  0.6987 -3.1478
 1799SOL     OW17029   4.473   3.202  16.137  0.0629  0.2869 -0.2777
 1799SOL    HW117030   4.510   3.229  16.053 -1.3233  0.9497 -0.6720
 1799SOL    HW217031   4.534   3.252  16.192 -0.4712 -0.6612  1.1795
 1800SOL     OW17032   3.737   0.767   1.619  0.4079 -0.0566  0.1062
 1800SOL    HW117033   3.793   0.711   1.566 -0.7838 -0.2433 -0.9523
 1800SOL    HW217034   3.805   0.817   1.664  0.0435 -0.7756  1.4335
 1801SOL     OW17035   4.145   0.331   5.955 -0.2582  0.5327  0.3106
 1801SOL    HW117036   4.142   0.426   5.956  0.1115  0.5521 -0.6093
 1801SOL    HW217037   4.240   0.320   5.944 -0.1702  1.9513 -0.2558
 1802SOL     OW17038   0.306   4.459   1.170 -0.2101 -0.1767 -0.0615
 1802SOL    HW117039   0.311   4.553   1.186  3.0049 -0.3961  0.3637
 1802SOL    HW217040   0.398   4.432   1.173 -0.7363 -1.7108  2.3197
 1803SOL     OW17041   3.142   4.005  11.245 -0.3371 -0.2123 -0.6859
 1803SOL    HW117042   3.229   3.990  11.282 -0.5916  0.1777  0.0824
 1803SOL    HW217043   3.127   4.097  11.264  3.4964  0.4371 -0.8084
 1804SOL     OW17044   2.224   4.158   8.772  0.3303 -0.7144 -0.1819
 1804SOL    HW117045   2.181   4.089   8.823 -1.3539  0.3357 -0.1684
 1804SOL    HW217046   2.296   4.180   8.830  0.8518  0.5348 -1.2938
 1805SOL     OW17047   4.105   0.068  15.810  0.0839 -0.1093  0.2189
 1805SOL    HW117048   4.046   0.130  15.766  2.1972  1.7298 -0.0336
 1805SOL    HW217049   4.051   4.726  15.807  2.6268 -1.8216  0.0401
 1806SOL     OW17050   2.055   0.524   5.367 -0.0982 -0.0730 -0.6842
 1806SOL    HW117051   2.046   0.618   5.383  0.8342 -0.0008 -0.5887
 1806SOL    HW217052   2.004   0.529   5.286 -0.3484  0.0092 -0.5219
 1807SOL     OW17053   4.207   1.452   7.850  0.1420  0.0320  0.3804
 1807SOL    HW117054   4.239   1.452   7.940  1.6835 -0.9893 -0.1658
 1807SOL    HW217055   4.198   1.361   7.822  2.1654 -0.0256 -0.0992
 1808SOL     OW17056   1.683   3.421  14.641 -0.1197 -0.2775 -0.1609
 1808SOL    HW117057   1.761   3.373  14.615 -2.4216 -3.2642 -1.6526
 1808SOL    HW217058   1.616   3.353  14.631  1.2685 -1.8989  1.6058
 1809SOL     OW17059   2.267   2.532  12.488  0.5326  0.5067  0.4601
 1809SOL    HW117060   2.263   2.552  12.395 -0.4311  0.1139  0.4219
 1809SOL    HW217061   2.243   2.611  12.537  3.6086  1.4765  0.4276
 1810SOL     OW17062   4.449   3.706   2.986  0.0987  0.1391 -0.2331
 1810SOL    HW117063   4.426   3.794   3.018  1.9723  0.5375 -0.0176
 1810SOL    HW217064   4.480   3.732   2.900  1.2473 -0.2045  0.0844
 1811SOL     OW17065   4.597   0.445   8.070 -0.2129 -0.5582  0.0978
 1811SOL    HW117066   4.607   0.397   7.987  0.1295  0.3250 -0.3762
 1811SOL    HW217067   4.522   0.399   8.108 -1.2875 -0.5667 -2.0404
 1812SOL     OW17068   2.111   0.050   6.796 -0.2865  0.2664  0.0402
 1812SOL    HW117069   2.058   0.082   6.869  0.1893  0.7828  0.1575
 1812SOL    HW217070   2.046   0.019   6.734 -1.3081  1.0964  0.6950
 1813SOL     OW17071   4.132   3.518  17.702 -0.4628  0.1310  0.0519
 1813SOL    HW117072   4.068   3.589  17.700  1.1203  1.6781  2.7926
 1813SOL    HW217073   4.202   3.567   0.001 -0.3875 -0.3392  0.4541
 1814SOL     OW17074   4.381   4.538   3.880 -0.8158 -1.0243  0.1368
 1814SOL    HW117075   4.316   4.603   3.907 -0.8610 -1.3662  0.8471
 1814SOL    HW217076   4.342   4.451   3.874 -3.1535 -0.1132  2.4323
 1815SOL     OW17077   1.894   1.613   9.269  0.1639 -0.7168 -0.2075
 1815SOL    HW117078   1.934   1.659   9.343  1.7332 -0.3796 -1.2872
 1815SOL    HW217079   1.963   1.625   9.204  0.1052 -0.6997 -0.2660
 1816SOL     OW17080   3.224   4.228  17.468 -0.3357 -0.4652  0.6796
 1816SOL    HW117081   3.315   4.209  17.491  0.0562 -1.9285 -2.0315
 1816SOL    HW217082   3.211   4.322  17.478 -1.6396 -0.7508  1.6720
 1817SOL     OW17083   3.527   0.358   5.309 -0.2358 -0.6408 -0.2274
 1817SOL    HW117084   3.600   0.311   5.350  0.5793  0.3523 -0.5318
 1817SOL    HW217085   3.567   0.376   5.223  3.2301 -0.8736  1.3337
 1818SOL     OW17086   4.218   2.257   8.211 -0.4143  0.1747 -0.1695
 1818SOL    HW117087   4.197   2.319   8.141 -1.4481  0.6943  0.5965
 1818SOL    HW217088   4.196   2.175   8.167 -1.3412 -0.5606  1.6592
 1819SOL     OW17089   4.223   3.848  10.765  0.6999  0.4017  0.0146
 1819SOL    HW117090   4.193   3.866  10.676  1.3625 -0.1338 -0.3179
 1819SOL    HW217091   4.221   3.942  10.782 -0.3339  0.4659 -0.4327
 1820SOL     OW17092   2.926   2.730  15.983  0.1184  0.0308 -0.2966
 1820SOL    HW117093   2.984   2.743  16.058 -0.4829  1.3654 -0.0574
 1820SOL    HW217094   2.850   2.784  16.006 -1.5260 -2.4569  0.1418
 1821SOL     OW17095   2.457   4.048  10.481 -0.1086  0.1717 -0.2948
 1821SOL    HW117096   2.544   4.056  10.521 -0.0473  1.5274 -0.7164
 1821SOL    HW217097   2.452   3.952  10.490  0.0861  0.2168  0.3194
 1822SOL     OW17098   1.356   4.646   4.305  0.7404 -0.0072 -0.2883
 1822SOL    HW117099   1.317   4.559   4.308  1.4502 -0.2903  1.0265
 1822SOL    HW217100   1.314   4.696   4.375 -1.2853  1.0317 -2.2790
 1823SOL     OW17101   4.304   0.810  15.011 -0.2058 -1.1523  0.3720
 1823SOL    HW117102   4.264   0.817  15.098  0.9852  1.8177  0.6954
 1823SOL    HW217103   4.220   0.832  14.970 -0.6838 -0.8626  1.5122
 1824SOL     OW17104   2.578   3.937   9.252 -0.3195 -0.9208  0.2866
 1824SOL    HW117105   2.640   3.875   9.212 -2.5851 -0.5286 -3.8635
 1824SOL    HW217106   2.501   3.912   9.202 -0.3658  1.8489 -1.0157
 1825SOL     OW17107   3.951   1.611   5.037 -0.4091 -0.3584 -0.6557
 1825SOL    HW117108   3.868   1.572   5.009 -0.0500 -0.5657 -1.4442
 1825SOL    HW217109   3.943   1.701   5.005  0.8596 -1.3089 -3.6973
 1826SOL     OW17110   4.399   2.667   6.415 -0.3700 -0.2419 -0.2056
 1826SOL    HW117111   4.411   2.740   6.354 -0.1244  0.4991  0.7326
 1826SOL    HW217112   4.373   2.718   6.492  0.0730  1.8502 -1.4358
 1827SOL     OW17113   0.136   0.542   2.265  0.3584 -0.1528 -0.1753
 1827SOL    HW117114   0.196   0.493   2.209  1.7448  1.3558 -0.0045
 1827SOL    HW217115   0.179   0.528   2.350 -1.0161  1.1181  0.7191
 1828SOL     OW17116   3.251   0.446   5.713  0.2056  0.2215 -0.1331
 1828SOL    HW117117   3.276   0.539   5.709  1.0918  0.0315  1.0004
 1828SOL    HW217118   3.329   0.397   5.685 -2.0451 -3.6278  0.4062
 1829SOL     OW17119   2.672   3.566   8.557  0.0867 -0.5317  0.1975
 1829SOL    HW117120   2.644   3.532   8.472  0.3840  2.0928 -0.9509
 1829SOL    HW217121   2.760   3.599   8.540 -1.4697  4.0893  1.0803
 1830SOL     OW17122   2.105   3.517   4.484 -0.2371 -0.0632 -0.4355
 1830SOL    HW117123   2.141   3.560   4.562 -0.4540  0.6314 -0.7200
 1830SOL    HW217124   2.061   3.439   4.518 -0.8146 -0.4208 -2.0080
 1831SOL     OW17125   0.257   3.392   3.151  0.5644 -0.1958  0.5120
 1831SOL    HW117126   0.212   3.449   3.089 -1.1024  0.5729  2.4234
 1831SOL    HW217127   0.187   3.356   3.207 -0.7331  1.6632  0.0749
 1832SOL     OW17128   3.840   2.345   6.782 -0.0091 -0.5106  0.2431
 1832SOL    HW117129   3.777   2.416   6.766 -0.0262 -0.3908  0.8375
 1832SOL    HW217130   3.916   2.394   6.814 -1.2296  0.9043  1.0340
 1833SOL     OW17131   0.681   4.171  11.774  0.0295 -0.4298  0.3354
 1833SOL    HW117132   0.776   4.171  11.772 -0.0215  1.1305 -2.4530
 1833SOL    HW217133   0.648   4.256  11.803 -1.9158 -0.7517 -0.8909
 1834SOL     OW17134   2.775   4.228   1.546  0.1995  0.4706 -0.3701
 1834SOL    HW117135   2.789   4.160   1.612 -0.8616 -0.9356 -1.5721
 1834SOL    HW217136   2.753   4.304   1.600 -0.4566 -1.2456  1.8082
 1835SOL     OW17137   1.708   0.939  16.498  0.0513 -0.3753  0.3836
 1835SOL    HW117138   1.694   0.853  16.537  1.1585 -0.4168  0.6715
 1835SOL    HW217139   1.762   0.983  16.563  1.3221 -0.4095 -0.6487
 1836SOL     OW17140   2.901   1.648   1.851  0.5054  0.2359  0.7397
 1836SOL    HW117141   2.962   1.712   1.814  0.9853 -0.5872  0.1004
 1836SOL    HW217142   2.840   1.706   1.896 -1.6277 -0.6113 -1.0697
 1837SOL     OW17143   1.934   4.201   6.120  0.1418 -0.0229  0.4496
 1837SOL    HW117144   1.867   4.226   6.185  0.9819  1.2031  0.8503
 1837SOL    HW217145   2.013   4.194   6.173  0.6341  0.3844 -0.2262
 1838SOL     OW17146   3.771   1.636   9.244 -0.1631  0.3723 -0.0186
 1838SOL    HW117147   3.703   1.701   9.227 -0.6589 -0.4664 -1.2262
 1838SOL    HW217148   3.815   1.688   9.312  0.3309  1.5155 -1.2198
 1839SOL     OW17149   2.195   2.120   7.682 -0.8079  0.5298 -0.6310
 1839SOL    HW117150   2.194   2.034   7.639  0.3649 -0.2434  0.8995
 1839SOL    HW217151   2.159   2.101   7.768  3.5051  1.3257  1.3838
 1840SOL     OW17152   3.538   2.403   4.421  1.1704 -0.2342  0.3146
 1840SOL    HW117153   3.444   2.414   4.401  0.4999 -1.5163  2.8101
 1840SOL    HW217154   3.551   2.458   4.498 -0.5067  1.6345 -0.7368
 1841SOL     OW17155   4.148   0.492   8.577 -0.0365  0.3339  0.1262
 1841SOL    HW117156   4.093   0.413   8.580  1.9066 -0.9946  0.6805
 1841SOL    HW217157   4.231   0.453   8.603  1.3659  3.7438  0.8186
 1842SOL     OW17158   1.696   2.968  10.777 -0.4299 -0.2405  0.0489
 1842SOL    HW117159   1.783   3.003  10.797 -0.1243 -0.5547 -0.7339
 1842SOL    HW217160   1.662   2.953  10.865 -1.7591 -2.6833 -0.8791
 1843SOL     OW17161   0.648   3.844   9.757  0.3619 -0.3631  1.0249
 1843SOL    HW117162   0.685   3.921   9.714  2.0606  0.4861  4.0399
 1843SOL    HW217163   0.669   3.863   9.848  1.3774  1.1706  0.4655
 1844SOL     OW17164   3.600   0.134   4.594 -0.2174 -0.3417  0.1054
 1844SOL    HW117165   3.516   0.093   4.573 -1.6046  2.2429  0.6159
 1844SOL    HW217166   3.624   0.091   4.676  1.6439 -0.6365 -0.6031
 1845SOL     OW17167   1.678   1.107  14.189  0.1957 -0.0283  0.5124
 1845SOL    HW117168   1.656   1.052  14.114 -1.2739  3.0000 -1.2608
 1845SOL    HW217169   1.596   1.154  14.206  0.0077 -0.7041  1.4656
 1846SOL     OW17170   0.579   2.871  15.608  0.3721  0.3915  0.6165
 1846SOL    HW117171   0.629   2.811  15.663  0.0288 -2.2595 -1.9654
 1846SOL    HW217172   0.499   2.902  15.651  1.2882  1.9554  1.2118
 1847SOL     OW17173   3.573   4.736   2.156  0.6306 -0.1648  0.1682
 1847SOL    HW117174   3.478   4.730   2.168  0.5912  1.2743  0.6154
 1847SOL    HW217175   3.596   4.655   2.111  2.0407  0.3139  0.0265
 1848SOL     OW17176   2.966   2.790   2.359  0.1885 -0.0952 -0.1076
 1848SOL    HW117177   2.956   2.862   2.420  0.2165 -0.5921  0.4856
 1848SOL    HW217178   3.053   2.808   2.325  0.3224 -0.7291 -0.1140
 1849SOL     OW17179   2.391   2.141  17.380 -0.3794  0.0890  0.4444
 1849SOL    HW117180   2.405   2.109  17.469  1.0455 -1.2349 -0.2460
 1849SOL    HW217181   2.314   2.092  17.351 -0.0486 -0.3207  0.2595
 1850SOL     OW17182   1.968   0.623  15.375 -0.4983  0.5994 -0.4983
 1850SOL    HW117183   2.046   0.569  15.364 -0.4342  0.9070 -1.5023
 1850SOL    HW217184   1.899   0.560  15.355 -1.1585  1.2813 -0.3528
 1851SOL     OW17185   4.174   2.306   3.760  0.2285  0.1315 -0.3583
 1851SOL    HW117186   4.113   2.376   3.781  1.2746  0.6784  0.8847
 1851SOL    HW217187   4.109   2.248   3.722 -0.4259 -0.1780  1.2563
 1852SOL     OW17188   2.324   2.432   0.901 -0.1729 -0.1800 -0.1551
 1852SOL    HW117189   2.353   2.388   0.821  1.9540 -0.8212  0.9584
 1852SOL    HW217190   2.285   2.354   0.942  1.2224 -0.2843  0.9698
 1853SOL     OW17191   3.717   0.373   4.265  0.2643 -0.0715  0.3932
 1853SOL    HW117192   3.719   0.383   4.360 -0.4715 -1.7071  0.5794
 1853SOL    HW217193   3.668   0.450   4.236 -1.5833 -1.5731 -0.4928
 1854SOL     OW17194   0.771   3.173   8.747 -0.4788  0.3237 -0.0137
 1854SOL    HW117195   0.772   3.235   8.674 -0.7105  1.5352  0.9935
 1854SOL    HW217196   0.684   3.188   8.782 -1.2386 -1.3888 -1.1707
 1855SOL     OW17197   0.210   1.994  14.183 -0.3138 -0.2989  0.5612
 1855SOL    HW117198   0.125   2.026  14.152  1.6513  1.6254 -2.8561
 1855SOL    HW217199   0.270   2.010  14.111 -0.8838  1.0822  0.3961
 1856SOL     OW17200   0.952   0.119  14.955 -0.2350 -0.6036 -0.4386
 1856SOL    HW117201   0.900   0.113  15.035  0.8076 -2.2111  0.1299
 1856SOL    HW217202   0.885   0.114  14.887  0.5401 -1.8064 -1.1224
 1857SOL     OW17203   2.394   3.324  10.097 -0.3785 -0.4780 -0.2079
 1857SOL    HW117204   2.463   3.345  10.035 -0.1045  1.5042  0.7707
 1857SOL    HW217205   2.370   3.237  10.065  0.4173 -0.4104 -0.9587
 1858SOL     OW17206   0.558   4.575   1.139  0.1052  0.3386  0.2763
 1858SOL    HW117207   0.561   4.547   1.231  0.5880  2.8390  1.0119
 1858SOL    HW217208   0.530   4.665   1.151 -0.4095  0.2947 -0.6510
 1859SOL     OW17209   1.092   1.927   4.291 -0.4073  0.3648 -0.3741
 1859SOL    HW117210   1.144   1.850   4.311 -1.1899 -0.2589 -0.7639
 1859SOL    HW217211   1.050   1.948   4.374 -0.4116  1.8270 -0.7348
 1860SOL     OW17212   1.570   1.430   2.366 -0.5303 -0.4263  0.1776
 1860SOL    HW117213   1.665   1.435   2.381 -0.2314 -1.6729 -1.4006
 1860SOL    HW217214   1.544   1.390   2.449 -0.0622 -0.7265  0.1794
 1861SOL     OW17215   2.363   3.440   8.236 -0.3640 -0.4989 -0.2353
 1861SOL    HW117216   2.334   3.361   8.281 -1.0516 -0.5232 -0.7225
 1861SOL    HW217217   2.364   3.405   8.147  3.2900  2.2056 -1.2444
 1862SOL     OW17218   2.888   2.593   3.022  0.0462 -0.4075  0.4918
 1862SOL    HW117219   2.865   2.559   3.108  0.6721  1.3216  1.3542
 1862SOL    HW217220   2.850   2.524   2.969 -1.3943 -0.1201  1.1616
 1863SOL     OW17221   2.725   2.972   4.720  0.2219 -0.2799  0.1274
 1863SOL    HW117222   2.765   2.964   4.807  0.8311  0.3606 -0.1012
 1863SOL    HW217223   2.732   3.066   4.703 -0.9545 -0.0067  1.0949
 1864SOL     OW17224   2.254   0.740   4.673 -0.1895  0.1252 -0.2638
 1864SOL    HW117225   2.187   0.676   4.697 -1.7375  1.9397  0.2673
 1864SOL    HW217226   2.218   0.773   4.591  1.9778 -0.9751 -1.6656
 1865SOL     OW17227   1.013   4.194   3.368  0.0989 -0.3469 -0.1887
 1865SOL    HW117228   1.105   4.169   3.363 -0.0945 -1.2919  0.6994
 1865SOL    HW217229   0.967   4.110   3.373 -0.7543  0.1449  0.3486
 1866SOL     OW17230   1.053   3.424   6.908 -0.5378  0.0956  0.2875
 1866SOL    HW117231   1.139   3.464   6.896 -1.4242  2.0841  0.5873
 1866SOL    HW217232   1.017   3.467   6.985  0.8715 -0.8762  1.4935
 1867SOL     OW17233   3.578   1.317   4.264  0.0731 -0.0577 -0.1875
 1867SOL    HW117234   3.661   1.345   4.225  1.6088 -0.1598  2.9529
 1867SOL    HW217235   3.552   1.393   4.317 -1.3894 -0.7880  0.1521
 1868SOL     OW17236   1.816   4.285  17.442 -0.1407  0.2215 -0.3708
 1868SOL    HW117237   1.761   4.208  17.429  1.1493 -0.9454  1.0874
 1868SOL    HW217238   1.762   4.353  17.402 -0.2985  0.1110 -0.3431
 1869SOL     OW17239   3.265   0.747   8.433 -0.2622 -0.7750  0.8349
 1869SOL    HW117240   3.207   0.691   8.483 -2.9941  0.4622 -0.9111
 1869SOL    HW217241   3.198   0.796   8.384 -0.1151  0.8245  2.2271
 1870SOL     OW17242   3.603   3.141   8.995 -0.1379  0.0373  0.0137
 1870SOL    HW117243   3.541   3.214   9.006 -2.0201 -1.5950  0.3461
 1870SOL    HW217244   3.672   3.187   8.948 -3.1995  2.4653 -2.0842
 1871SOL     OW17245   3.985   0.856   7.538  0.3418  0.1233  0.0592
 1871SOL    HW117246   4.005   0.894   7.623 -0.9358 -1.5020  1.1031
 1871SOL    HW217247   3.989   0.927   7.475  2.6010 -0.7967 -0.8255
 1872SOL     OW17248   2.554   2.746   1.839 -0.4137  0.1352  0.1664
 1872SOL    HW117249   2.604   2.665   1.845 -1.4570 -0.4619  0.8974
 1872SOL    HW217250   2.529   2.750   1.747  0.3924 -1.0076 -0.1032
 1873SOL     OW17251   4.393   0.582   7.273  0.9482  0.7660 -0.0989
 1873SOL    HW117252   4.322   0.571   7.210  1.1705 -0.6307 -0.1154
 1873SOL    HW217253   4.342   0.605   7.350 -0.0071  2.6486 -1.3060
 1874SOL     OW17254   2.449   2.931   8.784 -0.2178 -0.1451  0.2748
 1874SOL    HW117255   2.403   2.864   8.734  1.9834  0.3321 -2.4410
 1874SOL    HW217256   2.414   3.004   8.733  0.0838  0.2961  0.6983
 1875SOL     OW17257   2.969   0.689   3.571 -0.1488 -0.0376  0.2845
 1875SOL    HW117258   2.918   0.764   3.603 -1.1224 -0.1634 -0.9929
 1875SOL    HW217259   2.905   0.640   3.520  0.3395 -0.2618 -0.1074
 1876SOL     OW17260   2.061   4.290  15.303 -0.6431  0.4275 -0.4775
 1876SOL    HW117261   2.123   4.217  15.310  0.4604  1.4441  0.2972
 1876SOL    HW217262   2.096   4.358  15.361 -1.0172  0.7367 -0.6150
 1877SOL     OW17263   3.185   2.662   5.360  0.1411  0.2236 -0.1649
 1877SOL    HW117264   3.261   2.717   5.378  2.4740 -2.6317 -1.2136
 1877SOL    HW217265   3.210   2.575   5.390  1.5378  0.8836  0.5940
 1878SOL     OW17266   0.717   0.644   8.042  0.3805  0.5602  0.2332
 1878SOL    HW117267   0.740   0.631   8.134  0.1342 -0.9485  0.0948
 1878SOL    HW217268   0.794   0.677   7.996 -1.1454  2.4588 -0.9610
 1879SOL     OW17269   2.961   0.403  13.755 -0.4316  0.2076 -0.6081
 1879SOL    HW117270   2.883   0.449  13.724 -1.1313 -1.4393 -1.2901
 1879SOL    HW217271   2.917   0.351  13.822  2.2125 -0.7879  0.3705
 1880SOL     OW17272   4.519   0.516   5.933 -0.6075 -0.1396 -0.3995
 1880SOL    HW117273   4.518   0.520   5.837  0.4357  1.0415 -0.3523
 1880SOL    HW217274   4.518   0.422   5.949  1.5843  0.2808  2.1012
 1881SOL     OW17275   4.673   3.341   8.652 -0.0758 -0.3260 -0.6173
 1881SOL    HW117276   0.013   3.350   8.709 -0.2862 -2.3632 -0.0187
 1881SOL    HW217277   4.604   3.365   8.714  1.7617  0.6422  1.0720
 1882SOL     OW17278   1.230   1.463   3.606  0.0713  0.2187 -0.1012
 1882SOL    HW117279   1.214   1.369   3.597 -0.9917  0.3615  0.3305
 1882SOL    HW217280   1.139   1.482   3.626 -0.0570 -2.1530  1.5830
 1883SOL     OW17281   1.309   2.190   8.477 -0.1801 -0.4357 -0.6662
 1883SOL    HW117282   1.302   2.116   8.537  3.6131 -1.3177 -1.2838
 1883SOL    HW217283   1.235   2.248   8.493  0.1614 -0.2591  0.2709
 1884SOL     OW17284   3.562   4.137   4.651  0.1256 -0.4221  0.4622
 1884SOL    HW117285   3.585   4.119   4.560  1.4990 -1.1989  0.9547
 1884SOL    HW217286   3.516   4.221   4.646  2.5085  1.0217  3.0707
 1885SOL     OW17287   1.816   4.058   9.277  0.4934 -0.1552 -0.8622
 1885SOL    HW117288   1.778   4.115   9.344 -0.2635 -2.4995  0.6922
 1885SOL    HW217289   1.875   4.012   9.335  1.1254 -1.5061 -2.5816
 1886SOL     OW17290   2.661   4.236   3.460  0.1862 -0.2384 -0.0454
 1886SOL    HW117291   2.595   4.222   3.393 -0.3200 -0.1643  0.4357
 1886SOL    HW217292   2.717   4.296   3.411  0.9306 -2.2428 -1.6735
 1887SOL     OW17293   0.836   4.179  12.390 -0.1501  0.1622  0.0743
 1887SOL    HW117294   0.791   4.107  12.346  1.5070 -2.0303  2.0103
 1887SOL    HW217295   0.796   4.249  12.337  0.2270 -0.9339 -1.6461
 1888SOL     OW17296   4.375   2.362   5.938  0.2028  0.5975 -0.2280
 1888SOL    HW117297   4.354   2.366   6.032 -1.0979  0.3511 -0.5100
 1888SOL    HW217298   4.471   2.359   5.933  0.2321  0.1875  0.5446
 1889SOL     OW17299   0.474   2.154  13.150  0.5571 -0.5802 -0.1796
 1889SOL    HW117300   0.421   2.154  13.070  1.5103 -0.3443 -0.8191
 1889SOL    HW217301   0.453   2.241  13.184  0.7496 -0.5042 -0.2526
 1890SOL     OW17302   2.090   2.657   3.173 -0.5686 -0.3208 -0.3202
 1890SOL    HW117303   2.055   2.577   3.134  2.8671 -1.3907 -1.1742
 1890SOL    HW217304   2.014   2.715   3.163 -0.9234 -0.9549 -1.3003
 1891SOL     OW17305   0.013   4.714   4.559 -0.4408  0.5293  0.4639
 1891SOL    HW117306   0.093   4.669   4.532 -0.7565  0.4366 -0.3200
 1891SOL    HW217307   0.042   0.014   4.642 -1.9262 -1.6562  1.9451
 1892SOL     OW17308   3.514   1.897   8.619 -0.1865  0.0904 -0.3478
 1892SOL    HW117309   3.479   1.979   8.584  1.6618  0.6664 -0.8492
 1892SOL    HW217310   3.436   1.853   8.654  0.7744 -2.0197 -0.9174
 1893SOL     OW17311   4.557   2.712   4.833 -0.8908 -0.3576  0.3142
 1893SOL    HW117312   4.533   2.619   4.829 -1.8756 -0.0885 -0.0333
 1893SOL    HW217313   4.563   2.735   4.740 -0.8134 -0.8609  0.1924
 1894SOL     OW17314   3.131   4.261  17.715 -0.0778  0.0154  0.9529
 1894SOL    HW117315   3.145   4.198  17.644 -1.5593 -1.7413  2.2174
 1894SOL    HW217316   3.048   4.225   0.003 -0.8522 -2.3713 -3.6099
 1895SOL     OW17317   4.428   4.301   7.438 -0.1589  0.2219 -0.3040
 1895SOL    HW117318   4.508   4.309   7.491  0.1834  1.7779 -1.0349
 1895SOL    HW217319   4.457   4.237   7.373  0.0275  0.5687 -0.5626
 1896SOL     OW17320   4.390   0.820   5.887 -0.4398 -0.4942 -0.1002
 1896SOL    HW117321   4.409   0.726   5.889  0.6289 -0.2531  1.1770
 1896SOL    HW217322   4.480   0.851   5.899 -0.1040 -0.7276 -1.9934
 1897SOL     OW17323   4.004   1.498   7.172 -0.1549  0.4755 -0.7703
 1897SOL    HW117324   3.959   1.421   7.137  0.5976  0.0876 -0.8747
 1897SOL    HW217325   3.965   1.570   7.122  1.9778  0.8109 -1.9576
 1898SOL     OW17326   2.983   1.107   2.269 -0.0092  0.1523  0.7424
 1898SOL    HW117327   2.948   1.060   2.344  0.6314 -0.6435  0.5366
 1898SOL    HW217328   3.043   1.164   2.316  0.9999  0.7763 -1.2734
 1899SOL     OW17329   4.122   0.199   8.502 -0.2583 -0.4422  0.0596
 1899SOL    HW117330   4.147   0.156   8.583  0.1698  1.4795  0.9467
 1899SOL    HW217331   4.028   0.182   8.506 -0.4223  0.0845 -1.5454
 1900SOL     OW17332   2.252   2.162   4.722  0.3040  0.0499  0.2940
 1900SOL    HW117333   2.196   2.231   4.686 -0.7082 -0.2768  1.2476
 1900SOL    HW217334   2.249   2.101   4.648  2.4242 -0.3692  0.5450
 1901SOL     OW17335   2.845   0.378   8.405  0.2907  0.9977  0.5056
 1901SOL    HW117336   2.756   0.342   8.407  0.7375 -0.2652 -1.8298
 1901SOL    HW217337   2.885   0.335   8.480  1.6267  1.3647 -0.0005
 1902SOL     OW17338   1.432   0.587  12.538 -0.3895 -0.3444  0.2251
 1902SOL    HW117339   1.409   0.678  12.521  0.7436  0.1668  1.3966
 1902SOL    HW217340   1.418   0.556  12.448 -0.6626  0.1995  0.0813
 1903SOL     OW17341   3.510   1.613   7.407 -1.0039  0.0922  0.6489
 1903SOL    HW117342   3.568   1.650   7.341 -0.4810  0.2420  1.1822
 1903SOL    HW217343   3.532   1.520   7.403 -2.9630 -0.3196 -0.6381
 1904SOL     OW17344   1.563   2.938  12.837 -0.1069  0.2970 -0.1280
 1904SOL    HW117345   1.474   2.952  12.807 -0.6853 -0.1162  1.3575
 1904SOL    HW217346   1.568   2.991  12.916 -0.2440 -2.2023  1.5830
 1905SOL     OW17347   3.618   1.203   5.728 -0.1592  0.2159  0.1585
 1905SOL    HW117348   3.565   1.130   5.697  0.1580  0.2173 -0.3853
 1905SOL    HW217349   3.560   1.275   5.700  1.1664  0.4936 -1.8893
 1906SOL     OW17350   3.728   3.559   8.471  0.2598 -0.1587 -0.1832
 1906SOL    HW117351   3.727   3.650   8.441 -1.0516  0.2769  1.2061
 1906SOL    HW217352   3.741   3.572   8.565 -1.2521  0.3568 -0.0570
 1907SOL     OW17353   2.724   3.654   3.985 -0.3617  0.7051 -0.0442
 1907SOL    HW117354   2.634   3.667   4.017  0.4361  3.8434  0.9708
 1907SOL    HW217355   2.740   3.563   4.012 -2.6442  0.4047  0.3530
 1908SOL     OW17356   1.660   0.563   6.219  0.2382  0.1614  0.1398
 1908SOL    HW117357   1.708   0.482   6.204 -0.9267 -0.2598 -1.3236
 1908SOL    HW217358   1.624   0.548   6.307 -0.1959 -0.2533 -0.1133
 1909SOL     OW17359   0.013   0.835  14.936 -0.8450 -0.6750 -0.5065
 1909SOL    HW117360   0.047   0.799  14.854 -0.5812  0.3124 -0.8269
 1909SOL    HW217361   0.057   0.919  14.948  0.5902 -0.9007 -4.0980
 1910SOL     OW17362   0.269   4.358  10.729 -0.1490  0.4660 -0.4648
 1910SOL    HW117363   0.259   4.392  10.817 -0.3306  2.1549 -1.1338
 1910SOL    HW217364   0.176   4.341  10.713 -0.4004  0.0195  1.5505
 1911SOL     OW17365   0.043   3.883   6.781 -0.9203  0.2353  0.5876
 1911SOL    HW117366   4.731   3.899   6.701 -1.3659  2.3226  1.2604
 1911SOL    HW217367   0.057   3.788   6.781  1.9016  0.6365  0.0071
 1912SOL     OW17368   2.183   0.360   8.636 -0.6380 -0.0641  0.3878
 1912SOL    HW117369   2.153   0.411   8.560 -0.8455 -0.3087  0.3064
 1912SOL    HW217370   2.097   0.346   8.676 -0.4745  0.6559  0.9927
 1913SOL     OW17371   3.451   1.582   2.639 -0.0083 -0.4353  0.0997
 1913SOL    HW117372   3.445   1.497   2.594 -0.5140  0.8933 -2.3731
 1913SOL    HW217373   3.358   1.602   2.627  0.2633  0.8118  0.0696
 1914SOL     OW17374   3.822   0.448  15.511 -0.5833 -0.5431  0.0010
 1914SOL    HW117375   3.786   0.432  15.424  1.8984  0.9325 -1.2941
 1914SOL    HW217376   3.779   0.532  15.530 -0.7425 -0.6599  0.1548
 1915SOL     OW17377   1.547   0.381   4.540 -0.0265  0.2060  0.2004
 1915SOL    HW117378   1.568   0.318   4.609  1.1791  0.4837  0.0846
 1915SOL    HW217379   1.531   0.454   4.599  0.5015 -0.4096  1.1001
 1916SOL     OW17380   3.218   2.830   2.234 -0.0374 -0.0245  0.2497
 1916SOL    HW117381   3.174   2.797   2.156  2.9229 -2.5610 -0.3618
 1916SOL    HW217382   3.270   2.753   2.258 -0.7240  0.9826  4.9347
 1917SOL     OW17383   0.222   1.773   5.128 -0.2960  0.1066 -0.2938
 1917SOL    HW117384   0.178   1.722   5.060  0.0317  1.1941 -1.3311
 1917SOL    HW217385   0.152   1.832   5.158  1.9305  1.7655  1.6877
 1918SOL     OW17386   1.584   1.386   8.985 -0.3105  0.4191 -0.6236
 1918SOL    HW117387   1.505   1.331   8.991 -0.1142 -0.0105 -2.0562
 1918SOL    HW217388   1.574   1.439   9.064  0.5969 -0.0881 -0.1704
 1919SOL     OW17389   0.098   3.229  10.917  0.3848 -0.5607  0.4689
 1919SOL    HW117390   0.096   3.133  10.911  0.6879 -0.6489  1.8526
 1919SOL    HW217391   0.017   3.242  10.965  0.4329  1.8051 -0.0993
 1920SOL     OW17392   0.233   4.023   2.926 -0.3465 -0.0401  0.3643
 1920SOL    HW117393   0.158   3.975   2.891 -0.5437 -0.3614  1.2221
 1920SOL    HW217394   0.302   4.011   2.861  1.5183 -1.1073  2.5375
 1921SOL     OW17395   0.787   4.001   0.505  0.1674 -0.4980  0.1657
 1921SOL    HW117396   0.745   3.986   0.420  0.1862 -2.9235  0.5866
 1921SOL    HW217397   0.873   4.029   0.473  1.1840 -0.9641  2.4907
 1922SOL     OW17398   0.826   0.428   3.630 -0.0785 -0.3821 -0.1473
 1922SOL    HW117399   0.776   0.361   3.582  0.8877 -1.0182 -0.2728
 1922SOL    HW217400   0.890   0.440   3.560 -0.3405  0.0193 -0.3152
 1923SOL     OW17401   3.682   4.143   2.009 -0.1126 -0.2940  0.2908
 1923SOL    HW117402   3.755   4.144   1.947 -1.8674 -2.2451 -1.8057
 1923SOL    HW217403   3.610   4.135   1.946  2.7623  0.8851 -3.1907
 1924SOL     OW17404   4.303   1.398   3.911 -0.0614  0.5519  0.1699
 1924SOL    HW117405   4.254   1.373   3.990  0.1262  0.8913  0.3904
 1924SOL    HW217406   4.387   1.426   3.946 -0.3367  0.8133  0.6288
 1925SOL     OW17407   2.924   1.044   2.717  0.2502  0.1364  0.8620
 1925SOL    HW117408   2.835   1.078   2.715  0.3591  0.5454  3.1594
 1925SOL    HW217409   2.911   0.977   2.784  0.8416 -0.0669  0.7808
 1926SOL     OW17410   0.523   3.438   2.528  0.0720  0.1437 -0.5783
 1926SOL    HW117411   0.593   3.373   2.536 -0.0034  0.0823 -0.3986
 1926SOL    HW217412   0.460   3.371   2.502 -1.5957  1.1205  0.9445
 1927SOL     OW17413   1.679   2.352   4.304  0.3082 -0.5105 -0.1233
 1927SOL    HW117414   1.688   2.273   4.358 -2.5198 -0.0500  1.0387
 1927SOL    HW217415   1.586   2.343   4.285 -0.0329  1.3256  0.6506
 1928SOL     OW17416   0.003   1.824   0.044 -0.7412 -0.5076 -0.3748
 1928SOL    HW117417   0.086   1.860   0.074 -0.4300 -0.8908 -0.7873
 1928SOL    HW217418   0.021   1.739   0.003 -0.7033 -1.1405  0.9460
 1929SOL     OW17419   3.763   0.944   5.730  0.6283  0.0370 -0.8806
 1929SOL    HW117420   3.804   1.030   5.725  0.6966 -0.0554 -1.9103
 1929SOL    HW217421   3.843   0.893   5.733  1.1771  1.0003  0.8000
 1930SOL     OW17422   3.861   1.236   4.899 -0.2332 -0.0307  0.1296
 1930SOL    HW117423   3.846   1.319   4.945  0.1742 -0.0788  0.3422
 1930SOL    HW217424   3.920   1.195   4.961  0.8039 -0.8910 -1.4222
 1931SOL     OW17425   4.551   3.837  15.213 -0.1852  0.1884  0.2538
 1931SOL    HW117426   4.513   3.826  15.300 -1.1055 -0.5418 -0.2426
 1931SOL    HW217427   4.491   3.797  15.150 -1.3293  0.9405  0.8782
 1932SOL     OW17428   0.610   3.377   4.773 -0.1246  0.7984  0.5650
 1932SOL    HW117429   0.527   3.407   4.809 -0.8755 -2.3492  1.4446
 1932SOL    HW217430   0.681   3.431   4.806  1.4358 -1.5643  1.0369
 1933SOL     OW17431   0.112   3.225   0.174  0.3146 -0.6751  0.4782
 1933SOL    HW117432   0.174   3.235   0.246  1.8090  3.9155 -1.4317
 1933SOL    HW217433   0.112   3.312   0.134 -2.0372  0.0326  1.9680
 1934SOL     OW17434   1.807   1.321  10.625  0.1448 -0.3228 -0.9662
 1934SOL    HW117435   1.775   1.333  10.536  2.3798  2.9783 -1.3208
 1934SOL    HW217436   1.723   1.320  10.672 -0.5965  2.3321 -2.2176
 1935SOL     OW17437   3.426   1.247   4.035 -0.4104 -0.0290 -0.7569
 1935SOL    HW117438   3.452   1.282   4.120  1.0781 -2.7019 -0.1043
 1935SOL    HW217439   3.384   1.321   3.991 -1.1356  0.4597  0.7644
 1936SOL     OW17440   0.023   2.627   3.733  0.1428 -0.3366 -0.0830
 1936SOL    HW117441   4.722   2.714   3.748 -0.0622 -0.9161  2.8400
 1936SOL    HW217442   4.681   2.574   3.721  0.4041 -0.8820  0.6016
 1937SOL     OW17443   3.687   1.070  14.934 -0.1042  0.0281  0.2094
 1937SOL    HW117444   3.646   1.101  14.853 -2.0302 -0.4454  0.9960
 1937SOL    HW217445   3.746   1.008  14.893 -2.9818 -2.3969 -0.2912
 1938SOL     OW17446   0.441   2.836   7.880 -0.2894 -0.1538 -0.0556
 1938SOL    HW117447   0.480   2.749   7.874 -0.5314 -0.1764 -1.2757
 1938SOL    HW217448   0.447   2.866   7.789 -1.6167  1.4377  0.3777
 1939SOL     OW17449   1.009   4.092   7.861 -0.0780  0.6062 -0.0091
 1939SOL    HW117450   1.097   4.070   7.893 -1.8612 -3.1755  2.2753
 1939SOL    HW217451   1.007   4.054   7.774  0.3147 -0.5635  0.4831
 1940SOL     OW17452   0.304   2.890   9.705 -0.3601 -0.3125  0.0558
 1940SOL    HW117453   0.339   2.958   9.763 -0.3664 -1.7139  1.7014
 1940SOL    HW217454   0.386   2.849   9.675  0.1489  0.7435 -0.0117
 1941SOL     OW17455   2.687   4.145   6.243 -0.3743 -0.1452  0.0601
 1941SOL    HW117456   2.618   4.168   6.181 -0.1857  0.8353  0.2115
 1941SOL    HW217457   2.769   4.155   6.196 -1.3883  0.1995 -1.6209
 1942SOL     OW17458   0.944   3.411  10.057 -0.0157 -0.1145  0.7596
 1942SOL    HW117459   0.922   3.504  10.052 -1.7654 -0.6452 -1.6498
 1942SOL    HW217460   1.028   3.409  10.102  0.2254  0.2192  0.3248
 1943SOL     OW17461   3.283   4.138   8.433 -0.0737  0.0749  0.2163
 1943SOL    HW117462   3.284   4.090   8.516  1.5039  0.6930  0.5360
 1943SOL    HW217463   3.272   4.058   8.381 -0.0742  0.2355 -0.0297
 1944SOL     OW17464   1.319   0.785   7.403 -0.0440  0.0112  0.0059
 1944SOL    HW117465   1.387   0.828   7.455  0.6734 -0.6211 -0.4144
 1944SOL    HW217466   1.258   0.854   7.375  0.8509  0.6947 -0.2806
 1945SOL     OW17467   1.092   4.203   3.976  0.2736 -0.0648 -0.3152
 1945SOL    HW117468   1.042   4.126   3.951 -0.6745  0.2002  0.7556
 1945SOL    HW217469   1.029   4.267   3.942  1.2791 -0.5939 -3.1743
 1946SOL     OW17470   4.041   1.336   6.732 -0.3981 -0.4372 -0.6228
 1946SOL    HW117471   3.964   1.356   6.679  0.2629 -1.0424 -1.8035
 1946SOL    HW217472   4.109   1.371   6.674  0.2552 -0.6807 -0.0037
 1947SOL     OW17473   3.938   4.386   1.619 -0.1333  0.0486  0.3384
 1947SOL    HW117474   3.853   4.355   1.651 -1.0518  2.6578  0.4668
 1947SOL    HW217475   3.954   4.314   1.558 -0.2465 -0.6681  1.1563
 1948SOL     OW17476   0.486   2.607  15.455 -0.1352  0.2678 -0.1281
 1948SOL    HW117477   0.569   2.621  15.411 -0.1469 -0.0103 -0.2380
 1948SOL    HW217478   0.526   2.567  15.532  2.1422  2.4165 -0.2117
 1949SOL     OW17479   3.663   1.344   3.643  0.1702  0.1145  0.9742
 1949SOL    HW117480   3.576   1.385   3.646  0.8716  1.6508  0.0446
 1949SOL    HW217481   3.713   1.416   3.680  1.9456 -0.6383  0.0452
 1950SOL     OW17482   1.481   1.343   0.757  0.1556  0.3067  0.1961
 1950SOL    HW117483   1.465   1.367   0.666  1.2211 -0.6225 -0.2212
 1950SOL    HW217484   1.439   1.412   0.809  1.8530  1.3714  0.1620
 1951SOL     OW17485   4.067   4.700   6.973  0.5068 -0.0963 -0.0526
 1951SOL    HW117486   4.149   4.729   7.013  0.1865  1.1030 -0.2724
 1951SOL    HW217487   4.041   4.630   7.033  0.2711 -0.4460 -0.5532
 1952SOL     OW17488   0.129   1.025  14.725  0.3758 -0.0508  0.4551
 1952SOL    HW117489   0.181   1.105  14.732 -2.4276  1.7298  0.7699
 1952SOL    HW217490   0.193   0.959  14.699  0.1335 -1.0734  2.4634
 1953SOL     OW17491   1.439   1.816  13.461 -0.2139  0.5321  0.6296
 1953SOL    HW117492   1.463   1.892  13.410 -1.9764  0.4447 -0.3149
 1953SOL    HW217493   1.378   1.767  13.406  2.5104 -3.1715  0.8980
 1954SOL     OW17494   2.776   1.152   5.625  0.4590  0.3706 -0.1411
 1954SOL    HW117495   2.837   1.121   5.559  0.0636 -0.4794 -0.1039
 1954SOL    HW217496   2.831   1.138   5.702  0.3321  3.1024  0.4507
 1955SOL     OW17497   2.736   2.484   6.805  0.7660 -0.1453  0.7424
 1955SOL    HW117498   2.777   2.562   6.841  0.3197  0.2257  0.4454
 1955SOL    HW217499   2.714   2.510   6.716  0.5152 -1.6349  0.3567
 1956SOL     OW17500   1.734   1.806  16.650  0.8748  0.1014 -0.0017
 1956SOL    HW117501   1.775   1.841  16.571  0.3500  1.2394  0.2239
 1956SOL    HW217502   1.640   1.809  16.631  0.9088 -1.5803 -0.4186
 1957SOL     OW17503   0.287   2.146  12.091 -0.0265 -0.0793 -0.1892
 1957SOL    HW117504   0.341   2.080  12.135  1.7822  0.0375 -2.2225
 1957SOL    HW217505   0.237   2.186  12.162 -0.6714 -1.9448  0.4209
 1958SOL     OW17506   4.090   2.029   8.098 -0.0782  0.5241 -0.1738
 1958SOL    HW117507   4.067   2.020   8.006 -1.0645  1.4158 -0.0238
 1958SOL    HW217508   4.158   1.963   8.109 -1.2222 -0.0496  3.7291
 1959SOL     OW17509   3.427   0.116   9.058  0.2012  0.0661  0.2835
 1959SOL    HW117510   3.431   0.211   9.046 -2.5099 -0.0078 -1.1747
 1959SOL    HW217511   3.517   0.090   9.038 -0.2471  0.0234 -1.6117
 1960SOL     OW17512   4.647   3.761  17.698  0.4219  0.0143 -0.1429
 1960SOL    HW117513   4.684   3.694  17.642  0.5699  0.2358 -0.3104
 1960SOL    HW217514   4.641   3.837  17.640  0.1187 -0.1927 -0.3858
 1961SOL     OW17515   2.509   4.196   4.675 -0.1172 -1.3294  0.2277
 1961SOL    HW117516   2.538   4.108   4.651 -1.4581 -1.7991  0.3034
 1961SOL    HW217517   2.448   4.175   4.746 -1.4541  0.6015 -0.3567
 1962SOL     OW17518   2.756   0.396   5.591  0.1017  0.2583 -0.3775
 1962SOL    HW117519   2.733   0.428   5.679  0.4589 -1.9224  0.4936
 1962SOL    HW217520   2.846   0.368   5.602 -0.6426 -0.8561  2.8190
 1963SOL     OW17521   3.384   1.148   5.325 -0.2799 -0.0559  0.1670
 1963SOL    HW117522   3.344   1.062   5.338  1.1192 -0.7261 -0.0436
 1963SOL    HW217523   3.339   1.198   5.394  0.5165  0.5258  0.2655
 1964SOL     OW17524   0.807   3.908   3.591  0.3365  0.8176 -0.0243
 1964SOL    HW117525   0.722   3.865   3.582  0.4730  0.0927  2.1683
 1964SOL    HW217526   0.845   3.921   3.504  2.4908  1.0858  0.9414
 1965SOL     OW17527   4.495   1.078  17.675  0.0964  0.4323 -0.0834
 1965SOL    HW117528   4.498   1.084   0.026 -2.8169 -1.9772  0.1604
 1965SOL    HW217529   4.587   1.080  17.650 -0.0004 -1.2847 -0.5209
 1966SOL     OW17530   4.638   1.855   0.504 -0.5085  0.1724 -0.1909
 1966SOL    HW117531   4.574   1.821   0.567 -0.5296 -0.6483 -0.6576
 1966SOL    HW217532   4.574   1.863   0.433  1.7650 -0.2357 -2.3075
 1967SOL     OW17533   2.525   2.595   3.059  0.6496  0.0164 -0.0054
 1967SOL    HW117534   2.447   2.634   3.020 -0.6335 -0.6395  1.9093
 1967SOL    HW217535   2.590   2.607   2.990 -1.4824  2.2807 -1.6244
 1968SOL     OW17536   0.151   4.353   7.284 -0.3191 -0.4014  0.2957
 1968SOL    HW117537   0.155   4.389   7.373  2.6512  0.6455 -0.2567
 1968SOL    HW217538   0.236   4.308   7.278  1.2599  2.6157 -0.1774
 1969SOL     OW17539   2.000   0.041  10.786  0.7863 -0.0359 -0.5551
 1969SOL    HW117540   2.085   0.016  10.822 -0.6174  0.1032  2.8943
 1969SOL    HW217541   1.946   0.027  10.865  0.1634 -0.1091 -0.9918
 1970SOL     OW17542   2.893   1.800   6.070 -0.4962  0.1357 -0.0211
 1970SOL    HW117543   2.879   1.740   5.997 -3.8505  1.0990 -0.2105
 1970SOL    HW217544   2.912   1.748   6.148  1.6002  1.0430  0.0698
 1971SOL     OW17545   0.717   2.443   2.921  0.8707  0.3058  0.0194
 1971SOL    HW117546   0.741   2.494   2.844 -0.2457  1.1474  0.2327
 1971SOL    HW217547   0.791   2.381   2.921  0.0748 -0.6452 -0.7946
 1972SOL     OW17548   3.576   3.606   2.996  0.2963  0.5578  0.1631
 1972SOL    HW117549   3.531   3.556   3.064 -0.3020  1.1436  0.1913
 1972SOL    HW217550   3.530   3.690   3.002 -0.2903  0.0810  2.1263
 1973SOL     OW17551   1.999   1.315  10.926 -0.6880  0.0036  0.5986
 1973SOL    HW117552   1.945   1.279  10.997 -0.1922 -1.1030  0.4129
 1973SOL    HW217553   2.082   1.270  10.939 -0.1764 -0.4647 -4.1996
 1974SOL     OW17554   2.063   3.642  17.727 -0.0615 -0.2737 -0.3940
 1974SOL    HW117555   1.993   3.692  17.683 -0.1990 -0.7221 -0.6815
 1974SOL    HW217556   2.011   3.598   0.049  0.5079 -1.2312 -0.5808
 1975SOL     OW17557   4.542   4.691   7.191  0.4033  0.4905 -0.2371
 1975SOL    HW117558   4.513   4.604   7.164 -1.1424  0.7692  0.5581
 1975SOL    HW217559   4.600   4.717   7.119  3.4878 -1.9161  1.3571
 1976SOL     OW17560   4.730   2.454  17.338 -0.2520  0.6176  0.0424
 1976SOL    HW117561   0.081   2.489  17.353 -0.6596  1.8393 -0.4703
 1976SOL    HW217562   4.693   2.519  17.278 -0.6355  0.9887  0.6905
 1977SOL     OW17563   4.453   2.939   9.677  0.2105  0.2014 -0.0968
 1977SOL    HW117564   4.541   2.939   9.714 -0.5334  0.6662  1.7032
 1977SOL    HW217565   4.457   2.892   9.593 -0.5024  0.4653 -0.2792
 1978SOL     OW17566   4.443   2.149   5.290 -0.0336 -0.1973 -0.3517
 1978SOL    HW117567   4.500   2.106   5.353 -2.1873 -2.5228  0.0136
 1978SOL    HW217568   4.415   2.224   5.342  0.6138 -0.3229  0.1676
 1979SOL     OW17569   0.909   3.157  12.737  0.6238 -0.5337  0.1031
 1979SOL    HW117570   0.957   3.143  12.656  0.5793 -1.3459  0.2186
 1979SOL    HW217571   0.940   3.245  12.757  0.2499 -0.5162  0.6253
 1980SOL     OW17572   1.774   1.223   8.871 -0.4084  0.4762 -0.2895
 1980SOL    HW117573   1.698   1.168   8.852 -0.9908  0.3449  2.5071
 1980SOL    HW217574   1.733   1.289   8.927 -1.1479  1.4780 -1.9809
 1981SOL     OW17575   2.751   2.730   4.600 -0.3693 -0.0831  0.1189
 1981SOL    HW117576   2.748   2.823   4.623  0.8647  0.8808 -3.6089
 1981SOL    HW217577   2.663   2.731   4.563 -0.7664 -0.7320  1.0485
 1982SOL     OW17578   0.151   3.522   9.124 -0.3883  0.0649 -0.3307
 1982SOL    HW117579   0.243   3.543   9.145 -0.0619 -1.1130 -0.5993
 1982SOL    HW217580   0.139   3.582   9.051 -1.5190 -0.2225 -0.3705
 1983SOL     OW17581   0.083   1.254  15.841  0.4225 -0.4819 -0.2296
 1983SOL    HW117582   0.142   1.207  15.901 -0.2345  1.2518  1.7628
 1983SOL    HW217583   0.141   1.293  15.776  1.2582 -0.5494  0.4728
 1984SOL     OW17584   0.782   4.355   9.648  0.4064 -0.2540  0.2196
 1984SOL    HW117585   0.766   4.428   9.588 -1.2093  0.6397  1.7294
 1984SOL    HW217586   0.840   4.303   9.592  0.5483  0.4499 -0.2996
 1985SOL     OW17587   0.154   0.143   4.814  0.0251  0.1767  0.1045
 1985SOL    HW117588   0.125   0.217   4.761  0.5787 -0.5158 -1.1676
 1985SOL    HW217589   0.249   0.153   4.824  0.0147  1.7882 -1.6433
 1986SOL     OW17590   3.708   4.519  16.950  0.1866 -0.4277  0.3130
 1986SOL    HW117591   3.707   4.589  17.016  1.8351 -0.6572  0.5609
 1986SOL    HW217592   3.797   4.522  16.915 -0.4372 -3.2745 -1.5145
 1987SOL     OW17593   1.416   1.949  16.659 -0.0777 -0.2580 -0.1527
 1987SOL    HW117594   1.417   1.957  16.564 -0.0829  0.3972 -0.0979
 1987SOL    HW217595   1.370   2.030  16.681 -0.3780 -1.3490  3.2482
 1988SOL     OW17596   4.201   3.741   8.998  0.0191  0.4717 -0.1614
 1988SOL    HW117597   4.131   3.698   8.949  0.8202 -0.3769 -0.5828
 1988SOL    HW217598   4.149   3.791   9.061 -0.4286 -0.5324  0.2578
 1989SOL     OW17599   2.921   3.217   5.362 -0.2030 -0.2577 -0.0617
 1989SOL    HW117600   2.832   3.253   5.357 -0.2279  0.1675  3.2963
 1989SOL    HW217601   2.914   3.173   5.447 -2.6860  0.8171  0.3136
 1990SOL     OW17602   3.750   2.279   1.249  0.2062 -0.1970 -0.2286
 1990SOL    HW117603   3.813   2.277   1.177  1.8425 -1.3089  1.2497
 1990SOL    HW217604   3.725   2.372   1.252 -2.9857 -1.0451 -0.4768
 1991SOL     OW17605   1.174   0.101   7.263 -0.0789  0.0463 -0.0454
 1991SOL    HW117606   1.237   0.148   7.208  0.1432  0.2315  0.3687
 1991SOL    HW217607   1.214   0.127   7.346 -0.7771 -0.5012  0.4638
 1992SOL     OW17608   4.149   0.518   2.727  0.1513 -0.5874 -0.3778
 1992SOL    HW117609   4.130   0.584   2.661 -0.2082  2.2750  2.6073
 1992SOL    HW217610   4.241   0.538   2.745  0.1980  0.5268 -1.8968
 1993SOL     OW17611   0.012   3.086  12.672  0.3814 -0.1031 -0.2645
 1993SOL    HW117612   0.059   3.110  12.752  1.1930 -1.2843 -0.3725
 1993SOL    HW217613   4.730   3.168  12.628 -0.9191 -0.1868  0.1130
 1994SOL     OW17614   4.611   4.527   8.966 -0.4324  0.8956 -0.3839
 1994SOL    HW117615   4.654   4.540   9.050 -0.5454  0.3602 -0.2431
 1994SOL    HW217616   4.670   4.462   8.929 -0.6654 -0.4687  1.6526
 1995SOL     OW17617   3.050   3.357   4.444 -0.2767 -0.9680 -0.1730
 1995SOL    HW117618   3.010   3.352   4.357  0.0877 -0.6228 -0.3576
 1995SOL    HW217619   2.995   3.300   4.498 -1.7995 -0.6529 -1.3972
 1996SOL     OW17620   1.912   0.532   8.182  0.3589 -0.1327  0.3063
 1996SOL    HW117621   1.904   0.627   8.193 -2.5748 -0.7669  3.5518
 1996SOL    HW217622   1.823   0.500   8.167  0.1025  0.6647  0.1249
 1997SOL     OW17623   1.598   1.976   5.355 -0.1192  0.1598  0.9119
 1997SOL    HW117624   1.589   2.058   5.405 -4.4296  0.2586 -0.0206
 1997SOL    HW217625   1.663   1.994   5.287  0.8777 -1.6096  1.3881
 1998SOL     OW17626   1.887   4.287   3.173  0.4904 -0.5704  0.1244
 1998SOL    HW117627   1.878   4.379   3.152  0.1513 -0.3447  1.2605
 1998SOL    HW217628   1.943   4.249   3.106  0.0511  2.8636 -2.1618
 1999SOL     OW17629   1.334   3.036  10.600  0.2034  0.0702 -0.0438
 1999SOL    HW117630   1.363   2.948  10.579  3.7190  0.6677  2.3018
 1999SOL    HW217631   1.286   3.014  10.680  0.1766  0.3042  0.0042
 2000SOL     OW17632   2.453   1.833   3.562 -0.5435  0.2302  0.5480
 2000SOL    HW117633   2.498   1.854   3.480  1.2590 -3.5118  0.5873
 2000SOL    HW217634   2.420   1.918   3.591 -1.6890 -0.6294  1.7451
 2001SOL     OW17635   2.840   4.520   2.427 -0.0245  0.2412  0.3665
 2001SOL    HW117636   2.910   4.576   2.458  1.1335 -0.3626 -1.1780
 2001SOL    HW217637   2.772   4.518   2.495  1.0580  1.6121  1.4674
 2002SOL     OW17638   0.515   4.411   7.236 -0.9678 -0.2983  0.2157
 2002SOL    HW117639   0.469   4.330   7.262  0.8539 -1.4717 -0.2361
 2002SOL    HW217640   0.603   4.383   7.213 -0.3649  1.3815  0.5084
 2003SOL     OW17641   1.507   1.398  11.443  0.2315 -0.6268  0.2958
 2003SOL    HW117642   1.577   1.453  11.408  1.0854 -1.1101  1.2333
 2003SOL    HW217643   1.467   1.452  11.511  1.0268 -0.0726  0.3273
 2004SOL     OW17644   3.130   1.530   3.784 -0.1434 -0.1947  0.2207
 2004SOL    HW117645   3.103   1.447   3.744 -1.4420 -0.2562  1.2400
 2004SOL    HW217646   3.160   1.498   3.869  0.9835  0.1063 -0.0675
 2005SOL     OW17647   3.615   2.885   4.444  0.0134  0.1830 -0.1085
 2005SOL    HW117648   3.560   2.915   4.518 -1.7237  1.2690 -1.8238
 2005SOL    HW217649   3.614   2.963   4.388  1.3379  0.0388 -0.3283
 2006SOL     OW17650   1.255   2.731  11.792  0.7803 -0.5405  0.4780
 2006SOL    HW117651   1.320   2.746  11.861 -0.5809 -2.3672  2.1341
 2006SOL    HW217652   1.291   2.786  11.723 -1.0509 -0.1727 -0.1766
 2007SOL     OW17653   0.904   0.247   4.998 -0.0673 -0.2486 -0.1657
 2007SOL    HW117654   0.893   0.231   5.091  0.2314 -1.0011 -0.2683
 2007SOL    HW217655   0.825   0.211   4.957  0.1145 -1.4876  0.6034
 2008SOL     OW17656   2.697   0.710   9.333 -0.0743 -0.1411 -0.4067
 2008SOL    HW117657   2.651   0.627   9.318  0.7624 -0.7459  0.3926
 2008SOL    HW217658   2.630   0.748   9.276  0.9389  3.8114  1.0892
 2009SOL     OW17659   3.613   4.420   7.244  0.2065 -0.1237  0.1519
 2009SOL    HW117660   3.688   4.380   7.199 -0.1509  0.4010 -0.9181
 2009SOL    HW217661   3.578   4.351   7.300  0.9965  0.3207  1.1885
 2010SOL     OW17662   1.701   2.305   6.836 -0.1152 -0.2905 -0.6097
 2010SOL    HW117663   1.648   2.385   6.831 -0.3735 -0.5532 -2.1201
 2010SOL    HW217664   1.648   2.258   6.901  1.4836 -0.4321  0.5744
 2011SOL     OW17665   1.195   1.882   7.346 -0.3003 -0.1151 -0.2956
 2011SOL    HW117666   1.238   1.806   7.385 -1.1581 -0.2732  0.3345
 2011SOL    HW217667   1.254   1.951   7.379 -1.6149  0.6076  0.5552
 2012SOL     OW17668   4.115   4.523   8.389 -0.2401 -0.0427  0.4035
 2012SOL    HW117669   4.156   4.582   8.452  1.2151  0.4113 -0.9686
 2012SOL    HW217670   4.074   4.449   8.433  0.7975 -0.7934  0.1020
 2013SOL     OW17671   3.788   3.190   6.891  0.3730 -0.3597  0.3449
 2013SOL    HW117672   3.743   3.161   6.811  0.9813 -1.0638  0.2582
 2013SOL    HW217673   3.821   3.109   6.930  0.0748  0.3431  2.0463
 2014SOL     OW17674   4.434   4.056  12.130  0.7806  0.5955  0.3309
 2014SOL    HW117675   4.494   4.107  12.184  0.3087  1.8515 -0.3541
 2014SOL    HW217676   4.376   4.010  12.191 -0.7728  0.4078 -1.2839
 2015SOL     OW17677   2.069   0.031   4.283 -0.0265  0.3733 -0.2033
 2015SOL    HW117678   2.152   4.724   4.262 -0.9245 -0.1205 -2.6361
 2015SOL    HW217679   2.058   0.015   4.377 -0.8418  1.4033 -0.1260
 2016SOL     OW17680   4.341   3.965   7.641 -0.2078  0.3857  0.1952
 2016SOL    HW117681   4.307   3.906   7.708  0.9476 -1.0606 -0.4797
 2016SOL    HW217682   4.432   3.979   7.667  0.0229  0.4745 -0.6511
 2017SOL     OW17683   2.268   4.150  15.127 -0.5864 -0.3244 -0.3249
 2017SOL    HW117684   2.293   4.093  15.200  1.2051  0.0291 -0.6492
 2017SOL    HW217685   2.343   4.210  15.120  0.4584 -1.4615  1.0905
 2018SOL     OW17686   2.266   3.834   6.877 -0.2109 -0.0930 -0.7009
 2018SOL    HW117687   2.268   3.901   6.808 -0.0694  1.9990  1.3334
 2018SOL    HW217688   2.359   3.814   6.871  0.1779  1.4803 -0.1021
 2019SOL     OW17689   2.829   4.331   5.924 -0.0081 -0.5638  0.0536
 2019SOL    HW117690   2.754   4.383   5.953  0.9968 -0.0261  1.6947
 2019SOL    HW217691   2.863   4.376   5.847 -0.4307 -0.9692 -0.3676
 2020SOL     OW17692   3.134   2.665  12.611  0.1813 -0.4081  0.1281
 2020SOL    HW117693   3.214   2.714  12.629 -0.1438  0.4637 -0.8084
 2020SOL    HW217694   3.125   2.704  12.524  1.4533 -0.0051  0.1822
 2021SOL     OW17695   4.216   3.450   3.386  0.2283 -0.6986  0.3435
 2021SOL    HW117696   4.311   3.462   3.386  0.2237 -0.6671 -0.7366
 2021SOL    HW217697   4.212   3.394   3.308  0.0702 -0.0228 -0.1305
 2022SOL     OW17698   1.579   2.552   5.884 -0.1852 -0.3200  0.2633
 2022SOL    HW117699   1.654   2.606   5.911  1.2319 -2.4540  0.5750
 2022SOL    HW217700   1.569   2.589   5.797 -1.2026  0.4148  0.6861
 2023SOL     OW17701   0.234   3.425   3.521  0.0009  0.0547  0.0578
 2023SOL    HW117702   0.203   3.371   3.448 -0.6811 -1.2022  1.2630
 2023SOL    HW217703   0.215   3.513   3.487 -3.2935  0.3781  2.6687
 2024SOL     OW17704   2.150   0.902   3.176 -0.0949 -0.0076 -0.6036
 2024SOL    HW117705   2.156   0.994   3.201  1.3858 -1.0395  2.8694
 2024SOL    HW217706   2.056   0.883   3.172 -0.3685  1.2819 -0.0432
 2025SOL     OW17707   0.279   1.804   3.897  0.5282 -0.1660  0.9221
 2025SOL    HW117708   0.227   1.833   3.973 -0.0803 -0.7142  0.7172
 2025SOL    HW217709   0.303   1.886   3.854  0.9633  0.6944  2.7839
 2026SOL     OW17710   3.608   3.196   0.346  0.2066 -0.3395 -0.2215
 2026SOL    HW117711   3.686   3.249   0.335  0.2087 -0.0571  1.1825
 2026SOL    HW217712   3.635   3.148   0.424 -1.8433 -1.3773 -0.1295
 2027SOL     OW17713   4.110   2.505  14.160  0.4265  0.1851 -0.1374
 2027SOL    HW117714   4.019   2.523  14.182  1.2459  1.1822  2.3859
 2027SOL    HW217715   4.146   2.562  14.228 -0.1786  1.0159 -0.5032
 2028SOL     OW17716   0.347   0.757  15.909 -0.0173  0.3101  0.4614
 2028SOL    HW117717   0.256   0.752  15.940  0.3717 -1.2905  1.3233
 2028SOL    HW217718   0.342   0.828  15.845  0.8955 -1.2775 -1.3550
 2029SOL     OW17719   4.360   4.142  16.098  0.2708  0.0153  0.4715
 2029SOL    HW117720   4.405   4.072  16.051  0.3161 -2.1863  3.7942
 2029SOL    HW217721   4.332   4.201  16.028 -1.3998 -0.1968  0.9571
 2030SOL     OW17722   0.829   3.327   3.102  0.3208  0.0508  0.0314
 2030SOL    HW117723   0.846   3.324   3.196  0.0857  0.3318  0.0830
 2030SOL    HW217724   0.922   3.314   3.080  0.1730 -0.2968 -0.3829
 2031SOL     OW17725   3.410   0.838  11.822 -0.0124 -0.7579  0.0492
 2031SOL    HW117726   3.482   0.899  11.837 -0.6684  0.5817 -2.3500
 2031SOL    HW217727   3.449   0.750  11.822 -2.2369 -1.7540  1.6732
 2032SOL     OW17728   0.062   3.950   8.026  0.1552 -0.1239 -0.7856
 2032SOL    HW117729   0.059   3.902   7.943  0.8171 -2.3395  0.4688
 2032SOL    HW217730   4.721   3.927   8.078  1.2084 -1.8706 -0.0045
 2033SOL     OW17731   4.684   2.992   7.694  0.1768  0.2158 -0.0128
 2033SOL    HW117732   0.016   2.934   7.660  0.0319 -1.1982  2.0947
 2033SOL    HW217733   4.640   3.016   7.613  0.5512 -0.8734 -0.5326
 2034SOL     OW17734   1.485   2.790   0.064  0.0830 -0.1674 -0.1069
 2034SOL    HW117735   1.461   2.871   0.019  0.6412 -0.4360 -0.8822
 2034SOL    HW217736   1.400   2.759   0.094  1.3862 -3.2723  0.4950
 2035SOL     OW17737   0.101   0.977  13.604  0.3663 -0.1214 -0.7313
 2035SOL    HW117738   0.055   0.945  13.527 -1.1882 -0.9822  0.5445
 2035SOL    HW217739   0.188   0.979  13.565  1.5344 -0.8463  1.8378
 2036SOL     OW17740   3.235   0.605   0.650  0.4809 -0.9807 -0.4454
 2036SOL    HW117741   3.200   0.523   0.687  0.6128 -0.5832  0.5665
 2036SOL    HW217742   3.256   0.659   0.727 -1.8333 -2.6363  1.3558
 2037SOL     OW17743   0.626   1.091   8.021 -0.3324 -0.8092  0.7554
 2037SOL    HW117744   0.670   1.030   8.080 -0.2553 -0.7583  0.7519
 2037SOL    HW217745   0.597   1.029   7.954 -0.9897 -1.5332  1.7107
 2038SOL     OW17746   2.546   4.232   0.531  0.6370  0.3156  0.1193
 2038SOL    HW117747   2.480   4.259   0.467  1.0587 -1.2839 -1.0014
 2038SOL    HW217748   2.568   4.323   0.551 -1.2416  0.0276  3.3852
 2039SOL     OW17749   3.190   2.580  11.830 -0.1847  0.1432 -0.0204
 2039SOL    HW117750   3.222   2.590  11.920  1.9085 -0.4840 -0.6970
 2039SOL    HW217751   3.139   2.499  11.834 -0.0272 -0.0035 -0.9977
 2040SOL     OW17752   4.288   1.412   8.100  0.5799  0.0909  0.1014
 2040SOL    HW117753   4.365   1.445   8.148  0.5545  0.5297 -0.1583
 2040SOL    HW217754   4.304   1.319   8.110  1.0012  0.1040 -0.4795
 2041SOL     OW17755   4.488   0.736  14.770  0.0380  0.1819  0.1799
 2041SOL    HW117756   4.502   0.823  14.807  0.5123 -1.2595  3.3680
 2041SOL    HW217757   4.460   0.765  14.683 -2.7079  2.1739  1.7463
 2042SOL     OW17758   4.106   2.245  14.118  0.0224 -0.4080  0.1737
 2042SOL    HW117759   4.107   2.340  14.119 -1.6620 -0.3865  0.7180
 2042SOL    HW217760   4.136   2.229  14.207 -1.5220 -0.3694  0.6962
 2043SOL     OW17761   4.469   4.053   2.087 -0.5042  0.3419 -0.1656
 2043SOL    HW117762   4.383   4.074   2.050 -1.5221  1.9472  3.1080
 2043SOL    HW217763   4.520   4.023   2.012  0.2786  0.6380  0.2540
 2044SOL     OW17764   0.317   1.645  16.467 -0.4308  0.2132  0.3405
 2044SOL    HW117765   0.398   1.696  16.477 -1.1486  0.9839  2.1505
 2044SOL    HW217766   0.261   1.707  16.420 -1.0037  0.3322  1.1794
 2045SOL     OW17767   1.826   1.019   6.519  0.3163 -0.2721  0.5065
 2045SOL    HW117768   1.899   1.063   6.476  0.6284 -2.2047 -0.9416
 2045SOL    HW217769   1.816   0.949   6.455 -4.5627  1.2346 -0.3257
 2046SOL     OW17770   2.217   4.154  10.383 -0.1179 -0.1040 -0.2068
 2046SOL    HW117771   2.238   4.065  10.410 -1.5714 -0.3281  0.1420
 2046SOL    HW217772   2.303   4.196  10.378  1.2994 -2.7308  2.2186
 2047SOL     OW17773   0.394   1.041  15.799  0.2989  0.3350  0.0594
 2047SOL    HW117774   0.341   1.032  15.720 -0.8126 -2.3027  1.0938
 2047SOL    HW217775   0.470   1.088  15.765  0.1275 -0.7026 -1.7796
 2048SOL     OW17776   4.199   4.565   7.956  0.4727  1.0661  0.1602
 2048SOL    HW117777   4.180   4.473   7.936  2.6308 -0.2508  4.1260
 2048SOL    HW217778   4.294   4.564   7.963  0.5296  0.2165 -0.7897
 2049SOL     OW17779   4.550   3.997   4.514 -0.2178 -0.1152 -0.0534
 2049SOL    HW117780   4.560   4.014   4.420 -0.8146  1.8633  0.2366
 2049SOL    HW217781   4.620   3.933   4.529  0.7105  1.1130  0.7342
 2050SOL     OW17782   2.948   1.065  14.259 -0.1409  0.3636  0.3044
 2050SOL    HW117783   2.944   0.983  14.308  0.0493  0.1475 -0.0452
 2050SOL    HW217784   3.043   1.074  14.251 -0.0081 -0.6363  0.7457
 2051SOL     OW17785   3.047   4.336   2.303  0.0929  0.2892 -0.4117
 2051SOL    HW117786   3.050   4.423   2.262  0.3998  0.4029 -0.1518
 2051SOL    HW217787   3.083   4.352   2.390 -0.8311  0.8108 -0.1316
 2052SOL     OW17788   4.383   2.459  15.636  0.6008  0.2381 -0.0442
 2052SOL    HW117789   4.369   2.528  15.700  1.4230 -0.3046  0.7267
 2052SOL    HW217790   4.307   2.472  15.579  0.6143 -2.0080 -0.5862
 2053SOL     OW17791   3.593   1.529   1.693 -0.1739  0.0425  0.0402
 2053SOL    HW117792   3.632   1.563   1.773 -0.0806  0.9787 -0.3988
 2053SOL    HW217793   3.519   1.484   1.733 -1.3117  1.7376 -0.1069
 2054SOL     OW17794   3.781   2.312   3.427 -0.3165  0.7406  0.3072
 2054SOL    HW117795   3.863   2.288   3.385  0.4256 -0.3755  2.3691
 2054SOL    HW217796   3.715   2.293   3.361 -1.0027  0.6600  1.0180
 2055SOL     OW17797   4.369   0.687   9.415 -0.3104 -0.7159  0.0796
 2055SOL    HW117798   4.274   0.694   9.404 -0.1836  1.0325  0.1923
 2055SOL    HW217799   4.381   0.718   9.505 -1.2767  0.3984 -0.1828
 2056SOL     OW17800   4.145   0.848   6.439  0.0250  0.0480  0.1624
 2056SOL    HW117801   4.141   0.907   6.515  1.3694  1.0121 -0.5132
 2056SOL    HW217802   4.209   0.899   6.390 -0.7547 -0.5053 -1.3999
 2057SOL     OW17803   0.485   0.380   1.110  0.3526  0.1954  0.0331
 2057SOL    HW117804   0.557   0.440   1.090 -0.4662  1.1952  0.0878
 2057SOL    HW217805   0.461   0.377   1.017  0.4828 -0.0022  0.0060
 2058SOL     OW17806   3.060   3.029   7.540 -0.6717  0.1736 -0.2265
 2058SOL    HW117807   3.150   3.024   7.574 -0.5490  1.4454 -0.3755
 2058SOL    HW217808   3.053   3.123   7.524 -0.5778  0.1323 -0.5080
 2059SOL     OW17809   1.874   2.686   3.604  0.1078  0.6885 -0.3247
 2059SOL    HW117810   1.854   2.660   3.514  1.5852 -2.4173  0.2425
 2059SOL    HW217811   1.969   2.685   3.595  0.1572  1.5838  0.0361
 2060SOL     OW17812   1.088   4.144   2.606  0.2743  0.2170  0.0193
 2060SOL    HW117813   1.003   4.135   2.564  0.2279 -2.9499  0.7892
 2060SOL    HW217814   1.084   4.235   2.635 -1.2915  0.0169  0.4145
 2061SOL     OW17815   1.981   0.160   6.994 -0.2375  0.3137  0.1115
 2061SOL    HW117816   1.987   0.194   7.083 -2.6983 -0.2555  0.4832
 2061SOL    HW217817   1.888   0.147   6.976 -0.3379  1.1982 -0.0057
 2062SOL     OW17818   0.572   2.779   3.332  1.0897  0.0570 -0.0483
 2062SOL    HW117819   0.662   2.770   3.364  1.5740 -0.0791 -1.4759
 2062SOL    HW217820   0.583   2.839   3.258 -3.0843  0.9949  0.1081
 2063SOL     OW17821   0.788   2.316   5.810 -0.5377  0.2995  0.1083
 2063SOL    HW117822   0.818   2.406   5.816  2.2070 -0.6921  1.6009
 2063SOL    HW217823   0.817   2.270   5.889  0.4313  1.0328  0.1831
 2064SOL     OW17824   0.534   3.505   2.065  0.6776  0.3732 -0.1401
 2064SOL    HW117825   0.546   3.501   1.970  0.6401  0.0758 -0.1321
 2064SOL    HW217826   0.622   3.477   2.090  1.7061  3.6820  0.0108
 2065SOL     OW17827   3.864   1.330   5.568 -0.0175 -0.4795  0.4538
 2065SOL    HW117828   3.885   1.415   5.606 -0.1288 -0.3251  0.1682
 2065SOL    HW217829   3.776   1.326   5.607 -0.9294  0.1775 -1.5537
 2066SOL     OW17830   4.592   3.549  13.558  0.2332  0.3615 -0.5068
 2066SOL    HW117831   4.632   3.473  13.599  0.3166  1.1298  0.8362
 2066SOL    HW217832   4.669   3.604  13.545 -1.2856  2.8281  0.9674
 2067SOL     OW17833   1.892   1.792   8.397 -0.2267  0.3275 -0.2329
 2067SOL    HW117834   1.976   1.778   8.352  0.5644 -0.0464  1.3765
 2067SOL    HW217835   1.833   1.740   8.343 -1.6361 -0.1982  1.8316
 2068SOL     OW17836   1.793   0.523   4.201 -0.6590 -0.2235  0.0006
 2068SOL    HW117837   1.818   0.431   4.191  2.3840  0.8280 -1.9883
 2068SOL    HW217838   1.795   0.556   4.112 -2.8897  0.7532  0.3059
 2069SOL     OW17839   0.788   2.616   4.123  0.7914 -0.0517 -0.0309
 2069SOL    HW117840   0.876   2.582   4.107  0.5508 -0.9928  0.6231
 2069SOL    HW217841   0.756   2.544   4.178  0.6386  0.6744  0.8125
 2070SOL     OW17842   0.547   3.265   3.083 -0.3477  0.3163  0.4114
 2070SOL    HW117843   0.637   3.297   3.080 -0.3680  0.5411  2.4372
 2070SOL    HW217844   0.506   3.319   3.150  1.0814  1.7415  0.1335
 2071SOL     OW17845   0.430   3.545   5.425 -0.0523 -0.1380 -0.1064
 2071SOL    HW117846   0.499   3.502   5.475 -0.0972  2.3129  2.0813
 2071SOL    HW217847   0.365   3.563   5.492  1.5732  0.7886  1.2192
 2072SOL     OW17848   3.576   0.853   4.456  0.5037 -0.0280  0.2501
 2072SOL    HW117849   3.648   0.877   4.398 -0.0919 -0.0673 -0.5083
 2072SOL    HW217850   3.583   0.919   4.525  0.6400 -0.1916  0.3935
 2073SOL     OW17851   1.403   2.224  15.957 -0.5805 -0.3871 -0.4140
 2073SOL    HW117852   1.354   2.240  15.877  0.0118 -1.9000 -1.0845
 2073SOL    HW217853   1.420   2.316  15.979 -0.6888 -0.6190  0.6202
 2074SOL     OW17854   2.503   3.521   2.189 -0.5184  0.0762  0.7395
 2074SOL    HW117855   2.500   3.605   2.142 -1.5377  0.2123  1.0478
 2074SOL    HW217856   2.525   3.555   2.276  0.3516 -0.1166  0.5950
 2075SOL     OW17857   1.970   3.428   3.245 -0.2805  0.1818 -0.3426
 2075SOL    HW117858   1.963   3.346   3.196  2.0158 -0.2114 -0.0315
 2075SOL    HW217859   2.061   3.422   3.275 -0.9910  0.8394  1.9902
 2076SOL     OW17860   4.572   3.245  15.877  0.2102 -0.2377  0.0440
 2076SOL    HW117861   4.639   3.291  15.827 -1.4032 -0.6995 -2.5728
 2076SOL    HW217862   4.487   3.281  15.848  0.3937  0.1149 -0.0595
 2077SOL     OW17863   0.104   2.172   7.902 -0.3874  0.0986 -0.4462
 2077SOL    HW117864   0.032   2.169   7.965 -0.3292 -2.1532 -0.4829
 2077SOL    HW217865   0.169   2.219   7.956 -1.2008  1.2401 -0.4560
 2078SOL     OW17866   4.060   3.994  12.101  0.9357  0.5684 -0.2035
 2078SOL    HW117867   4.087   3.910  12.066  1.2391  0.4857  0.2251
 2078SOL    HW217868   4.087   3.987  12.193 -1.3347 -0.2548  0.4133
 2079SOL     OW17869   4.506   0.703   9.063  0.1917  1.0004 -0.3424
 2079SOL    HW117870   4.454   0.770   9.106  0.9736  2.0556 -1.0587
 2079SOL    HW217871   4.495   0.632   9.126 -1.9278  2.2958  0.7112
 2080SOL     OW17872   0.156   1.654   4.134 -0.6553 -0.3973 -0.2516
 2080SOL    HW117873   0.215   1.583   4.160  0.8158  1.2077  0.8181
 2080SOL    HW217874   0.175   1.734   4.184  2.5171  0.7522 -3.2810
 2081SOL     OW17875   3.101   2.480   3.480 -0.2478  0.5559 -0.2147
 2081SOL    HW117876   3.100   2.470   3.575  1.4925 -0.9410 -0.3589
 2081SOL    HW217877   3.179   2.431   3.453 -0.1384  0.2763  0.5931
 2082SOL     OW17878   4.519   2.711   4.543  0.4324 -0.0350  0.2610
 2082SOL    HW117879   4.531   2.647   4.472  0.7451  1.8543 -1.4052
 2082SOL    HW217880   4.440   2.759   4.516  0.3630  0.3771  1.2190
 2083SOL     OW17881   4.284   4.593  10.283  0.0118 -0.2928  0.9571
 2083SOL    HW117882   4.210   4.553  10.328 -0.0914 -0.5888  0.5179
 2083SOL    HW217883   4.354   4.528  10.291 -0.0361 -0.1431  2.5776
 2084SOL     OW17884   2.983   2.414   7.489 -0.4299 -0.8957  0.1977
 2084SOL    HW117885   2.953   2.505   7.499  0.2539 -0.6478 -0.0737
 2084SOL    HW217886   3.076   2.419   7.470 -0.2082 -0.0361  1.4841
 2085SOL     OW17887   0.220   2.455   4.002  0.0334  0.2607  0.0618
 2085SOL    HW117888   0.160   2.517   4.043 -0.4222  1.5583 -2.6456
 2085SOL    HW217889   0.234   2.490   3.915 -1.1510  1.7599  0.4694
 2086SOL     OW17890   1.403   4.677   8.218  0.5248 -0.0013  0.6296
 2086SOL    HW117891   1.440   4.601   8.173  2.5933  1.7986 -0.6674
 2086SOL    HW217892   1.484   4.721   8.242  0.3128  0.2550  0.8710
 2087SOL     OW17893   3.511   1.988   2.216  0.4024  0.4485  0.4356
 2087SOL    HW117894   3.573   2.043   2.263 -1.3488  0.5172  2.6498
 2087SOL    HW217895   3.462   1.950   2.290  0.5163  0.4611  0.5166
 2088SOL     OW17896   1.529   4.321   8.362 -0.1345 -0.1162 -0.6080
 2088SOL    HW117897   1.614   4.278   8.359  0.9140  1.9196  0.1816
 2088SOL    HW217898   1.556   4.410   8.387 -0.7948  0.0638 -0.5369
 2089SOL     OW17899   0.269   1.068   5.428  0.4619 -0.5126 -0.4909
 2089SOL    HW117900   0.289   1.059   5.335  1.5420 -0.1102 -0.3025
 2089SOL    HW217901   0.357   1.067   5.466  0.8529  2.8183 -1.3340
 2090SOL     OW17902   1.844   3.921   7.612 -0.0097  0.2387  0.6365
 2090SOL    HW117903   1.939   3.928   7.599  0.1225 -0.5514  1.2097
 2090SOL    HW217904   1.845   3.835   7.654  0.4871  0.8966  1.9595
 2091SOL     OW17905   2.603   1.670   6.903 -0.1367  0.0113 -0.4253
 2091SOL    HW117906   2.618   1.736   6.971  1.8097  1.5289 -2.3649
 2091SOL    HW217907   2.541   1.714   6.845 -0.1146  0.7157  0.0815
 2092SOL     OW17908   1.381   4.685   5.543  0.0478 -0.8023 -0.7912
 2092SOL    HW117909   1.321   4.643   5.482 -0.3941 -0.0088 -0.9072
 2092SOL    HW217910   1.453   4.709   5.486 -0.1395 -0.8355 -1.0404
 2093SOL     OW17911   3.375   3.625   8.837  0.5060 -0.6565 -0.0400
 2093SOL    HW117912   3.285   3.625   8.868  0.7818  0.8379  0.7854
 2093SOL    HW217913   3.376   3.622   8.741 -0.5764 -2.5447  0.0174
 2094SOL     OW17914   4.420   2.384   3.884 -0.3149 -0.4188  0.3287
 2094SOL    HW117915   4.428   2.297   3.924 -1.6959 -0.9108 -0.4479
 2094SOL    HW217916   4.337   2.363   3.841  1.0621 -4.2454 -0.4211
 2095SOL     OW17917   3.203   2.334   1.284 -0.2891 -0.5703 -0.4606
 2095SOL    HW117918   3.289   2.336   1.244 -0.7043 -4.6063 -1.6056
 2095SOL    HW217919   3.210   2.239   1.294  0.1445 -0.8223 -3.2235
 2096SOL     OW17920   3.286   2.419   4.302  0.8143 -0.4727  0.1420
 2096SOL    HW117921   3.282   2.377   4.216 -2.0713 -0.3987  0.2500
 2096SOL    HW217922   3.234   2.357   4.351  2.0109  1.9712  4.4883
 2097SOL     OW17923   3.667   3.714   1.366 -0.1862 -0.0411  0.0727
 2097SOL    HW117924   3.630   3.646   1.309  0.6963  0.3756 -0.9803
 2097SOL    HW217925   3.600   3.782   1.356 -1.9421 -1.3671  2.8124
 2098SOL     OW17926   0.271   4.158  16.422 -0.1897 -0.2589  0.2119
 2098SOL    HW117927   0.299   4.197  16.339  0.6888 -1.9265 -0.2928
 2098SOL    HW217928   0.345   4.101  16.442 -0.5870 -0.5689  0.7918
 2099SOL     OW17929   2.152   3.351   3.748 -0.3835 -0.1468  0.1043
 2099SOL    HW117930   2.168   3.410   3.675  0.1212 -1.4055 -0.8036
 2099SOL    HW217931   2.122   3.278   3.695 -0.4490  0.2659 -0.4262
 2100SOL     OW17932   3.989   3.187   5.387 -0.3229 -0.1723 -0.2623
 2100SOL    HW117933   4.029   3.117   5.335 -1.5396 -0.3581 -0.9381
 2100SOL    HW217934   3.903   3.149   5.402 -1.0684  1.1055 -1.2391
 2101SOL     OW17935   1.600   3.593   6.131 -0.1310 -0.4262  0.0105
 2101SOL    HW117936   1.599   3.511   6.084  1.6167 -0.9869  0.9469
 2101SOL    HW217937   1.561   3.657   6.071 -0.4330 -1.7959 -1.2396
 2102SOL     OW17938   4.159   0.760   5.223  0.1719 -0.1970  0.4684
 2102SOL    HW117939   4.212   0.805   5.158  0.5327 -1.9708 -0.4690
 2102SOL    HW217940   4.106   0.701   5.169  0.8046  0.2995 -0.6950
 2103SOL     OW17941   0.912   2.284  17.411 -0.2641 -0.1133  0.5683
 2103SOL    HW117942   0.933   2.313  17.500 -1.2815 -1.2903  1.1886
 2103SOL    HW217943   0.877   2.199  17.437  0.3643 -0.4271  0.3803
 2104SOL     OW17944   4.231   3.403  17.407  0.0816 -0.2534  0.0995
 2104SOL    HW117945   4.297   3.455  17.453 -0.5645 -0.5228  1.3253
 2104SOL    HW217946   4.249   3.423  17.315  1.4000 -3.3454 -0.3363
 2105SOL     OW17947   0.700   3.760   7.978  0.1421 -0.2358  0.4197
 2105SOL    HW117948   0.711   3.666   7.965  1.8135 -0.3852  2.7411
 2105SOL    HW217949   0.608   3.745   7.998  0.5397 -1.5671  1.2615
 2106SOL     OW17950   1.417   4.371   4.803 -0.5440 -0.3224  0.3905
 2106SOL    HW117951   1.405   4.442   4.740  1.0370  0.4490  0.9395
 2106SOL    HW217952   1.400   4.415   4.887  1.4985  3.8749 -1.4066
 2107SOL     OW17953   0.137   0.230   1.796 -0.4453  0.2528 -0.3543
 2107SOL    HW117954   0.188   0.150   1.801  1.6632  1.5475 -1.1053
 2107SOL    HW217955   0.128   0.242   1.701  1.7371  0.4316 -0.5340
 2108SOL     OW17956   4.232   3.651   1.638 -0.3209 -0.2313 -0.1209
 2108SOL    HW117957   4.192   3.575   1.680  1.1643 -0.5356  0.7290
 2108SOL    HW217958   4.305   3.669   1.698 -0.6834  0.1550  0.2090
 2109SOL     OW17959   0.649   2.299   1.022  0.3647 -0.4024  0.1648
 2109SOL    HW117960   0.558   2.274   1.009  0.2795  0.6316 -1.2474
 2109SOL    HW217961   0.687   2.227   1.073  0.6727 -0.7238 -0.5089
 2110SOL     OW17962   4.179   3.428   2.771  0.4067  0.0747  0.3096
 2110SOL    HW117963   4.173   3.469   2.684  1.5257  1.7588  1.0250
 2110SOL    HW217964   4.139   3.342   2.763 -0.0466  0.1533  1.7199
 2111SOL     OW17965   2.252   4.667   6.323  0.1637  0.3362 -0.4057
 2111SOL    HW117966   2.234   0.015   6.364  0.8300  1.1138 -1.7301
 2111SOL    HW217967   2.221   4.683   6.234  0.3152  2.1566 -0.1160
 2112SOL     OW17968   2.747   0.584  13.674  0.0987  0.3041  0.5389
 2112SOL    HW117969   2.717   0.672  13.651 -0.4795 -0.0866 -0.2086
 2112SOL    HW217970   2.742   0.540  13.589 -0.6025 -1.5401  1.5378
 2113SOL     OW17971   1.918   3.352  13.287 -0.1594  0.4097 -0.3660
 2113SOL    HW117972   1.948   3.267  13.255  1.6134  1.3679 -1.2836
 2113SOL    HW217973   1.997   3.404  13.268 -0.5738  0.2816 -2.4197
 2114SOL     OW17974   1.685   0.790   4.262 -0.2371  0.2266 -0.2340
 2114SOL    HW117975   1.716   0.700   4.251 -0.1976 -0.3415  4.4386
 2114SOL    HW217976   1.595   0.786   4.228 -0.1546 -0.3507 -0.3932
 2115SOL     OW17977   2.153   0.444   6.945  0.4942 -0.7797  0.0589
 2115SOL    HW117978   2.204   0.396   6.880 -1.4913 -1.4700 -0.9839
 2115SOL    HW217979   2.197   0.527   6.927 -1.3774  0.3895  0.8886
 2116SOL     OW17980   0.135   3.848   0.093  0.3454 -0.3036  0.1180
 2116SOL    HW117981   0.056   3.807   0.059 -0.9389  1.5557  0.8273
 2116SOL    HW217982   0.099   3.936   0.109 -0.5673 -0.3616 -1.7341
 2117SOL     OW17983   4.488   0.083   6.360 -0.1500 -0.2199 -0.0054
 2117SOL    HW117984   4.397   0.077   6.390  0.0545 -0.3377  0.6087
 2117SOL    HW217985   4.532   0.080   6.445  0.5033  0.8508 -0.3038
 2118SOL     OW17986   1.285   1.635   6.560  0.4468 -0.2239  0.3442
 2118SOL    HW117987   1.333   1.698   6.507  1.2590 -1.8740 -0.9070
 2118SOL    HW217988   1.293   1.681   6.643  0.3385  2.6027 -1.2054
 2119SOL     OW17989   1.195   3.634  12.362  0.1475 -0.7383 -0.9391
 2119SOL    HW117990   1.179   3.729  12.363  0.4674 -0.6998  0.0122
 2119SOL    HW217991   1.267   3.610  12.420 -0.7080  2.6059  1.5191
 2120SOL     OW17992   4.148   2.829  14.071 -0.3826 -0.5974  0.3736
 2120SOL    HW117993   4.204   2.788  14.137  3.4595  2.7396 -0.7548
 2120SOL    HW217994   4.091   2.763  14.033  0.5711 -0.6362 -1.0138
 2121SOL     OW17995   0.360   0.832  13.223  0.3731 -0.4502 -0.2716
 2121SOL    HW117996   0.337   0.757  13.168 -0.5778 -0.4833  0.1712
 2121SOL    HW217997   0.364   0.900  13.156 -0.9658  1.7510  1.8916
 2122SOL     OW17998   1.966   3.093   9.854  0.2146  0.1988 -0.6487
 2122SOL    HW117999   2.045   3.148   9.855  2.3102 -2.8220 -1.2531
 2122SOL    HW218000   1.997   3.003   9.844  3.5352  1.4014 -1.3243
 2123SOL     OW18001   1.863   3.848  16.921  0.6059 -0.7597  0.0616
 2123SOL    HW118002   1.947   3.802  16.922  0.7270 -0.6388 -3.0906
 2123SOL    HW218003   1.843   3.852  16.827 -0.9533 -1.2754  0.3775
 2124SOL     OW18004   0.000   0.830  11.942  0.4309 -0.5694  0.2298
 2124SOL    HW118005   0.053   0.841  12.021  0.0614 -0.2115  0.4230
 2124SOL    HW218006   0.024   0.913  11.902 -0.8718 -0.9300 -1.3211
 2125SOL     OW18007   1.685   2.582   3.409  0.0481 -0.2348  0.4798
 2125SOL    HW118008   1.696   2.602   3.316  1.7544  1.1227  0.9578
 2125SOL    HW218009   1.703   2.488   3.415  0.9477 -0.2158 -2.2179
 2126SOL     OW18010   1.681   1.789   6.007 -0.0804  0.0420  0.1088
 2126SOL    HW118011   1.744   1.851   6.045  0.5959 -1.6738  1.8115
 2126SOL    HW218012   1.606   1.794   6.066  0.2043  0.5340  0.4308
 2127SOL     OW18013   0.917   1.014  10.979 -0.1790 -0.4575  0.2954
 2127SOL    HW118014   0.897   0.934  10.930  1.1639 -0.7577  0.2450
 2127SOL    HW218015   0.832   1.055  10.994 -0.0044 -0.2319  0.6866
 2128SOL     OW18016   0.227   3.022   4.632  0.0627 -0.0003 -0.1150
 2128SOL    HW118017   0.145   2.989   4.595  0.7493  1.7995 -3.2315
 2128SOL    HW218018   0.264   3.054   4.550  1.4921  0.4725  0.7275
 2129SOL     OW18019   0.245   2.219  15.990 -0.4238  0.0049 -0.1872
 2129SOL    HW118020   0.284   2.215  15.902  0.9193  0.9983  0.3500
 2129SOL    HW218021   0.289   2.300  16.019  0.1146  0.3260 -1.8756
 2130SOL     OW18022   3.856   2.927   3.139 -0.0402  0.2173 -0.2844
 2130SOL    HW118023   3.782   2.866   3.136  0.9521 -1.0216  0.3182
 2130SOL    HW218024   3.927   2.863   3.154 -0.6148 -0.2201  0.5820
 2131SOL     OW18025   1.479   4.134   7.762  0.4329 -0.0750  0.0889
 2131SOL    HW118026   1.409   4.093   7.813  0.6689  2.3955  2.3952
 2131SOL    HW218027   1.451   4.114   7.673  0.7746  0.1377 -0.0656
 2132SOL     OW18028   0.448   2.272   5.000 -0.1555 -0.0095 -0.1988
 2132SOL    HW118029   0.518   2.234   5.053 -0.3798  1.1617  0.9245
 2132SOL    HW218030   0.463   2.364   5.021 -3.4966  0.2243  1.0182
 2133SOL     OW18031   1.440   3.333   3.131  0.2415 -1.0418 -0.0931
 2133SOL    HW118032   1.401   3.416   3.103 -1.2590 -1.2304  1.4244
 2133SOL    HW218033   1.533   3.353   3.123  0.0701  0.7731  2.5971
 2134SOL     OW18034   0.984   0.584   5.819 -0.2787 -0.5138 -0.7673
 2134SOL    HW118035   1.031   0.519   5.767  0.7698 -1.9586  1.9562
 2134SOL    HW218036   1.023   0.551   5.900  0.1559 -1.9459 -1.5704
 2135SOL     OW18037   3.423   3.695   9.733 -0.0254  0.0597 -0.0136
 2135SOL    HW118038   3.369   3.769   9.763  1.5376  1.4596 -0.6316
 2135SOL    HW218039   3.395   3.687   9.642  4.3176  1.3112 -1.4343
 2136SOL     OW18040   1.899   1.209  12.649 -0.2081  0.5475 -0.2482
 2136SOL    HW118041   1.932   1.285  12.697  3.8831 -0.8491 -0.7687
 2136SOL    HW218042   1.816   1.248  12.623  0.8157  1.1641 -2.6251
 2137SOL     OW18043   3.025   2.591   3.751  0.5232  0.3513 -0.2482
 2137SOL    HW118044   2.955   2.616   3.812 -2.6383  0.4345 -3.9538
 2137SOL    HW218045   3.016   2.668   3.694 -2.5857 -1.5895 -2.3459
 2138SOL     OW18046   0.407   4.138  10.668 -0.4108 -0.5712  0.1814
 2138SOL    HW118047   0.334   4.095  10.623  1.5531 -2.7871 -0.8723
 2138SOL    HW218048   0.361   4.219  10.688  2.0209  1.0374 -0.8023
 2139SOL     OW18049   2.485   4.053   7.193 -0.3488 -0.1548  0.3579
 2139SOL    HW118050   2.453   4.143   7.190  0.9938  0.4473  4.0559
 2139SOL    HW218051   2.579   4.070   7.185 -0.6108  0.9662 -0.2862
 2140SOL     OW18052   0.083   1.254  14.501 -0.0280 -0.5211 -0.1996
 2140SOL    HW118053   0.063   1.229  14.411 -0.3148  1.0440 -0.5776
 2140SOL    HW218054   0.172   1.221  14.511  0.0253 -0.3784 -0.2004
 2141SOL     OW18055   1.547   1.816   9.551 -0.4653 -0.2006  0.0994
 2141SOL    HW118056   1.580   1.835   9.639  1.2935 -1.7600 -0.2167
 2141SOL    HW218057   1.600   1.881   9.504  1.3278 -1.9119 -0.2335
 2142SOL     OW18058   3.340   0.712   5.657 -0.5353  0.5638 -0.5336
 2142SOL    HW118059   3.408   0.746   5.716 -0.9616 -1.4880  1.1293
 2142SOL    HW218060   3.389   0.684   5.580 -0.8031  1.1786 -0.9205
 2143SOL     OW18061   4.381   1.482   6.952  0.2231  0.2739  0.0269
 2143SOL    HW118062   4.420   1.437   7.027 -0.2458  0.4846  0.3946
 2143SOL    HW218063   4.454   1.528   6.910  1.0828 -0.2298  0.9717
 2144SOL     OW18064   0.943   3.488   3.303 -0.2966  0.3797  0.1961
 2144SOL    HW118065   0.919   3.523   3.389  1.8294  0.1208  0.8934
 2144SOL    HW218066   1.038   3.499   3.309 -0.3154 -0.2718  1.9092
 2145SOL     OW18067   4.073   1.065   5.594 -0.2771  0.3783 -0.5521
 2145SOL    HW118068   4.065   1.156   5.566  0.7047  0.8784  0.7515
 2145SOL    HW218069   4.028   1.079   5.678  1.1812 -1.6573  0.5682
 2146SOL     OW18070   0.784   2.235   4.546 -0.3369  0.0440 -0.0059
 2146SOL    HW118071   0.858   2.273   4.593  0.1617  0.6102 -1.2606
 2146SOL    HW218072   0.707   2.257   4.599  0.5538 -0.7618  1.6332
 2147SOL     OW18073   4.379   1.389  14.906  0.2073 -0.4114  0.0247
 2147SOL    HW118074   4.328   1.320  14.865 -1.7667  1.3554 -0.4817
 2147SOL    HW218075   4.302   1.436  14.939  1.4126  1.9689 -0.5130
 2148SOL     OW18076   0.868   4.033   2.910 -0.0323  0.5981  0.4470
 2148SOL    HW118077   0.903   4.041   2.998 -0.2091 -0.4406  0.6084
 2148SOL    HW218078   0.922   3.963   2.874  2.0143  1.1840  2.4260
 2149SOL     OW18079   3.536   0.423   2.468 -0.4716  0.3020 -0.2987
 2149SOL    HW118080   3.603   0.476   2.424  2.9610 -0.6971  3.6505
 2149SOL    HW218081   3.511   0.372   2.391  0.1805 -0.5134  0.0259
 2150SOL     OW18082   4.027   0.677   5.012 -0.0217 -0.4893  0.4638
 2150SOL    HW118083   4.015   0.715   4.924 -0.0705  0.4783  0.8877
 2150SOL    HW218084   3.940   0.642   5.032 -0.4178  0.3218  0.1406
 2151SOL     OW18085   0.935   3.390   8.065 -0.4948  0.3072  0.6902
 2151SOL    HW118086   0.974   3.360   8.148 -0.3372 -0.0025  0.5025
 2151SOL    HW218087   1.000   3.454   8.034  0.5127 -0.8950  0.3368
 2152SOL     OW18088   0.914   3.226   3.971  0.1542  0.1770  0.3500
 2152SOL    HW118089   0.830   3.241   3.927 -0.3450 -1.4051  0.7801
 2152SOL    HW218090   0.887   3.258   4.058 -4.1774  0.3046 -1.0158
 2153SOL     OW18091   4.074   4.464  17.019 -0.6527  0.3856  0.0679
 2153SOL    HW118092   4.056   4.462  16.925 -0.6776 -0.2905  0.0890
 2153SOL    HW218093   4.025   4.545  17.036  0.6055  1.5507 -1.7808
 2154SOL     OW18094   3.828   3.415   5.029 -0.4427 -0.0213 -0.2579
 2154SOL    HW118095   3.773   3.389   5.103 -0.1715 -0.5427 -0.2408
 2154SOL    HW218096   3.830   3.333   4.980  0.5117 -0.3787  0.3893
 2155SOL     OW18097   2.405   3.126   5.813 -0.1208  0.2280  0.0903
 2155SOL    HW118098   2.367   3.046   5.776 -1.9665  0.9089  0.4980
 2155SOL    HW218099   2.458   3.162   5.743 -1.8361  0.6586 -0.9830
 2156SOL     OW18100   2.528   4.022   4.035 -0.2069 -0.0179 -0.2856
 2156SOL    HW118101   2.557   3.955   4.096  0.4295 -1.0254 -1.6971
 2156SOL    HW218102   2.617   4.056   4.023 -0.1893  0.4755  1.1819
 2157SOL     OW18103   0.392   3.824   4.684  0.7895 -0.5369 -0.7051
 2157SOL    HW118104   0.372   3.911   4.718  0.8592 -0.0674 -1.8343
 2157SOL    HW218105   0.306   3.785   4.668 -0.0385  1.9815 -2.4214
 2158SOL     OW18106   3.624   2.478   6.024 -0.3102  0.1747 -0.2130
 2158SOL    HW118107   3.533   2.461   6.048 -0.5413  0.6697 -0.7635
 2158SOL    HW218108   3.627   2.454   5.932  1.7276 -1.8704  0.3640
 2159SOL     OW18109   1.320   3.374   7.246  0.1063  0.0393 -0.5948
 2159SOL    HW118110   1.366   3.327   7.316  0.2407  0.6802 -0.2487
 2159SOL    HW218111   1.340   3.321   7.169 -1.6031  0.1245 -1.0950
 2160SOL     OW18112   1.717   4.368   2.218  0.5263  0.4746  0.3129
 2160SOL    HW118113   1.718   4.323   2.303  0.2685 -0.5768 -0.2432
 2160SOL    HW218114   1.640   4.423   2.232  0.1539 -0.5533  2.4902
 2161SOL     OW18115   0.275   0.567   6.250  0.4795 -0.0847  0.9014
 2161SOL    HW118116   0.278   0.508   6.175 -0.0279 -0.0163  0.8231
 2161SOL    HW218117   0.224   0.640   6.214 -0.1862 -0.3787  1.2305
 2162SOL     OW18118   3.822   3.284   7.329  0.1486 -0.0837 -0.4206
 2162SOL    HW118119   3.859   3.356   7.279 -1.9287  0.6415 -0.9126
 2162SOL    HW218120   3.732   3.278   7.296 -0.2138  1.7131  0.2766
 2163SOL     OW18121   0.820   0.450   2.570 -0.8805  0.0049 -0.3057
 2163SOL    HW118122   0.893   0.451   2.508 -0.2638  2.4798  0.4433
 2163SOL    HW218123   0.775   0.535   2.563 -1.7942 -0.4245  0.2823
 2164SOL     OW18124   1.593   4.730   6.475 -0.5058  0.4115  0.1323
 2164SOL    HW118125   1.648   4.665   6.432 -0.3814  0.3882  0.3262
 2164SOL    HW218126   1.511   4.680   6.477  1.8902 -3.5383  0.0368
 2165SOL     OW18127   2.076   0.329  12.339 -0.2048 -0.2907  0.2596
 2165SOL    HW118128   2.066   0.284  12.255 -0.5926  1.4096 -0.6020
 2165SOL    HW218129   2.059   0.419  12.309  1.1758 -0.5756 -1.3863
 2166SOL     OW18130   2.562   2.554  15.129  0.4494 -0.0508  0.2851
 2166SOL    HW118131   2.621   2.565  15.054 -0.3227  1.1750 -0.1631
 2166SOL    HW218132   2.620   2.576  15.201  1.7416  2.3510 -1.4887
 2167SOL     OW18133   0.101   1.817   1.518 -0.3369 -0.5331 -0.2270
 2167SOL    HW118134   0.092   1.839   1.610  0.0265  0.1535 -0.3517
 2167SOL    HW218135   0.123   1.724   1.519  0.3787 -0.3546  0.1171
 2168SOL     OW18136   4.192   1.071  15.111 -0.3222  0.5899 -0.0220
 2168SOL    HW118137   4.273   1.057  15.061  0.6317 -1.3313  2.0540
 2168SOL    HW218138   4.131   1.026  15.053  1.0517 -1.0685 -0.1839
 2169SOL     OW18139   3.789   0.981   2.093  0.1839  0.0841  0.1499
 2169SOL    HW118140   3.862   1.023   2.047 -1.3633  2.0944 -0.4443
 2169SOL    HW218141   3.808   0.888   2.107  1.4890  0.2294 -0.6411
 2170SOL     OW18142   2.420   3.711  17.485  0.6220  0.2813  0.2260
 2170SOL    HW118143   2.347   3.762  17.451 -1.3024 -1.6920  1.4029
 2170SOL    HW218144   2.387   3.650  17.550  1.7171  0.6657  1.1542
 2171SOL     OW18145   2.488   3.635   3.013  0.2502 -0.2020  0.4632
 2171SOL    HW118146   2.518   3.608   2.927  1.0568 -1.1107  1.0268
 2171SOL    HW218147   2.460   3.549   3.044 -0.4103 -0.1762 -0.0671
 2172SOL     OW18148   1.358   0.906  13.095  0.1841  0.2942  0.1308
 2172SOL    HW118149   1.413   0.854  13.153 -1.0664  0.3006  1.3175
 2172SOL    HW218150   1.394   0.991  13.121  0.1610 -0.4152  2.4806
 2173SOL     OW18151   2.337   2.002   8.184  0.4075  0.7972  0.2065
 2173SOL    HW118152   2.383   2.014   8.267 -0.7974  1.7184  0.7532
 2173SOL    HW218153   2.284   2.080   8.165  0.7109  1.3345  1.5847
 2174SOL     OW18154   4.369   1.395   5.140 -0.2375  0.3232  0.3190
 2174SOL    HW118155   4.319   1.424   5.063  0.1922 -0.6080 -0.3063
 2174SOL    HW218156   4.371   1.477   5.190  1.9692  1.6130 -1.8574
 2175SOL     OW18157   0.885   0.816   2.766 -0.2206 -0.7441 -0.6912
 2175SOL    HW118158   0.922   0.770   2.691 -1.4515 -0.2957 -1.5838
 2175SOL    HW218159   0.920   0.904   2.750 -3.6757  0.8056  0.2019
 2176SOL     OW18160   0.683   0.774   4.396  0.0582 -0.4684 -0.0044
 2176SOL    HW118161   0.734   0.697   4.371 -3.2877 -1.7961 -2.7890
 2176SOL    HW218162   0.672   0.819   4.312  3.0664 -0.7830 -0.5657
 2177SOL     OW18163   4.086   0.397   7.085  0.3343  0.2640 -0.5287
 2177SOL    HW118164   4.052   0.372   6.999  1.4675 -1.2296 -0.5174
 2177SOL    HW218165   4.100   0.310   7.120 -1.2122 -0.5371 -1.9134
 2178SOL     OW18166   2.114   4.483   5.449  0.0857  1.0959  0.2721
 2178SOL    HW118167   2.045   4.548   5.435  0.3154  1.4201  0.6755
 2178SOL    HW218168   2.054   4.417   5.486 -0.3503  0.3122 -1.8044
 2179SOL     OW18169   1.283   1.482   7.825 -0.3335  0.2606  0.6619
 2179SOL    HW118170   1.369   1.522   7.810  0.5108 -2.1980 -1.0477
 2179SOL    HW218171   1.300   1.437   7.907  3.1794  0.6791  0.1748
 2180SOL     OW18172   1.585   0.142   9.493 -0.5318 -0.4818  0.0795
 2180SOL    HW118173   1.677   0.145   9.519 -0.2153 -1.2279 -0.9550
 2180SOL    HW218174   1.584   0.049   9.469 -0.8530  0.4283 -3.4286
 2181SOL     OW18175   0.856   3.013  15.257  0.5538  0.3656  0.3724
 2181SOL    HW118176   0.770   2.984  15.287  1.4997 -2.9558 -0.1525
 2181SOL    HW218177   0.823   3.073  15.191  1.0158  1.3184  1.0080
 2182SOL     OW18178   0.813   4.213   8.752  0.4218 -0.2835  0.3814
 2182SOL    HW118179   0.827   4.248   8.840  1.0510  0.4970 -0.0229
 2182SOL    HW218180   0.885   4.258   8.706  0.2543  0.6703  1.0438
 2183SOL     OW18181   1.460   4.436   0.738  0.0498 -0.2588  0.2989
 2183SOL    HW118182   1.370   4.423   0.768 -0.2120 -1.0536 -0.8123
 2183SOL    HW218183   1.466   4.403   0.648  0.7219  0.5766  0.0421
 2184SOL     OW18184   3.001   4.200   9.841  0.0950  0.0232 -0.0234
 2184SOL    HW118185   3.016   4.258   9.916 -2.6048  1.0848 -0.2677
 2184SOL    HW218186   3.031   4.115   9.871 -1.9618 -1.0713 -1.0415
 2185SOL     OW18187   3.675   3.878   5.068  0.6520 -0.0200 -0.1464
 2185SOL    HW118188   3.736   3.912   5.003 -1.3858  0.7259 -1.6652
 2185SOL    HW218189   3.631   3.807   5.023  0.1774  0.7959 -0.9643
 2186SOL     OW18190   4.131   0.803  15.790  0.4413  0.1118  0.0179
 2186SOL    HW118191   4.223   0.778  15.781  0.9035  1.9445 -0.5162
 2186SOL    HW218192   4.124   0.846  15.875  0.9167  1.9572 -0.8721
 2187SOL     OW18193   0.668   1.036  12.597 -0.2453 -0.6941 -0.0647
 2187SOL    HW118194   0.637   1.108  12.652  0.5396 -0.7664  0.4721
 2187SOL    HW218195   0.762   1.038  12.614 -0.1816  0.3042 -0.5468
 2188SOL     OW18196   0.237   4.639   8.466 -0.1262  0.2892 -0.2765
 2188SOL    HW118197   0.185   4.706   8.420  0.7793  1.0277 -0.2349
 2188SOL    HW218198   0.181   4.567   8.439  0.9841 -0.8477  0.4480
 2189SOL     OW18199   0.823   1.262  12.757  0.2171  0.0671  0.5355
 2189SOL    HW118200   0.863   1.182  12.723  1.2918  0.5818  0.5881
 2189SOL    HW218201   0.897   1.322  12.755 -0.6040  1.0467 -1.0301
 2190SOL     OW18202   1.796   3.301   4.385  0.6457 -0.0618  0.3507
 2190SOL    HW118203   1.834   3.312   4.298  0.1451 -1.1670 -0.0189
 2190SOL    HW218204   1.822   3.209   4.398 -0.7261 -0.7312 -1.4953
 2191SOL     OW18205   3.681   2.543   3.205 -0.0192 -0.2199  0.0146
 2191SOL    HW118206   3.627   2.536   3.283  0.7362  2.0209  0.7547
 2191SOL    HW218207   3.632   2.558   3.124  2.1722  1.5959 -0.9707
 2192SOL     OW18208   3.942   1.634   6.773 -0.7066  0.1702 -0.3508
 2192SOL    HW118209   4.017   1.575   6.774 -1.3103 -0.6051  0.5090
 2192SOL    HW218210   3.985   1.704   6.726 -1.6106  0.5376 -0.6369
 2193SOL     OW18211   3.401   3.030   6.567  0.3041  0.3801  0.0379
 2193SOL    HW118212   3.428   2.992   6.483 -0.7033 -1.7957  0.6946
 2193SOL    HW218213   3.397   3.124   6.547  2.0705  0.2339 -0.9475
 2194SOL     OW18214   2.347   1.513   5.163 -0.1504 -0.6799  0.0071
 2194SOL    HW118215   2.369   1.464   5.084 -0.9902  0.4878 -0.9516
 2194SOL    HW218216   2.252   1.500   5.162 -0.5378  2.1772  0.6358
 2195SOL     OW18217   2.034   2.283  17.479 -0.1463 -0.7265  0.1651
 2195SOL    HW118218   2.001   2.204  17.521 -3.2723  1.1606  1.2694
 2195SOL    HW218219   1.950   2.329  17.469 -0.4257 -1.5074 -1.1690
 2196SOL     OW18220   0.851   4.575   6.647 -0.0899  0.3053 -0.3771
 2196SOL    HW118221   0.941   4.604   6.666 -0.4271 -0.0769  1.7755
 2196SOL    HW218222   0.808   4.567   6.732  1.6705 -0.2653  0.4762
 2197SOL     OW18223   4.684   4.583   2.439  0.5094  0.2102 -0.5263
 2197SOL    HW118224   4.602   4.630   2.451  0.4819  0.1156 -0.3422
 2197SOL    HW218225   0.002   4.641   2.492  1.0209 -0.2134 -0.5743
 2198SOL     OW18226   0.182   2.038   7.506  0.1776  0.0495  0.3592
 2198SOL    HW118227   0.172   1.986   7.586  0.4337 -0.3697  0.1160
 2198SOL    HW218228   0.113   1.992   7.459 -0.4785  1.3227  0.0588
 2199SOL     OW18229   2.068   1.225  13.221  0.4024 -0.2796 -0.0036
 2199SOL    HW118230   1.974   1.238  13.206  0.6907  1.4356 -0.3983
 2199SOL    HW218231   2.071   1.173  13.301 -2.3797 -0.5103 -0.0522
 2200SOL     OW18232   1.534   3.490   9.796  0.3775  0.1331 -0.0322
 2200SOL    HW118233   1.486   3.448   9.725 -0.0807  2.0174 -0.8556
 2200SOL    HW218234   1.564   3.573   9.758 -2.3734  1.1756  0.0117
 2201SOL     OW18235   2.146   2.202   1.576  0.6525 -0.0171 -0.1476
 2201SOL    HW118236   2.224   2.152   1.555  2.0432  1.5355  1.2825
 2201SOL    HW218237   2.131   2.248   1.494 -3.2659 -0.6909  0.1851
 2202SOL     OW18238   4.112   0.848   2.398  0.3046  0.1114 -0.2023
 2202SOL    HW118239   4.173   0.911   2.436 -3.0214  1.8969  2.2266
 2202SOL    HW218240   4.095   0.798   2.478  0.3244  1.0084  0.3569
 2203SOL     OW18241   0.197   2.207   8.854  0.0307 -0.3368  0.1747
 2203SOL    HW118242   0.246   2.288   8.870 -3.2720  1.9379 -1.3844
 2203SOL    HW218243   0.129   2.238   8.795  0.0888 -0.7234 -0.0953
 2204SOL     OW18244   3.921   4.340  15.893  0.5493 -0.6907 -0.7768
 2204SOL    HW118245   3.977   4.286  15.837  1.0281 -1.1250  0.1342
 2204SOL    HW218246   3.847   4.282  15.908  0.7555 -0.5440  0.7871
 2205SOL     OW18247   3.615   4.721   8.733  0.6305 -0.4374  0.3837
 2205SOL    HW118248   3.597   4.636   8.694 -0.8395  0.2384 -0.4249
 2205SOL    HW218249   3.606   0.035   8.651 -1.0968  0.7378  1.3018
 2206SOL     OW18250   2.340   0.434   9.574  0.3839  0.1928  0.0338
 2206SOL    HW118251   2.427   0.415   9.539  0.1289  0.4211 -0.7281
 2206SOL    HW218252   2.303   0.499   9.513 -2.8581 -1.5920  0.1101
 2207SOL     OW18253   3.902   0.711   4.759 -1.0676 -0.4010 -0.4573
 2207SOL    HW118254   3.964   0.715   4.687 -0.3049  1.4303  0.3069
 2207SOL    HW218255   3.818   0.683   4.722  0.3342 -5.9505  0.5338
 2208SOL     OW18256   1.356   3.093  13.515 -0.5831 -0.1123  0.1355
 2208SOL    HW118257   1.363   2.998  13.507  0.0559 -0.0479 -0.0661
 2208SOL    HW218258   1.288   3.085  13.582 -2.0924 -0.7839 -1.4886
 2209SOL     OW18259   1.085   1.709   6.985  0.5525 -0.4355  1.0247
 2209SOL    HW118260   1.049   1.758   7.058 -6.1941 -3.4391 -0.2629
 2209SOL    HW218261   1.017   1.641   6.984 -0.3020  0.4259 -0.7278
 2210SOL     OW18262   3.493   3.773   0.871 -0.2265  0.1933 -0.4670
 2210SOL    HW118263   3.488   3.701   0.808 -0.4350  0.4286 -0.7231
 2210SOL    HW218264   3.584   3.801   0.865 -0.3868  0.7681 -0.1487
 2211SOL     OW18265   3.621   1.549   1.207 -0.0176  0.0894 -0.1726
 2211SOL    HW118266   3.620   1.569   1.114 -1.1014 -1.0556 -0.4108
 2211SOL    HW218267   3.631   1.639   1.238  0.9402  0.8522 -2.6978
 2212SOL     OW18268   3.475   3.895   1.313  0.2768 -0.1553  0.2532
 2212SOL    HW118269   3.381   3.880   1.326  0.5576 -2.5555 -0.4547
 2212SOL    HW218270   3.480   3.925   1.222 -1.6999  1.1553  0.5748
 2213SOL     OW18271   2.584   3.159   0.124  0.1160 -0.0054 -0.3326
 2213SOL    HW118272   2.542   3.100   0.062 -2.3456  0.9161  0.4474
 2213SOL    HW218273   2.647   3.198   0.064 -0.6208 -0.7996 -1.6256
 2214SOL     OW18274   4.190   4.098   6.706  0.4724 -0.4813 -0.5680
 2214SOL    HW118275   4.105   4.054   6.709  0.2492 -0.1635 -2.1040
 2214SOL    HW218276   4.157   4.180   6.669  0.9598 -0.9730 -2.0960
 2215SOL     OW18277   1.634   3.432   5.634 -0.1941 -0.2099  0.4376
 2215SOL    HW118278   1.576   3.507   5.631  0.8890  0.6264  0.6495
 2215SOL    HW218279   1.567   3.362   5.631 -1.4517  1.0181 -0.1507
 2216SOL     OW18280   1.022   0.672   0.786  0.3726  0.4857 -0.2000
 2216SOL    HW118281   0.998   0.765   0.792 -1.1613  0.0374  0.4959
 2216SOL    HW218282   0.932   0.643   0.796  1.2299 -2.1265 -0.2540
 2217SOL     OW18283   1.007   0.395   3.370  0.0475  0.0904 -0.5705
 2217SOL    HW118284   1.065   0.470   3.385  0.4135  0.0905 -2.0106
 2217SOL    HW218285   0.922   0.435   3.349 -0.1166 -0.1061 -0.2852
 2218SOL     OW18286   2.067   4.260   8.501 -0.1767  0.4729 -0.4052
 2218SOL    HW118287   2.079   4.344   8.543  3.3643 -0.4269  0.3800
 2218SOL    HW218288   2.080   4.205   8.578 -2.3993 -0.2695 -0.5608
 2219SOL     OW18289   3.959   0.339   4.160  0.0727 -0.0250 -0.2182
 2219SOL    HW118290   3.882   0.365   4.212  1.9424  0.3634  2.3578
 2219SOL    HW218291   3.927   0.279   4.094 -1.7282 -2.1155  2.5589
 2220SOL     OW18292   2.945   1.164   1.723  0.2040 -1.0696 -0.3347
 2220SOL    HW118293   2.954   1.100   1.794 -0.2303 -0.8616 -0.0928
 2220SOL    HW218294   2.860   1.138   1.689  0.4516 -1.3245 -0.7641
 2221SOL     OW18295   1.113   3.029   3.739  0.0649  0.4578 -0.0678
 2221SOL    HW118296   1.025   3.004   3.711 -0.4634 -0.2173  2.2189
 2221SOL    HW218297   1.162   2.955   3.703 -2.1431  0.1300 -2.4124
 2222SOL     OW18298   4.506   0.649   4.764 -0.6147 -0.1929  0.2617
 2222SOL    HW118299   4.468   0.701   4.694  0.7713 -1.3779 -1.3717
 2222SOL    HW218300   4.439   0.662   4.831 -2.4561  0.0208 -1.6234
 2223SOL     OW18301   3.828   3.945   4.455 -0.3188 -0.5469 -0.2936
 2223SOL    HW118302   3.747   3.895   4.470  0.3810 -1.0419  1.8068
 2223SOL    HW218303   3.886   3.879   4.416 -0.3250 -0.9853  0.4381
 2224SOL     OW18304   0.845   3.280   4.246  0.4574 -0.6020  0.1417
 2224SOL    HW118305   0.831   3.236   4.330  1.1782 -1.9549 -0.4520
 2224SOL    HW218306   0.933   3.312   4.264  0.5137 -0.7307  0.0967
 2225SOL     OW18307   2.081   1.150   3.254  0.8726 -0.3767 -0.4294
 2225SOL    HW118308   2.121   1.212   3.315 -0.8723  0.8102 -0.4981
 2225SOL    HW218309   1.989   1.157   3.277  1.2494  0.7677  0.7489
 2226SOL     OW18310   4.669   0.879  15.511  0.4012  0.0977  0.4668
 2226SOL    HW118311   4.610   0.917  15.447 -0.0947 -1.4263  0.0242
 2226SOL    HW218312   4.648   0.922  15.594 -0.7723  0.7247 -0.1713
 2227SOL     OW18313   1.690   4.196  14.791 -0.3957  0.0381 -0.4014
 2227SOL    HW118314   1.729   4.259  14.852 -0.3247  0.4886 -0.9112
 2227SOL    HW218315   1.743   4.117  14.802 -0.6875  0.0461  1.1549
 2228SOL     OW18316   2.049   3.174   3.515  1.0336  0.9463 -0.5414
 2228SOL    HW118317   2.042   3.099   3.574  0.8678 -0.0210 -1.7935
 2228SOL    HW218318   1.960   3.209   3.519  0.5098 -0.3414 -1.0031
 2229SOL     OW18319   3.000   3.168  10.473  0.0873 -0.0816  0.1450
 2229SOL    HW118320   2.934   3.219  10.426  0.2337 -0.5500 -0.5697
 2229SOL    HW218321   2.986   3.205  10.560 -0.4404  0.4345 -0.1522
 2230SOL     OW18322   0.370   1.469   6.376 -0.2239  0.3618  0.2719
 2230SOL    HW118323   0.455   1.513   6.383  1.4221 -2.1398 -4.2073
 2230SOL    HW218324   0.379   1.410   6.302 -0.3404 -1.2343  1.5223
 2231SOL     OW18325   4.377   3.320   2.314 -0.6266  0.4066  0.0925
 2231SOL    HW118326   4.391   3.323   2.409  0.5432  0.9989 -0.0974
 2231SOL    HW218327   4.425   3.400   2.294 -0.2626 -0.1468 -1.2079
 2232SOL     OW18328   4.101   3.596   6.639  0.3090 -0.4429 -0.4817
 2232SOL    HW118329   4.195   3.604   6.657  0.4597  2.7331 -2.8704
 2232SOL    HW218330   4.067   3.619   6.726  2.4420  1.8859 -0.2758
 2233SOL     OW18331   4.245   4.679   3.589  0.1252  0.0828  0.0076
 2233SOL    HW118332   4.192   0.019   3.608  1.4872  1.0691 -0.1639
 2233SOL    HW218333   4.331   4.721   3.589 -0.0781  0.5344 -3.3743
 2234SOL     OW18334   0.622   3.061   7.781  0.0959  0.4170  0.1300
 2234SOL    HW118335   0.712   3.093   7.788 -0.7203  2.1329  2.5584
 2234SOL    HW218336   0.632   2.996   7.712 -1.2242 -0.5416  0.8434
 2235SOL     OW18337   0.095   3.692  17.326 -0.2921 -0.1219  0.1887
 2235SOL    HW118338   0.010   3.650  17.311 -0.2646 -0.3401  0.6347
 2235SOL    HW218339   0.115   3.649  17.409  3.3130  1.8541  0.3390
 2236SOL     OW18340   2.923   3.634   8.459 -0.4459 -0.0325  0.6794
 2236SOL    HW118341   2.971   3.618   8.540  1.3858  0.4750 -0.3040
 2236SOL    HW218342   2.954   3.559   8.409 -2.9345 -0.6236  0.0052
 2237SOL     OW18343   2.061   1.388   9.387 -0.2063 -0.7991 -0.1096
 2237SOL    HW118344   1.976   1.389   9.343 -0.1021 -0.4626 -0.3029
 2237SOL    HW218345   2.123   1.404   9.316 -2.2213 -1.9804 -2.1473
 2238SOL     OW18346   1.404   1.986   2.489 -0.2734 -0.4727  0.0753
 2238SOL    HW118347   1.321   1.987   2.442  1.1865  1.7540 -2.4137
 2238SOL    HW218348   1.371   1.988   2.579  1.4070  1.4804  0.6499
 2239SOL     OW18349   3.203   0.349   4.415  0.1798 -0.2207  0.4221
 2239SOL    HW118350   3.163   0.266   4.389 -0.4185 -1.1929  4.4176
 2239SOL    HW218351   3.140   0.416   4.388 -3.2718 -3.1819  1.1071
 2240SOL     OW18352   2.290   1.128   0.520 -0.4606  0.2562 -0.1188
 2240SOL    HW118353   2.230   1.094   0.454 -1.0000  1.0640 -0.0490
 2240SOL    HW218354   2.373   1.102   0.480 -0.0365  0.4686  0.6251
 2241SOL     OW18355   1.151   3.640  11.299 -0.4405 -0.3166 -0.1581
 2241SOL    HW118356   1.115   3.554  11.279  0.6520 -1.4672  2.9351
 2241SOL    HW218357   1.243   3.624  11.279 -0.0168  0.2717  1.3000
 2242SOL     OW18358   3.297   2.501  11.572  0.2022  0.1964 -0.3300
 2242SOL    HW118359   3.305   2.409  11.598 -3.4915  0.0373  0.2200
 2242SOL    HW218360   3.270   2.547  11.652 -2.6796 -0.9307 -0.6502
 2243SOL     OW18361   4.033   3.484   1.016  0.3066  0.5621  0.3552
 2243SOL    HW118362   4.083   3.561   0.987  2.3819 -0.6644  0.6620
 2243SOL    HW218363   4.046   3.498   1.109  1.1930 -2.4688  0.6973
 2244SOL     OW18364   2.002   2.973   1.821  0.7080 -0.1884 -0.4196
 2244SOL    HW118365   1.972   3.058   1.790 -0.7031 -1.0419 -1.3434
 2244SOL    HW218366   2.040   2.993   1.907  0.7301 -0.4886 -0.3591
 2245SOL     OW18367   4.386   4.406   2.423  0.5532 -0.3930 -0.6074
 2245SOL    HW118368   4.399   4.499   2.406 -0.1855 -0.1396  0.2106
 2245SOL    HW218369   4.408   4.375   2.336  0.1615  0.2543 -0.9327
 2246SOL     OW18370   0.732   4.364  17.635  0.3112 -0.2804 -0.6583
 2246SOL    HW118371   0.682   4.337  17.557  0.5800  1.1236 -1.3259
 2246SOL    HW218372   0.702   4.303  17.702  1.5826 -0.6913 -0.4652
 2247SOL     OW18373   0.586   1.787  16.452  0.0174 -0.2285 -0.0079
 2247SOL    HW118374   0.589   1.864  16.396  1.2322 -0.3254 -0.0935
 2247SOL    HW218375   0.614   1.722  16.388 -2.1907 -0.4008 -0.7680
 2248SOL     OW18376   4.511   1.958   8.704  0.2046 -0.1876 -0.4946
 2248SOL    HW118377   4.417   1.962   8.686  0.1495  2.8667  0.4388
 2248SOL    HW218378   4.504   1.913   8.788  0.9603 -1.0369 -0.8865
 2249SOL     OW18379   1.089   3.673  13.957 -0.6618  0.7198  0.0331
 2249SOL    HW118380   1.030   3.618  13.906  0.4154  0.8822 -1.4138
 2249SOL    HW218381   1.061   3.648  14.045  1.4004 -0.4508  0.3624
 2250SOL     OW18382   1.324   1.226   1.598  0.5594 -0.4495 -0.0552
 2250SOL    HW118383   1.341   1.275   1.517  1.5055 -0.1638  0.3134
 2250SOL    HW218384   1.356   1.285   1.666  1.5457 -0.0130 -0.8881
 2251SOL     OW18385   0.220   1.241   5.144 -0.5577  0.3976  0.1654
 2251SOL    HW118386   0.288   1.281   5.089 -0.5777  0.5624  0.2588
 2251SOL    HW218387   0.216   1.299   5.220 -0.5442  0.3533  0.2000
 2252SOL     OW18388   3.615   3.624   4.941  0.9696 -0.0821  0.1852
 2252SOL    HW118389   3.638   3.570   4.865  1.2280  1.6998 -0.9973
 2252SOL    HW218390   3.665   3.585   5.013  0.7512  2.0790  1.5058
 2253SOL     OW18391   0.274   4.468   6.726 -0.5361 -0.3814  0.1418
 2253SOL    HW118392   0.197   4.421   6.757 -1.7693  0.1814 -2.0216
 2253SOL    HW218393   0.277   4.454   6.631 -2.1982  0.7399 -0.0741
 2254SOL     OW18394   2.790   0.319   1.502  0.1589  0.0105  0.5721
 2254SOL    HW118395   2.811   0.226   1.506  0.9301  0.2457  2.3589
 2254SOL    HW218396   2.879   0.356   1.506 -0.1748  0.6184  2.4493
 2255SOL     OW18397   0.998   1.948   4.762 -0.0402  0.1309  0.3952
 2255SOL    HW118398   1.083   1.904   4.764 -0.1824 -0.1571  0.1668
 2255SOL    HW218399   1.023   2.033   4.798 -3.2377  1.5095 -0.5641
 2256SOL     OW18400   0.851   1.394  16.344 -0.1144  0.1941 -0.3779
 2256SOL    HW118401   0.914   1.465  16.360 -0.2119  0.5099 -1.3937
 2256SOL    HW218402   0.826   1.403  16.252 -0.1398 -0.3609 -0.4235
 2257SOL     OW18403   3.514   1.209   9.556  0.0937  0.2941  0.1571
 2257SOL    HW118404   3.508   1.115   9.576  0.7939 -0.1208 -1.6113
 2257SOL    HW218405   3.542   1.241   9.642 -1.6373  2.6072 -0.1643
 2258SOL     OW18406   1.828   2.300   3.264 -0.3622 -0.1987 -0.0480
 2258SOL    HW118407   1.763   2.237   3.296 -1.4049  0.2686 -1.2528
 2258SOL    HW218408   1.798   2.296   3.173 -1.7969 -0.7172  0.4548
 2259SOL     OW18409   0.672   2.236  16.838  0.3461  0.1183 -0.0225
 2259SOL    HW118410   0.669   2.192  16.923  0.7350  1.1831  0.5404
 2259SOL    HW218411   0.662   2.324  16.876  1.4430  0.8431 -1.3972
 2260SOL     OW18412   2.005   3.166  14.104  0.0547  0.2114  0.2168
 2260SOL    HW118413   2.013   3.118  14.187  0.2694  2.7421  1.6504
 2260SOL    HW218414   1.909   3.171  14.098  0.1024  0.2946 -0.4886
 2261SOL     OW18415   0.141   1.911   4.204 -0.3550  0.1638 -0.6098
 2261SOL    HW118416   0.221   1.961   4.190 -0.0998 -0.5619 -1.7377
 2261SOL    HW218417   0.119   1.940   4.292  0.1768 -0.1187 -0.3806
 2262SOL     OW18418   0.338   2.199  15.272 -0.1656 -0.1080 -0.5553
 2262SOL    HW118419   0.249   2.224  15.245 -0.8753 -2.8929 -0.7539
 2262SOL    HW218420   0.393   2.218  15.196  0.9973  0.2819  0.3922
 2263SOL     OW18421   0.230   3.953   5.280  0.6906 -0.1934  0.2616
 2263SOL    HW118422   0.235   3.857   5.287 -0.3945 -0.2711  0.0699
 2263SOL    HW218423   0.147   3.955   5.231  1.6891 -2.7476 -1.5488
 2264SOL     OW18424   3.009   1.232   7.514  0.8361  0.2261 -0.3716
 2264SOL    HW118425   3.099   1.244   7.543  1.2495 -1.2994 -1.0325
 2264SOL    HW218426   2.964   1.230   7.599  0.5884 -2.6304 -0.5602
 2265SOL     OW18427   0.920   2.291   2.910 -0.4477  0.5380  0.0630
 2265SOL    HW118428   0.959   2.263   2.993 -1.0464  1.2960  0.5988
 2265SOL    HW218429   0.996   2.299   2.852 -0.1903  1.1670  0.4832
 2266SOL     OW18430   2.395   4.407   7.447 -0.3383  0.2138  0.3561
 2266SOL    HW118431   2.460   4.369   7.507 -1.7166  0.7750  2.1816
 2266SOL    HW218432   2.310   4.371   7.472 -0.4203  0.6440  0.6938
 2267SOL     OW18433   1.741   4.306   2.821 -0.3833 -0.0414 -0.1486
 2267SOL    HW118434   1.699   4.307   2.907  2.9479  1.4771  1.4579
 2267SOL    HW218435   1.680   4.363   2.775  0.3940  0.0580 -1.0429
 2268SOL     OW18436   4.012   1.607   8.473  0.2960  0.2709 -0.5212
 2268SOL    HW118437   4.063   1.668   8.527  1.9483 -0.2275 -1.5158
 2268SOL    HW218438   3.972   1.562   8.547  0.9590 -0.0216 -0.3357
 2269SOL     OW18439   3.242   2.552   2.493 -0.1472  0.1868  0.5872
 2269SOL    HW118440   3.229   2.537   2.400 -0.2046  1.8275  0.3271
 2269SOL    HW218441   3.302   2.626   2.483  0.8876 -1.0268 -2.1235
 2270SOL     OW18442   1.995   4.043  12.939  0.8454  0.1444  0.0334
 2270SOL    HW118443   1.963   4.083  12.858 -0.2711 -1.8112 -0.4934
 2270SOL    HW218444   1.919   4.057  12.994  0.9688  0.1967  0.1914
 2271SOL     OW18445   2.427   3.495   8.974 -0.3843  0.3887  0.3240
 2271SOL    HW118446   2.426   3.516   8.880  1.0515 -0.0934  0.2011
 2271SOL    HW218447   2.397   3.574   9.018  0.0186  0.0996  1.1036
 2272SOL     OW18448   4.241   2.404   7.986  0.0518  0.1260  0.2668
 2272SOL    HW118449   4.332   2.383   7.963  0.5198  2.1515  0.2597
 2272SOL    HW218450   4.245   2.500   7.980  0.1040  0.1207  0.2166
 2273SOL     OW18451   2.276   3.492   7.669 -0.3668  0.1808 -0.4459
 2273SOL    HW118452   2.339   3.427   7.639 -0.2311 -0.8212  2.0173
 2273SOL    HW218453   2.238   3.517   7.584 -2.0553  2.3389  0.9641
 2274SOL     OW18454   1.242   3.229   1.658 -0.0928  0.0617 -1.1258
 2274SOL    HW118455   1.213   3.151   1.706  2.2915  0.4994  0.9968
 2274SOL    HW218456   1.283   3.270   1.734 -0.3287  0.9928 -1.4875
 2275SOL     OW18457   3.932   1.283   5.313  0.5696  0.0764  0.2560
 2275SOL    HW118458   3.974   1.366   5.291  1.2761 -0.9507 -2.3621
 2275SOL    HW218459   3.906   1.286   5.405  2.3923 -0.6237  0.7880
 2276SOL     OW18460   4.408   3.145   0.107 -0.2148  0.1731 -0.0863
 2276SOL    HW118461   4.367   3.176   0.187 -1.1907 -2.7597  0.5104
 2276SOL    HW218462   4.391   3.052   0.116  0.5831  0.0497  0.1866
 2277SOL     OW18463   2.448   1.783   6.688  0.1128  0.1444 -0.2009
 2277SOL    HW118464   2.476   1.812   6.601  0.3731 -2.4388 -0.9951
 2277SOL    HW218465   2.449   1.864   6.739  1.2388  0.8023 -1.2780
 2278SOL     OW18466   0.753   1.261  12.376 -0.7134  0.2262 -0.8061
 2278SOL    HW118467   0.668   1.305  12.383 -0.7025  0.0661  0.4050
 2278SOL    HW218468   0.725   1.171  12.390  1.9180 -0.6505 -1.2126
 2279SOL     OW18469   4.271   3.339   7.790 -0.2884 -0.0769 -0.4696
 2279SOL    HW118470   4.212   3.302   7.856 -2.5158  1.9944 -1.3159
 2279SOL    HW218471   4.296   3.261   7.741 -1.2902  0.2998 -1.5634
 2280SOL     OW18472   2.650   3.682   5.353 -0.7405  0.1127  0.4568
 2280SOL    HW118473   2.735   3.647   5.328 -1.4748 -1.0777 -0.3731
 2280SOL    HW218474   2.666   3.739   5.428  2.6773 -0.6109  0.2773
 2281SOL     OW18475   4.259   2.067   5.942 -0.6948 -0.2276  0.2506
 2281SOL    HW118476   4.278   2.114   5.861 -2.8307 -0.6804 -0.5140
 2281SOL    HW218477   4.310   1.987   5.930 -0.7804 -0.6493  2.5771
 2282SOL     OW18478   4.231   3.451   1.916  0.1474  0.2232 -0.0360
 2282SOL    HW118479   4.282   3.370   1.921  0.0140  0.2333  1.5141
 2282SOL    HW218480   4.180   3.433   1.837  1.4924 -0.1698 -0.8304
 2283SOL     OW18481   1.253   0.111   5.259 -0.0634  0.4232 -0.2970
 2283SOL    HW118482   1.286   0.123   5.170  0.3760  1.0997 -0.0436
 2283SOL    HW218483   1.234   0.018   5.267 -0.1039  0.2266 -2.7063
 2284SOL     OW18484   1.278   4.359  16.306 -0.2450  0.7259 -0.0960
 2284SOL    HW118485   1.239   4.409  16.378 -0.1046 -2.5797  2.2969
 2284SOL    HW218486   1.227   4.390  16.231 -0.5529 -0.9543 -0.5794
 2285SOL     OW18487   3.310   4.548   4.208 -0.1894  0.0710 -0.4657
 2285SOL    HW118488   3.328   4.638   4.182 -0.8797  0.3711  0.0775
 2285SOL    HW218489   3.261   4.550   4.291  0.2385  0.6044 -0.2261
 2286SOL     OW18490   4.304   2.769  14.668 -0.2366  0.3519  0.8542
 2286SOL    HW118491   4.342   2.806  14.589 -0.2183 -1.3377  0.0599
 2286SOL    HW218492   4.386   2.749  14.713  0.4005  2.3699  0.5488
 2287SOL     OW18493   3.952   4.025   5.259  0.3120 -0.3351 -0.3738
 2287SOL    HW118494   3.924   3.938   5.289  0.3374 -0.1169  0.2772
 2287SOL    HW218495   4.038   4.031   5.301 -0.1235 -2.4064  0.8108
 2288SOL     OW18496   3.144   0.847  14.559 -0.4606 -0.6100  0.1288
 2288SOL    HW118497   3.199   0.786  14.510 -0.4018 -0.3090 -0.1834
 2288SOL    HW218498   3.060   0.849  14.514 -0.5977  0.1699  0.4103
 2289SOL     OW18499   2.935   0.082   4.875 -0.1912 -0.3519 -0.2418
 2289SOL    HW118500   2.904   0.041   4.794  0.2370  0.7492 -0.9666
 2289SOL    HW218501   2.967   0.164   4.838 -1.4798  0.9617  1.5593
 2290SOL     OW18502   1.371   3.704  12.578 -0.2251  0.2722  0.0803
 2290SOL    HW118503   1.425   3.644  12.630 -0.7570 -1.5734 -1.4821
 2290SOL    HW218504   1.434   3.776  12.573  2.8074 -2.3936 -0.1361
 2291SOL     OW18505   1.087   0.154   2.548  0.1226  0.7643  0.2779
 2291SOL    HW118506   1.108   0.237   2.590  1.4695  1.3036 -1.4669
 2291SOL    HW218507   1.124   0.175   2.463 -4.2138  1.9297 -1.3249
 2292SOL     OW18508   0.010   1.124   3.843  0.0764 -0.0274  0.0083
 2292SOL    HW118509   4.703   1.176   3.776  0.6585 -1.5786 -1.5744
 2292SOL    HW218510   0.033   1.201   3.895 -1.1216  0.2007  0.1859
 2293SOL     OW18511   1.689   3.640   1.066 -0.4886  0.0716  0.2621
 2293SOL    HW118512   1.631   3.584   1.117 -0.8699  0.6315  0.4431
 2293SOL    HW218513   1.724   3.689   1.141 -0.5262  0.1795  0.2083
 2294SOL     OW18514   2.268   3.673  15.282  0.3005 -0.6512  0.1058
 2294SOL    HW118515   2.292   3.758  15.245 -0.1814 -0.5284  0.0730
 2294SOL    HW218516   2.347   3.629  15.312  1.0648  0.0435 -0.8786
 2295SOL     OW18517   3.256   0.258   2.279 -0.0048 -0.4608  0.0978
 2295SOL    HW118518   3.236   0.321   2.210  0.9581  0.0388  0.2736
 2295SOL    HW218519   3.350   0.274   2.273 -0.0668 -0.4180 -0.9042
 2296SOL     OW18520   2.074   2.532  15.346 -0.1305  0.0251 -0.2588
 2296SOL    HW118521   2.156   2.545  15.297 -0.0593 -0.2348 -0.2105
 2296SOL    HW218522   2.098   2.566  15.432 -0.2440 -1.3956  0.3414
 2297SOL     OW18523   4.100   4.587  13.716  0.7513  0.1959 -0.3433
 2297SOL    HW118524   4.125   4.597  13.624 -1.8737 -1.4566 -1.2348
 2297SOL    HW218525   4.137   4.501  13.736 -0.4266 -0.1569  0.3676
 2298SOL     OW18526   4.037   0.306   3.120 -0.1591  0.0753 -0.2101
 2298SOL    HW118527   4.062   0.280   3.209 -2.6041 -0.8062  0.2159
 2298SOL    HW218528   4.118   0.278   3.076  0.0005 -0.2530  0.2871
 2299SOL     OW18529   3.857   2.535   6.543  0.0216 -0.2385  0.0800
 2299SOL    HW118530   3.801   2.563   6.615 -0.9793  2.3962 -1.7379
 2299SOL    HW218531   3.901   2.620   6.540 -1.9299  0.6917 -2.1167
 2300SOL     OW18532   3.018   0.138   6.900 -0.4157  0.3044 -0.2217
 2300SOL    HW118533   2.984   0.056   6.863 -1.3217 -0.0298  1.3665
 2300SOL    HW218534   3.040   0.189   6.821 -1.0500 -0.3637 -0.8341
 2301SOL     OW18535   3.515   1.767   7.055  0.6028  1.1546 -0.0852
 2301SOL    HW118536   3.509   1.820   6.975 -0.8090  1.3197  0.1179
 2301SOL    HW218537   3.505   1.680   7.016  2.7572 -0.2870  2.6471
 2302SOL     OW18538   1.492   2.268  14.616  0.0214 -0.4705  0.1688
 2302SOL    HW118539   1.453   2.312  14.691 -0.8242 -0.1407 -0.4644
 2302SOL    HW218540   1.585   2.290  14.620 -0.0633  0.2529 -1.8572
 2303SOL     OW18541   0.967   2.959   0.834  0.0444 -0.2216 -0.1413
 2303SOL    HW118542   0.990   3.049   0.855  0.3182 -0.6638  1.4127
 2303SOL    HW218543   0.891   2.949   0.892 -0.7100  1.7132 -0.7990
 2304SOL     OW18544   1.784   3.076   9.023 -0.1192  0.0432 -0.1632
 2304SOL    HW118545   1.773   3.028   8.941 -1.7495 -0.3289  0.2859
 2304SOL    HW218546   1.843   3.016   9.068 -1.2641 -0.0546  1.2031
 2305SOL     OW18547   4.640   4.372  16.488  0.0532  0.1193  0.4951
 2305SOL    HW118548   4.592   4.314  16.430  0.7966 -1.2107  1.1979
 2305SOL    HW218549   4.696   4.412  16.422  2.1914  0.3702  2.4440
 2306SOL     OW18550   1.174   4.402   4.301  0.1321 -0.2639 -0.4277
 2306SOL    HW118551   1.087   4.414   4.263  0.2625  0.8347 -0.3910
 2306SOL    HW218552   1.182   4.307   4.292  0.5870 -0.3674  1.0238
 2307SOL     OW18553   2.980   4.153  17.304  0.5092  0.4478  0.4628
 2307SOL    HW118554   3.016   4.107  17.228  1.5568 -0.2132  1.3633
 2307SOL    HW218555   3.051   4.192  17.354  0.2343 -0.6552  1.6777
 2308SOL     OW18556   1.756   2.586  16.313  0.0680 -0.0879  0.2526
 2308SOL    HW118557   1.796   2.559  16.396  0.9682 -1.3084 -0.5807
 2308SOL    HW218558   1.750   2.504  16.264 -2.0440  2.7376 -4.2188
 2309SOL     OW18559   4.413   2.855  14.423 -0.0371 -0.5795 -0.9059
 2309SOL    HW118560   4.500   2.823  14.442 -0.0692 -1.3856 -2.1791
 2309SOL    HW218561   4.430   2.938  14.378  0.1591  0.0608  0.3330
 2310SOL     OW18562   0.595   0.657  10.958  0.2931 -0.6361 -0.3085
 2310SOL    HW118563   0.678   0.683  10.998 -0.9140  0.0078  1.7604
 2310SOL    HW218564   0.631   0.590  10.901 -2.6698 -0.6292 -2.1813
 2311SOL     OW18565   2.822   0.746  13.060 -0.2164  0.0618  0.0912
 2311SOL    HW118566   2.734   0.767  13.091  0.6416  1.2833  1.7556
 2311SOL    HW218567   2.872   0.828  13.057  1.0060 -0.6102  1.4489
 2312SOL     OW18568   1.774   2.935   8.779 -0.0129 -0.2150  0.1950
 2312SOL    HW118569   1.690   2.962   8.741  0.2315 -0.4600 -0.5095
 2312SOL    HW218570   1.802   2.879   8.708 -2.9927 -1.0777 -0.3021
 2313SOL     OW18571   0.205   1.845   9.523  0.3478  0.3860  0.2913
 2313SOL    HW118572   0.200   1.929   9.477 -1.2197  1.0875  1.7554
 2313SOL    HW218573   0.153   1.862   9.601 -1.8340  2.2866 -1.5467
 2314SOL     OW18574   2.114   4.089   5.759  0.6558 -0.0628  0.4192
 2314SOL    HW118575   2.091   4.006   5.801  2.1006  0.3355  1.9866
 2314SOL    HW218576   2.093   4.064   5.669  2.0250 -0.1093  0.1196
 2315SOL     OW18577   2.784   3.674  12.916 -0.3459  0.1075  0.2133
 2315SOL    HW118578   2.720   3.693  12.847  2.2444 -2.0979 -2.7803
 2315SOL    HW218579   2.777   3.754  12.967  0.1201  0.6049 -0.4932
 2316SOL     OW18580   1.332   2.059  14.923 -0.5036  0.7920  0.1243
 2316SOL    HW118581   1.301   1.980  14.878  3.6490 -0.1395 -1.0606
 2316SOL    HW218582   1.341   2.018  15.009 -0.0235  1.9006  0.6034
 2317SOL     OW18583   1.203   3.416   9.579  0.0180  0.5524 -0.7346
 2317SOL    HW118584   1.184   3.372   9.496  2.5616  0.4170 -1.2652
 2317SOL    HW218585   1.174   3.350   9.642  0.5793 -0.2022 -1.2672
 2318SOL     OW18586   3.740   1.751   8.914  0.5112  0.0638  0.1556
 2318SOL    HW118587   3.748   1.832   8.863  0.4568 -0.3018 -0.4401
 2318SOL    HW218588   3.707   1.693   8.846  2.8990 -0.9697 -0.1329
 2319SOL     OW18589   0.546   2.964   0.273  0.0466  0.4309  0.8127
 2319SOL    HW118590   0.515   3.011   0.351 -2.1596  0.8223 -0.2972
 2319SOL    HW218591   0.547   3.036   0.210 -0.2367 -0.3015 -0.0187
 2320SOL     OW18592   2.402   3.088   5.424 -0.4067  0.3292  0.2172
 2320SOL    HW118593   2.451   3.170   5.433  0.0176  0.0821  0.1800
 2320SOL    HW218594   2.332   3.113   5.364  0.8572 -1.0026 -1.7896
 2321SOL     OW18595   1.137   3.555  10.969  0.4016 -0.5603 -0.2016
 2321SOL    HW118596   1.213   3.608  10.990  0.9662 -1.5792  0.3031
 2321SOL    HW218597   1.132   3.555  10.873 -0.1715  1.4404 -0.1808
 2322SOL     OW18598   0.739   1.821   6.299  0.1874  0.9663  0.2840
 2322SOL    HW118599   0.743   1.881   6.373  1.3795  1.3794 -0.1196
 2322SOL    HW218600   0.832   1.823   6.275 -0.6589  1.7211 -2.8933
 2323SOL     OW18601   4.225   2.825  13.754  0.1739  0.4296 -0.1840
 2323SOL    HW118602   4.218   2.919  13.770 -2.3980  0.3584 -0.9906
 2323SOL    HW218603   4.152   2.785  13.800  0.4267  1.5529  1.2003
 2324SOL     OW18604   2.354   0.077  11.420  0.6535  0.2788 -0.0906
 2324SOL    HW118605   2.425   0.063  11.357 -0.8613  0.8091 -1.8988
 2324SOL    HW218606   2.284   0.076  11.355 -1.2483 -2.4727  1.9712
 2325SOL     OW18607   0.079   3.990   9.175  0.7277  1.0219 -0.7562
 2325SOL    HW118608   0.073   3.953   9.086  0.2320 -0.4736 -0.1106
 2325SOL    HW218609   0.086   4.083   9.157 -0.2550  0.6894 -2.9430
 2326SOL     OW18610   1.236   4.717  17.249 -0.5730 -1.0050  0.0793
 2326SOL    HW118611   1.155   0.029  17.263 -0.1225 -0.1142 -0.4025
 2326SOL    HW218612   1.248   4.728  17.155 -2.0612 -2.1328 -0.2465
 2327SOL     OW18613   3.317   0.982   3.753 -0.6304  0.0281 -0.0558
 2327SOL    HW118614   3.350   0.930   3.680  1.0619 -2.5425  2.5380
 2327SOL    HW218615   3.387   1.046   3.770  0.0716 -0.7478  0.0022
 2328SOL     OW18616   3.724   2.286   1.737  0.0969 -0.3385 -0.2694
 2328SOL    HW118617   3.740   2.376   1.710 -1.5246 -0.0243 -0.2147
 2328SOL    HW218618   3.729   2.235   1.656  1.1793 -0.4845 -0.1105
 2329SOL     OW18619   0.406   0.066   2.181 -0.1562 -0.2764 -0.1821
 2329SOL    HW118620   0.354   0.010   2.240 -1.0818  0.8463  0.0673
 2329SOL    HW218621   0.418   4.736   2.113  0.2351  0.3126 -0.6755
 2330SOL     OW18622   2.786   2.035   3.878  0.1653 -0.5773  0.2443
 2330SOL    HW118623   2.831   2.020   3.795 -0.8408  1.8010 -0.7344
 2330SOL    HW218624   2.722   1.964   3.872  1.6462 -1.8051 -1.0093
 2331SOL     OW18625   1.872   1.052  10.855 -0.4056  0.4933 -0.2949
 2331SOL    HW118626   1.911   1.119  10.800  2.3340 -0.1376  0.9123
 2331SOL    HW218627   1.841   1.102  10.931 -1.0420 -0.2527 -0.0602
 2332SOL     OW18628   0.200   3.240   5.572 -0.2520 -0.1461  0.4240
 2332SOL    HW118629   0.292   3.237   5.544 -0.8979  0.0780 -1.7446
 2332SOL    HW218630   0.211   3.215   5.664  1.4257 -1.1397 -0.0312
 2333SOL     OW18631   4.502   3.088   2.401 -0.9485  0.0612 -0.1543
 2333SOL    HW118632   4.473   3.176   2.379  2.3554  0.8254 -1.4465
 2333SOL    HW218633   4.424   3.046   2.438 -2.0589 -0.0297 -2.6424
 2334SOL     OW18634   4.230   4.096   5.395 -0.2249  0.8025  0.0017
 2334SOL    HW118635   4.307   4.153   5.398  0.5189 -0.3340  2.4230
 2334SOL    HW218636   4.265   4.024   5.447  1.5285  1.5028 -0.1953
 2335SOL     OW18637   2.099   4.615  10.364  0.2525  0.1469  0.0716
 2335SOL    HW118638   2.137   4.594  10.279  1.3286  0.3462  0.4999
 2335SOL    HW218639   2.172   4.661  10.406  0.3359 -0.3381  0.4617
 2336SOL     OW18640   0.878   1.630   6.007  0.1376  0.0342 -0.5751
 2336SOL    HW118641   0.845   1.567   6.071  4.6424 -2.4489 -0.6621
 2336SOL    HW218642   0.915   1.697   6.064  0.4306 -1.0204  0.4701
 2337SOL     OW18643   2.344   4.465  10.152  0.4317  0.1844 -0.0609
 2337SOL    HW118644   2.271   4.414  10.117 -0.4634  2.5663 -1.6886
 2337SOL    HW218645   2.408   4.395  10.162 -0.2962 -0.3899  0.6125
 2338SOL     OW18646   1.174   3.096   6.803 -0.2217  0.1290  0.3343
 2338SOL    HW118647   1.183   3.168   6.740 -0.1111 -0.1374  0.0489
 2338SOL    HW218648   1.164   3.023   6.742  1.9504  0.3744 -0.3127
 2339SOL     OW18649   3.006   0.473   8.875  0.1343 -0.2949  0.3936
 2339SOL    HW118650   2.992   0.466   8.970 -1.0158 -0.1302  0.2307
 2339SOL    HW218651   2.918   0.481   8.840  0.6788  0.9331 -0.6756
 2340SOL     OW18652   2.079   3.282   7.635 -0.7548  0.4707  0.2201
 2340SOL    HW118653   2.037   3.305   7.552 -1.7673 -1.9760  0.0716
 2340SOL    HW218654   2.128   3.205   7.607 -0.1812  0.3496  1.5459
 2341SOL     OW18655   1.934   1.870  16.114 -0.7784 -0.7011 -0.1398
 2341SOL    HW118656   1.896   1.940  16.061  0.4249 -0.1606 -0.3058
 2341SOL    HW218657   1.888   1.791  16.088 -0.3023 -1.4413  1.2880
 2342SOL     OW18658   2.310   2.033   7.336  1.0367  0.4996  0.1088
 2342SOL    HW118659   2.306   2.089   7.259 -0.2115  0.4777  0.1513
 2342SOL    HW218660   2.403   2.038   7.356  1.1697 -0.8279 -0.1379
 2343SOL     OW18661   1.319   4.195   8.278 -0.2986 -0.0505 -0.2205
 2343SOL    HW118662   1.394   4.245   8.309 -0.3699  0.3241 -0.6657
 2343SOL    HW218663   1.325   4.120   8.338 -0.1434  0.0639 -0.0922
 2344SOL     OW18664   2.141   4.554  12.556  0.2728 -0.4442 -0.2587
 2344SOL    HW118665   2.150   4.642  12.520 -0.0453 -0.0355  0.6799
 2344SOL    HW218666   2.232   4.528  12.541  0.9424  1.4635  0.5464
 2345SOL     OW18667   0.246   2.402   5.422  0.1622 -0.3410 -0.3364
 2345SOL    HW118668   0.222   2.425   5.332  2.2897  2.8343 -0.0825
 2345SOL    HW218669   0.218   2.311   5.423 -0.0614 -0.2909 -1.3479
 2346SOL     OW18670   4.631   0.120  12.324  0.0826 -0.2836  0.2201
 2346SOL    HW118671   4.715   0.144  12.286  0.2669  0.4827  1.1160
 2346SOL    HW218672   4.624   0.028  12.296 -2.7330 -0.4924  1.6150
 2347SOL     OW18673   1.847   1.472  11.892 -0.1614 -0.1831 -0.0872
 2347SOL    HW118674   1.838   1.561  11.926  1.2972  0.2046 -0.6948
 2347SOL    HW218675   1.787   1.466  11.818  1.9108  3.9225 -2.1315
 2348SOL     OW18676   1.934   0.595  10.899  0.0749 -0.7389  0.2190
 2348SOL    HW118677   1.876   0.611  10.973  0.0559 -0.8812  0.2341
 2348SOL    HW218678   1.994   0.670  10.902 -1.7660  0.8271 -2.2177
 2349SOL     OW18679   0.975   0.937  10.322  0.3495 -0.3903  0.1165
 2349SOL    HW118680   0.956   1.011  10.264 -1.2903 -0.3280  0.7511
 2349SOL    HW218681   0.960   0.980  10.406 -0.1873 -1.2664  0.4665
 2350SOL     OW18682   4.688   4.576  13.214 -0.2587  0.2812 -0.0460
 2350SOL    HW118683   4.635   4.513  13.264 -0.1372  1.0980  1.1233
 2350SOL    HW218684   4.715   4.635  13.284  2.2006  0.5772 -1.2479
 2351SOL     OW18685   2.802   0.547   6.745  0.3604  0.5411  0.3184
 2351SOL    HW118686   2.876   0.554   6.685  2.6843 -1.8558  2.8807
 2351SOL    HW218687   2.769   0.461   6.719  0.7226  0.8492 -1.1116
 2352SOL     OW18688   3.432   1.861   1.156 -0.8842 -0.4948 -0.1181
 2352SOL    HW118689   3.341   1.875   1.181 -0.4990 -0.7887  1.4920
 2352SOL    HW218690   3.437   1.944   1.110 -0.3752 -0.0706  0.7068
 2353SOL     OW18691   1.948   3.135  11.653 -0.6627  0.2209  0.1879
 2353SOL    HW118692   2.023   3.104  11.602  0.4418  1.6053  0.9614
 2353SOL    HW218693   1.956   3.084  11.733  1.5424  2.5428  1.4757
 2354SOL     OW18694   2.803   2.451   2.767  0.0354 -0.6553  0.3549
 2354SOL    HW118695   2.803   2.473   2.674  0.7770 -2.1426 -0.0154
 2354SOL    HW218696   2.754   2.368   2.767 -1.7837  0.4150 -2.5588
 2355SOL     OW18697   4.354   0.550  11.044  0.0272  0.4283 -0.6633
 2355SOL    HW118698   4.298   0.567  11.120  0.5733 -0.4426 -0.0671
 2355SOL    HW218699   4.295   0.566  10.971 -0.7098  1.6706  0.1995
 2356SOL     OW18700   1.257   4.232   1.147 -0.2195 -0.7044  0.1870
 2356SOL    HW118701   1.165   4.239   1.121  0.3578  1.6999 -1.2703
 2356SOL    HW218702   1.309   4.193   1.077 -0.9814 -2.2283  0.4907
 2357SOL     OW18703   4.480   0.006  15.249 -0.1923 -0.8334  0.3489
 2357SOL    HW118704   4.453   0.033  15.161 -0.3478 -0.1620  0.6003
 2357SOL    HW218705   4.574   0.020  15.243 -0.1175 -0.3032  2.9235
 2358SOL     OW18706   1.034   1.193   3.992 -0.1235  0.3907  0.4380
 2358SOL    HW118707   1.002   1.152   4.072 -0.3699 -0.6373 -0.1910
 2358SOL    HW218708   1.027   1.286   4.014 -2.0119  0.7966 -1.9440
 2359SOL     OW18709   1.957   0.080  16.604  0.4511 -0.4745 -0.1383
 2359SOL    HW118710   2.030   0.119  16.652  0.2433 -0.2887  0.0294
 2359SOL    HW218711   1.922   0.020  16.671 -0.2228  1.3687  1.1593
 2360SOL     OW18712   4.132   3.847   3.630 -0.2442  0.2151 -0.3267
 2360SOL    HW118713   4.147   3.874   3.540 -0.5417  1.0636 -0.1253
 2360SOL    HW218714   4.148   3.927   3.681 -2.5311  0.7268 -0.4089
 2361SOL     OW18715   2.929   0.190   9.178  0.2370 -0.7741 -0.4967
 2361SOL    HW118716   2.958   0.122   9.239 -1.3452 -1.1860 -0.1975
 2361SOL    HW218717   2.974   0.161   9.099 -0.5854  1.6987 -1.8876
 2362SOL     OW18718   2.837   4.026  16.208  0.2119 -0.3283  0.8043
 2362SOL    HW118719   2.925   4.054  16.233  0.4274  0.1972 -0.5395
 2362SOL    HW218720   2.829   4.084  16.132  2.8371 -0.3414  0.5477
 2363SOL     OW18721   0.022   4.501   9.220 -0.4714  0.2670  0.6452
 2363SOL    HW118722   0.004   4.545   9.303 -1.2266  0.8167  0.1897
 2363SOL    HW218723   0.083   4.557   9.171  1.2028 -1.6331  0.5454
 2364SOL     OW18724   2.983   2.665   6.901 -0.2378 -0.1594  0.2009
 2364SOL    HW118725   2.925   2.734   6.932  0.2269  1.1154 -1.7996
 2364SOL    HW218726   3.052   2.722   6.868  0.3976 -0.1057  1.6477
 2365SOL     OW18727   3.561   2.386  12.986 -0.3879  0.2609 -0.2176
 2365SOL    HW118728   3.471   2.377  13.016 -0.3123  0.8133  0.1705
 2365SOL    HW218729   3.563   2.475  12.949 -1.7239 -0.1336 -1.2776
 2366SOL     OW18730   2.601   0.937  13.293 -0.3819  0.3955  0.2175
 2366SOL    HW118731   2.569   0.860  13.246 -1.8341  0.1786  1.5534
 2366SOL    HW218732   2.686   0.956  13.253  0.8327 -1.1373  2.1248
 2367SOL     OW18733   4.327   0.262   3.955 -0.0662  0.0462  0.3371
 2367SOL    HW118734   4.297   0.172   3.970 -1.8889  0.7956  1.0760
 2367SOL    HW218735   4.252   0.316   3.929  0.7420  0.9912 -0.0427
 2368SOL     OW18736   4.020   4.708  14.743  0.9418 -0.1031 -0.2214
 2368SOL    HW118737   3.931   4.726  14.713  1.4599  0.3090 -1.5310
 2368SOL    HW218738   4.022   4.617  14.712 -0.2446 -0.2808  0.2376
 2369SOL     OW18739   4.602   1.929  16.145  0.3923 -0.1985  0.7499
 2369SOL    HW118740   4.550   1.850  16.161  1.1789 -0.9696 -0.4001
 2369SOL    HW218741   4.631   1.897  16.059 -0.3243  0.7093  0.1711
 2370SOL     OW18742   1.102   2.442   3.361 -0.3198 -0.1654  0.1429
 2370SOL    HW118743   1.029   2.482   3.408 -1.2484 -1.5965 -0.0706
 2370SOL    HW218744   1.174   2.470   3.417  0.5149 -1.2671 -0.3772
 2371SOL     OW18745   3.838   0.838   3.701  0.0054 -0.2616 -0.3034
 2371SOL    HW118746   3.832   0.910   3.639 -2.8985  0.2064  0.5229
 2371SOL    HW218747   3.787   0.764   3.667 -2.0420  2.2310 -2.5931
 2372SOL     OW18748   0.994   1.508   8.990 -0.3865  0.0348 -0.1482
 2372SOL    HW118749   0.964   1.423   9.021  1.0830 -0.3445  0.2354
 2372SOL    HW218750   0.907   1.539   8.962 -0.5290 -1.1636 -1.0038
 2373SOL     OW18751   4.435   2.239   1.924  0.1814 -0.0359  0.5208
 2373SOL    HW118752   4.454   2.179   1.852  1.7478  0.9069  0.1508
 2373SOL    HW218753   4.412   2.179   1.994 -2.6845  0.9847  0.4851
 2374SOL     OW18754   3.539   3.486   6.813  0.3715 -0.1198 -0.1380
 2374SOL    HW118755   3.466   3.491   6.751  0.3686 -1.4212 -0.2486
 2374SOL    HW218756   3.601   3.552   6.783  1.6738 -0.0668  2.6429
 2375SOL     OW18757   3.369   0.043   7.984  0.2938  0.0107  0.3633
 2375SOL    HW118758   3.386   0.130   7.949 -0.5582 -0.8638 -2.2763
 2375SOL    HW218759   3.336   0.000   7.905  1.1951 -1.7837  0.9495
 2376SOL     OW18760   0.221   2.306   4.577  0.3640  0.7671 -0.2280
 2376SOL    HW118761   0.183   2.393   4.588  0.0554  0.4259  1.3937
 2376SOL    HW218762   0.221   2.284   4.670  0.3156  1.5422 -0.0441
 2377SOL     OW18763   3.519   0.208   7.376 -0.4138 -0.0347 -0.3824
 2377SOL    HW118764   3.518   0.180   7.285 -2.2890  1.3623 -0.7831
 2377SOL    HW218765   3.574   0.286   7.377  2.9857 -2.4436 -0.7254
 2378SOL     OW18766   1.430   0.708  16.959  0.4856 -0.1381 -0.6214
 2378SOL    HW118767   1.392   0.796  16.950 -0.0266 -0.5618 -2.6273
 2378SOL    HW218768   1.362   0.659  16.913  3.1051 -0.8928 -3.6641
 2379SOL     OW18769   2.951   1.665   6.303  0.2070  0.2323  0.1474
 2379SOL    HW118770   2.906   1.580   6.309  1.4530 -0.3958  0.6535
 2379SOL    HW218771   3.042   1.641   6.322  0.0656 -0.9949 -0.6740
 2380SOL     OW18772   1.155   1.386   2.487  0.2151 -0.1976 -0.6009
 2380SOL    HW118773   1.208   1.350   2.558 -0.7650 -0.8641 -0.2042
 2380SOL    HW218774   1.226   1.429   2.440  0.7826  1.2811  1.5901
 2381SOL     OW18775   0.460   1.770   2.820  0.5932  0.2148 -0.0996
 2381SOL    HW118776   0.453   1.683   2.860 -1.6617  1.1841  1.6184
 2381SOL    HW218777   0.497   1.824   2.890  1.2392 -0.4014  0.0393
 2382SOL     OW18778   0.272   3.215   5.219 -0.7316  0.2436  0.1673
 2382SOL    HW118779   0.244   3.301   5.187  1.0555  0.1609 -1.6581
 2382SOL    HW218780   0.185   3.181   5.237 -1.4095  1.6830 -0.3966
 2383SOL     OW18781   2.826   3.156  12.078  0.1849  0.1515 -0.4142
 2383SOL    HW118782   2.878   3.139  12.157  1.6389  1.5573 -1.0724
 2383SOL    HW218783   2.902   3.157  12.020 -0.5000 -1.5224 -1.3396
 2384SOL     OW18784   3.400   0.309   7.932 -0.1855 -0.1364 -0.3025
 2384SOL    HW118785   3.482   0.346   7.966  1.9019 -1.0429 -4.3411
 2384SOL    HW218786   3.335   0.365   7.974  0.1480 -0.9792  1.3767
 2385SOL     OW18787   3.408   2.702  12.303 -0.0851  0.5216  0.1237
 2385SOL    HW118788   3.444   2.789  12.284 -2.7274  1.6097  0.0497
 2385SOL    HW218789   3.486   2.660  12.339 -0.2918  0.8478  0.9473
 2386SOL     OW18790   4.205   2.135   5.149  0.3949 -0.2114 -0.2176
 2386SOL    HW118791   4.299   2.137   5.170  0.1974 -1.8234  0.8850
 2386SOL    HW218792   4.167   2.101   5.230  0.6368  0.8649  0.3430
 2387SOL     OW18793   0.953   0.288   7.300  0.3815 -0.0862 -0.4459
 2387SOL    HW118794   1.024   0.232   7.332  0.3520  1.3371  2.1461
 2387SOL    HW218795   1.000   0.347   7.242  0.2960  2.1693  1.7609
 2388SOL     OW18796   0.613   1.180  13.397 -0.0520 -0.2044 -0.2560
 2388SOL    HW118797   0.672   1.106  13.384  0.7732  0.7915 -2.0629
 2388SOL    HW218798   0.574   1.152  13.480  1.0167  1.8669  0.9691
 2389SOL     OW18799   2.415   3.489   2.757  0.0367  0.2297  0.0173
 2389SOL    HW118800   2.374   3.463   2.839 -1.0366 -0.4239 -0.7473
 2389SOL    HW218801   2.431   3.408   2.709 -0.3344  0.6134 -0.7503
 2390SOL     OW18802   2.387   4.381   6.712  0.1616 -0.3099 -0.4982
 2390SOL    HW118803   2.394   4.429   6.630 -0.3058 -2.5443 -1.8715
 2390SOL    HW218804   2.325   4.432   6.764  0.9777 -3.0428  3.1954
 2391SOL     OW18805   3.948   1.133   5.815  0.0918  0.1897  0.4729
 2391SOL    HW118806   3.969   1.107   5.905  2.0654 -0.9247 -0.3118
 2391SOL    HW218807   3.897   1.213   5.827  1.0262  0.8053  0.3522
 2392SOL     OW18808   1.339   4.178   0.886 -0.0311 -0.2775 -0.4154
 2392SOL    HW118809   1.433   4.181   0.870  0.3457 -2.7520  1.3766
 2392SOL    HW218810   1.322   4.084   0.887 -0.5274 -0.1777  0.4151
 2393SOL     OW18811   3.069   2.075   7.762  0.0765 -0.0357  0.1971
 2393SOL    HW118812   3.023   2.047   7.840 -1.6088  0.6389 -0.5642
 2393SOL    HW218813   3.004   2.137   7.729 -0.7675 -1.7069 -1.2991
 2394SOL     OW18814   1.384   3.390   8.639  0.4641 -0.5624  0.3809
 2394SOL    HW118815   1.403   3.465   8.696  0.1164  0.3492 -0.7115
 2394SOL    HW218816   1.392   3.423   8.550  1.2018  1.4970  1.2120
 2395SOL     OW18817   4.312   0.306   6.188  0.1445  0.2255 -0.1487
 2395SOL    HW118818   4.243   0.252   6.150  0.3361 -1.0029  1.2498
 2395SOL    HW218819   4.388   0.248   6.197  0.9669  1.7099  2.4047
 2396SOL     OW18820   3.998   4.020  11.850 -0.0542 -0.4529 -0.1241
 2396SOL    HW118821   4.047   3.942  11.875 -2.7495 -2.6129 -1.5481
 2396SOL    HW218822   3.961   4.034  11.938 -0.5197 -1.4202 -0.1560
 2397SOL     OW18823   1.186   1.577  13.187 -0.1039  0.0352  0.3610
 2397SOL    HW118824   1.143   1.586  13.273  0.5655 -1.1842  0.8203
 2397SOL    HW218825   1.278   1.585  13.212  0.1922  1.8434 -1.3319
 2398SOL     OW18826   2.665   2.333   7.035 -0.2491  0.7940 -0.0479
 2398SOL    HW118827   2.726   2.394   7.076 -2.0812  2.5372  0.0416
 2398SOL    HW218828   2.684   2.360   6.945  1.8550 -3.7126 -0.9858
 2399SOL     OW18829   1.963   4.028  15.498  0.4523  0.2262  0.0246
 2399SOL    HW118830   1.878   4.071  15.489  0.2034 -0.9702 -3.3260
 2399SOL    HW218831   1.951   3.946  15.450  0.6014  0.1956  0.0401
 2400SOL     OW18832   1.448   2.102   7.995  0.8509  0.2416  0.0150
 2400SOL    HW118833   1.402   2.185   7.985 -0.1739 -0.1405  1.6185
 2400SOL    HW218834   1.421   2.079   8.084 -1.8551  2.2075 -0.3394
 2401SOL     OW18835   2.892   0.867  17.262 -0.3387  0.4221  0.3362
 2401SOL    HW118836   2.824   0.800  17.251 -0.6147  0.5734  1.0905
 2401SOL    HW218837   2.855   0.942  17.309 -2.2032 -0.3920  0.1904
 2402SOL     OW18838   2.951   1.048   4.491 -0.1527  0.3552 -0.3717
 2402SOL    HW118839   3.038   1.043   4.529 -0.9225 -1.2770  1.1897
 2402SOL    HW218840   2.892   1.015   4.559 -1.4405  1.3092 -1.0291
 2403SOL     OW18841   4.298   1.905   6.251  0.2956  0.1757  0.0396
 2403SOL    HW118842   4.281   1.837   6.187 -1.7749 -1.0237  1.8679
 2403SOL    HW218843   4.379   1.943   6.216  1.2014 -0.9400  0.9010
 2404SOL     OW18844   2.540   2.532  11.948 -0.4620  0.0890  0.1418
 2404SOL    HW118845   2.616   2.560  11.998  0.0005 -2.7408  1.0534
 2404SOL    HW218846   2.538   2.437  11.958  0.7355  0.0678  0.1145
 2405SOL     OW18847   4.139   1.544   2.862  0.1746  0.2765 -0.2908
 2405SOL    HW118848   4.168   1.459   2.894  1.6199  1.1699  0.7505
 2405SOL    HW218849   4.144   1.594   2.944  2.7032  0.0228 -0.3035
 2406SOL     OW18850   4.637   1.775   5.178  0.0474 -0.2549 -0.4355
 2406SOL    HW118851   4.613   1.823   5.098  1.2989 -0.5030 -0.9642
 2406SOL    HW218852   4.622   1.683   5.156  0.9310 -0.2012 -1.2934
 2407SOL     OW18853   1.930   3.915   1.199 -0.1981 -0.1038  0.4043
 2407SOL    HW118854   2.009   3.918   1.253  0.8252  3.0540 -1.2843
 2407SOL    HW218855   1.895   3.833   1.235 -1.0705  1.5788  3.4001
 2408SOL     OW18856   2.338   2.821  15.981  0.0881 -0.2019  0.3661
 2408SOL    HW118857   2.277   2.814  15.907  1.2242  0.0498 -0.6022
 2408SOL    HW218858   2.418   2.847  15.935  0.0646 -1.5007 -0.4176
 2409SOL     OW18859   0.484   2.164   9.787  0.0452 -0.1310  0.1992
 2409SOL    HW118860   0.545   2.217   9.838  0.6740  0.3157 -1.0419
 2409SOL    HW218861   0.535   2.132   9.713 -1.5917  0.1547 -1.0578
 2410SOL     OW18862   2.565   3.215  15.803  0.1573 -0.0744 -0.0908
 2410SOL    HW118863   2.624   3.247  15.871 -0.4206 -1.0701  0.8897
 2410SOL    HW218864   2.508   3.171  15.867  1.2529  1.6205  2.0450
 2411SOL     OW18865   0.032   1.120   8.903 -0.0026  0.4939  0.0280
 2411SOL    HW118866   4.700   1.133   8.838  1.2188 -2.6221 -1.8946
 2411SOL    HW218867   0.023   1.025   8.902  1.5252  0.3514 -0.8488
 2412SOL     OW18868   4.280   2.116   0.345 -0.0538 -0.7856  0.1209
 2412SOL    HW118869   4.253   2.125   0.254 -3.1909 -1.1411  0.9976
 2412SOL    HW218870   4.200   2.148   0.387 -0.6545  0.8894 -2.3254
 2413SOL     OW18871   1.490   1.526   9.208 -0.3489  0.4220  0.5643
 2413SOL    HW118872   1.491   1.619   9.186 -0.1788  0.0509 -0.9863
 2413SOL    HW218873   1.469   1.533   9.301 -2.4202 -2.8094  0.3585
 2414SOL     OW18874   4.234   4.726   2.285 -0.8843  0.0334  1.0182
 2414SOL    HW118875   4.223   4.659   2.218 -0.5625 -0.4838  1.4845
 2414SOL    HW218876   4.176   0.058   2.250  0.3530 -0.0526 -1.2441
 2415SOL     OW18877   4.599   1.953   7.055 -0.2735 -0.1153 -0.6641
 2415SOL    HW118878   4.509   1.935   7.083 -0.0312  0.0748  0.2514
 2415SOL    HW218879   4.602   2.045   7.079 -0.8205  0.3252 -2.2705
 2416SOL     OW18880   4.395   1.710   2.366  0.1458  0.1161  0.2669
 2416SOL    HW118881   4.356   1.704   2.278  2.2913  0.1603 -0.6803
 2416SOL    HW218882   4.321   1.687   2.423  0.0987 -3.2314 -1.1412
 2417SOL     OW18883   0.470   1.332   7.091  0.0480 -0.1879  0.4414
 2417SOL    HW118884   0.388   1.333   7.141  0.2497  0.2219  0.7617
 2417SOL    HW218885   0.502   1.252   7.132  2.2486  1.2791  1.5978
 2418SOL     OW18886   1.748   4.152  10.690  0.4494  0.7113  0.1424
 2418SOL    HW118887   1.833   4.144  10.647 -0.1935  0.0425 -1.0132
 2418SOL    HW218888   1.695   4.104  10.626  3.6831 -1.6463 -0.7689
 2419SOL     OW18889   2.200   1.376   0.560 -0.0994 -0.0422 -0.4007
 2419SOL    HW118890   2.107   1.391   0.575  0.2694  0.1355  1.6244
 2419SOL    HW218891   2.207   1.284   0.536 -0.5382 -0.2651  0.3356
 2420SOL     OW18892   3.876   3.752   1.160  0.4611  0.8292  0.2878
 2420SOL    HW118893   3.894   3.660   1.179 -1.5281  0.2907 -0.3836
 2420SOL    HW218894   3.855   3.793   1.244 -1.5957  1.6488 -0.6237
 2421SOL     OW18895   2.825   2.747   5.986 -0.9079 -0.0091 -0.1433
 2421SOL    HW118896   2.786   2.674   5.938 -1.0517 -2.0072  3.0499
 2421SOL    HW218897   2.917   2.748   5.960 -0.1654  1.4868  2.5416
 2422SOL     OW18898   2.193   2.785  15.731 -0.1120  0.1646  0.0118
 2422SOL    HW118899   2.207   2.851  15.664 -1.7893  2.7504  2.2282
 2422SOL    HW218900   2.127   2.827  15.786  1.5458  1.0115  1.3581
 2423SOL     OW18901   2.556   4.211   6.845  0.4160 -0.1794 -0.3955
 2423SOL    HW118902   2.499   4.270   6.797  1.3868  3.4238  2.8222
 2423SOL    HW218903   2.530   4.222   6.937  0.3871 -1.2392 -0.2816
 2424SOL     OW18904   4.584   0.965   8.138  0.2954 -0.4442 -0.2316
 2424SOL    HW118905   4.662   1.007   8.102 -0.5352  1.0067 -0.3035
 2424SOL    HW218906   4.610   0.967   8.231 -0.0398 -0.0493 -0.1479
 2425SOL     OW18907   3.845   2.001   5.743 -0.1695  0.6265  0.7490
 2425SOL    HW118908   3.766   2.049   5.765  0.0989  1.6807 -0.6061
 2425SOL    HW218909   3.830   1.915   5.783  2.1238 -0.9718 -1.8066
 2426SOL     OW18910   2.925   3.987   4.360 -0.4199  0.1786  0.5178
 2426SOL    HW118911   2.987   4.060   4.353  2.0370 -2.2873 -3.1308
 2426SOL    HW218912   2.889   3.987   4.449  0.1203  0.2371  0.7354
 2427SOL     OW18913   1.907   3.491   9.744 -0.7135  0.0101 -0.1441
 2427SOL    HW118914   1.837   3.426   9.742  0.5600 -1.3853 -0.0353
 2427SOL    HW218915   1.925   3.485   9.837  1.2559  1.7537 -0.4220
 2428SOL     OW18916   2.674   4.693  16.904 -0.0096  0.0341  0.5830
 2428SOL    HW118917   2.635   0.038  16.873  2.7079  2.5031  3.7083
 2428SOL    HW218918   2.667   4.637  16.827 -0.3989  3.0948 -1.6038
 2429SOL     OW18919   4.338   4.053   8.565 -0.1271 -0.5728  0.1218
 2429SOL    HW118920   4.357   4.010   8.649 -1.1539  0.3544  0.8341
 2429SOL    HW218921   4.342   4.146   8.585  0.2227 -0.6428  0.3784
 2430SOL     OW18922   1.553   3.159  10.484  0.3683 -0.3155 -0.7579
 2430SOL    HW118923   1.474   3.128  10.527  0.3455 -0.9366 -1.2480
 2430SOL    HW218924   1.554   3.255  10.483 -1.3195 -0.3405 -2.7203
 2431SOL     OW18925   3.603   2.086  13.562 -0.2161 -0.0741 -0.4441
 2431SOL    HW118926   3.527   2.054  13.611 -0.2276  0.0968 -0.3524
 2431SOL    HW218927   3.662   2.011  13.561  0.0130  0.1211 -2.6611
 2432SOL     OW18928   0.348   1.067   8.741  0.0051 -0.2621  0.5202
 2432SOL    HW118929   0.367   1.074   8.835  0.9515 -0.8767  0.3715
 2432SOL    HW218930   0.266   1.019   8.752 -0.5736  0.2960 -1.4266
 2433SOL     OW18931   1.571   1.639   3.575 -0.3447 -0.0946  0.5368
 2433SOL    HW118932   1.654   1.662   3.619  0.8355 -1.6993 -0.8574
 2433SOL    HW218933   1.606   1.591   3.500 -2.6561  0.7283 -1.0452
 2434SOL     OW18934   0.740   4.190   3.622  0.4465 -0.1702 -0.0692
 2434SOL    HW118935   0.776   4.104   3.600 -1.2337 -1.3586  1.8810
 2434SOL    HW218936   0.697   4.217   3.542  1.1340 -2.2054 -1.1257
 2435SOL     OW18937   4.431   0.293   4.214 -0.4790 -0.2196  0.7845
 2435SOL    HW118938   4.525   0.313   4.210  0.0924 -2.9553  0.9725
 2435SOL    HW218939   4.409   0.279   4.122  0.6991  2.7650  0.0515
 2436SOL     OW18940   2.594   4.071  11.546 -0.1298  0.2442  0.3118
 2436SOL    HW118941   2.675   4.022  11.561 -0.5217 -1.0659 -1.7510
 2436SOL    HW218942   2.526   4.015  11.584 -0.8806  0.8169 -0.1793
 2437SOL     OW18943   1.843   1.377   8.294 -0.7572  0.2934 -0.3588
 2437SOL    HW118944   1.847   1.440   8.366 -1.9211  0.6949 -0.6373
 2437SOL    HW218945   1.787   1.307   8.329 -0.4395  0.5484  0.6850
 2438SOL     OW18946   0.735   1.636   3.304 -0.5425 -0.7932 -0.4882
 2438SOL    HW118947   0.754   1.701   3.372  3.2880 -1.7059 -0.7189
 2438SOL    HW218948   0.691   1.563   3.348 -1.2340  0.9197  1.6412
 2439SOL     OW18949   4.570   3.618   4.269  0.0765  0.2256  0.2467
 2439SOL    HW118950   4.482   3.654   4.275  0.3251  0.9840 -0.6017
 2439SOL    HW218951   4.599   3.622   4.177  0.4609  1.2542  0.4189
 2440SOL     OW18952   0.067   2.654   8.318 -0.2384  0.3288 -0.1788
 2440SOL    HW118953   0.115   2.702   8.251 -1.1521  2.5537  0.7883
 2440SOL    HW218954   0.099   2.688   8.401  2.3391 -0.4909 -0.8357
 2441SOL     OW18955   4.425   1.499   0.705 -0.0589 -1.1654 -0.1569
 2441SOL    HW118956   4.498   1.441   0.725  1.1269 -0.4196 -2.3595
 2441SOL    HW218957   4.423   1.492   0.610 -1.5594 -0.8534 -0.1555
 2442SOL     OW18958   3.438   0.067   3.077 -0.0664 -0.5138 -0.0814
 2442SOL    HW118959   3.434   0.021   2.993 -0.1484  1.3087 -1.0748
 2442SOL    HW218960   3.525   0.055   3.115  0.7422 -0.0190 -1.7691
 2443SOL     OW18961   1.656   0.265   8.343  0.1227  0.3343  0.0304
 2443SOL    HW118962   1.574   0.283   8.390  1.3167 -0.5268  2.4717
 2443SOL    HW218963   1.716   0.263   8.418 -0.4026 -3.1436  0.3980
 2444SOL     OW18964   4.215   4.276   6.442 -0.4830 -0.2393  0.1614
 2444SOL    HW118965   4.152   4.295   6.373  0.0209  0.9162  0.0181
 2444SOL    HW218966   4.219   4.181   6.451  0.0109 -0.3794 -1.5003
 2445SOL     OW18967   0.197   4.070   8.247 -0.2718  0.7833  0.2779
 2445SOL    HW118968   0.232   4.149   8.206 -1.2094  0.2211 -1.6259
 2445SOL    HW218969   0.138   4.042   8.176  1.1582  0.6011 -0.8446
 2446SOL     OW18970   1.372   1.472  16.244  0.0806 -0.0545 -0.1116
 2446SOL    HW118971   1.440   1.510  16.299  0.9037 -0.1189 -1.0762
 2446SOL    HW218972   1.406   1.384  16.227  0.9014  0.3032 -0.3009
 2447SOL     OW18973   1.627   1.399   3.805  0.1190  0.1954  0.1582
 2447SOL    HW118974   1.631   1.384   3.710  1.7460 -0.9597  0.4118
 2447SOL    HW218975   1.670   1.485   3.810 -0.2559  0.3058  1.4349
 2448SOL     OW18976   1.066   2.559  13.011  0.7206 -0.4809  0.2684
 2448SOL    HW118977   1.039   2.574  13.101  0.0780 -1.7521  0.2912
 2448SOL    HW218978   1.015   2.481  12.988  0.3978  0.1393 -1.1072
 2449SOL     OW18979   2.508   0.874   6.573  0.0455  0.3608  0.6179
 2449SOL    HW118980   2.539   0.912   6.490  0.2445 -0.2984  0.3883
 2449SOL    HW218981   2.554   0.925   6.639  1.2376  1.3832 -0.9817
 2450SOL     OW18982   0.819   1.641   4.867  0.0709 -0.1392 -0.4170
 2450SOL    HW118983   0.760   1.573   4.834  1.0937 -0.7333 -1.0104
 2450SOL    HW218984   0.873   1.653   4.788 -0.4363  3.3947 -0.2029
 2451SOL     OW18985   2.176   1.423   7.926 -0.5973  0.0082  0.2190
 2451SOL    HW118986   2.242   1.491   7.910  1.4620 -1.8226  0.9273
 2451SOL    HW218987   2.124   1.478   7.985 -1.6255  0.3856 -1.0415
 2452SOL     OW18988   0.382   1.695   8.216  0.0645  0.4377  0.4314
 2452SOL    HW118989   0.325   1.619   8.204 -0.4841  1.0713 -0.9472
 2452SOL    HW218990   0.393   1.695   8.311 -0.8383 -0.0258  0.5380
 2453SOL     OW18991   0.166   3.791  16.386  0.4057 -0.2226  0.1834
 2453SOL    HW118992   0.235   3.853  16.363  0.8192 -0.7545 -0.0154
 2453SOL    HW218993   0.147   3.761  16.297  1.0889  1.1877 -0.4305
 2454SOL     OW18994   0.188   0.091   2.705  0.1731 -0.2388 -0.3652
 2454SOL    HW118995   0.213   0.119   2.793  0.8577 -0.9971 -0.3225
 2454SOL    HW218996   0.165   4.735   2.717  0.9530 -0.2200  1.2745
 2455SOL     OW18997   0.881   4.365   2.603 -0.3076  0.0140 -0.0830
 2455SOL    HW118998   0.803   4.320   2.569 -0.8898 -0.6905  2.1471
 2455SOL    HW218999   0.854   4.367   2.695 -1.5557 -1.6139 -0.4172
 2456SOL     OW19000   1.608   0.455   0.213  0.2818 -0.2567  0.8192
 2456SOL    HW119001   1.649   0.379   0.172 -2.1028 -1.5900  0.9547
 2456SOL    HW219002   1.571   0.413   0.290 -0.9135 -0.3629  0.1843
 2457SOL     OW19003   1.734   4.355   3.452 -0.1971 -0.3883  0.1489
 2457SOL    HW119004   1.704   4.280   3.401  0.3865 -0.8957  0.5552
 2457SOL    HW219005   1.660   4.415   3.437 -1.3444 -1.7939  0.2591
 2458SOL     OW19006   1.271   1.938   2.723 -0.3338  0.4670  0.6448
 2458SOL    HW119007   1.189   1.945   2.772 -0.0694  0.1014  1.1260
 2458SOL    HW219008   1.239   1.872   2.662  0.0594  1.1234 -0.2720
 2459SOL     OW19009   0.010   1.876   1.762  0.4109  0.1259 -0.5930
 2459SOL    HW119010   0.033   1.830   1.843  0.0131 -0.9186 -1.0743
 2459SOL    HW219011   4.724   1.965   1.789  1.1175 -0.1761  1.0451
 2460SOL     OW19012   4.269   1.985   9.501  0.4472  0.3030 -0.2648
 2460SOL    HW119013   4.179   1.982   9.470  1.1976  0.8290 -2.4486
 2460SOL    HW219014   4.291   1.896   9.529  1.7382  0.5825 -0.3946
 2461SOL     OW19015   4.661   0.910   7.788 -0.0306 -0.5506  0.3816
 2461SOL    HW119016   4.736   0.880   7.737 -0.0233  0.5007 -0.2341
 2461SOL    HW219017   4.616   0.826   7.785  0.4474 -0.8133  0.6690
 2462SOL     OW19018   3.514   2.343   8.237 -0.0216  0.1923 -0.4853
 2462SOL    HW119019   3.436   2.398   8.247  1.2710  1.9017  0.2735
 2462SOL    HW219020   3.487   2.253   8.251  1.4376  0.2284  2.6375
 2463SOL     OW19021   0.208   3.003   1.705 -0.0508  0.2793 -0.4255
 2463SOL    HW119022   0.168   2.917   1.689  0.3825 -0.2120  1.1236
 2463SOL    HW219023   0.138   3.037   1.759  1.2532  1.0666  0.7790
 2464SOL     OW19024   0.770   2.107  13.131  0.1919 -0.5578 -0.0480
 2464SOL    HW119025   0.679   2.134  13.144  0.1296  0.2962 -2.1205
 2464SOL    HW219026   0.769   2.117  13.035  0.1015  0.2469  0.0325
 2465SOL     OW19027   2.495   1.380  15.048 -0.3579 -0.5720  0.2333
 2465SOL    HW119028   2.583   1.350  15.071  0.0472  0.0657 -0.4499
 2465SOL    HW219029   2.476   1.466  15.086  1.6440  0.0150 -0.0490
 2466SOL     OW19030   1.252   3.735  16.068 -0.7349  0.2290  0.4556
 2466SOL    HW119031   1.178   3.683  16.036 -0.0824 -1.2009  1.2862
 2466SOL    HW219032   1.224   3.814  16.021 -0.0461 -0.1475 -0.5912
 2467SOL     OW19033   2.257   1.915   7.065 -0.0961  0.1819 -0.5088
 2467SOL    HW119034   2.295   1.907   7.152  1.3833 -1.2539 -1.2876
 2467SOL    HW219035   2.240   1.822   7.051 -0.4460  0.4255 -1.7548
 2468SOL     OW19036   1.253   1.429   8.759  0.4207  0.3437 -0.5274
 2468SOL    HW119037   1.175   1.415   8.814  1.1080 -2.3764 -0.2488
 2468SOL    HW219038   1.230   1.373   8.686 -0.6375  0.5837 -0.3819
 2469SOL     OW19039   0.260   0.936  15.203 -0.1616  0.2209 -0.1353
 2469SOL    HW119040   0.183   0.986  15.177  0.1851  0.8050 -0.0303
 2469SOL    HW219041   0.324   1.006  15.213  0.9179 -0.4134 -2.5252
 2470SOL     OW19042   0.194   0.073   4.171  0.0230 -0.1281 -0.5906
 2470SOL    HW119043   0.118   0.094   4.225  0.0452 -1.0155 -0.2149
 2470SOL    HW219044   0.231   0.157   4.145  1.8546 -0.9244 -0.5374
 2471SOL     OW19045   3.615   2.204  13.299  0.0067 -0.7860  0.2554
 2471SOL    HW119046   3.604   2.155  13.380 -2.6748  3.5645  2.5423
 2471SOL    HW219047   3.546   2.162  13.248  0.6393 -0.6114 -0.7438
 2472SOL     OW19048   2.144   0.940   6.785 -0.5646 -0.5840  0.5336
 2472SOL    HW119049   2.105   1.027   6.772  1.0139  0.0815  0.1575
 2472SOL    HW219050   2.123   0.941   6.878 -1.7853  0.3166  0.2462
 2473SOL     OW19051   3.633   4.674   7.667 -0.2828  0.0837  0.1087
 2473SOL    HW119052   3.539   4.684   7.680 -0.3678 -0.5958  0.0293
 2473SOL    HW219053   3.640   4.662   7.572  1.3804 -1.7319  0.4467
 2474SOL     OW19054   1.367   3.188   7.838  1.1231  0.1672 -0.3399
 2474SOL    HW119055   1.362   3.238   7.920 -2.4456 -3.0168  1.3664
 2474SOL    HW219056   1.293   3.128   7.841  0.3444  1.2839  2.8971
 2475SOL     OW19057   1.928   4.555  10.616  0.7139  0.6040 -0.7164
 2475SOL    HW119058   1.987   4.555  10.540 -1.4534 -0.1097 -2.4033
 2475SOL    HW219059   1.961   4.600  10.693  1.2243  1.2046 -1.2925
 2476SOL     OW19060   2.427   1.978   2.740 -0.0469  0.2903  0.2194
 2476SOL    HW119061   2.368   2.005   2.811 -1.7343 -0.3769 -0.9117
 2476SOL    HW219062   2.495   1.930   2.786  0.9047  1.7385  0.3084
 2477SOL     OW19063   0.789   1.883  10.922 -0.0865  0.3640  0.6641
 2477SOL    HW119064   0.711   1.929  10.890 -1.3254 -1.9381  0.3288
 2477SOL    HW219065   0.858   1.909  10.861 -1.1934  0.0288 -0.7474
 2478SOL     OW19066   2.266   1.477   0.165 -0.1584 -0.4184 -0.3227
 2478SOL    HW119067   2.233   1.505   0.079 -2.4783 -1.0101  0.3729
 2478SOL    HW219068   2.198   1.422   0.204  1.1206 -1.8282 -0.1281
 2479SOL     OW19069   3.161   0.865  13.121  0.2483 -0.3832  0.2288
 2479SOL    HW119070   3.254   0.852  13.104 -0.0499 -1.1069 -0.9236
 2479SOL    HW219071   3.170   0.917  13.200  0.2827  1.8223 -1.2179
 2480SOL     OW19072   1.668   2.532   3.714  0.2748  0.1049  0.1141
 2480SOL    HW119073   1.705   2.496   3.795 -1.0371 -1.6794 -0.0914
 2480SOL    HW219074   1.733   2.592   3.678  1.0606 -1.2469 -0.7278
 2481SOL     OW19075   3.966   2.173  12.315 -0.4769 -0.3320  0.0642
 2481SOL    HW119076   4.046   2.157  12.367  0.5149  0.0846 -1.3467
 2481SOL    HW219077   3.904   2.195  12.385  0.8387  1.4869  0.6743
 2482SOL     OW19078   3.731   2.674   5.569 -0.8010  0.1920 -0.7777
 2482SOL    HW119079   3.641   2.644   5.554  0.1148 -1.2324 -3.5767
 2482SOL    HW219080   3.749   2.702   5.479  0.0075  0.0618 -0.6585
 2483SOL     OW19081   0.168   1.670   2.846  0.0874 -0.1684  0.3472
 2483SOL    HW119082   0.160   1.739   2.781  1.1914 -1.1574 -0.8313
 2483SOL    HW219083   0.187   1.717   2.928  0.5497 -1.7489  1.1516
 2484SOL     OW19084   3.063   0.127   8.923 -0.3167  0.6296  0.7272
 2484SOL    HW119085   3.083   0.047   8.874  0.1885  1.2496 -0.0677
 2484SOL    HW219086   3.146   0.173   8.911  0.5476 -0.8454  1.0785
 2485SOL     OW19087   3.087   0.614   4.206 -0.0126 -0.1142  0.3322
 2485SOL    HW119088   3.092   0.695   4.156 -1.1257  0.5641  1.3164
 2485SOL    HW219089   3.100   0.653   4.293  0.2638  1.8595 -0.6083
 2486SOL     OW19090   3.407   2.581   9.181 -0.1620 -1.0824 -0.4151
 2486SOL    HW119091   3.446   2.571   9.268 -1.7249  2.8199  0.7442
 2486SOL    HW219092   3.453   2.659   9.149 -0.0406 -1.2570 -0.6634
 2487SOL     OW19093   3.718   0.517   6.798 -0.3444  0.0206  0.7270
 2487SOL    HW119094   3.669   0.436   6.809 -0.8117 -0.0533 -1.9795
 2487SOL    HW219095   3.754   0.507   6.710 -0.0866  0.3025  0.7997
 2488SOL     OW19096   4.431   4.566   5.521 -0.3575  0.1262  0.2804
 2488SOL    HW119097   4.492   4.534   5.587  0.9275  0.1473 -0.9029
 2488SOL    HW219098   4.350   4.524   5.549 -0.0775 -0.6789 -0.1266
 2489SOL     OW19099   3.603   3.707   4.555  0.3653  0.3203  0.5159
 2489SOL    HW119100   3.695   3.701   4.581  0.4799 -2.3300 -0.4980
 2489SOL    HW219101   3.600   3.699   4.460  1.2450 -2.7207  0.7413
 2490SOL     OW19102   4.168   4.475   5.561  0.4461 -0.1460  0.4845
 2490SOL    HW119103   4.103   4.499   5.496 -0.3387 -0.0274  1.3133
 2490SOL    HW219104   4.127   4.399   5.601  1.1827 -0.6505  0.2819
 2491SOL     OW19105   2.023   3.908   6.380  0.1952 -0.5208  0.0550
 2491SOL    HW119106   2.026   3.838   6.445  0.6115  0.0111  0.6179
 2491SOL    HW219107   1.962   3.970   6.420 -0.2281 -1.9082  1.5733
 2492SOL     OW19108   2.167   0.720  14.639 -0.0825 -0.1110  0.0902
 2492SOL    HW119109   2.221   0.799  14.632  0.4676 -0.6429 -1.5227
 2492SOL    HW219110   2.082   0.752  14.607 -0.2257 -0.5430  0.0419
 2493SOL     OW19111   3.310   4.120   2.534 -0.1334 -0.3215 -0.2851
 2493SOL    HW119112   3.241   4.099   2.471 -0.5900  2.3939 -0.6997
 2493SOL    HW219113   3.306   4.047   2.596  1.8701 -0.3573 -0.1828
 2494SOL     OW19114   3.442   4.131   7.988  0.0485  0.0578  0.3373
 2494SOL    HW119115   3.362   4.081   8.005 -0.1172 -0.5984 -2.2373
 2494SOL    HW219116   3.480   4.139   8.075 -0.2978  0.6375  0.4355
 2495SOL     OW19117   3.423   1.089  13.169  0.1968  0.4738  0.4296
 2495SOL    HW119118   3.458   1.061  13.084 -2.9572 -0.5696 -0.5453
 2495SOL    HW219119   3.501   1.130  13.206 -0.4105  0.5567  1.5896
 2496SOL     OW19120   1.444   2.622   4.751  0.4208 -1.0423 -0.3965
 2496SOL    HW119121   1.447   2.681   4.676 -1.0547 -0.4908 -0.0152
 2496SOL    HW219122   1.518   2.648   4.805  0.3361 -1.9627  0.1738
 2497SOL     OW19123   2.887   0.513   3.383 -0.1130 -0.5316 -0.4291
 2497SOL    HW119124   2.840   0.485   3.304 -0.9224  0.4121 -0.2859
 2497SOL    HW219125   2.964   0.547   3.337  0.2112 -2.7588 -1.5222
 2498SOL     OW19126   4.424   3.256   9.625 -0.3031  0.4143 -0.0352
 2498SOL    HW119127   4.437   3.163   9.642  2.5781  0.4474 -2.1402
 2498SOL    HW219128   4.356   3.280   9.688  0.3188  2.4427 -0.1462
 2499SOL     OW19129   2.615   2.102   3.351 -0.0589 -0.0088  0.4335
 2499SOL    HW119130   2.572   2.184   3.330  0.2040 -0.5748 -2.3122
 2499SOL    HW219131   2.615   2.045   3.274 -1.1203  1.9119 -0.9713
 2500SOL     OW19132   0.086   2.486  16.102  0.7678 -0.5203  0.2313
 2500SOL    HW119133   0.002   2.451  16.071  0.3105  0.2239  0.6247
 2500SOL    HW219134   0.135   2.503  16.022  3.2592  0.9448  2.0722
 2501SOL     OW19135   1.984   3.259  10.991 -0.0385  0.3993  0.0352
 2501SOL    HW119136   2.012   3.175  10.955  0.4903  0.2396  0.8006
 2501SOL    HW219137   1.977   3.236  11.084  0.1310 -0.6592 -0.2215
 2502SOL     OW19138   2.599   3.758   5.819  0.1722 -0.0607 -0.0641
 2502SOL    HW119139   2.533   3.827   5.819  1.2610  0.9632 -3.3907
 2502SOL    HW219140   2.602   3.724   5.909  1.1652  0.1805 -0.0071
 2503SOL     OW19141   1.496   0.748  13.288  0.1121  0.4869 -0.5816
 2503SOL    HW119142   1.553   0.671  13.295  2.2987  2.1333 -0.5135
 2503SOL    HW219143   1.422   0.711  13.336  0.1052  0.2297 -0.7889
 2504SOL     OW19144   4.085   1.739   0.744 -0.1791 -0.3241 -0.2033
 2504SOL    HW119145   4.138   1.683   0.801  0.2471 -0.2185 -0.4964
 2504SOL    HW219146   4.147   1.746   0.671  0.2685 -0.9862  0.1081
 2505SOL     OW19147   2.473   1.311  15.402  0.4246 -0.0924  0.3794
 2505SOL    HW119148   2.450   1.342  15.490 -0.8728 -0.5065  0.1751
 2505SOL    HW219149   2.425   1.367  15.342 -1.8547 -0.3431  1.9544
 2506SOL     OW19150   2.868   2.339   4.511 -0.4148  0.3725 -0.3920
 2506SOL    HW119151   2.815   2.313   4.587 -3.1007 -2.1400 -3.1281
 2506SOL    HW219152   2.808   2.326   4.438 -1.6720  1.9614  0.3607
 2507SOL     OW19153   4.605   2.404   2.091 -0.0306 -0.4372  0.1473
 2507SOL    HW119154   4.549   2.478   2.116  2.7119  0.6661  3.0479
 2507SOL    HW219155   4.544   2.358   2.033 -0.9204 -0.4329  1.0737
 2508SOL     OW19156   3.632   1.180   3.413 -0.5810  0.3286 -0.8102
 2508SOL    HW119157   3.653   1.238   3.486  0.1531 -1.5611  0.4700
 2508SOL    HW219158   3.544   1.151   3.439 -0.0612  1.3088  1.9999
 2509SOL     OW19159   4.126   1.176   6.247  0.1782 -0.6166 -0.1074
 2509SOL    HW119160   4.175   1.224   6.314 -0.0883 -0.0929 -0.2863
 2509SOL    HW219161   4.198   1.155   6.188  0.2205  2.5998 -1.1876
 2510SOL     OW19162   3.997   3.313   3.495  0.1319 -0.8438 -0.4388
 2510SOL    HW119163   4.006   3.238   3.436 -0.8913 -1.3964  0.0959
 2510SOL    HW219164   4.058   3.372   3.451 -0.5109 -1.5876 -2.2782
 2511SOL     OW19165   4.319   1.881   1.703  0.2891  0.6817  0.3344
 2511SOL    HW119166   4.346   1.793   1.727  0.7988  0.3897 -1.3149
 2511SOL    HW219167   4.387   1.896   1.638  0.2688  0.7603  0.3314
 2512SOL     OW19168   3.221   3.899   0.705 -0.2191  0.9624  0.1279
 2512SOL    HW119169   3.268   3.950   0.771  0.8763 -1.3487  1.1353
 2512SOL    HW219170   3.229   3.811   0.743 -0.7835  0.0746 -1.7879
 2513SOL     OW19171   0.490   1.057   7.591  0.3828  0.2929 -0.2351
 2513SOL    HW119172   0.486   0.969   7.552  0.1956 -0.7371  2.1340
 2513SOL    HW219173   0.493   1.113   7.513  1.3581  0.1939 -0.2699
 2514SOL     OW19174   0.739   1.803  15.322 -0.5357  0.2969  0.7136
 2514SOL    HW119175   0.742   1.735  15.255  1.5941 -0.5440  1.6598
 2514SOL    HW219176   0.734   1.885  15.273 -2.6861 -0.4235 -0.2895
 2515SOL     OW19177   3.848   3.312   8.491 -0.2283 -0.7641  0.0773
 2515SOL    HW119178   3.940   3.309   8.468 -0.3215  0.8166 -0.5103
 2515SOL    HW219179   3.820   3.403   8.497  0.0424 -0.6049 -1.0133
 2516SOL     OW19180   1.162   2.598  16.330  0.4523  0.0559 -0.6793
 2516SOL    HW119181   1.202   2.682  16.354 -0.0013  0.3535 -0.9325
 2516SOL    HW219182   1.142   2.572  16.419  0.0244 -2.2400 -1.4377
 2517SOL     OW19183   2.620   2.839   2.566 -0.3714 -0.3911 -0.0317
 2517SOL    HW119184   2.600   2.802   2.481  1.2039 -1.8157  0.2277
 2517SOL    HW219185   2.601   2.764   2.622 -2.7989 -0.2808 -0.6876
 2518SOL     OW19186   1.470   2.036  16.387 -0.5354  0.0386 -0.1662
 2518SOL    HW119187   1.390   2.056  16.340  0.3229  2.8249 -0.4941
 2518SOL    HW219188   1.520   1.982  16.326 -1.4205  0.3489 -1.1490
 2519SOL     OW19189   2.377   2.168  10.940  0.5437 -0.6126 -0.1493
 2519SOL    HW119190   2.425   2.133  10.865  0.4701 -1.8176  0.3622
 2519SOL    HW219191   2.403   2.259  10.924  0.4524 -0.5481  0.0645
 2520SOL     OW19192   2.909   2.509   5.098 -0.0233  0.2332  0.9466
 2520SOL    HW119193   2.833   2.491   5.043  2.2258 -0.5222 -1.8710
 2520SOL    HW219194   2.872   2.570   5.163  0.5446  0.7046  0.8202
 2521SOL     OW19195   0.321   2.315   6.202  0.3361  0.4623  0.0747
 2521SOL    HW119196   0.304   2.251   6.133  3.2004 -2.6093  2.2137
 2521SOL    HW219197   0.287   2.276   6.283 -0.5265  0.1846 -0.4193
 2522SOL     OW19198   2.863   2.904   7.699  0.4281  0.0576  0.0912
 2522SOL    HW119199   2.918   2.940   7.629 -0.4300  1.9460  0.3977
 2522SOL    HW219200   2.932   2.854   7.743 -0.5498 -1.8608 -0.5771
 2523SOL     OW19201   2.541   0.087   1.522  0.5141 -0.4739 -0.1061
 2523SOL    HW119202   2.509   0.003   1.554 -1.6911 -0.1417 -1.3942
 2523SOL    HW219203   2.581   0.115   1.605 -0.0196  2.2971 -0.7622
 2524SOL     OW19204   1.637   1.201   4.249  0.3491 -0.2589  0.8350
 2524SOL    HW119205   1.642   1.296   4.252 -0.3481 -0.1891 -0.2172
 2524SOL    HW219206   1.647   1.181   4.342  1.7032  0.9117  0.9406
 2525SOL     OW19207   1.824   4.077   0.256 -0.1539 -0.6186 -0.0312
 2525SOL    HW119208   1.878   4.092   0.334  0.2274 -0.3023 -0.3562
 2525SOL    HW219209   1.839   3.984   0.239  0.2388 -0.8874  1.8456
 2526SOL     OW19210   2.898   3.901   2.374 -0.2238  0.0574 -0.4758
 2526SOL    HW119211   2.804   3.910   2.389 -0.0589  1.1890 -0.1113
 2526SOL    HW219212   2.906   3.806   2.364  1.5223  0.4789 -2.8296
 2527SOL     OW19213   2.515   1.267   9.060  0.1814  0.0267 -0.6981
 2527SOL    HW119214   2.588   1.258   8.999  0.7148  1.5291 -0.2918
 2527SOL    HW219215   2.479   1.348   9.023 -0.9401  0.6038  1.6959
 2528SOL     OW19216   2.022   2.597   5.039  0.0735 -0.4120  0.3716
 2528SOL    HW119217   1.929   2.588   5.058 -0.1511  1.4923  0.2051
 2528SOL    HW219218   2.018   2.654   4.962  1.7707 -0.3222  0.3413
 2529SOL     OW19219   0.562   4.580   1.411 -0.2993 -0.2061  0.3190
 2529SOL    HW119220   0.573   4.540   1.498  0.9570  0.0429  0.2681
 2529SOL    HW219221   0.505   4.654   1.430  0.5788  0.1571  1.5500
 2530SOL     OW19222   1.034   0.340  11.922  0.1170  0.7528 -0.0237
 2530SOL    HW119223   1.001   0.253  11.898  2.4264 -0.0351 -0.3616
 2530SOL    HW219224   0.958   0.379  11.964  0.5436  2.6163 -0.9835
 2531SOL     OW19225   1.957   1.034   5.772  0.4350 -0.2697  0.3692
 2531SOL    HW119226   2.010   1.103   5.732  0.7102  0.0770  1.3318
 2531SOL    HW219227   1.913   1.085   5.840 -0.3299  2.4641 -2.2321
 2532SOL     OW19228   4.435   3.889   0.437 -0.2070  0.8817  0.6753
 2532SOL    HW119229   4.413   3.870   0.347  0.4020 -2.2505  1.2045
 2532SOL    HW219230   4.510   3.949   0.432  0.8308 -0.5321 -0.7063
 2533SOL     OW19231   1.686   3.274  12.144 -0.6808  0.1210  0.1621
 2533SOL    HW119232   1.594   3.297  12.160 -0.1206  1.1501  1.8956
 2533SOL    HW219233   1.713   3.211  12.211 -1.4713  0.9377  1.2484
 2534SOL     OW19234   0.382   1.756   4.443 -0.3385 -0.0269 -0.2723
 2534SOL    HW119235   0.446   1.704   4.395  1.4526  0.2548  1.7769
 2534SOL    HW219236   0.421   1.843   4.429 -0.2525  0.3171  1.9949
 2535SOL     OW19237   4.704   2.778   9.340  0.1895  0.7100 -0.2171
 2535SOL    HW119238   4.716   2.694   9.385 -1.3414  0.1330 -0.9010
 2535SOL    HW219239   4.623   2.809   9.379  0.8780  0.3246  1.5119
 2536SOL     OW19240   2.931   0.187   0.986  0.5635  0.1603  0.3107
 2536SOL    HW119241   2.894   0.226   1.066 -1.1775 -0.2393 -0.2938
 2536SOL    HW219242   2.895   0.237   0.913 -0.3545 -1.9530 -0.6821
 2537SOL     OW19243   3.639   1.939   3.040  0.2333  0.2271 -0.3514
 2537SOL    HW119244   3.607   1.913   2.954  0.0266  0.0378 -0.2202
 2537SOL    HW219245   3.716   1.992   3.018  1.2605 -0.2076  2.1182
 2538SOL     OW19246   4.014   0.365  10.575 -0.4181  0.0988  0.2521
 2538SOL    HW119247   4.085   0.428  10.562  0.9786 -1.1918  1.4868
 2538SOL    HW219248   4.065   0.283  10.575 -2.5681 -1.2259 -0.5542
 2539SOL     OW19249   2.426   0.108   2.659 -0.1448  0.7862 -0.4376
 2539SOL    HW119250   2.430   0.013   2.647 -2.2611  0.8714 -1.7625
 2539SOL    HW219251   2.332   0.120   2.643 -0.2596 -0.4489 -0.7041
 2540SOL     OW19252   2.742   1.055   7.033 -0.1376  0.1694 -0.7346
 2540SOL    HW119253   2.690   1.006   7.096  0.3055  1.0975  0.3741
 2540SOL    HW219254   2.759   1.135   7.083 -0.5885  0.7085 -1.4417
 2541SOL     OW19255   1.792   4.335   9.369  0.1836 -0.4241 -0.4121
 2541SOL    HW119256   1.870   4.378   9.335  0.7947 -2.2015 -1.2233
 2541SOL    HW219257   1.781   4.399   9.440 -1.9855  0.8776 -1.8980
 2542SOL     OW19258   2.537   0.300   5.485  0.1979 -0.6362  0.2311
 2542SOL    HW119259   2.617   0.335   5.525 -1.2737 -0.5763  3.0292
 2542SOL    HW219260   2.484   0.296   5.564 -0.9367 -0.2922 -0.5164
 2543SOL     OW19261   1.222   1.540   4.200 -0.3072 -0.1630 -0.1032
 2543SOL    HW119262   1.128   1.534   4.181  0.0942 -0.2039 -2.1149
 2543SOL    HW219263   1.216   1.590   4.281 -0.1925  0.5177 -0.5184
 2544SOL     OW19264   4.584   4.332   4.106 -0.1749 -0.2075 -0.3065
 2544SOL    HW119265   4.525   4.360   4.176  1.0829  3.1787 -0.5725
 2544SOL    HW219266   4.523   4.317   4.034  0.7983 -2.5947 -0.6342
 2545SOL     OW19267   0.478   1.430   2.350 -0.0331 -0.0575 -0.4104
 2545SOL    HW119268   0.543   1.496   2.325 -0.3445  1.1352  1.8897
 2545SOL    HW219269   0.418   1.491   2.391 -0.7683 -2.0057  1.4199
 2546SOL     OW19270   4.056   4.288  12.157  0.4301 -0.2434 -0.4777
 2546SOL    HW119271   4.010   4.257  12.236  2.4182  1.4675  1.3609
 2546SOL    HW219272   4.030   4.215  12.101  2.6566 -2.4578  1.3356
 2547SOL     OW19273   2.614   2.604   5.077 -0.1815 -0.7334 -0.4567
 2547SOL    HW119274   2.536   2.599   5.022 -0.5319  2.0402 -0.2129
 2547SOL    HW219275   2.678   2.608   5.007 -0.3791  0.3925 -0.5796
 2548SOL     OW19276   4.020   3.111   8.955 -0.3256  0.4274  0.2806
 2548SOL    HW119277   4.090   3.175   8.947 -0.4853  0.9025  2.6958
 2548SOL    HW219278   4.003   3.101   8.861  1.4917 -0.9379  0.1056
 2549SOL     OW19279   4.080   4.155   3.799 -0.5268  0.2367  0.3060
 2549SOL    HW119280   4.022   4.184   3.870 -1.1770 -2.2668  0.7909
 2549SOL    HW219281   4.021   4.087   3.767  0.8124  1.2045 -4.1943
 2550SOL     OW19282   3.775   3.669   6.782 -0.3460 -0.1372  0.7032
 2550SOL    HW119283   3.784   3.608   6.855 -1.9822  0.5067  1.4411
 2550SOL    HW219284   3.798   3.755   6.816  3.3764 -0.9608  0.2681
 2551SOL     OW19285   3.177   3.047   5.994 -0.2727 -0.0841  0.0935
 2551SOL    HW119286   3.214   3.050   6.082  0.0223 -0.0818 -0.0305
 2551SOL    HW219287   3.131   3.131   5.995 -0.0261  0.0813 -1.6094
 2552SOL     OW19288   0.462   3.259   6.762 -0.4305  0.5878 -0.6428
 2552SOL    HW119289   0.392   3.242   6.825 -0.4185 -1.2605 -1.1123
 2552SOL    HW219290   0.538   3.222   6.806 -1.6720 -1.3020 -0.0821
 2553SOL     OW19291   2.700   2.669   9.457  0.2010  0.2713  0.0341
 2553SOL    HW119292   2.638   2.605   9.420 -0.3105  1.7063 -1.5896
 2553SOL    HW219293   2.710   2.738   9.391 -1.6155 -0.4447 -0.9979
 2554SOL     OW19294   0.312   4.695   6.904 -0.2573 -0.0196 -0.0629
 2554SOL    HW119295   0.285   4.626   6.843  2.5569 -0.5437 -0.6974
 2554SOL    HW219296   0.264   4.671   6.983  0.4567  0.0855  0.3963
 2555SOL     OW19297   1.653   2.720  16.625 -0.2110  0.7292 -0.0188
 2555SOL    HW119298   1.711   2.711  16.550  0.8736 -1.5276  1.0775
 2555SOL    HW219299   1.629   2.628  16.636  0.3097  0.6794  0.6920
 2556SOL     OW19300   4.608   4.704   3.873  0.0764 -0.7903  0.2828
 2556SOL    HW119301   4.670   4.650   3.922 -0.2872 -2.7169 -1.3403
 2556SOL    HW219302   4.528   4.651   3.880  0.2282 -1.4120 -2.9727
 2557SOL     OW19303   2.207   1.395   3.376 -0.0939  0.1322 -0.5847
 2557SOL    HW119304   2.114   1.414   3.390 -0.1098 -0.6706  0.4259
 2557SOL    HW219305   2.218   1.445   3.295 -2.9655 -0.5165 -1.3852
 2558SOL     OW19306   3.802   4.468   3.589  0.2268 -0.7190 -0.4561
 2558SOL    HW119307   3.777   4.423   3.670  0.5262  3.2061  1.8327
 2558SOL    HW219308   3.857   4.394   3.562 -0.0040 -1.3201  0.7303
 2559SOL     OW19309   0.416   1.165   9.007 -0.1708 -0.2875  0.3044
 2559SOL    HW119310   0.396   1.254   9.036  1.0657 -0.3413  1.3017
 2559SOL    HW219311   0.355   1.124   9.069 -0.2016 -1.3896 -0.4533
 2560SOL     OW19312   2.015   1.619   2.186 -0.2462  0.0163  0.4173
 2560SOL    HW119313   2.037   1.552   2.122  0.7399  0.2528  0.5095
 2560SOL    HW219314   2.062   1.691   2.145 -0.2131 -0.4316 -0.3220
 2561SOL     OW19315   0.075   3.004   8.171 -0.2722 -0.1880  0.6232
 2561SOL    HW119316   0.133   2.930   8.152 -1.8335 -1.2216 -0.1107
 2561SOL    HW219317   0.111   3.052   8.097 -0.6737 -0.7274  0.0763
 2562SOL     OW19318   2.992   1.861   5.434  0.6501  0.3087 -0.4327
 2562SOL    HW119319   2.910   1.821   5.462  0.6670  1.4784  1.2594
 2562SOL    HW219320   3.055   1.788   5.424  0.1122  0.0394 -1.8571
 2563SOL     OW19321   2.777   4.118   3.974 -0.2434  0.5360  0.2315
 2563SOL    HW119322   2.792   4.178   3.901 -0.7284  0.9640  0.4758
 2563SOL    HW219323   2.843   4.049   3.973  0.4472  1.2154 -0.2650
 2564SOL     OW19324   1.508   0.072   4.963 -0.1356 -0.1884  0.3525
 2564SOL    HW119325   1.524   0.013   5.037 -1.1256  1.2606  1.7233
 2564SOL    HW219326   1.437   0.027   4.917  0.4551  1.7273 -2.4158
 2565SOL     OW19327   3.758   3.030   5.402 -0.1396  0.1752  0.3922
 2565SOL    HW119328   3.676   3.048   5.356  0.1638  2.1866  0.6071
 2565SOL    HW219329   3.753   2.935   5.404 -2.3335  0.2700 -0.7899
 2566SOL     OW19330   2.633   4.080  14.038  0.4103 -0.3217 -0.3139
 2566SOL    HW119331   2.624   4.101  13.945  1.8891 -1.2361 -0.6740
 2566SOL    HW219332   2.574   4.006  14.054 -2.0036  2.0662  1.6507
 2567SOL     OW19333   1.925   2.366  14.235  0.3320 -0.1231 -0.1468
 2567SOL    HW119334   1.948   2.344  14.144 -1.2814 -1.0817 -0.3109
 2567SOL    HW219335   1.865   2.293  14.247 -1.1435  0.6907 -2.5679
 2568SOL     OW19336   2.589   1.799   0.094 -0.9718 -0.0413 -0.3584
 2568SOL    HW119337   2.542   1.769   0.172 -0.4773 -1.0045 -0.4282
 2568SOL    HW219338   2.523   1.805   0.024 -0.2108 -2.9916 -1.3329
 2569SOL     OW19339   3.520   4.416   9.159 -0.6413 -0.5139  0.5691
 2569SOL    HW119340   3.426   4.433   9.164  0.0919  3.0895  1.8740
 2569SOL    HW219341   3.546   4.475   9.229 -2.0745  0.5811  0.1944
 2570SOL     OW19342   0.317   1.729  14.256  0.2861  0.3278 -0.1672
 2570SOL    HW119343   0.308   1.655  14.196  2.5784 -1.0718  1.2239
 2570SOL    HW219344   0.274   1.804  14.215 -1.3282 -1.3736 -1.5751
 2571SOL     OW19345   3.889   4.036   3.644  0.0435  0.2810 -0.6247
 2571SOL    HW119346   3.956   4.050   3.577  1.4281 -3.2990  0.0001
 2571SOL    HW219347   3.812   4.088   3.622  0.2176  1.0416  0.5904
 2572SOL     OW19348   0.138   2.258   2.728  0.2009 -0.0012 -0.2080
 2572SOL    HW119349   0.149   2.353   2.720 -2.0278  0.4957  2.8206
 2572SOL    HW219350   0.047   2.248   2.702  0.6643 -4.8094  0.0234
 2573SOL     OW19351   4.041   2.426   9.971  0.2059  0.1737 -0.2437
 2573SOL    HW119352   4.102   2.493   9.940 -2.1528  1.8697 -1.1237
 2573SOL    HW219353   3.958   2.473   9.963  0.1002  0.2073  0.9833
 2574SOL     OW19354   0.898   3.129   6.408 -0.0153 -0.6401  0.0431
 2574SOL    HW119355   0.855   3.076   6.475  1.2300 -2.4091 -0.5447
 2574SOL    HW219356   0.962   3.165   6.470  2.8424 -1.4368 -2.4378
 2575SOL     OW19357   2.306   0.300  10.131 -0.0706  0.5203  0.3467
 2575SOL    HW119358   2.352   0.216  10.132  0.8144  1.0247  2.1394
 2575SOL    HW219359   2.298   0.314  10.226 -0.5231  1.4429  0.1698
 2576SOL     OW19360   4.092   0.738   4.561  0.4695  0.7348  0.1810
 2576SOL    HW119361   4.150   0.662   4.565 -1.4955 -0.8671 -1.6265
 2576SOL    HW219362   4.151   0.809   4.536  0.4770  0.3030 -1.0052
 2577SOL     OW19363   4.091   1.466   7.468  0.2364 -0.2070  1.1437
 2577SOL    HW119364   4.083   1.484   7.375  0.6734 -1.4845  0.8558
 2577SOL    HW219365   4.023   1.522   7.504  1.1883  0.8397  1.3095
 2578SOL     OW19366   2.838   3.079   5.593 -0.1693  0.1059 -0.4437
 2578SOL    HW119367   2.811   3.058   5.682 -1.2053  0.3651 -0.6968
 2578SOL    HW219368   2.925   3.039   5.600  0.6708  2.1527  0.8245
 2579SOL     OW19369   4.157   2.635   0.771 -0.3316 -0.5678  0.5852
 2579SOL    HW119370   4.071   2.675   0.779  0.7183  1.4953  1.5386
 2579SOL    HW219371   4.194   2.676   0.692  1.0250 -2.5221  0.2164
 2580SOL     OW19372   1.827   4.198  16.886  0.3390  0.2466  0.2037
 2580SOL    HW119373   1.894   4.143  16.845  0.0777 -0.3598  0.5924
 2580SOL    HW219374   1.871   4.283  16.886  2.0019 -0.5943 -2.8682
 2581SOL     OW19375   3.747   4.410   3.872  0.5042 -0.0389  0.6822
 2581SOL    HW119376   3.667   4.446   3.910  0.3290 -0.2656  0.5299
 2581SOL    HW219377   3.752   4.339   3.937  1.0150  0.1170  0.8145
 2582SOL     OW19378   4.516   0.321  10.144 -0.2907 -0.0848  0.4201
 2582SOL    HW119379   4.604   0.285  10.152 -0.4807 -0.7998 -0.6539
 2582SOL    HW219380   4.460   0.246  10.124  0.0474 -0.1084 -0.4514
 2583SOL     OW19381   1.677   1.434  10.976  0.5518 -0.1013 -0.2521
 2583SOL    HW119382   1.641   1.410  10.891 -0.7979 -0.4747  0.4308
 2583SOL    HW219383   1.597   1.424  11.028  0.0618  1.2429 -0.7479
 2584SOL     OW19384   2.601   0.532   2.012  0.3328  0.2460 -0.2756
 2584SOL    HW119385   2.518   0.578   2.024 -0.2757 -0.3505 -2.1660
 2584SOL    HW219386   2.662   0.571   2.074 -0.8961  2.0664 -0.2129
 2585SOL     OW19387   3.267   2.680   8.826  0.5017  0.1034 -0.1789
 2585SOL    HW119388   3.345   2.691   8.770  0.1776  2.3350 -0.1649
 2585SOL    HW219389   3.310   2.686   8.911 -0.4262  2.9942  0.0789
 2586SOL     OW19390   2.428   0.036   3.038 -0.5958 -0.0518  0.2064
 2586SOL    HW119391   2.425   0.023   3.133 -3.3406 -1.4157 -0.0515
 2586SOL    HW219392   2.355   4.719   3.009  0.7518 -1.3526 -0.7652
 2587SOL     OW19393   0.941   2.821   2.464  0.1138  0.1725  0.8911
 2587SOL    HW119394   0.931   2.747   2.523  0.9915 -1.8714 -1.5210
 2587SOL    HW219395   1.007   2.784   2.405 -1.5168 -2.0297  0.4276
 2588SOL     OW19396   0.079   4.311   7.867  0.2253 -1.0911 -0.3871
 2588SOL    HW119397   0.165   4.350   7.851  0.7765 -2.8824 -1.7934
 2588SOL    HW219398   0.076   4.313   7.962  0.0517 -1.4765 -0.3835
 2589SOL     OW19399   2.925   4.007   5.921  0.0619  0.3261 -0.3742
 2589SOL    HW119400   2.945   4.016   6.015  2.4869 -0.5750 -0.8057
 2589SOL    HW219401   2.831   4.021   5.928  0.1394  0.1746  1.0416
 2590SOL     OW19402   2.003   4.107  10.609 -0.5472  0.0678  0.3652
 2590SOL    HW119403   2.073   4.167  10.582 -1.9717  1.4987 -0.1515
 2590SOL    HW219404   2.049   4.042  10.662 -1.0236 -0.6912 -0.1575
 2591SOL     OW19405   2.951   2.170   7.194 -0.1681  0.7350 -0.1351
 2591SOL    HW119406   2.937   2.265   7.203 -0.0137  0.7830 -0.4248
 2591SOL    HW219407   2.989   2.171   7.107  3.5232  0.5966  1.5006
 2592SOL     OW19408   0.451   1.708   8.511 -0.4626  0.0982 -0.3814
 2592SOL    HW119409   0.374   1.755   8.542  0.8487  1.2733  1.1182
 2592SOL    HW219410   0.435   1.621   8.547  0.6063  0.3547  0.7294
 2593SOL     OW19411   3.924   2.708   4.315  0.2547 -0.2069 -0.5392
 2593SOL    HW119412   3.942   2.717   4.408  0.0626 -3.0869 -0.2459
 2593SOL    HW219413   3.927   2.613   4.310  0.5187 -0.1827 -0.8792
 2594SOL     OW19414   0.981   1.850   7.179  0.4837 -0.3168  0.6904
 2594SOL    HW119415   1.059   1.862   7.232 -0.5177  1.8237  1.7038
 2594SOL    HW219416   0.916   1.877   7.244 -1.0558 -1.6204 -0.3131
 2595SOL     OW19417   3.574   1.543   8.445 -0.0642 -0.3609  0.2016
 2595SOL    HW119418   3.573   1.555   8.350  1.8218 -1.5230  0.0236
 2595SOL    HW219419   3.523   1.619   8.473  0.8238 -0.1165  1.1451
 2596SOL     OW19420   2.187   1.779   3.679  0.3993 -0.1572 -0.1793
 2596SOL    HW119421   2.164   1.690   3.652 -0.8457  0.8318 -2.4016
 2596SOL    HW219422   2.277   1.788   3.649  0.1590 -0.9643 -1.1407
 2597SOL     OW19423   0.065   3.405   5.206 -0.2482  0.2140 -0.0204
 2597SOL    HW119424   0.036   3.371   5.121  0.4890 -1.9085  0.5593
 2597SOL    HW219425   0.057   3.327   5.261  1.5740 -1.5486 -2.2624
 2598SOL     OW19426   0.476   3.844  14.459 -0.1731  0.0815 -0.0154
 2598SOL    HW119427   0.524   3.813  14.537 -2.8419 -0.3407  1.4824
 2598SOL    HW219428   0.404   3.781  14.456  0.6185 -0.7820 -0.8572
 2599SOL     OW19429   3.147   2.878   1.325 -0.2967  0.5724  0.0115
 2599SOL    HW119430   3.089   2.835   1.389 -0.5837 -0.3852 -0.8886
 2599SOL    HW219431   3.149   2.970   1.351  1.9986  0.6061 -0.3007
 2600SOL     OW19432   2.024   3.604   8.813 -0.2439 -0.4471  0.1227
 2600SOL    HW119433   1.968   3.529   8.795  0.6322 -1.3621  1.2535
 2600SOL    HW219434   2.084   3.581   8.883  1.2692  3.1172  0.0228
 2601SOL     OW19435   3.916   2.764   3.828 -0.3395 -0.1190  0.0814
 2601SOL    HW119436   3.908   2.836   3.766  3.5944  3.5401  3.7878
 2601SOL    HW219437   3.822   2.748   3.841 -0.4067  0.9790  0.9309
 2602SOL     OW19438   0.443   4.294   9.621 -0.3323  0.3711  0.5143
 2602SOL    HW119439   0.458   4.232   9.691 -1.5012  1.7236  1.9763
 2602SOL    HW219440   0.486   4.245   9.551 -0.9664 -0.3542  0.6429
 2603SOL     OW19441   0.402   0.587   5.327 -0.2916  0.1927 -0.0382
 2603SOL    HW119442   0.434   0.497   5.322  1.7016  0.8305  1.5011
 2603SOL    HW219443   0.481   0.641   5.326  0.0554 -0.3564 -3.4816
 2604SOL     OW19444   4.541   0.268   7.844 -0.4592  0.1957  0.1210
 2604SOL    HW119445   4.580   0.305   7.765  0.5413 -0.0746  0.4824
 2604SOL    HW219446   4.473   0.220   7.797 -1.2219 -0.3049  1.7168
 2605SOL     OW19447   4.604   3.942  17.206 -0.0424  0.2833 -0.3197
 2605SOL    HW119448   4.622   4.016  17.149  1.2984  0.9820  1.0136
 2605SOL    HW219449   4.651   3.873  17.160 -0.8774 -0.7233  0.3299
 2606SOL     OW19450   4.287   1.140   5.782 -0.3954 -0.1639 -0.1878
 2606SOL    HW119451   4.369   1.117   5.739 -0.7278  0.2770 -1.0458
 2606SOL    HW219452   4.229   1.067   5.760 -0.3033  0.0093 -0.9878
 2607SOL     OW19453   0.248   2.646  12.899  0.2124 -0.0159  0.1271
 2607SOL    HW119454   0.289   2.700  12.967 -0.5211  0.3246  0.3049
 2607SOL    HW219455   0.158   2.655  12.931 -0.3410 -1.3298 -1.0669
 2608SOL     OW19456   2.487   4.066   2.699 -0.1241 -0.1960 -0.1020
 2608SOL    HW119457   2.533   4.003   2.756  0.3091 -0.1146 -0.3626
 2608SOL    HW219458   2.474   4.152   2.738  1.3067 -0.3056  0.6103
 2609SOL     OW19459   0.310   3.196   1.510 -1.2572  0.8813 -0.3758
 2609SOL    HW119460   0.361   3.144   1.449 -2.3224 -0.9861  0.3328
 2609SOL    HW219461   0.285   3.127   1.572 -1.7101  2.0355  0.7303
 2610SOL     OW19462   4.529   4.490   6.787  0.0340 -0.7549  0.7973
 2610SOL    HW119463   4.470   4.486   6.862 -0.9351  0.8376  0.1045
 2610SOL    HW219464   4.547   4.584   6.789 -0.6080 -0.6370  1.0673
 2611SOL     OW19465   3.458   1.570   6.845 -0.1626 -0.0380  0.1556
 2611SOL    HW119466   3.528   1.582   6.781 -0.9127  1.8464 -0.3238
 2611SOL    HW219467   3.475   1.479   6.870  1.5167  0.4835  0.8597
 2612SOL     OW19468   4.244   1.717  17.308  0.4553 -0.0069 -0.5317
 2612SOL    HW119469   4.331   1.747  17.283  0.1741  1.1338 -0.1056
 2612SOL    HW219470   4.231   1.659  17.233  0.7670 -2.2989  1.1838
 2613SOL     OW19471   1.402   0.562  14.623 -0.0330 -0.3119 -0.1174
 2613SOL    HW119472   1.365   0.650  14.629  1.0261 -0.1170  3.0635
 2613SOL    HW219473   1.370   0.533  14.537 -1.7658 -1.0017  0.7593
 2614SOL     OW19474   3.384   4.348   4.499 -0.2006  0.2838  0.6988
 2614SOL    HW119475   3.440   4.423   4.517 -0.3870  0.6057 -0.0610
 2614SOL    HW219476   3.314   4.393   4.452 -0.9147  0.6969  2.1775
 2615SOL     OW19477   0.055   4.133   1.902  0.1467 -0.1952 -0.1700
 2615SOL    HW119478   0.120   4.173   1.844 -0.8153 -0.8559 -1.6942
 2615SOL    HW219479   0.011   4.213   1.932 -0.3223  0.0686 -1.5761
 2616SOL     OW19480   3.806   2.220   0.041  0.1464  0.9360 -0.6276
 2616SOL    HW119481   3.745   2.253  17.721  0.1456  2.8354  0.3306
 2616SOL    HW219482   3.893   2.255   0.019  2.0383 -2.5793  1.2124
 2617SOL     OW19483   4.228   0.926   3.736 -0.2218  0.0217  0.5754
 2617SOL    HW119484   4.222   0.962   3.824 -1.3053 -1.1138  0.9611
 2617SOL    HW219485   4.135   0.932   3.714  0.0965  1.1562 -0.4960
 2618SOL     OW19486   3.554   2.255  15.677  0.3900 -0.2241 -0.8834
 2618SOL    HW119487   3.564   2.164  15.704 -2.0637  0.0753  0.9812
 2618SOL    HW219488   3.555   2.251  15.581  2.1335  0.2398 -0.8865
 2619SOL     OW19489   4.273   2.525  10.962 -0.7972 -0.0464 -0.0352
 2619SOL    HW119490   4.315   2.586  11.023 -1.7193 -0.0051  0.5528
 2619SOL    HW219491   4.262   2.444  11.012 -1.0426 -0.3341 -0.5609
 2620SOL     OW19492   2.586   2.860   4.001 -0.5480  0.3712 -0.1836
 2620SOL    HW119493   2.614   2.797   4.067  3.2680  1.2281 -0.9539
 2620SOL    HW219494   2.599   2.807   3.923  1.2616 -0.1739  0.4782
 2621SOL     OW19495   1.231   1.774  12.712  0.2804 -0.1701  0.3200
 2621SOL    HW119496   1.136   1.779  12.721  0.1004  1.4943 -2.5870
 2621SOL    HW219497   1.226   1.789  12.618  3.7427  1.2505  0.3738
 2622SOL     OW19498   0.343   1.105  13.786  0.1885 -0.4736 -0.0754
 2622SOL    HW119499   0.408   1.132  13.721  0.2326 -3.0894 -1.1343
 2622SOL    HW219500   0.335   1.010  13.779 -1.2708 -0.2247 -1.6868
 2623SOL     OW19501   0.408   1.840  17.491  0.5930  0.0805  0.1337
 2623SOL    HW119502   0.316   1.863  17.474  0.5539  0.0597  0.3187
 2623SOL    HW219503   0.387   1.747  17.487 -2.6106  0.8300 -0.5174
 2624SOL     OW19504   3.993   4.415  11.901 -0.3128 -0.0430 -0.2400
 2624SOL    HW119505   4.017   4.377  11.985 -1.7491 -0.1613  0.1109
 2624SOL    HW219506   3.920   4.358  11.877 -2.5621  3.2800 -1.2839
 2625SOL     OW19507   0.593   0.910   4.946  0.0070  0.2196  0.0617
 2625SOL    HW119508   0.640   0.876   5.022 -1.7253 -0.4864  0.8195
 2625SOL    HW219509   0.589   0.834   4.889  1.4777  1.2224 -1.3487
 2626SOL     OW19510   1.113   1.511   9.260  0.0768 -0.7079  0.0339
 2626SOL    HW119511   1.192   1.562   9.278  0.6628 -1.3725 -0.6913
 2626SOL    HW219512   1.083   1.546   9.176 -0.3326  2.0930  1.3442
 2627SOL     OW19513   3.223   1.782   2.082 -0.8682 -0.1765  0.2931
 2627SOL    HW119514   3.271   1.841   2.141 -1.3972  1.3423 -0.7761
 2627SOL    HW219515   3.171   1.732   2.144  2.0586 -0.3705  2.6176
 2628SOL     OW19516   4.119   3.348   8.385 -0.2167  0.4161  0.2894
 2628SOL    HW119517   4.214   3.341   8.373 -0.1907  0.5532  0.4173
 2628SOL    HW219518   4.102   3.425   8.438  3.0757  1.2764  0.0807
 2629SOL     OW19519   1.425   1.253   7.650 -0.4730  0.2121 -0.1218
 2629SOL    HW119520   1.332   1.248   7.672 -0.7371 -0.8214 -1.4442
 2629SOL    HW219521   1.454   1.341   7.672 -1.5373  0.2957  0.9336
 2630SOL     OW19522   1.336   4.154   8.682  0.1122  0.1820 -0.1963
 2630SOL    HW119523   1.393   4.077   8.689 -1.5311 -0.8528  1.9778
 2630SOL    HW219524   1.298   4.131   8.597  0.0468 -3.4682  0.8137
 2631SOL     OW19525   0.962   1.758   2.389 -0.1304 -0.1230 -0.1928
 2631SOL    HW119526   0.893   1.822   2.372 -0.5859 -0.1918  1.4341
 2631SOL    HW219527   0.941   1.709   2.468  1.1218  1.3720  1.0704
 2632SOL     OW19528   0.533   4.389   2.319 -0.3494  1.2526 -0.2831
 2632SOL    HW119529   0.587   4.355   2.248 -0.8196  1.7478 -0.8795
 2632SOL    HW219530   0.586   4.462   2.351 -0.7888  1.6009 -0.3416
 2633SOL     OW19531   2.277   2.612  12.231 -0.3334  0.2528 -0.3505
 2633SOL    HW119532   2.371   2.597  12.225 -0.7349 -2.9832  1.5363
 2633SOL    HW219533   2.260   2.611  12.136 -1.9362 -0.5862 -0.0491
 2634SOL     OW19534   2.773   1.767   7.351 -0.1350  0.3895 -0.1049
 2634SOL    HW119535   2.741   1.706   7.418 -2.8173 -0.4208 -2.1180
 2634SOL    HW219536   2.868   1.776   7.358  0.2341 -1.3041 -2.6459
 2635SOL     OW19537   0.990   1.804  12.576  0.2849  0.1251  0.1703
 2635SOL    HW119538   1.042   1.729  12.545  0.1509 -0.4839  1.3898
 2635SOL    HW219539   0.936   1.815  12.498 -0.7321  0.8830  0.9900
 2636SOL     OW19540   0.259   3.292   6.565  0.0509  0.3885 -0.3766
 2636SOL    HW119541   0.349   3.324   6.556 -0.0730  0.6376 -0.7406
 2636SOL    HW219542   0.233   3.325   6.651 -0.8433  2.0246 -1.2767
 2637SOL     OW19543   3.094   2.216   8.289  0.4529 -0.2348 -0.0921
 2637SOL    HW119544   3.152   2.290   8.270  0.8582 -0.4678  0.2289
 2637SOL    HW219545   3.132   2.164   8.360  1.6414  0.4657 -0.1982
 2638SOL     OW19546   0.317   0.152  14.238 -0.4443  0.1793  0.1946
 2638SOL    HW119547   0.383   0.210  14.199  1.1258 -2.0042 -0.3937
 2638SOL    HW219548   0.251   0.219  14.252 -1.0257 -0.3032 -0.2534
 2639SOL     OW19549   1.359   1.059   9.355  0.6471  0.1056 -0.3837
 2639SOL    HW119550   1.320   1.128   9.300 -1.8865  0.2354  1.5340
 2639SOL    HW219551   1.293   0.991   9.341  1.2256 -0.5296  0.0375
 2640SOL     OW19552   3.693   2.900   8.808 -0.0658 -0.2547  0.5289
 2640SOL    HW119553   3.736   2.908   8.723 -1.2221 -0.8943 -0.1200
 2640SOL    HW219554   3.759   2.856   8.861  0.0217 -1.6868 -0.7638
 2641SOL     OW19555   2.129   3.540   6.293 -0.0168 -0.0413  0.4131
 2641SOL    HW119556   2.056   3.597   6.269 -1.0889 -1.1825  0.8995
 2641SOL    HW219557   2.186   3.610   6.325 -0.2581  0.3762 -0.0764
 2642SOL     OW19558   4.693   0.535  14.639 -0.0596  0.4175  0.6637
 2642SOL    HW119559   4.688   0.482  14.719  1.1217 -1.6372 -0.6386
 2642SOL    HW219560   4.633   0.483  14.586 -0.5844  2.6886 -0.9196
 2643SOL     OW19561   1.495   1.930   6.732 -0.6900  0.4800  0.6369
 2643SOL    HW119562   1.409   1.901   6.764  1.0466 -0.1467  4.7459
 2643SOL    HW219563   1.557   1.859   6.751  0.0451  0.8223 -0.4894
 2644SOL     OW19564   3.947   2.769   7.991  0.0867 -0.0338  0.2712
 2644SOL    HW119565   3.954   2.827   7.916 -2.6833  0.3226  0.2964
 2644SOL    HW219566   3.894   2.699   7.952 -1.2303  1.9238 -1.3954
 2645SOL     OW19567   2.662   1.222   6.425  0.3394  0.3027 -0.1355
 2645SOL    HW119568   2.730   1.289   6.429 -0.6261  1.3163 -0.6854
 2645SOL    HW219569   2.697   1.165   6.493 -0.2272 -0.9097 -0.8562
 2646SOL     OW19570   0.315   4.043   5.983  0.0818  0.3758 -0.2632
 2646SOL    HW119571   0.382   4.053   6.051  0.3318 -1.3356 -0.2613
 2646SOL    HW219572   0.347   4.107   5.918  0.1738 -0.0441 -0.6295
 2647SOL     OW19573   3.029   1.674   4.250 -0.4571  0.5768 -0.1305
 2647SOL    HW119574   3.027   1.732   4.174 -0.3021  0.3384 -0.3139
 2647SOL    HW219575   3.069   1.739   4.307  0.6120  0.1466 -0.4018
 2648SOL     OW19576   2.415   4.666   4.859 -0.5700 -0.6131 -0.0321
 2648SOL    HW119577   2.449   4.677   4.948  0.5213 -1.9492 -0.2919
 2648SOL    HW219578   2.492   4.687   4.805 -1.1331 -1.1160 -1.0399
 2649SOL     OW19579   4.306   2.350  10.582  0.1509 -0.3999  0.0819
 2649SOL    HW119580   4.391   2.390  10.601  0.8164 -1.5618 -0.3804
 2649SOL    HW219581   4.287   2.398  10.501 -3.5333 -0.4607  0.9120
 2650SOL     OW19582   2.944   0.085   3.842 -0.3422  0.2395 -0.3978
 2650SOL    HW119583   2.876   0.119   3.784 -1.6558 -1.3071  0.2464
 2650SOL    HW219584   2.979   0.020   3.782  0.1327  1.3461 -1.3053
 2651SOL     OW19585   3.081   2.831   8.953  0.5672 -0.2121  0.1011
 2651SOL    HW119586   3.139   2.802   8.883  0.1413 -0.9753  0.0741
 2651SOL    HW219587   3.084   2.926   8.941 -2.5687 -0.4925 -2.9988
 2652SOL     OW19588   3.693   0.937  10.942  0.2145  0.2254  0.2085
 2652SOL    HW119589   3.696   0.868  11.008 -1.0881  1.3904  1.4917
 2652SOL    HW219590   3.659   0.886  10.868  3.0718  0.8517 -1.5411
 2653SOL     OW19591   2.764   0.609   4.457 -0.4085  0.6705  0.2655
 2653SOL    HW119592   2.780   0.569   4.372 -0.1393 -0.1558  0.7051
 2653SOL    HW219593   2.844   0.660   4.469  0.5523 -0.4684 -1.2594
 2654SOL     OW19594   0.129   2.118   9.138  0.1955 -0.2403  0.3226
 2654SOL    HW119595   0.038   2.144   9.127  0.7425  1.7635  0.4733
 2654SOL    HW219596   0.162   2.124   9.048 -1.9713  1.1795 -0.3685
 2655SOL     OW19597   2.733   3.887   4.197 -0.4433 -0.4787 -0.8155
 2655SOL    HW119598   2.769   3.819   4.141 -2.3007 -0.3943 -2.1047
 2655SOL    HW219599   2.809   3.941   4.222 -1.6076 -0.1978  2.1344
 2656SOL     OW19600   3.346   2.774   8.280  0.0430  0.2867  0.5332
 2656SOL    HW119601   3.308   2.737   8.359  0.0780 -0.1938  0.3264
 2656SOL    HW219602   3.278   2.791   8.215  0.0051  1.6261  0.9364
 2657SOL     OW19603   3.017   4.127   7.630 -0.5563  0.1833 -0.1581
 2657SOL    HW119604   2.936   4.106   7.676  0.0122  1.7842  1.5719
 2657SOL    HW219605   2.978   4.179   7.560 -0.2333  1.7918  0.8620
 2658SOL     OW19606   4.466   1.475   0.436  0.7101 -0.2885 -0.0798
 2658SOL    HW119607   4.517   1.394   0.441  0.8460 -0.1670  0.4102
 2658SOL    HW219608   4.494   1.520   0.356 -0.0678 -0.0649 -0.2329
 2659SOL     OW19609   1.649   4.218   6.648 -0.3855  0.2903  0.1158
 2659SOL    HW119610   1.583   4.240   6.583  0.2498  1.4250 -0.1442
 2659SOL    HW219611   1.662   4.126   6.625  0.0349  0.4275 -0.1897
 2660SOL     OW19612   2.693   4.596   4.916 -0.0797  0.2380  1.1890
 2660SOL    HW119613   2.747   4.517   4.922 -0.4689  0.0953  2.8250
 2660SOL    HW219614   2.672   4.592   4.823  0.1799  1.4258  1.0814
 2661SOL     OW19615   4.246   1.587   4.338 -0.6167  0.0419  0.0204
 2661SOL    HW119616   4.195   1.642   4.399 -2.3575 -1.8888  0.2872
 2661SOL    HW219617   4.314   1.652   4.319 -0.1461 -0.2733  0.6451
 2662SOL     OW19618   0.406   3.040   5.639  0.4718 -0.0387  0.0237
 2662SOL    HW119619   0.342   3.072   5.703  0.5502 -0.7583  0.4572
 2662SOL    HW219620   0.379   2.953   5.610 -1.7133  0.3579  0.8416
 2663SOL     OW19621   3.687   4.337   7.897 -0.3148  0.2141 -0.0359
 2663SOL    HW119622   3.617   4.281   7.862 -0.9878  0.2406  1.2536
 2663SOL    HW219623   3.700   4.298   7.984  1.5080  0.7350 -0.0775
 2664SOL     OW19624   2.634   3.870  10.663 -0.0276 -0.3017  0.2106
 2664SOL    HW119625   2.555   3.826  10.694  0.2475  0.0451  1.4049
 2664SOL    HW219626   2.692   3.861  10.738  1.1016  1.8207 -0.4062
 2665SOL     OW19627   1.099   2.035   9.176 -0.3783 -0.1194  0.1271
 2665SOL    HW119628   1.189   2.063   9.192 -0.5270  0.9360 -0.8589
 2665SOL    HW219629   1.103   2.005   9.085 -0.1080 -1.0984  0.4590
 2666SOL     OW19630   2.487   3.299   7.847  0.5749 -0.2652  0.0461
 2666SOL    HW119631   2.536   3.217   7.855  0.8811 -0.0735  0.1551
 2666SOL    HW219632   2.458   3.294   7.756 -2.4377 -1.2413  1.0815
 2667SOL     OW19633   3.198   1.423   6.818 -0.3476 -0.1901  0.0675
 2667SOL    HW119634   3.163   1.463   6.898 -0.7073 -1.2384  0.4328
 2667SOL    HW219635   3.279   1.471   6.806  1.0159 -1.8368  2.6234
 2668SOL     OW19636   0.006   4.237   4.572  0.0202  0.1726 -0.2027
 2668SOL    HW119637   4.653   4.228   4.605  0.7919 -2.9040  1.0694
 2668SOL    HW219638   0.006   4.193   4.486 -1.6656 -2.9081  1.3506
 2669SOL     OW19639   3.885   0.957   4.368 -0.1292 -0.0074 -0.1591
 2669SOL    HW119640   3.974   0.973   4.335 -0.3805  0.5068 -0.5811
 2669SOL    HW219641   3.878   1.018   4.441  1.5680  2.5033 -2.0638
 2670SOL     OW19642   1.602   3.604   8.669  0.2157 -0.3150  0.1536
 2670SOL    HW119643   1.539   3.656   8.719 -0.5571 -0.4163 -0.7089
 2670SOL    HW219644   1.564   3.586   8.583  0.6933 -2.6898  0.4240
 2671SOL     OW19645   0.684   1.515   2.665  0.1690  0.3500 -0.2750
 2671SOL    HW119646   0.702   1.607   2.680 -1.4527  0.5805  0.2808
 2671SOL    HW219647   0.770   1.489   2.633  0.9750 -0.4041  2.4936
 2672SOL     OW19648   4.510   1.476   8.532 -0.0237  0.1652 -0.0631
 2672SOL    HW119649   4.567   1.530   8.478  0.3333  0.6682  0.8045
 2672SOL    HW219650   4.419   1.490   8.503 -0.4647 -0.6103  0.9615
 2673SOL     OW19651   4.276   4.406   5.114  0.0817 -0.3650 -0.6625
 2673SOL    HW119652   4.331   4.329   5.129  1.3884  0.5188 -0.9018
 2673SOL    HW219653   4.310   4.456   5.188 -1.5124  0.9950 -0.8441
 2674SOL     OW19654   3.927   3.389   6.687 -0.9809 -0.0189  0.2555
 2674SOL    HW119655   3.959   3.460   6.631  1.8950  0.5557  2.5863
 2674SOL    HW219656   3.845   3.362   6.646 -1.1232  1.2411 -0.2880
 2675SOL     OW19657   1.939   4.539   6.528  0.1577 -0.3262 -0.2950
 2675SOL    HW119658   1.958   4.625   6.566  0.9319 -0.7935  0.3425
 2675SOL    HW219659   1.883   4.502   6.596 -1.7637  1.0823 -1.0922
 2676SOL     OW19660   1.458   4.642   2.954 -0.0553  0.9119 -0.0915
 2676SOL    HW119661   1.490   4.554   2.936 -0.9545  0.0644  2.3905
 2676SOL    HW219662   1.390   4.635   3.021 -0.1704  1.5027 -0.1391
 2677SOL     OW19663   0.661   4.555   8.739  0.3297  0.3629  0.2492
 2677SOL    HW119664   0.599   4.627   8.728  0.2361  0.4561  1.4108
 2677SOL    HW219665   0.647   4.513   8.654  0.7510 -1.9136  1.3113
 2678SOL     OW19666   3.363   0.207   5.856 -0.3470 -0.2260  0.7898
 2678SOL    HW119667   3.369   0.279   5.793 -0.1289 -2.0640 -1.3057
 2678SOL    HW219668   3.445   0.221   5.902  0.9842 -1.1726 -1.2853
 2679SOL     OW19669   4.682   4.475   2.925  0.0839 -0.2072 -0.1225
 2679SOL    HW119670   4.613   4.437   2.870 -1.6360  0.3210  1.6387
 2679SOL    HW219671   4.729   4.394   2.944  0.3973  0.4479  1.9007
 2680SOL     OW19672   0.759   0.507   4.975 -0.0342  0.0099 -0.8550
 2680SOL    HW119673   0.814   0.429   4.979 -2.5746 -1.5596  3.1686
 2680SOL    HW219674   0.742   0.512   4.881  1.4332  1.9433 -1.0340
 2681SOL     OW19675   0.520   4.686   7.949 -0.0497  0.1569  0.5873
 2681SOL    HW119676   0.603   4.721   7.978  0.7164 -1.0266 -0.1666
 2681SOL    HW219677   0.472   0.028   7.924 -0.6586 -0.1851  0.6531
 2682SOL     OW19678   2.399   4.117   9.699 -0.9648 -0.0601 -0.1409
 2682SOL    HW119679   2.423   4.102   9.608 -0.4350  0.7865 -0.1457
 2682SOL    HW219680   2.366   4.031   9.723  2.2939 -1.1561  0.4116
 2683SOL     OW19681   0.613   3.714   4.585 -0.1628 -0.1272 -0.3855
 2683SOL    HW119682   0.551   3.783   4.609  0.1028  0.8536 -2.5493
 2683SOL    HW219683   0.548   3.645   4.599 -2.3059  2.1531  0.8884
 2684SOL     OW19684   3.685   1.487   8.128 -0.0635  0.3689 -0.3576
 2684SOL    HW119685   3.753   1.544   8.164 -0.3455  0.6518 -0.2694
 2684SOL    HW219686   3.743   1.412   8.113 -0.6097 -0.3912  1.2775
 2685SOL     OW19687   1.044   4.671  11.187 -0.2305  0.0023  0.0646
 2685SOL    HW119688   0.960   4.630  11.210 -0.2665  0.4467  0.7192
 2685SOL    HW219689   1.041   4.665  11.092 -0.7783  1.8346 -0.0480
 2686SOL     OW19690   2.795   3.724   3.543 -0.0174  0.6598 -0.2313
 2686SOL    HW119691   2.756   3.751   3.626  0.1655 -0.2442  0.1485
 2686SOL    HW219692   2.819   3.809   3.506  1.3313  0.9726  1.3713
 2687SOL     OW19693   4.385   4.066   5.718  0.1134 -0.3663  0.6218
 2687SOL    HW119694   4.420   4.105   5.638  0.0871 -2.8805 -0.6420
 2687SOL    HW219695   4.371   3.980   5.678 -1.8721 -0.3197  1.1703
 2688SOL     OW19696   2.054   0.786   2.770  0.7806 -0.6001  0.2660
 2688SOL    HW119697   2.001   0.775   2.692  2.4685 -0.3025 -0.9322
 2688SOL    HW219698   2.130   0.728   2.760  0.7958 -0.0958 -2.4616
 2689SOL     OW19699   2.455   4.655   3.315 -1.0388  0.3638 -0.1115
 2689SOL    HW119700   2.540   4.636   3.354 -1.3320 -0.8193 -0.0644
 2689SOL    HW219701   2.426   4.716   3.384 -1.4827 -0.5137  0.4719
 2690SOL     OW19702   0.002   0.113   6.172 -0.2284  0.2405 -0.5100
 2690SOL    HW119703   4.653   0.153   6.156 -0.8269 -0.7655  0.2109
 2690SOL    HW219704   4.736   0.109   6.267  0.5266 -0.1788 -0.5134
 2691SOL     OW19705   3.866   2.054   6.119 -0.5398  0.7281  0.2352
 2691SOL    HW119706   3.904   2.103   6.047  1.2038  0.2562  0.8385
 2691SOL    HW219707   3.943   2.051   6.176 -0.7451 -4.2949  0.2892
 2692SOL     OW19708   1.854   3.974  15.835  0.3982 -0.2637  0.5866
 2692SOL    HW119709   1.900   3.929  15.764 -1.6155  2.7254 -2.6490
 2692SOL    HW219710   1.837   3.900  15.893 -1.1455 -0.0848  0.3557
 2693SOL     OW19711   3.448   3.021   8.339  0.1621 -0.5950 -0.6670
 2693SOL    HW119712   3.482   2.993   8.424 -0.5365 -0.1168 -0.2277
 2693SOL    HW219713   3.385   2.952   8.316  1.0322 -1.6718  0.1965
 2694SOL     OW19714   3.411   3.232   7.916  0.0756 -0.0727 -0.5627
 2694SOL    HW119715   3.500   3.246   7.948  0.4895 -0.3439 -1.5737
 2694SOL    HW219716   3.389   3.323   7.933  1.4193  0.1887 -0.2147
 2695SOL     OW19717   1.041   0.969   5.073 -0.6189 -0.0123  0.1289
 2695SOL    HW119718   1.111   1.013   5.120 -0.6062  1.0176 -0.8508
 2695SOL    HW219719   0.966   0.982   5.131  1.1784  1.3424  2.1502
 2696SOL     OW19720   1.055   4.636   7.649  0.2350 -0.0470  0.3901
 2696SOL    HW119721   1.147   4.647   7.628  0.1471  1.9086  0.9989
 2696SOL    HW219722   1.056   4.546   7.618  0.4301  0.0952 -0.0138
 2697SOL     OW19723   4.607   4.160   3.173  0.0272  0.3580 -0.1004
 2697SOL    HW119724   4.563   4.245   3.179  1.1664  0.9862 -0.5861
 2697SOL    HW219725   4.636   4.161   3.264 -2.9732 -0.0732  0.8348
 2698SOL     OW19726   1.687   2.693   4.857  0.0131  0.1066  0.2441
 2698SOL    HW119727   1.782   2.697   4.869  0.3414 -0.2995 -2.1292
 2698SOL    HW219728   1.660   2.774   4.899 -1.0584 -0.4029  0.5616
 2699SOL     OW19729   1.439   1.601   5.787 -0.0118  0.1574  0.5534
 2699SOL    HW119730   1.345   1.585   5.785  0.3174 -2.0308  1.6610
 2699SOL    HW219731   1.446   1.628   5.878 -1.6619 -0.6460  0.9131
 2700SOL     OW19732   3.411   3.516  13.597  0.3740 -0.5605 -0.2032
 2700SOL    HW119733   3.407   3.428  13.634 -0.1804  0.2840  1.7030
 2700SOL    HW219734   3.489   3.520  13.541  0.8465  1.2302  0.5961
 2701SOL     OW19735   0.174   3.841   2.553  0.5067 -0.2179  0.1313
 2701SOL    HW119736   0.162   3.827   2.459 -1.1587 -0.9577  0.4681
 2701SOL    HW219737   0.211   3.929   2.558  2.0944 -0.9250  0.8615
 2702SOL     OW19738   0.671   4.443   4.652  0.0741  0.5520 -0.9031
 2702SOL    HW119739   0.615   4.481   4.584 -1.7945  0.1762  0.4307
 2702SOL    HW219740   0.681   4.517   4.711 -1.3806  0.7739 -0.9193
 2703SOL     OW19741   3.416   0.622  10.983 -0.0800 -0.2653 -0.3100
 2703SOL    HW119742   3.460   0.576  10.912  0.2166 -0.2577 -0.1353
 2703SOL    HW219743   3.432   0.710  10.948  3.4498 -1.8207 -2.6100
 2704SOL     OW19744   2.679   2.236  15.878  0.4307  0.3073  0.0864
 2704SOL    HW119745   2.693   2.214  15.970  1.0954  0.6699  0.0728
 2704SOL    HW219746   2.684   2.331  15.881 -0.6825  0.3973 -0.9191
 2705SOL     OW19747   1.284   2.369  17.372 -0.3650  0.0135  0.3733
 2705SOL    HW119748   1.206   2.416  17.345  1.3415  1.0031 -2.8774
 2705SOL    HW219749   1.262   2.283  17.336  0.6061  0.0025 -0.1905
 2706SOL     OW19750   2.178   2.818  16.969 -0.2339  0.0376 -0.7233
 2706SOL    HW119751   2.154   2.890  16.910 -0.5657  0.6224  0.1201
 2706SOL    HW219752   2.249   2.859  17.018  0.4480 -1.4003 -0.5166
 2707SOL     OW19753   2.962   1.457   5.334 -0.0965 -0.0743  0.3352
 2707SOL    HW119754   2.965   1.373   5.287 -1.2214  0.1321 -0.0957
 2707SOL    HW219755   3.047   1.493   5.306 -1.3208  1.1371 -1.8345
 2708SOL     OW19756   0.515   3.716   2.479 -0.1510 -0.3792  0.1173
 2708SOL    HW119757   0.483   3.733   2.567  0.8900 -0.6386  0.5409
 2708SOL    HW219758   0.518   3.620   2.482 -0.6194 -0.4662 -1.6184
 2709SOL     OW19759   2.199   3.090   7.283  0.4640  0.0308 -0.3634
 2709SOL    HW119760   2.151   3.008   7.276  2.9030 -1.1447 -3.1421
 2709SOL    HW219761   2.221   3.121   7.195  1.1846 -0.5662 -0.3959
 2710SOL     OW19762   4.382   1.904   0.670  0.7607 -0.0852 -0.2804
 2710SOL    HW119763   4.314   1.971   0.671  0.5315 -0.3478  1.4821
 2710SOL    HW219764   4.355   1.853   0.593  1.7609  0.7958 -1.2150
 2711SOL     OW19765   2.619   1.542   8.011  0.5865 -0.1236 -0.4417
 2711SOL    HW119766   2.601   1.619   8.065 -0.6361  0.1189 -1.1983
 2711SOL    HW219767   2.564   1.571   7.938  1.0782 -0.4461 -0.9389
 2712SOL     OW19768   2.350   2.291   7.196 -0.4509 -0.2051  0.0938
 2712SOL    HW119769   2.341   2.294   7.101 -1.2327  0.5080  0.1837
 2712SOL    HW219770   2.334   2.384   7.215 -0.0524  0.1257 -1.1883
 2713SOL     OW19771   1.943   0.850  10.228 -0.7117  0.4943 -0.0214
 2713SOL    HW119772   2.033   0.872  10.204 -1.7489  3.5743 -1.0958
 2713SOL    HW219773   1.899   0.920  10.180 -0.9383  0.5860  0.3212
 2714SOL     OW19774   2.163   2.099   1.840  0.0228  0.4209 -0.9852
 2714SOL    HW119775   2.249   2.069   1.809  0.4738  0.6280  0.0529
 2714SOL    HW219776   2.139   2.174   1.784 -0.2699 -1.4960 -3.4235
 2715SOL     OW19777   2.867   0.062   8.119  0.1384  0.4948  0.5432
 2715SOL    HW119778   2.858   0.154   8.094 -0.6845 -0.1495 -1.5244
 2715SOL    HW219779   2.775   0.043   8.102 -0.6326  3.9035  0.9814
 2716SOL     OW19780   0.335   2.078  14.418 -0.4608  0.0522  0.6207
 2716SOL    HW119781   0.328   1.997  14.469  0.7738 -0.9951 -0.8626
 2716SOL    HW219782   0.305   2.056  14.330 -0.6144 -0.6134  0.8380
 2717SOL     OW19783   3.402   0.392   3.282  0.2809 -0.1108 -0.1703
 2717SOL    HW119784   3.450   0.325   3.329  0.9835  1.5103  1.4279
 2717SOL    HW219785   3.448   0.386   3.197 -0.2802 -0.7737 -0.4251
 2718SOL     OW19786   3.606   3.867   7.225 -0.2000  0.3975 -0.0985
 2718SOL    HW119787   3.687   3.825   7.197 -0.6502 -0.4128 -0.1898
 2718SOL    HW219788   3.630   3.958   7.207  1.4918 -0.3090 -1.4678
 2719SOL     OW19789   1.246   1.258   4.184  0.1815 -0.0064 -0.1767
 2719SOL    HW119790   1.241   1.349   4.213 -0.7371  0.4855 -1.8423
 2719SOL    HW219791   1.266   1.258   4.090 -0.4965  1.1615 -0.3282
 2720SOL     OW19792   0.345   0.287   4.053 -0.3312  0.0895  0.1844
 2720SOL    HW119793   0.337   0.279   3.958  0.9511  2.0940 -0.0963
 2720SOL    HW219794   0.412   0.356   4.050  0.4424 -0.7186 -1.3758
 2721SOL     OW19795   2.256   4.033   4.004  0.2364 -0.2843  0.0264
 2721SOL    HW119796   2.331   3.978   4.027 -1.1926 -2.1131  0.3277
 2721SOL    HW219797   2.225   4.074   4.085  1.2584  1.6074 -0.5524
 2722SOL     OW19798   2.685   3.953  14.807 -0.3783  0.2098  0.3858
 2722SOL    HW119799   2.761   3.895  14.800  0.3058  1.0875  0.5133
 2722SOL    HW219800   2.704   4.007  14.884 -1.6090  1.2772 -0.0573
 2723SOL     OW19801   0.327   4.574   3.832 -0.1618 -0.3047  0.3168
 2723SOL    HW119802   0.345   4.612   3.746  1.5289 -0.4744  0.5997
 2723SOL    HW219803   0.413   4.567   3.875  0.4965 -0.5778 -1.0349
 2724SOL     OW19804   0.428   3.308  12.123 -0.3150  0.1582  0.0725
 2724SOL    HW119805   0.469   3.393  12.104  2.6092 -1.2684  0.0934
 2724SOL    HW219806   0.362   3.334  12.188 -0.2660  0.3133  0.0596
 2725SOL     OW19807   4.368   0.694   2.735 -0.0546  0.0332  0.3237
 2725SOL    HW119808   4.354   0.685   2.641  0.7953 -1.6628  0.3714
 2725SOL    HW219809   4.390   0.787   2.734  0.2101 -0.0312  0.2731
 2726SOL     OW19810   2.069   2.592   2.303  0.4327 -0.0655 -0.2067
 2726SOL    HW119811   2.125   2.661   2.337 -0.0254  0.2341 -0.0642
 2726SOL    HW219812   2.011   2.567   2.376  0.6258 -0.7670 -0.2917
 2727SOL     OW19813   1.562   2.562   6.771  0.3893 -0.3356 -0.3282
 2727SOL    HW119814   1.467   2.553   6.760  0.4933  0.3362 -1.7880
 2727SOL    HW219815   1.585   2.655   6.772 -0.3635 -0.1618  1.7600
 2728SOL     OW19816   1.003   4.186  14.772 -0.8829  0.2979 -0.0487
 2728SOL    HW119817   1.059   4.136  14.830 -0.5753 -1.0598 -1.5070
 2728SOL    HW219818   1.064   4.226  14.710 -1.4723  0.7174 -0.3602
 2729SOL     OW19819   2.761   4.550   7.473  0.1851  0.3267  0.3545
 2729SOL    HW119820   2.689   4.608   7.500 -0.6518 -0.9113  0.7846
 2729SOL    HW219821   2.797   4.604   7.403 -0.4344 -0.2215 -0.3868
 2730SOL     OW19822   3.291   0.173   5.328 -0.0693  0.1769 -0.2757
 2730SOL    HW119823   3.278   0.149   5.236 -1.2428  0.2923 -0.1451
 2730SOL    HW219824   3.348   0.250   5.327 -0.8863  0.7883 -0.1091
 2731SOL     OW19825   0.308   2.171   6.863  0.4415 -0.4338  0.6703
 2731SOL    HW119826   0.301   2.218   6.947  1.5556  0.6869  0.1406
 2731SOL    HW219827   0.235   2.110   6.861  0.6319 -0.6488  0.3929
 2732SOL     OW19828   0.874   0.891   6.484 -0.1865 -0.5140 -0.2039
 2732SOL    HW119829   0.841   0.815   6.435  1.7527  0.7742 -3.4943
 2732SOL    HW219830   0.810   0.960   6.467  0.3355 -0.3600 -1.5247
 2733SOL     OW19831   0.528   3.425   8.734 -0.4009  0.2418 -0.3878
 2733SOL    HW119832   0.462   3.483   8.697 -0.2618  0.1532 -0.7734
 2733SOL    HW219833   0.588   3.489   8.772 -1.4951  1.3811 -0.5848
 2734SOL     OW19834   1.823   3.657   9.494 -0.4926 -0.1691 -0.0949
 2734SOL    HW119835   1.728   3.647   9.502 -0.3813 -1.8511 -0.8227
 2734SOL    HW219836   1.840   3.642   9.587 -0.5521  3.0050  0.4409
 2735SOL     OW19837   0.460   0.687   6.925 -0.3251  0.2765  0.1786
 2735SOL    HW119838   0.542   0.729   6.901  0.7066 -1.2980  0.9314
 2735SOL    HW219839   0.458   0.615   6.861  0.0358  0.9989 -0.6366
 2736SOL     OW19840   0.613   1.924   2.977 -0.3637  0.0345  0.2395
 2736SOL    HW119841   0.703   1.957   2.982  0.1078 -1.1173 -0.4000
 2736SOL    HW219842   0.559   1.991   3.019 -0.7523 -0.3473  0.3463
 2737SOL     OW19843   0.564   3.575   8.297  0.2837 -0.1859 -0.6860
 2737SOL    HW119844   0.511   3.648   8.330  0.0424 -0.2834 -0.8554
 2737SOL    HW219845   0.571   3.606   8.207  0.7760  1.2914 -0.1315
 2738SOL     OW19846   1.308   2.446   2.698  0.0752  0.6048  0.8224
 2738SOL    HW119847   1.310   2.382   2.627  1.9522  0.3233  1.1336
 2738SOL    HW219848   1.292   2.387   2.771  0.0613 -0.7447 -0.2635
 2739SOL     OW19849   3.865   2.773   1.888  0.2524  0.1795 -1.0573
 2739SOL    HW119850   3.846   2.684   1.858 -1.4594  0.7877 -1.8086
 2739SOL    HW219851   3.778   2.806   1.866  0.3051  0.4986 -0.7824
 2740SOL     OW19852   3.377   0.424   9.873  0.3214 -0.0104 -0.1660
 2740SOL    HW119853   3.345   0.397   9.959 -0.1951 -0.7625 -0.5953
 2740SOL    HW219854   3.299   0.472   9.846  0.8529  0.9446 -0.0115
 2741SOL     OW19855   4.461   4.175   6.330 -0.3885  0.2809  0.2856
 2741SOL    HW119856   4.370   4.200   6.347  0.6591  3.9360  0.6323
 2741SOL    HW219857   4.513   4.240   6.378 -0.2663 -0.1591  0.7493
 2742SOL     OW19858   3.253   0.143   3.554 -0.2011  0.1379  0.4180
 2742SOL    HW119859   3.342   0.115   3.573 -0.7927 -0.9525  1.5456
 2742SOL    HW219860   3.260   0.239   3.558  1.2238  0.1659 -2.1702
 2743SOL     OW19861   3.593   4.035  16.346  0.5673 -0.1190  0.0173
 2743SOL    HW119862   3.606   4.123  16.310  1.5704 -0.4773 -0.4988
 2743SOL    HW219863   3.670   3.996  16.304  0.1618 -0.6309 -0.2377
 2744SOL     OW19864   3.114   2.232   6.979 -0.0981  0.1799  0.0821
 2744SOL    HW119865   3.125   2.320   7.016 -0.4517  0.1096  0.3598
 2744SOL    HW219866   3.191   2.193   7.020 -0.7584  2.3703  3.4905
 2745SOL     OW19867   3.686   1.043   0.412  0.4434  0.2975 -0.6074
 2745SOL    HW119868   3.615   1.063   0.351  0.5049  0.6187 -0.5761
 2745SOL    HW219869   3.698   0.949   0.397 -0.2320  0.1752 -0.3918
 2746SOL     OW19870   2.511   1.712   2.838 -0.4685  0.1204  0.1683
 2746SOL    HW119871   2.583   1.761   2.878 -1.4732  0.9058  1.0378
 2746SOL    HW219872   2.561   1.684   2.762 -2.3888  0.5773 -1.2695
 2747SOL     OW19873   0.343   0.626  15.004  0.0878  0.1983  0.5062
 2747SOL    HW119874   0.294   0.620  14.923  1.0825 -0.3455 -0.0499
 2747SOL    HW219875   0.428   0.605  14.965 -0.6931 -1.4124 -0.3009
 2748SOL     OW19876   3.676   0.426   7.619 -0.1867  0.2781 -0.3084
 2748SOL    HW119877   3.759   0.439   7.573 -0.0138  1.0854  0.2330
 2748SOL    HW219878   3.641   0.514   7.607 -1.5643 -0.0392  1.3779
 2749SOL     OW19879   1.772   2.914   0.139  0.4986  0.3397  0.6449
 2749SOL    HW119880   1.721   2.958   0.070 -0.5252 -2.3426 -0.3018
 2749SOL    HW219881   1.854   2.962   0.127  0.9090 -0.9726 -1.7223
 2750SOL     OW19882   4.664   1.348   5.847 -1.0176  0.3650  0.0663
 2750SOL    HW119883   4.595   1.286   5.825 -1.1972 -0.1312  1.9817
 2750SOL    HW219884   4.617   1.407   5.906 -0.1772  1.4789 -0.3879
 2751SOL     OW19885   3.074   1.338   2.441  0.0225 -0.1247 -0.1114
 2751SOL    HW119886   3.069   1.327   2.536  0.6157  0.0662 -0.0594
 2751SOL    HW219887   3.167   1.361   2.438  0.2109 -1.0646 -1.5033
 2752SOL     OW19888   1.237   3.869   4.225  0.3078  0.4370  0.2513
 2752SOL    HW119889   1.187   3.819   4.160  2.8540  2.4682 -3.3054
 2752SOL    HW219890   1.164   3.913   4.266 -0.4706  0.6529 -1.3511
 2753SOL     OW19891   4.550   0.242   5.873 -0.2241  0.6143  0.1021
 2753SOL    HW119892   4.479   0.218   5.815 -0.0696 -2.8321  1.3168
 2753SOL    HW219893   4.625   0.219   5.817  0.4879  0.7978  0.9658
 2754SOL     OW19894   4.275   0.056   7.105  0.0650 -0.5026 -0.4871
 2754SOL    HW119895   4.330   0.027   7.177  0.5958 -0.2966 -0.8083
 2754SOL    HW219896   4.332   0.130   7.084 -0.0560 -0.1430  0.4934
 2755SOL     OW19897   1.880   4.252  10.390  0.4265 -0.8658 -0.9403
 2755SOL    HW119898   1.908   4.196  10.462  3.7923 -0.5374 -1.9924
 2755SOL    HW219899   1.949   4.318  10.385  0.9919 -1.4593 -0.9402
 2756SOL     OW19900   1.771   4.020   2.791 -0.7449  0.3515 -0.0038
 2756SOL    HW119901   1.853   4.019   2.841 -0.0039 -2.0142 -1.2717
 2756SOL    HW219902   1.744   4.112   2.788 -1.1034  0.2329 -0.3141
 2757SOL     OW19903   0.542   3.166   3.446  0.0663 -0.2768  0.5131
 2757SOL    HW119904   0.520   3.093   3.388 -0.5423  1.1888 -1.1031
 2757SOL    HW219905   0.542   3.115   3.527 -1.7811  3.2657  2.7857
 2758SOL     OW19906   3.479   0.497   4.886  0.3419 -0.0016  0.1100
 2758SOL    HW119907   3.546   0.518   4.821  0.1319 -0.2523 -0.1891
 2758SOL    HW219908   3.404   0.551   4.861  0.8533  0.9789  0.7236
 2759SOL     OW19909   0.578   3.753   2.205  0.6920  0.1168  0.4174
 2759SOL    HW119910   0.565   3.669   2.161 -1.3004  0.0613  1.0916
 2759SOL    HW219911   0.561   3.735   2.298 -0.4475 -4.6252 -0.7361
 2760SOL     OW19912   1.979   1.885   0.744  0.6249 -0.1866 -0.5114
 2760SOL    HW119913   2.024   1.969   0.737  1.2312 -0.4616 -0.0178
 2760SOL    HW219914   1.894   1.921   0.771  2.1940  0.9619  2.9518
 2761SOL     OW19915   2.164   1.389   5.425 -0.2541  0.1759  0.3064
 2761SOL    HW119916   2.106   1.378   5.350  1.2063 -2.0381 -0.4985
 2761SOL    HW219917   2.219   1.312   5.412 -1.8088 -0.6715 -1.2509
 2762SOL     OW19918   3.448   1.585   2.259 -0.3397 -0.2246 -0.4445
 2762SOL    HW119919   3.501   1.605   2.182 -1.0643  1.5355 -0.4748
 2762SOL    HW219920   3.511   1.589   2.331  1.2136  0.3057 -1.8523
 2763SOL     OW19921   3.759   3.549   2.799  0.3366 -0.3030  0.0886
 2763SOL    HW119922   3.711   3.573   2.878  0.7646 -2.2598  0.9385
 2763SOL    HW219923   3.768   3.642   2.779 -1.8897 -0.1933 -0.3499
 2764SOL     OW19924   0.735   1.437  16.060 -0.3459 -0.4295 -0.1346
 2764SOL    HW119925   0.782   1.428  15.976  3.2415 -1.1373  1.9297
 2764SOL    HW219926   0.734   1.347  16.093 -0.6060 -0.0145  0.9561
 2765SOL     OW19927   1.000   1.702   7.626  0.2207 -0.1933  0.3033
 2765SOL    HW119928   0.905   1.699   7.623  0.1663  1.9001  0.2446
 2765SOL    HW219929   1.016   1.796   7.624 -0.9371 -0.0498 -1.6234
 2766SOL     OW19930   3.288   0.978   4.160 -0.0997  0.3010  0.0744
 2766SOL    HW119931   3.199   0.985   4.195  0.0903 -3.3678  1.2952
 2766SOL    HW219932   3.295   1.043   4.090 -0.1262 -0.7026 -0.8496
 2767SOL     OW19933   3.790   3.366   4.638  0.1173 -0.0053 -0.3963
 2767SOL    HW119934   3.765   3.323   4.556 -0.4381 -1.3845  0.5018
 2767SOL    HW219935   3.719   3.339   4.697  0.8285 -0.5695  0.2017
 2768SOL     OW19936   1.943   3.399  12.118 -0.0217  0.8731  0.6398
 2768SOL    HW119937   1.957   3.413  12.212 -1.1415 -1.7796  1.1955
 2768SOL    HW219938   1.856   3.359  12.125 -0.2693  1.2230 -0.4811
 2769SOL     OW19939   0.322   2.710  11.871  0.0856 -1.0280 -0.3723
 2769SOL    HW119940   0.241   2.661  11.853 -0.6764  0.2378 -0.3879
 2769SOL    HW219941   0.280   2.783  11.916 -0.8612 -1.5588 -0.3773
 2770SOL     OW19942   1.517   0.151   4.091  0.5533  0.1066  0.7455
 2770SOL    HW119943   1.519   0.113   4.179 -1.1735  3.4173  2.2042
 2770SOL    HW219944   1.438   0.203   4.103 -0.2916 -1.1697  0.6497
 2771SOL     OW19945   3.775   3.828   1.909 -0.1955 -0.1884 -0.2774
 2771SOL    HW119946   3.739   3.889   1.845  1.8171  0.7859 -0.4945
 2771SOL    HW219947   3.694   3.793   1.945 -0.3467  0.4612 -0.0004
 2772SOL     OW19948   2.522   1.791   7.522  0.3427  0.1247 -0.3142
 2772SOL    HW119949   2.516   1.724   7.454  1.6843 -0.0452 -0.2753
 2772SOL    HW219950   2.614   1.817   7.510 -0.0217  1.5677 -0.0247
 2773SOL     OW19951   2.599   0.071  15.589  0.3444  0.0382  0.1806
 2773SOL    HW119952   2.591   0.157  15.550 -1.1490 -0.0259  0.3357
 2773SOL    HW219953   2.693   0.060  15.599  0.4989 -0.4363 -1.8230
 2774SOL     OW19954   1.372   3.199  17.407  0.1946  0.1702 -0.2399
 2774SOL    HW119955   1.369   3.174  17.314  0.5717 -1.7064  0.2597
 2774SOL    HW219956   1.417   3.283  17.408  0.5220  0.0206 -2.0130
 2775SOL     OW19957   3.486   3.451   8.264  0.5615  0.4629 -0.4813
 2775SOL    HW119958   3.571   3.407   8.259  0.1506 -0.4676  0.6472
 2775SOL    HW219959   3.446   3.393   8.329  1.1283  1.9729  1.2121
 2776SOL     OW19960   2.633   4.592   8.281  0.0679  0.0647  0.4703
 2776SOL    HW119961   2.600   4.596   8.191  0.5915 -2.5775  0.1648
 2776SOL    HW219962   2.565   4.541   8.325  0.4828 -2.7979 -2.1852
 2777SOL     OW19963   2.591   1.921   8.985  0.1108 -0.2794 -0.4021
 2777SOL    HW119964   2.659   1.972   9.029 -1.2065  1.7899 -0.7383
 2777SOL    HW219965   2.548   1.887   9.063  1.8259  0.4669  0.8579
 2778SOL     OW19966   1.490   2.948   2.503 -0.2630 -0.3462  0.1194
 2778SOL    HW119967   1.472   2.950   2.410  1.9449 -0.7595 -0.3232
 2778SOL    HW219968   1.491   2.855   2.526  2.1891  0.0479  1.6208
 2779SOL     OW19969   0.524   2.673  11.048  0.6541  0.8912  0.1231
 2779SOL    HW119970   0.505   2.680  10.954  1.2647 -0.5172 -0.1082
 2779SOL    HW219971   0.617   2.690  11.040  0.5727  0.3485 -2.0150
 2780SOL     OW19972   4.655   1.112   4.624  0.5554  0.6451  0.5047
 2780SOL    HW119973   4.667   1.189   4.568  0.7773 -0.3601 -0.8343
 2780SOL    HW219974   4.736   1.124   4.674 -0.1019  1.7787  1.2861
 2781SOL     OW19975   3.111   0.100   4.328  0.2945 -0.4896  0.3525
 2781SOL    HW119976   3.097   0.146   4.246 -1.0842 -0.6017  0.5150
 2781SOL    HW219977   3.055   0.028   4.300  2.0473 -1.6283 -0.1774
 2782SOL     OW19978   3.825   0.457   4.884 -0.3255  0.3272 -0.2353
 2782SOL    HW119979   3.913   0.424   4.866 -1.5885 -2.2860 -1.5290
 2782SOL    HW219980   3.828   0.546   4.848 -1.9040  0.7725  0.7257
 2783SOL     OW19981   3.027   1.594   2.316  0.0647 -0.5843 -0.4464
 2783SOL    HW119982   3.052   1.568   2.227 -0.6395  0.0382 -0.8177
 2783SOL    HW219983   3.040   1.510   2.361  2.3253 -0.0656 -0.1292
 2784SOL     OW19984   3.626   4.237   3.538  0.7288  0.4255  0.2965
 2784SOL    HW119985   3.548   4.197   3.576  2.0798 -1.5496  1.0174
 2784SOL    HW219986   3.612   4.331   3.548 -3.8204 -0.0487 -1.7160
 2785SOL     OW19987   0.288   2.498   5.664  0.0519 -0.3806 -0.3344
 2785SOL    HW119988   0.277   2.456   5.579  1.1296 -2.2198  0.4438
 2785SOL    HW219989   0.313   2.422   5.717 -1.7506  0.3521  1.5691
 2786SOL     OW19990   0.849   2.794   7.359  0.4125 -0.6543  0.0067
 2786SOL    HW119991   0.825   2.883   7.333  2.4428  0.2399  1.1983
 2786SOL    HW219992   0.945   2.798   7.358  0.3362  1.1254 -1.1174
 2787SOL     OW19993   4.035   1.256   2.931  0.6079  0.3322  0.0546
 2787SOL    HW119994   3.996   1.277   3.015  0.0267  1.0704 -0.4002
 2787SOL    HW219995   4.029   1.160   2.929 -0.5885  0.3842  1.2542
 2788SOL     OW19996   3.259   4.035  16.747 -0.2197  0.0117  0.7035
 2788SOL    HW119997   3.330   4.089  16.783  0.2112 -0.3687  0.4237
 2788SOL    HW219998   3.178   4.084  16.763 -0.5037 -0.8507  1.8366
 2789SOL     OW19999   3.597   3.408   5.171  0.7675  0.1836  0.2325
 2789SOL    HW120000   3.525   3.469   5.186  0.6460  0.5786 -2.0061
 2789SOL    HW220001   3.548   3.326   5.163  1.4276 -0.2785  0.8860
 2790SOL     OW20002   0.528   0.923  10.898  0.6419 -0.5391  0.6202
 2790SOL    HW120003   0.535   0.829  10.913 -1.5574 -0.9352 -0.8506
 2790SOL    HW220004   0.434   0.941  10.904  0.4396 -1.4797  0.0669
 2791SOL     OW20005   0.587   1.741   7.972  0.2170 -0.8377 -0.9810
 2791SOL    HW120006   0.675   1.732   8.009 -0.3552 -3.6796 -0.2904
 2791SOL    HW220007   0.529   1.715   8.044 -0.9618  2.5485 -0.7094
 2792SOL     OW20008   0.255   1.454   8.315  0.0065 -0.1894  0.6165
 2792SOL    HW120009   0.279   1.374   8.267 -2.0868 -1.0271  0.9759
 2792SOL    HW220010   0.261   1.416   8.403  0.6246 -0.7205  0.3482
 2793SOL     OW20011   2.906   1.105  14.923  0.0771 -0.1073  0.3993
 2793SOL    HW120012   2.987   1.123  14.875 -0.3264 -1.0773 -0.6324
 2793SOL    HW220013   2.941   1.039  14.982 -0.0103  0.5740  1.2082
 2794SOL     OW20014   1.004   4.066  17.378 -0.3129 -0.3086 -0.3191
 2794SOL    HW120015   1.054   4.128  17.431  0.9683 -1.6637  0.0691
 2794SOL    HW220016   1.020   3.989  17.433  0.1823 -0.7790 -1.1319
 2795SOL     OW20017   4.389   1.244  16.898  0.4924  0.3880 -0.0359
 2795SOL    HW120018   4.448   1.212  16.831 -0.4623 -0.8689 -0.2809
 2795SOL    HW220019   4.360   1.164  16.943  2.0626 -0.7627 -1.1108
 2796SOL     OW20020   3.460   3.567   0.683 -0.0921  0.6169 -0.2620
 2796SOL    HW120021   3.367   3.555   0.704  0.4936 -0.7308  1.5640
 2796SOL    HW220022   3.458   3.558   0.588 -0.8689 -1.2305 -0.0852
 2797SOL     OW20023   2.617   1.550   2.022  0.5276 -0.0648 -0.4919
 2797SOL    HW120024   2.619   1.637   2.060 -3.0012 -0.4944  0.6546
 2797SOL    HW220025   2.632   1.492   2.097  4.0878  2.7023  0.9528
 2798SOL     OW20026   2.113   4.324   1.327 -0.3786 -0.4133 -0.0750
 2798SOL    HW120027   2.153   4.257   1.382  2.2075  0.3575 -1.0184
 2798SOL    HW220028   2.124   4.400   1.385  0.0996  0.4258 -1.2586
 2799SOL     OW20029   4.191   2.669   6.051  0.2968 -0.5874  0.0353
 2799SOL    HW120030   4.201   2.752   6.005  1.2216 -0.8905 -0.3111
 2799SOL    HW220031   4.183   2.693   6.143  0.2441 -2.1746  0.4439
 2800SOL     OW20032   4.333   0.026   2.984  0.1230  0.2377 -0.0491
 2800SOL    HW120033   4.352   0.024   3.077  0.2354 -0.8358 -0.0872
 2800SOL    HW220034   4.403   0.086   2.957  1.3356 -0.7012  1.0024
 2801SOL     OW20035   4.161   2.330   0.624 -0.1050  0.8319  0.2292
 2801SOL    HW120036   4.135   2.380   0.548  0.3332  1.9043  0.7859
 2801SOL    HW220037   4.105   2.379   0.684  1.7830  1.1818  1.7508
 2802SOL     OW20038   4.003   1.924  12.208  0.1909 -0.1086 -0.1378
 2802SOL    HW120039   4.041   1.920  12.120 -1.5557  2.0385 -0.9694
 2802SOL    HW220040   4.020   2.016  12.224 -1.0459 -0.0416  0.7834
 2803SOL     OW20041   0.041   4.376   6.839  0.5091  0.4117  0.0230
 2803SOL    HW120042   0.068   4.437   6.908 -2.3584  1.8877 -0.1816
 2803SOL    HW220043   4.683   4.387   6.831  0.5974  0.8425 -0.3855
 2804SOL     OW20044   0.440   2.744   8.265 -0.9341 -0.2167  0.3399
 2804SOL    HW120045   0.504   2.674   8.274 -1.6985 -0.9423  0.1682
 2804SOL    HW220046   0.471   2.799   8.337  1.6064 -0.2495 -0.7283
 2805SOL     OW20047   3.031   0.833   8.343 -0.5205  0.0790  0.4561
 2805SOL    HW120048   2.951   0.802   8.386 -1.0409 -1.5656 -1.6916
 2805SOL    HW220049   2.990   0.895   8.283  0.8177 -1.1382 -1.7092
 2806SOL     OW20050   2.380   3.168   8.682 -0.1899 -0.0208 -0.3077
 2806SOL    HW120051   2.462   3.217   8.677 -1.3496  1.7289 -2.4067
 2806SOL    HW220052   2.335   3.228   8.740  1.5090  3.1238 -2.2522
 2807SOL     OW20053   1.873   1.744   5.201 -0.6562  0.2147  0.1944
 2807SOL    HW120054   1.846   1.724   5.291 -0.9851 -2.3631 -0.4798
 2807SOL    HW220055   1.910   1.831   5.214  4.2209 -1.8700  0.3289
 2808SOL     OW20056   2.968   2.439   9.025 -0.3380  0.1149 -0.4997
 2808SOL    HW120057   3.000   2.453   8.936 -1.2433 -0.4773 -0.9123
 2808SOL    HW220058   3.013   2.360   9.056 -1.5082  0.2981  1.6595
 2809SOL     OW20059   4.205   2.464   5.236 -0.0009  0.0408 -0.2730
 2809SOL    HW120060   4.139   2.395   5.247  0.6326 -0.6907 -1.0149
 2809SOL    HW220061   4.285   2.443   5.284 -0.3855 -0.6539  0.0616
 2810SOL     OW20062   3.971   2.366   0.846  0.0678  0.2568  0.0764
 2810SOL    HW120063   3.908   2.341   0.779  0.9136 -0.3882 -0.4759
 2810SOL    HW220064   3.935   2.311   0.916  2.2969 -0.3961  0.7222
 2811SOL     OW20065   0.384   4.417   2.828  0.1435  0.4227  0.2224
 2811SOL    HW120066   0.416   4.372   2.750 -1.2111  1.5485 -0.9791
 2811SOL    HW220067   0.388   4.353   2.899  0.6750 -0.3970 -0.5463
 2812SOL     OW20068   4.411   2.047   2.627 -0.3297 -0.2722  0.7897
 2812SOL    HW120069   4.363   2.073   2.548 -0.1890  0.6335  1.0022
 2812SOL    HW220070   4.438   1.957   2.608 -0.0801  0.0218 -0.2811
 2813SOL     OW20071   2.772   2.019   7.556 -0.1370 -0.4320  0.1314
 2813SOL    HW120072   2.851   2.032   7.503  0.4800 -0.5795  1.0211
 2813SOL    HW220073   2.814   1.976   7.630  2.4894  1.0981 -0.4777
 2814SOL     OW20074   3.651   0.739   1.882  0.6487  0.3693 -0.1870
 2814SOL    HW120075   3.738   0.747   1.920  0.4902  0.5784  0.1325
 2814SOL    HW220076   3.680   0.709   1.796  1.8149 -1.2192  0.7705
 2815SOL     OW20077   4.579   1.199   3.235  0.1378  0.4175 -0.6208
 2815SOL    HW120078   4.645   1.220   3.301  2.0890 -2.0116 -1.7839
 2815SOL    HW220079   4.499   1.201   3.288  1.6750 -2.1991  1.7782
 2816SOL     OW20080   1.660   0.013   8.228  0.2236 -0.0151  0.3690
 2816SOL    HW120081   1.668   0.106   8.250 -1.9105  0.1447  0.5062
 2816SOL    HW220082   1.753   4.728   8.228 -0.0487 -1.1695  0.5010
 2817SOL     OW20083   4.188   2.707   5.365 -0.1850  0.3088  0.1736
 2817SOL    HW120084   4.276   2.705   5.402 -0.4081  0.1610  0.6964
 2817SOL    HW220085   4.186   2.623   5.321  1.7401 -0.7401  2.0718
 2818SOL     OW20086   1.555   1.525   2.808  0.2265 -0.2144 -0.4301
 2818SOL    HW120087   1.600   1.608   2.790 -0.9321  0.2811 -1.1079
 2818SOL    HW220088   1.474   1.545   2.856  2.0616  0.0196  2.6151
 2819SOL     OW20089   3.271   1.323   7.087  0.1060  1.3317  0.6707
 2819SOL    HW120090   3.231   1.267   7.153 -1.9794  0.1922 -1.5599
 2819SOL    HW220091   3.208   1.394   7.086 -1.7614 -0.3371  0.3908
 2820SOL     OW20092   3.335   2.584   4.734 -0.2609  0.2734  0.3608
 2820SOL    HW120093   3.292   2.611   4.815  0.0768  1.6938  0.0650
 2820SOL    HW220094   3.270   2.622   4.674  0.6550 -0.1902 -0.9404
 2821SOL     OW20095   1.684   2.581  14.965  0.1774  0.1714 -0.0734
 2821SOL    HW120096   1.639   2.615  14.887 -2.5202  0.7754  1.7627
 2821SOL    HW220097   1.778   2.575  14.949  0.0657 -0.6285 -0.4400
 2822SOL     OW20098   0.979   1.138   9.401 -0.5695 -0.1831  0.4240
 2822SOL    HW120099   0.919   1.181   9.340 -1.1116 -0.7982  0.5256
 2822SOL    HW220100   1.008   1.065   9.346  0.4947  0.7389 -0.2376
 2823SOL     OW20101   2.462   4.460  13.326  0.1626  0.2422 -0.0181
 2823SOL    HW120102   2.458   4.485  13.418 -1.0972 -0.9442  0.2413
 2823SOL    HW220103   2.453   4.366  13.339 -0.0163  0.0462 -1.5651
 2824SOL     OW20104   0.735   2.789  11.275  0.5455  0.4479  0.8132
 2824SOL    HW120105   0.747   2.756  11.186  0.7699  2.3041  0.1648
 2824SOL    HW220106   0.707   2.712  11.326  0.3601 -1.7154 -2.5419
 2825SOL     OW20107   1.301   3.516   4.335  0.1829 -0.3893 -0.1568
 2825SOL    HW120108   1.312   3.603   4.374 -1.2226  0.1778 -1.0446
 2825SOL    HW220109   1.376   3.528   4.276 -0.2377  0.5846 -0.4967
 2826SOL     OW20110   2.659   0.551   5.027 -0.0389 -0.4209  0.5614
 2826SOL    HW120111   2.669   0.600   5.108  0.0106 -0.0061  0.3065
 2826SOL    HW220112   2.576   0.576   4.987  0.5524  0.4697 -0.1103
 2827SOL     OW20113   1.031   0.003   2.238  0.2977  0.5145  0.6811
 2827SOL    HW120114   1.106   0.049   2.278  0.2170  0.2023  1.1942
 2827SOL    HW220115   1.024   4.655   2.283 -0.5209  0.0757 -0.2822
 2828SOL     OW20116   1.730   4.665   0.687 -0.0716 -0.4670  0.2178
 2828SOL    HW120117   1.748   0.009   0.638 -0.1515 -0.1753  0.6683
 2828SOL    HW220118   1.778   4.592   0.648  0.1591 -0.2930  0.1694
 2829SOL     OW20119   1.277   4.112   4.855  0.8997  0.0475 -0.4319
 2829SOL    HW120120   1.352   4.057   4.879 -0.1204 -1.4571 -0.6915
 2829SOL    HW220121   1.312   4.194   4.822 -1.3585  0.9456 -0.6136
 2830SOL     OW20122   1.977   0.273   8.811  0.0439  0.2451  0.0359
 2830SOL    HW120123   2.026   0.232   8.882 -2.5902  1.4321  2.5364
 2830SOL    HW220124   1.903   0.214   8.824  0.1409  0.2447  0.5836
 2831SOL     OW20125   1.118   3.268   3.063  0.1471  0.0615  0.3893
 2831SOL    HW120126   1.194   3.233   3.110 -0.1243 -0.4058  0.4758
 2831SOL    HW220127   1.137   3.231   2.977  2.6756  0.9611  0.5415
 2832SOL     OW20128   0.583   3.940   8.247 -0.1130 -0.3445 -0.4236
 2832SOL    HW120129   0.666   3.966   8.209  0.5588  2.9774  3.3024
 2832SOL    HW220130   0.555   4.025   8.282 -0.3964  0.1905 -1.9308
 2833SOL     OW20131   1.697   1.606   1.111  0.4155  0.1598 -0.2398
 2833SOL    HW120132   1.774   1.551   1.122 -0.4970 -0.9295  0.7342
 2833SOL    HW220133   1.746   1.686   1.092  0.8907 -0.2386 -0.7025
 2834SOL     OW20134   2.586   4.394  10.590 -0.2005 -0.0899  0.1744
 2834SOL    HW120135   2.580   4.420  10.682 -0.8170 -4.1662  1.2991
 2834SOL    HW220136   2.680   4.391  10.571 -0.0445  0.4374  0.8649
 2835SOL     OW20137   1.358   0.519   5.634 -0.0931 -0.9108 -0.1475
 2835SOL    HW120138   1.395   0.431   5.644 -3.6515 -2.2321  1.4386
 2835SOL    HW220139   1.283   0.514   5.693 -0.6020 -0.8375 -0.7900
 2836SOL     OW20140   2.970   1.148   5.841  0.4685 -0.0632  0.3898
 2836SOL    HW120141   2.987   1.136   5.934 -2.3501  0.8218  1.0068
 2836SOL    HW220142   3.057   1.119   5.813  0.1112  0.6736 -1.5173
 2837SOL     OW20143   4.275   4.319  15.810 -0.5031 -0.0851 -0.3681
 2837SOL    HW120144   4.288   4.391  15.871 -1.9029 -0.0027 -0.1793
 2837SOL    HW220145   4.332   4.340  15.735 -0.8087  0.8877 -0.3211
 2838SOL     OW20146   0.825   2.350   9.304 -0.3069 -0.3128 -0.2240
 2838SOL    HW120147   0.839   2.283   9.371  0.1232 -0.8631 -0.8610
 2838SOL    HW220148   0.791   2.294   9.235 -1.4546  0.5317 -0.3345
 2839SOL     OW20149   2.478   0.563   9.313  0.2460  0.1156 -0.6271
 2839SOL    HW120150   2.422   0.560   9.235 -0.4070 -0.8147 -0.1126
 2839SOL    HW220151   2.525   0.480   9.305  0.8965  0.3296  0.9729
 2840SOL     OW20152   2.743   2.952   8.488 -0.1675 -0.7301 -0.3754
 2840SOL    HW120153   2.735   2.917   8.577 -0.8764 -2.6948 -1.2056
 2840SOL    HW220154   2.657   2.932   8.451 -0.3402 -1.4893  0.4326
 2841SOL     OW20155   3.079   4.316  12.465  0.2204 -0.1539  0.3662
 2841SOL    HW120156   3.131   4.313  12.385 -0.9732 -2.2242 -0.3393
 2841SOL    HW220157   3.143   4.300  12.534 -0.3457 -2.5105  0.3267
 2842SOL     OW20158   3.965   4.271   7.302 -0.7295  0.1317 -0.0774
 2842SOL    HW120159   3.992   4.179   7.298  1.1322  0.7625 -1.6373
 2842SOL    HW220160   3.972   4.284   7.397 -1.5025  0.9624 -0.1278
 2843SOL     OW20161   3.266   0.000   7.260 -0.4376  0.2798 -0.1593
 2843SOL    HW120162   3.214   0.075   7.229  1.2232  0.7059 -1.9029
 2843SOL    HW220163   3.347   0.021   7.213 -0.5082 -0.9059 -0.8229
 2844SOL     OW20164   2.569   0.438  16.527  0.2125  0.1450  0.5941
 2844SOL    HW120165   2.521   0.365  16.488 -1.6448  2.6692 -1.8620
 2844SOL    HW220166   2.644   0.441  16.468  0.6957  1.2819  1.2674
 2845SOL     OW20167   0.462   3.083   8.448  0.2121  0.3237  0.3488
 2845SOL    HW120168   0.509   3.010   8.487 -2.0104 -0.9852  0.5730
 2845SOL    HW220169   0.524   3.141   8.403  0.3717 -0.3100 -0.2464
 2846SOL     OW20170   2.196   2.377   9.251 -0.5100 -0.0217  0.2391
 2846SOL    HW120171   2.204   2.349   9.342 -1.0327  0.9837  0.5994
 2846SOL    HW220172   2.288   2.365   9.226 -0.3848  3.1782 -0.9143
 2847SOL     OW20173   4.649   1.254   5.414  0.6797 -0.3908 -0.1669
 2847SOL    HW120174   4.619   1.167   5.387 -1.7685  0.6495 -0.7248
 2847SOL    HW220175   4.732   1.231   5.457  0.6279 -1.3400 -0.5764
 2848SOL     OW20176   0.147   0.765   9.189 -1.2939  0.0459  0.1359
 2848SOL    HW120177   0.059   0.743   9.219 -0.1919  0.8407  3.8622
 2848SOL    HW220178   0.193   0.681   9.187  2.1198  1.9304 -0.3591
 2849SOL     OW20179   4.352   0.336  17.424  0.1145  0.0403  0.4520
 2849SOL    HW120180   4.365   0.275  17.351  2.6631  2.2714 -0.9689
 2849SOL    HW220181   4.301   0.285  17.487  1.0804 -0.4555  0.8343
 2850SOL     OW20182   1.487   2.751   6.336  0.0381  0.4550  0.2693
 2850SOL    HW120183   1.577   2.719   6.327 -0.1678  0.4141 -1.6103
 2850SOL    HW220184   1.466   2.764   6.244  0.6929 -1.9977 -0.2282
 2851SOL     OW20185   1.687   1.382  15.921 -0.7625  0.2676  0.5672
 2851SOL    HW120186   1.760   1.438  15.895 -0.4775 -0.1450  0.4942
 2851SOL    HW220187   1.727   1.314  15.974 -3.6273 -2.4847 -0.7618
 2852SOL     OW20188   1.494   0.878   2.527 -0.0762  0.2209  0.4442
 2852SOL    HW120189   1.442   0.823   2.586 -0.0998 -2.0505 -1.7131
 2852SOL    HW220190   1.463   0.844   2.443  0.8799 -0.3004  0.3078
 2853SOL     OW20191   0.019   2.078  14.471 -0.1547  0.2873 -0.2153
 2853SOL    HW120192   0.058   2.120  14.393  2.3949 -1.7107 -0.0177
 2853SOL    HW220193   4.689   2.143  14.491 -0.2104 -0.5279  2.2547
 2854SOL     OW20194   1.496   3.882  16.836 -0.0507 -0.0101 -0.3476
 2854SOL    HW120195   1.528   3.970  16.817  0.0177 -0.1193 -0.7312
 2854SOL    HW220196   1.505   3.874  16.931 -0.9329  0.8634 -0.1811
 2855SOL     OW20197   0.065   0.629   4.664  0.1881  0.0467  0.3770
 2855SOL    HW120198   0.105   0.672   4.589  2.7394  0.4148  1.9320
 2855SOL    HW220199   4.707   0.647   4.659  0.3563  0.5724 -0.8442
 2856SOL     OW20200   4.355   2.762   6.690 -0.0540  0.1849 -0.6061
 2856SOL    HW120201   4.286   2.731   6.749  0.1004  0.8204 -0.0827
 2856SOL    HW220202   4.339   2.853   6.716 -1.1331  0.4315 -2.1388
 2857SOL     OW20203   2.370   3.789   2.428  0.1403  0.9189 -0.0970
 2857SOL    HW120204   2.363   3.810   2.522 -0.2321  2.1379 -0.3951
 2857SOL    HW220205   2.299   3.725   2.436 -1.6939  2.5673 -3.4216
 2858SOL     OW20206   2.738   0.307   7.511 -0.4411 -0.7468  0.0516
 2858SOL    HW120207   2.816   0.252   7.522 -0.4039 -1.1177 -2.1411
 2858SOL    HW220208   2.779   0.390   7.535 -0.4090 -0.6935 -0.1901
 2859SOL     OW20209   2.392   4.045   1.339  0.0020 -0.1295  0.2502
 2859SOL    HW120210   2.326   4.099   1.382  1.5496  2.8273 -1.0427
 2859SOL    HW220211   2.465   4.107   1.345 -0.8510  1.0312 -1.2960
 2860SOL     OW20212   1.481   4.179   9.040  0.5928 -0.0875  0.1283
 2860SOL    HW120213   1.539   4.170   8.964  1.7813  0.7562  0.9304
 2860SOL    HW220214   1.498   4.265   9.078  1.8838  0.3573 -1.4513
 2861SOL     OW20215   0.497   3.064   8.009  0.0733 -0.3645  0.0593
 2861SOL    HW120216   0.550   3.081   7.931 -2.2534  3.0011 -0.8122
 2861SOL    HW220217   0.473   2.973   7.997  1.1111 -0.5359 -0.6917
 2862SOL     OW20218   3.446   3.132   1.674 -0.1774 -0.4535 -0.3144
 2862SOL    HW120219   3.408   3.107   1.759 -0.1439  0.6942  0.0452
 2862SOL    HW220220   3.538   3.111   1.686  0.0855  0.9545  0.1177
 2863SOL     OW20221   4.354   3.920   3.424  0.9400  0.1379  0.0586
 2863SOL    HW120222   4.355   3.953   3.335  0.5879  0.3644  0.1386
 2863SOL    HW220223   4.318   3.833   3.407  2.2154 -0.4114  0.1603
 2864SOL     OW20224   0.857   2.444   5.413  0.0058 -0.0367  0.0554
 2864SOL    HW120225   0.825   2.534   5.415 -0.0350 -0.0213 -1.5290
 2864SOL    HW220226   0.773   2.398   5.422 -0.1696  0.3837  0.5827
 2865SOL     OW20227   3.283   2.425   3.111 -0.5948  0.4338  0.0079
 2865SOL    HW120228   3.242   2.477   3.041 -0.3326  0.8882  0.1879
 2865SOL    HW220229   3.339   2.485   3.160  0.9004 -0.3026 -0.7912
 2866SOL     OW20230   0.222   0.903   8.147  0.4071 -0.1745 -0.4626
 2866SOL    HW120231   0.276   0.830   8.179 -0.6355 -0.1229  1.4123
 2866SOL    HW220232   0.198   0.875   8.058  0.7125 -0.6261 -0.4024
 2867SOL     OW20233   2.493   0.021  15.310  0.0428  0.3441 -0.3100
 2867SOL    HW120234   2.557   0.023  15.381 -0.0753  2.0350 -0.2411
 2867SOL    HW220235   2.441   0.100  15.326  0.4095 -0.2484  3.8248
 2868SOL     OW20236   0.454   3.700   7.145  0.3793 -0.0111  0.1853
 2868SOL    HW120237   0.379   3.756   7.124  1.9071  1.8626 -0.3524
 2868SOL    HW220238   0.442   3.702   7.240 -0.1163 -1.5135  0.1449
 2869SOL     OW20239   0.651   1.667   5.852 -0.2423 -0.1588 -0.2115
 2869SOL    HW120240   0.599   1.715   5.916  2.6415 -0.7625  2.5989
 2869SOL    HW220241   0.731   1.670   5.904  0.1856 -0.3499 -0.8493
 2870SOL     OW20242   1.714   1.275   5.280  0.3355  0.3517  0.1047
 2870SOL    HW120243   1.786   1.328   5.246  0.9287 -0.2956  0.3591
 2870SOL    HW220244   1.652   1.348   5.286 -1.8202 -1.2370 -3.1707
 2871SOL     OW20245   2.453   2.773  11.320 -0.2218 -0.0898  0.5001
 2871SOL    HW120246   2.528   2.773  11.260 -0.2417  1.0088  0.4755
 2871SOL    HW220247   2.398   2.702  11.287  0.9302 -0.8992  0.2945
 2872SOL     OW20248   0.929   2.514   8.606  0.1347  0.0905  0.1390
 2872SOL    HW120249   0.933   2.607   8.584 -0.3016  0.3275  1.0784
 2872SOL    HW220250   0.999   2.512   8.671  1.4794  0.7402 -1.2853
 2873SOL     OW20251   0.050   4.690   7.614  0.4480 -0.2759 -0.4773
 2873SOL    HW120252   4.696   4.685   7.583  0.5184  0.6384 -0.8252
 2873SOL    HW220253   0.060   4.678   7.709 -0.3504  1.3256 -0.1996
 2874SOL     OW20254   0.127   3.101   7.901  0.2369 -0.3335 -0.7894
 2874SOL    HW120255   0.206   3.085   7.850  2.1010 -0.0535  2.0650
 2874SOL    HW220256   0.058   3.056   7.851  2.3066 -0.8981 -3.1049
 2875SOL     OW20257   2.079   3.702   8.453  0.0395 -0.4143 -0.5651
 2875SOL    HW120258   1.992   3.742   8.446  0.6874  1.3734  1.8615
 2875SOL    HW220259   2.120   3.768   8.508 -0.4736  0.4177 -1.1735
 2876SOL     OW20260   3.982   3.209   8.179 -0.1083 -0.1723  0.4037
 2876SOL    HW120261   3.931   3.289   8.196  0.9867  0.1982  2.0308
 2876SOL    HW220262   4.037   3.216   8.258  0.4855  0.4355 -0.0586
 2877SOL     OW20263   1.343   1.721   3.681 -0.1765 -0.3002 -0.5230
 2877SOL    HW120264   1.420   1.687   3.635 -0.1087 -1.7272  0.6430
 2877SOL    HW220265   1.289   1.646   3.658 -2.0858  0.1612  2.3846
 2878SOL     OW20266   3.772   0.351   3.081  0.2279 -0.1985 -0.1647
 2878SOL    HW120267   3.760   0.281   3.016 -0.2056 -0.7287  0.4866
 2878SOL    HW220268   3.867   0.351   3.091  0.0580  0.4141  1.3056
 2879SOL     OW20269   1.299   3.121   8.607 -0.2707 -0.8097 -0.3060
 2879SOL    HW120270   1.248   3.115   8.526  0.2149  2.8509 -0.9227
 2879SOL    HW220271   1.347   3.204   8.604 -0.4439 -0.6547  1.1943
 2880SOL     OW20272   4.249   2.766   7.768 -0.0377  0.4791  0.4479
 2880SOL    HW120273   4.307   2.841   7.782  1.8897 -0.6894 -1.3965
 2880SOL    HW220274   4.245   2.720   7.851 -2.0845 -0.8002 -0.3555
 2881SOL     OW20275   3.930   4.213   8.308  0.0567 -0.0904 -0.4210
 2881SOL    HW120276   3.944   4.285   8.247  2.4568 -0.0623  0.1507
 2881SOL    HW220277   3.961   4.140   8.253  0.7644 -0.1369  0.0312
 2882SOL     OW20278   1.810   2.132   9.816 -0.5655 -0.0420  0.0851
 2882SOL    HW120279   1.727   2.099   9.781 -0.7843  0.4877  0.1001
 2882SOL    HW220280   1.776   2.193   9.880  1.2048  0.8909  0.1279
 2883SOL     OW20281   1.865   0.562   0.305  0.4846 -0.1187  0.1435
 2883SOL    HW120282   1.815   0.594   0.379  2.6822  1.2642  1.0170
 2883SOL    HW220283   1.794   0.524   0.253 -0.4160  2.0468 -0.2083
 2884SOL     OW20284   1.687   1.287   1.224 -0.2822  0.7532  0.3965
 2884SOL    HW120285   1.663   1.270   1.133 -0.8696  4.5723 -0.1264
 2884SOL    HW220286   1.748   1.359   1.208  2.4894 -1.5867  0.3693
 2885SOL     OW20287   4.727   2.289   3.484  0.2167  0.5544  0.1341
 2885SOL    HW120288   4.701   2.342   3.560  0.6215 -0.5752  1.0644
 2885SOL    HW220289   4.705   2.351   3.415  0.2851  0.0357 -0.3498
 2886SOL     OW20290   2.583   2.682   3.335 -0.0681 -0.4247 -0.0126
 2886SOL    HW120291   2.549   2.689   3.246 -0.5488 -1.7698  0.0549
 2886SOL    HW220292   2.508   2.639   3.378 -0.1561 -0.2985 -0.0392
 2887SOL     OW20293   2.270   3.867   3.610 -0.0874  0.3043  0.0839
 2887SOL    HW120294   2.207   3.931   3.576 -2.3218 -0.6603  2.4444
 2887SOL    HW220295   2.322   3.836   3.535  2.4006 -1.4913  2.5794
 2888SOL     OW20296   2.393   3.486   3.291  1.5760  0.4437  0.0964
 2888SOL    HW120297   2.453   3.426   3.246 -0.7381 -0.6278 -1.5190
 2888SOL    HW220298   2.324   3.426   3.316  0.3533  1.1007 -1.6981
 2889SOL     OW20299   3.885   1.769   3.755 -1.3049  0.3313 -0.8624
 2889SOL    HW120300   3.813   1.718   3.794  1.4891 -1.1496  2.3030
 2889SOL    HW220301   3.863   1.753   3.663  0.9602 -1.6360 -1.0487
 2890SOL     OW20302   0.947   1.812   1.401 -0.1168  0.0077 -0.1029
 2890SOL    HW120303   0.938   1.754   1.477 -0.9948  1.0430  0.5777
 2890SOL    HW220304   0.979   1.890   1.447 -1.0243 -0.0186  0.5640
 2891SOL     OW20305   2.304   2.287   7.473  1.0358  0.4589 -0.0325
 2891SOL    HW120306   2.321   2.200   7.508  0.7969  0.4548  0.0686
 2891SOL    HW220307   2.317   2.270   7.380  0.6035  0.3456 -0.0698
 2892SOL     OW20308   0.162   0.057   5.494 -0.5730  0.1573  0.3931
 2892SOL    HW120309   0.132   4.703   5.498  0.8878 -0.4101 -1.4727
 2892SOL    HW220310   0.108   0.094   5.424 -0.3540  0.2473  0.2743
 2893SOL     OW20311   3.450   0.765   2.441  0.2544  0.1168  0.2643
 2893SOL    HW120312   3.354   0.769   2.437  0.3172  1.0948 -0.2033
 2893SOL    HW220313   3.454   0.723   2.527  3.0000 -0.8770 -0.3534
 2894SOL     OW20314   0.584   2.927  16.147  0.1905 -0.2938 -0.0025
 2894SOL    HW120315   0.596   2.862  16.078  2.9139 -0.9335  1.0775
 2894SOL    HW220316   0.489   2.923  16.158  0.2612 -2.5630 -0.2674
 2895SOL     OW20317   0.942   1.042  12.645 -0.5393  0.7260  0.2722
 2895SOL    HW120318   1.005   1.088  12.700  0.6986 -1.3463  0.5849
 2895SOL    HW220319   0.980   1.052  12.558 -1.8296 -0.5594 -0.4556
 2896SOL     OW20320   2.157   0.341   6.067 -0.1934 -0.0208 -0.6886
 2896SOL    HW120321   2.134   0.407   6.133  0.2430  0.6494 -1.2044
 2896SOL    HW220322   2.142   0.261   6.117 -2.9191  0.6876 -0.3689
 2897SOL     OW20323   3.259   3.909   9.790  0.1913  0.2446 -0.4487
 2897SOL    HW120324   3.178   3.923   9.839 -0.4433 -0.0539 -1.3955
 2897SOL    HW220325   3.319   3.978   9.818  1.1126 -0.8277  0.2482
 2898SOL     OW20326   3.899   4.113   1.835 -1.1816 -0.0675  0.1134
 2898SOL    HW120327   3.903   4.089   1.743 -2.7691 -1.2224  0.3488
 2898SOL    HW220328   3.975   4.069   1.872 -0.4250  0.5376 -0.7161
 2899SOL     OW20329   0.660   4.226   6.469  0.2793 -0.6451 -0.3709
 2899SOL    HW120330   0.613   4.256   6.547 -0.0676 -2.4732  0.1301
 2899SOL    HW220331   0.636   4.296   6.408  1.2967  1.4782  1.6762
 2900SOL     OW20332   2.961   1.907   6.869 -0.4515  0.0742 -0.1356
 2900SOL    HW120333   3.056   1.896   6.877 -0.3877  0.7806  0.1156
 2900SOL    HW220334   2.921   1.850   6.934  0.3594 -1.2313 -0.7839
 2901SOL     OW20335   2.736   2.992  11.504  0.6308 -0.3113 -0.3891
 2901SOL    HW120336   2.792   3.002  11.581 -0.6937  2.2954  0.2359
 2901SOL    HW220337   2.795   2.930  11.462  0.7203 -1.4036  1.3221
 2902SOL     OW20338   2.387   3.829  10.335  0.1114 -0.0553  0.0148
 2902SOL    HW120339   2.377   3.737  10.312 -2.3515  0.4246 -0.8245
 2902SOL    HW220340   2.306   3.861  10.374  1.7951  2.9854  1.0071
 2903SOL     OW20341   1.785   3.024   1.108  0.5398 -0.1371 -0.7412
 2903SOL    HW120342   1.817   2.965   1.039  3.4020 -0.2338  0.6704
 2903SOL    HW220343   1.746   2.960   1.168  0.5201 -1.9104 -2.6375
 2904SOL     OW20344   2.163   4.518   1.700 -0.0880 -0.4028  0.5638
 2904SOL    HW120345   2.104   4.457   1.655  1.1872 -1.4355  0.2749
 2904SOL    HW220346   2.158   4.483   1.789 -1.8192 -0.7893  0.3050
 2905SOL     OW20347   1.967   0.754   6.688 -0.3211 -0.5273 -0.4553
 2905SOL    HW120348   1.964   0.849   6.690 -0.0559 -0.4810 -2.7788
 2905SOL    HW220349   2.058   0.734   6.711  0.0759  0.7859 -0.9259
 2906SOL     OW20350   0.412   2.862   7.624  0.1367 -0.0095 -0.1326
 2906SOL    HW120351   0.465   2.782   7.620 -0.0527  0.0250 -3.6404
 2906SOL    HW220352   0.429   2.896   7.536 -1.8244 -0.3484 -0.6266
 2907SOL     OW20353   4.616   3.153   5.983  0.2342  0.1790 -0.5332
 2907SOL    HW120354   4.555   3.190   6.047 -0.9116 -0.5230 -1.2273
 2907SOL    HW220355   4.644   3.241   5.956  1.4347  0.4796  1.6577
 2908SOL     OW20356   0.330   3.970   9.264 -0.2371  0.0222 -0.1454
 2908SOL    HW120357   0.234   3.964   9.264 -0.2918  0.8875 -0.1204
 2908SOL    HW220358   0.341   3.900   9.200  3.1951 -0.8430  1.3928
 2909SOL     OW20359   4.083   2.770  15.811  0.0506 -0.1557 -0.3904
 2909SOL    HW120360   4.023   2.699  15.788  1.5576 -1.0761 -1.5166
 2909SOL    HW220361   4.037   2.826  15.874  1.1463 -0.1911  0.4601
 2910SOL     OW20362   2.244   4.592   0.556 -0.9080 -0.3912 -0.3356
 2910SOL    HW120363   2.176   4.579   0.623 -0.8025  0.4312 -0.0662
 2910SOL    HW220364   2.229   4.515   0.501 -0.2951 -0.8592  0.1473
 2911SOL     OW20365   4.141   1.523  14.744 -0.2252 -0.4618 -0.0656
 2911SOL    HW120366   4.120   1.539  14.652  0.6362  1.0573 -0.0045
 2911SOL    HW220367   4.167   1.433  14.726 -0.4436 -0.8620  1.5789
 2912SOL     OW20368   3.198   3.331  12.495  0.2020 -0.3775  0.2067
 2912SOL    HW120369   3.221   3.414  12.538 -0.2716 -0.5280  0.7398
 2912SOL    HW220370   3.259   3.325  12.421 -0.4508  1.5887 -0.5064
 2913SOL     OW20371   2.905   2.021   8.678 -0.3652 -0.0858  0.1663
 2913SOL    HW120372   2.965   2.095   8.691  0.3929 -0.2274 -2.4567
 2913SOL    HW220373   2.835   2.063   8.628  0.5460  2.1365  0.7737
 2914SOL     OW20374   1.198   4.183   2.122 -0.6183  0.3875 -0.5041
 2914SOL    HW120375   1.242   4.191   2.037 -0.1211 -0.6209 -0.3327
 2914SOL    HW220376   1.188   4.278   2.133  0.8525  0.4113  0.6834
 2915SOL     OW20377   2.671   0.162  16.559  0.2902 -0.5848  0.3615
 2915SOL    HW120378   2.680   0.173  16.464 -0.5388  0.2764  0.3799
 2915SOL    HW220379   2.758   0.192  16.585 -0.1596  1.2770 -0.2638
 2916SOL     OW20380   1.434   1.217   3.062 -0.1871 -0.1384  0.0728
 2916SOL    HW120381   1.497   1.219   2.990 -3.6929 -1.5471 -3.0452
 2916SOL    HW220382   1.348   1.228   3.020  0.0478 -0.5711 -0.5211
 2917SOL     OW20383   0.118   3.343   1.382  0.1575 -0.3626  0.1891
 2917SOL    HW120384   0.171   3.275   1.424 -1.6619 -0.7335  1.8508
 2917SOL    HW220385   0.158   3.328   1.296  3.1459  3.6362  0.8582
 2918SOL     OW20386   1.965   0.314  13.480 -0.1371 -0.3801 -0.2243
 2918SOL    HW120387   1.891   0.275  13.433 -1.3628 -0.6224  1.8644
 2918SOL    HW220388   1.949   0.404  13.450 -4.1175 -2.6022 -4.6831
 2919SOL     OW20389   2.435   0.443   3.613 -0.4622 -0.0763  0.1614
 2919SOL    HW120390   2.513   0.464   3.664 -0.3387 -2.1221  0.8173
 2919SOL    HW220391   2.384   0.395   3.678  1.4517 -0.3830  1.4404
 2920SOL     OW20392   1.835   4.386   6.722  0.7753  0.0279 -0.1413
 2920SOL    HW120393   1.876   4.308   6.761 -2.0579  0.2198  3.1945
 2920SOL    HW220394   1.754   4.346   6.691  1.2770 -0.3669 -0.9312
 2921SOL     OW20395   3.920   2.949   7.536  0.3313 -0.2879  0.7397
 2921SOL    HW120396   3.978   2.994   7.476 -1.5944 -2.2020 -2.5886
 2921SOL    HW220397   3.838   2.996   7.522 -0.8682 -1.7831  2.6400
 2922SOL     OW20398   2.534   0.745  13.120  0.2206  0.4161 -0.2960
 2922SOL    HW120399   2.471   0.764  13.049  0.6382  1.2093 -0.4515
 2922SOL    HW220400   2.544   0.653  13.097 -1.6197  0.4467 -1.2799
 2923SOL     OW20401   2.462   1.053   5.160  0.0365 -0.1220 -0.3220
 2923SOL    HW120402   2.451   0.981   5.222  0.3135  1.7129  1.8577
 2923SOL    HW220403   2.371   1.077   5.146  1.0237  2.7622 -1.9578
 2924SOL     OW20404   1.166   1.951   8.144 -0.3752  0.1011  0.0194
 2924SOL    HW120405   1.222   2.011   8.193  0.0427 -1.0611  0.9754
 2924SOL    HW220406   1.139   1.890   8.212  0.0443 -3.2138 -2.7448
 2925SOL     OW20407   4.101   1.980   7.285  0.3107  0.9744  0.2491
 2925SOL    HW120408   4.039   2.028   7.340 -0.2556  0.8777 -0.3075
 2925SOL    HW220409   4.127   1.909   7.344 -2.8396 -1.6917 -1.5605
 2926SOL     OW20410   0.801   2.010   2.635  0.0869 -0.1435 -0.3451
 2926SOL    HW120411   0.740   1.994   2.563 -1.1282 -2.1632  1.1301
 2926SOL    HW220412   0.864   2.061   2.585  1.9945 -1.2091  0.9811
 2927SOL     OW20413   1.949   1.433   3.388 -0.4890  0.2383 -0.4256
 2927SOL    HW120414   1.937   1.527   3.404  0.4538 -0.3154  3.6567
 2927SOL    HW220415   1.922   1.422   3.297 -1.5300  0.2744 -0.1228
 2928SOL     OW20416   1.057   3.065  11.206 -0.2651 -0.5063 -0.0842
 2928SOL    HW120417   0.966   3.052  11.233 -0.1822  0.8684  0.8476
 2928SOL    HW220418   1.048   3.075  11.111 -0.6373  2.4810  0.2920
 2929SOL     OW20419   2.933   1.472  13.915  0.2807 -0.1354 -0.1759
 2929SOL    HW120420   2.897   1.445  13.830 -0.4619  0.2781  0.0090
 2929SOL    HW220421   3.009   1.414  13.924 -1.1777 -2.1125 -0.5806
 2930SOL     OW20422   3.792   0.334   9.223  0.0885  0.3527 -0.4411
 2930SOL    HW120423   3.817   0.331   9.130  0.0354 -0.5786 -0.4255
 2930SOL    HW220424   3.842   0.256   9.247  0.8534  0.9685 -0.0389
 2931SOL     OW20425   0.359   2.897   2.850 -0.4720 -0.3736  0.4757
 2931SOL    HW120426   0.314   2.843   2.785 -0.0796 -0.1796  0.0376
 2931SOL    HW220427   0.296   2.960   2.885 -0.9129 -0.1957 -0.6219
 2932SOL     OW20428   2.804   1.604   4.386  0.1655 -0.4533 -0.1802
 2932SOL    HW120429   2.884   1.609   4.334 -0.8705  3.1496 -1.4386
 2932SOL    HW220430   2.838   1.631   4.471  0.6763  1.5237 -1.0184
 2933SOL     OW20431   4.641   3.933  17.474  0.0767 -0.2972  0.4609
 2933SOL    HW120432   4.618   3.918  17.382  4.7787  0.1307 -0.7923
 2933SOL    HW220433   4.630   4.028  17.481 -1.5196 -0.4694  0.3033
 2934SOL     OW20434   1.468   0.488  14.863 -0.1568 -0.2553 -0.3421
 2934SOL    HW120435   1.394   0.431  14.885 -0.9983  0.5723 -1.0304
 2934SOL    HW220436   1.447   0.515  14.774  0.3584  0.2922 -0.2951
 2935SOL     OW20437   3.890   2.337  14.633 -0.0194 -0.3501 -0.1487
 2935SOL    HW120438   3.871   2.323  14.540  0.9841 -0.2859 -0.3680
 2935SOL    HW220439   3.984   2.353  14.628 -0.5925  2.6653 -1.6435
 2936SOL     OW20440   1.989   3.567  12.352 -0.2581 -0.8478  0.3990
 2936SOL    HW120441   1.912   3.568  12.295 -1.3240  1.6198  1.8782
 2936SOL    HW220442   1.970   3.627  12.425 -0.0251  0.8344 -0.9253
 2937SOL     OW20443   2.319   0.559   7.651 -0.2217 -0.0906  0.1896
 2937SOL    HW120444   2.248   0.497   7.672 -1.1008  0.6538 -0.5592
 2937SOL    HW220445   2.395   0.502   7.644 -0.8513 -0.7097 -1.7370
 2938SOL     OW20446   1.259   0.424   8.265  0.2974  0.4005  0.1692
 2938SOL    HW120447   1.169   0.420   8.295  0.7468 -1.1098  1.3454
 2938SOL    HW220448   1.254   0.405   8.172 -0.3428 -0.2751  0.3433
 2939SOL     OW20449   4.438   3.610  12.871 -0.5135 -0.3261 -0.5648
 2939SOL    HW120450   4.432   3.570  12.784  1.3567  1.4110 -1.4920
 2939SOL    HW220451   4.386   3.690  12.867 -1.4231 -0.7421  2.7485
 2940SOL     OW20452   2.407   1.378  15.653  0.1737  0.0009 -0.2252
 2940SOL    HW120453   2.353   1.386  15.732  0.2028  0.2725 -0.2302
 2940SOL    HW220454   2.491   1.369  15.699  0.5386  0.4506 -0.8034
 2941SOL     OW20455   1.082   4.492  10.171  0.3389  0.0306  0.2579
 2941SOL    HW120456   1.035   4.544  10.105 -2.1023 -1.6834  0.6917
 2941SOL    HW220457   1.169   4.532  10.172 -0.4928  1.8748 -0.6325
 2942SOL     OW20458   1.342   4.300   1.915 -0.3164  0.5736  0.4162
 2942SOL    HW120459   1.281   4.373   1.922  0.8910  1.6390 -0.0200
 2942SOL    HW220460   1.422   4.338   1.878 -0.3060  0.7512  0.6228
 2943SOL     OW20461   4.619   3.300  13.669 -0.1002  0.4523 -0.3912
 2943SOL    HW120462   4.589   3.268  13.754 -1.2485 -2.4663 -1.9009
 2943SOL    HW220463   4.647   3.218  13.629 -2.0459 -0.5659  0.3521
 2944SOL     OW20464   3.239   2.313   4.028  0.0565  0.0920  0.3440
 2944SOL    HW120465   3.153   2.273   4.023  0.7286 -1.2752 -0.2770
 2944SOL    HW220466   3.295   2.235   4.033  0.5101  0.5470  2.1596
 2945SOL     OW20467   2.494   4.328   7.711  0.0828  0.2302 -0.5167
 2945SOL    HW120468   2.539   4.337   7.796 -0.8765 -0.7835  0.1050
 2945SOL    HW220469   2.408   4.295   7.735 -0.9903  2.1509 -1.7847
 2946SOL     OW20470   0.885   1.571   2.177 -0.3305 -0.3840 -0.1101
 2946SOL    HW120471   0.908   1.635   2.244  1.3750 -0.4756 -0.6008
 2946SOL    HW220472   0.915   1.489   2.217 -1.6626 -0.1462  1.3797
 2947SOL     OW20473   1.730   4.001   8.508 -0.3604  0.1997  1.2238
 2947SOL    HW120474   1.762   3.946   8.436  0.4163 -0.1136  1.8092
 2947SOL    HW220475   1.792   3.966   8.572  0.9532  0.2974 -0.0051
 2948SOL     OW20476   0.856   1.690  16.238 -0.0573  0.0217 -0.4248
 2948SOL    HW120477   0.768   1.662  16.265  0.0143  1.0071  0.8350
 2948SOL    HW220478   0.856   1.688  16.142 -2.7912  0.4415 -0.4418
 2949SOL     OW20479   2.446   4.323   9.901 -0.2105  0.0550 -0.0544
 2949SOL    HW120480   2.467   4.270   9.978 -1.2751 -1.3733 -0.7480
 2949SOL    HW220481   2.463   4.262   9.829  2.5024  1.2437 -0.4091
 2950SOL     OW20482   3.965   1.055   3.845  0.3497 -0.6620 -0.3106
 2950SOL    HW120483   3.958   1.065   3.940 -2.7024 -2.8773 -0.3063
 2950SOL    HW220484   3.918   0.975   3.825 -0.0340 -0.0570 -1.7999
 2951SOL     OW20485   2.526   1.984   6.487 -0.5734 -0.0630 -0.3669
 2951SOL    HW120486   2.505   2.074   6.461  0.0981 -0.2904 -1.6846
 2951SOL    HW220487   2.621   1.990   6.478 -0.8256 -1.3926 -3.8540
 2952SOL     OW20488   1.191   3.559   3.327 -0.2009  0.0999  0.2419
 2952SOL    HW120489   1.260   3.625   3.313 -0.2330  0.2517  0.7926
 2952SOL    HW220490   1.219   3.531   3.414 -1.1083  3.5968  1.6737
 2953SOL     OW20491   0.575   0.764  10.489 -0.7372 -0.0274 -0.2647
 2953SOL    HW120492   0.505   0.736  10.548 -0.4019  0.9482  0.6016
 2953SOL    HW220493   0.643   0.776  10.556 -2.0061 -0.1802  1.0295
 2954SOL     OW20494   2.643   1.968   5.387 -0.2109 -0.4363  0.0027
 2954SOL    HW120495   2.592   1.889   5.405 -0.1363 -1.1197 -2.7514
 2954SOL    HW220496   2.677   1.989   5.474 -1.9545 -0.8270  0.7976
 2955SOL     OW20497   0.723   0.244  17.060 -0.9579 -0.2287 -0.3335
 2955SOL    HW120498   0.689   0.330  17.087  0.9463  0.2029  0.6555
 2955SOL    HW220499   0.666   0.231  16.984 -3.1303  0.6083  1.1480
 2956SOL     OW20500   2.908   1.307   9.715  0.0884 -0.3788  0.6070
 2956SOL    HW120501   2.886   1.275   9.802  0.1931  0.4062  0.9128
 2956SOL    HW220502   2.881   1.229   9.665 -2.4727  1.3383 -0.7032
 2957SOL     OW20503   1.226   1.832  14.774  0.3830 -0.3998 -0.4731
 2957SOL    HW120504   1.224   1.776  14.696 -2.4786  1.2091 -1.5473
 2957SOL    HW220505   1.161   1.787  14.826 -1.7353  2.3363 -0.7493
 2958SOL     OW20506   1.402   2.930  12.488 -0.3541  0.3352 -0.3418
 2958SOL    HW120507   1.462   2.976  12.547 -0.9486 -0.8172  1.1411
 2958SOL    HW220508   1.447   2.847  12.475 -1.1597  0.0851 -1.5580
 2959SOL     OW20509   2.011   0.353   3.085  0.6785 -0.2358 -0.1985
 2959SOL    HW120510   2.012   0.434   3.035  1.6903 -0.5309 -0.6587
 2959SOL    HW220511   2.096   0.351   3.128  0.9625 -0.1139 -0.7516
 2960SOL     OW20512   4.138   3.915   1.881 -0.1487  0.2914 -0.1766
 2960SOL    HW120513   4.203   3.979   1.854 -0.6559  1.7831  2.1364
 2960SOL    HW220514   4.169   3.897   1.970  0.9625 -0.1045 -0.6474
 2961SOL     OW20515   2.653   3.798  15.117  0.2222  0.3725 -0.5166
 2961SOL    HW120516   2.722   3.737  15.093  0.6917  0.4520  0.6201
 2961SOL    HW220517   2.694   3.882  15.097  0.4655  1.1187  3.0182
 2962SOL     OW20518   3.089   3.880  15.763  0.5762 -0.1607 -0.2150
 2962SOL    HW120519   3.127   3.855  15.680  2.6836 -0.8279  0.9746
 2962SOL    HW220520   3.161   3.931  15.800 -1.4665  1.4262  1.6360
 2963SOL     OW20521   4.569   1.794   7.611 -0.5685  0.2068 -0.0453
 2963SOL    HW120522   4.567   1.740   7.690  0.5102  0.8971  0.4503
 2963SOL    HW220523   4.596   1.875   7.654  0.3056  0.4146 -0.9723
 2964SOL     OW20524   1.702   2.096   4.385 -0.1720  0.2885 -0.4639
 2964SOL    HW120525   1.764   2.065   4.451 -1.8424 -1.9530  0.0161
 2964SOL    HW220526   1.743   2.056   4.309 -2.8267 -1.0071 -1.1882
 2965SOL     OW20527   0.842   0.767  11.645  0.0751  0.2683  0.2323
 2965SOL    HW120528   0.828   0.856  11.612 -0.8463 -0.6878 -1.9480
 2965SOL    HW220529   0.899   0.795  11.716 -0.9046  0.0537  1.1010
 2966SOL     OW20530   4.168   4.707   5.714  0.3034 -0.3127 -0.0108
 2966SOL    HW120531   4.146   4.632   5.658  0.0867 -0.9679  0.9550
 2966SOL    HW220532   4.252   4.681   5.751  0.9543  3.2980  0.9832
 2967SOL     OW20533   4.037   1.546   3.969  0.4166 -0.1010 -0.3302
 2967SOL    HW120534   4.086   1.628   3.974 -0.8037  0.5814  0.4586
 2967SOL    HW220535   4.097   1.489   4.019  0.2119  0.4619  0.5655
 2968SOL     OW20536   1.974   1.881   3.541 -0.2496 -0.2295 -0.0117
 2968SOL    HW120537   1.914   1.905   3.611  0.0521  1.1238 -0.2042
 2968SOL    HW220538   2.051   1.852   3.590  0.1364 -0.5368 -0.7973
 2969SOL     OW20539   2.026   0.540   4.670  0.1712 -0.2431 -0.0042
 2969SOL    HW120540   2.044   0.532   4.577 -2.4395 -0.0784 -0.5201
 2969SOL    HW220541   1.943   0.588   4.664 -0.3249 -0.7319  2.8085
 2970SOL     OW20542   4.606   2.118   5.552  0.3236  0.8347  0.4803
 2970SOL    HW120543   4.645   2.199   5.523 -1.7223  1.3211 -0.9282
 2970SOL    HW220544   4.598   2.136   5.646 -1.0601 -3.3185  1.2086
 2971SOL     OW20545   2.545   4.719   8.941 -0.7151 -0.0760  0.0055
 2971SOL    HW120546   2.575   4.641   8.894  0.9238  0.3551  0.3373
 2971SOL    HW220547   2.605   0.052   8.912  0.1596 -0.9070 -0.1805
 2972SOL     OW20548   0.465   0.622  12.163  0.0443 -0.2256  0.0268
 2972SOL    HW120549   0.504   0.702  12.200 -0.9531  1.0683 -1.6766
 2972SOL    HW220550   0.546   0.581  12.132  0.6409  0.1146  1.1275
 2973SOL     OW20551   1.179   2.201   6.844  0.4389  0.3463  0.2806
 2973SOL    HW120552   1.172   2.166   6.755  1.9683 -1.2414  0.7764
 2973SOL    HW220553   1.089   2.217   6.872  0.4270  1.8995 -0.6390
 2974SOL     OW20554   3.153   4.219  11.535  0.2412  0.2578 -0.1462
 2974SOL    HW120555   3.156   4.238  11.441 -1.1864 -0.3788 -0.3226
 2974SOL    HW220556   3.061   4.200  11.550  0.3951 -0.0889  0.3609
 2975SOL     OW20557   3.616   0.319   1.398  0.1763 -0.5762  0.4042
 2975SOL    HW120558   3.535   0.314   1.347 -0.1422 -1.2836  0.9851
 2975SOL    HW220559   3.616   0.413   1.420 -2.0149 -0.7616  1.2256
 2976SOL     OW20560   0.654   0.164   4.858 -0.2550  0.1917  0.7064
 2976SOL    HW120561   0.599   0.187   4.933 -2.0864  0.8629 -0.8377
 2976SOL    HW220562   0.633   0.234   4.796  0.4510  0.9211  1.2965
 2977SOL     OW20563   2.198   4.255  13.969 -0.0102 -0.8710 -0.2124
 2977SOL    HW120564   2.227   4.178  14.017  2.2428  0.4646  0.5487
 2977SOL    HW220565   2.209   4.219  13.881  1.1880 -0.0039 -0.4108
 2978SOL     OW20566   4.570   4.399   5.709 -0.4983  0.8018 -0.1418
 2978SOL    HW120567   4.662   4.420   5.716 -0.4643  0.4640  0.4387
 2978SOL    HW220568   4.561   4.338   5.782  0.3555  2.2983  1.1926
 2979SOL     OW20569   4.011   2.278  16.356  0.2252 -0.5381  0.0438
 2979SOL    HW120570   4.096   2.247  16.388 -0.4617 -1.3915  1.0328
 2979SOL    HW220571   4.016   2.249  16.265  1.0502  1.9965 -0.7235
 2980SOL     OW20572   1.081   0.384  10.180  0.1795 -0.1385  0.0083
 2980SOL    HW120573   1.105   0.323  10.249 -1.7854 -0.2838  0.5848
 2980SOL    HW220574   1.170   0.409  10.157  0.1065  0.8259  0.7456
 2981SOL     OW20575   2.773   0.418   3.635  0.1607 -0.1687 -0.1945
 2981SOL    HW120576   2.802   0.421   3.544  3.0800 -0.2551  0.7438
 2981SOL    HW220577   2.729   0.332   3.631  0.2951 -0.2389 -0.1479
 2982SOL     OW20578   2.467   0.962   5.992 -0.2593 -0.1634  0.4380
 2982SOL    HW120579   2.397   1.023   5.970  0.7387 -0.0681 -2.4574
 2982SOL    HW220580   2.421   0.895   6.043 -1.7473 -0.6948 -1.6052
 2983SOL     OW20581   3.490   1.870  11.131  0.5756 -0.4161  0.3178
 2983SOL    HW120582   3.558   1.887  11.196 -0.1693  3.0670  0.2331
 2983SOL    HW220583   3.410   1.859  11.182  0.3055 -0.8711 -0.2070
 2984SOL     OW20584   2.843   0.933   4.703 -0.4507  0.4159  0.5564
 2984SOL    HW120585   2.777   0.877   4.742  0.4673 -1.5018 -0.6495
 2984SOL    HW220586   2.846   1.000   4.771  0.5441  1.1844 -0.2473
 2985SOL     OW20587   3.513   3.376   1.390  0.1073 -0.3936  0.8866
 2985SOL    HW120588   3.544   3.437   1.323  1.9961 -1.2304  1.0099
 2985SOL    HW220589   3.554   3.300   1.348  0.4009 -0.3347  1.0651
 2986SOL     OW20590   3.538   2.913   8.062 -0.0893 -0.7116 -0.4990
 2986SOL    HW120591   3.572   2.832   8.098  0.8833  0.1192  0.4634
 2986SOL    HW220592   3.535   2.968   8.140  0.5421 -1.4762  0.0612
 2987SOL     OW20593   0.596   1.792   6.074  0.0982  0.3279  0.4284
 2987SOL    HW120594   0.520   1.779   6.131  1.0667 -0.1241  1.6094
 2987SOL    HW220595   0.665   1.804   6.139 -1.5290 -0.4460  2.3307
 2988SOL     OW20596   1.343   4.167   7.510 -0.0102 -0.3215 -0.4972
 2988SOL    HW120597   1.284   4.099   7.477 -1.2628  0.5159  0.0166
 2988SOL    HW220598   1.403   4.176   7.436  2.2333  1.2352  1.5305
 2989SOL     OW20599   2.382   4.131  11.369 -0.1797  0.6118  0.0259
 2989SOL    HW120600   2.360   4.040  11.352 -0.0244 -0.3531  4.9727
 2989SOL    HW220601   2.428   4.116  11.452  2.4584 -1.2429 -1.7951
 2990SOL     OW20602   1.868   0.082   3.751 -0.0924  0.0519 -0.0324
 2990SOL    HW120603   1.826   0.134   3.683  2.6603  0.9355 -1.0743
 2990SOL    HW220604   1.804   0.014   3.772  0.2257 -0.9093 -2.0856
 2991SOL     OW20605   4.007   4.450   5.150 -0.2331 -0.2942 -0.9330
 2991SOL    HW120606   4.102   4.445   5.137 -0.2071 -2.5687  0.0299
 2991SOL    HW220607   3.976   4.377   5.095  0.4029 -1.4614  0.2513
 2992SOL     OW20608   4.408   3.534   8.648 -0.2485 -0.2438  0.0162
 2992SOL    HW120609   4.351   3.597   8.606  1.5822  0.1185 -1.9118
 2992SOL    HW220610   4.383   3.539   8.741  2.0715 -1.3408  0.6976
 2993SOL     OW20611   3.763   3.228   0.061  0.2228 -0.5969  0.1373
 2993SOL    HW120612   3.773   3.236  17.710  0.7499 -1.2337  0.1360
 2993SOL    HW220613   3.850   3.257   0.088  0.3239 -1.3613  0.6356
 2994SOL     OW20614   3.544   4.439   4.109  0.5175 -0.2662  0.0391
 2994SOL    HW120615   3.559   4.532   4.126  0.5963 -0.3118  0.2261
 2994SOL    HW220616   3.453   4.433   4.138  0.6731 -0.4860  0.4805
 2995SOL     OW20617   0.958   1.862   8.522  0.6458 -0.0847 -0.3584
 2995SOL    HW120618   0.900   1.849   8.446 -2.1958 -1.6663  2.0676
 2995SOL    HW220619   0.937   1.785   8.575  1.4202  0.6905  1.0775
 2996SOL     OW20620   4.046   3.091  16.456  0.2924  0.0551  0.0725
 2996SOL    HW120621   3.979   3.098  16.388 -1.1104 -0.0983  1.4658
 2996SOL    HW220622   4.122   3.132  16.414  1.5003 -1.9215  0.3484
 2997SOL     OW20623   3.337   0.772   3.985 -0.0347  0.3562  0.0704
 2997SOL    HW120624   3.400   0.817   3.929  1.6408 -0.7870  1.0146
 2997SOL    HW220625   3.333   0.842   4.050  1.4896 -0.6147  1.2116
 2998SOL     OW20626   3.284   1.237   6.349  0.3525  0.5500 -0.0267
 2998SOL    HW120627   3.361   1.285   6.320  0.9134 -0.3664 -0.0715
 2998SOL    HW220628   3.278   1.261   6.441  0.6070  0.5068  0.0009
 2999SOL     OW20629   1.511   2.917   5.553 -0.4193 -0.3492 -0.1698
 2999SOL    HW120630   1.516   2.993   5.494  0.5031  0.3852  0.8747
 2999SOL    HW220631   1.545   2.962   5.630  1.6338 -1.8244 -0.2383
 3000SOL     OW20632   3.196   1.336   9.688  0.7720 -0.1712 -0.1037
 3000SOL    HW120633   3.107   1.316   9.720  0.2542  1.3086 -0.6196
 3000SOL    HW220634   3.255   1.284   9.742 -1.1835 -0.1137  2.1079
 3001SOL     OW20635   3.174   1.795   8.479 -0.0007  0.5084 -0.3672
 3001SOL    HW120636   3.253   1.752   8.512 -0.3731  0.3032  0.2866
 3001SOL    HW220637   3.174   1.761   8.390  0.3668 -2.8266  0.8898
 3002SOL     OW20638   3.074   0.665   3.230  0.8414 -0.2980  0.0137
 3002SOL    HW120639   3.157   0.683   3.273  1.1073 -1.5544  0.0391
 3002SOL    HW220640   3.028   0.749   3.230  1.3434 -0.0263  0.2953
 3003SOL     OW20641   1.097   1.778   9.443  0.0894  0.8461  0.1969
 3003SOL    HW120642   1.061   1.724   9.372  0.7070  0.0147  0.5206
 3003SOL    HW220643   1.114   1.715   9.513 -0.6017  0.8928  0.4067
 3004SOL     OW20644   1.948   0.795   8.491 -0.2357  0.0323 -0.1108
 3004SOL    HW120645   1.862   0.753   8.498  1.1054 -2.5033  1.0214
 3004SOL    HW220646   1.944   0.867   8.553  1.0125 -1.2173  1.3946
 3005SOL     OW20647   3.591   0.863   3.857  0.7895 -0.1343  0.6076
 3005SOL    HW120648   3.605   0.799   3.788 -0.4240 -0.6882  0.8792
 3005SOL    HW220649   3.598   0.952   3.822 -0.2103  1.4788  4.4284
 3006SOL     OW20650   3.662   4.345   0.186 -0.0046  0.2701  0.0905
 3006SOL    HW120651   3.661   4.439   0.167  1.5863 -0.3472 -3.0301
 3006SOL    HW220652   3.571   4.316   0.177  0.0265  0.2831 -0.2688
 3007SOL     OW20653   1.933   2.453  16.492  0.3350 -0.3345 -0.6192
 3007SOL    HW120654   1.885   2.384  16.445 -1.1526 -1.0464  1.9110
 3007SOL    HW220655   2.027   2.439  16.481  0.3738  0.6257 -1.5093
 3008SOL     OW20656   1.131   2.552   3.749 -0.2316  0.3630  0.2998
 3008SOL    HW120657   1.113   2.461   3.769  1.2177 -0.6794 -2.9916
 3008SOL    HW220658   1.045   2.590   3.768  1.5381  4.2813  0.5299
 3009SOL     OW20659   3.927   4.073   2.283 -0.4060 -0.4479 -0.2761
 3009SOL    HW120660   3.910   4.057   2.375  0.8223  0.0449  0.0432
 3009SOL    HW220661   3.855   4.134   2.270 -1.9236 -2.0441  0.7168
 3010SOL     OW20662   1.570   1.904   5.781 -0.3840 -0.5157 -0.0945
 3010SOL    HW120663   1.595   1.885   5.872 -0.4844  0.3926  0.1279
 3010SOL    HW220664   1.656   1.918   5.742 -0.2709  0.0109  0.3429
 3011SOL     OW20665   1.318   3.371   5.548  0.4670  0.8186  0.5760
 3011SOL    HW120666   1.356   3.314   5.615 -2.7522 -0.0529  1.6609
 3011SOL    HW220667   1.228   3.376   5.580  0.1334  0.9358 -0.3999
 3012SOL     OW20668   3.708   1.737   7.248  0.1273 -0.7470 -0.1015
 3012SOL    HW120669   3.777   1.709   7.188  0.5340 -0.4220  0.2093
 3012SOL    HW220670   3.636   1.754   7.188 -0.0558 -1.8084 -0.1792
 3013SOL     OW20671   2.474   0.135   9.854  0.1240  0.0892 -0.3489
 3013SOL    HW120672   2.516   0.055   9.885  1.1886 -0.1124 -2.3050
 3013SOL    HW220673   2.540   0.200   9.881  0.6776 -0.7737  0.3765
 3014SOL     OW20674   2.993   2.586   6.383  0.2900 -0.3043 -0.4140
 3014SOL    HW120675   2.949   2.668   6.359  0.0556 -0.5167 -0.7151
 3014SOL    HW220676   2.998   2.591   6.478 -0.0857  0.5958 -0.4457
 3015SOL     OW20677   2.321   1.164   5.377 -0.1312  0.1682  0.0761
 3015SOL    HW120678   2.331   1.070   5.391 -0.2722 -0.0079 -1.0442
 3015SOL    HW220679   2.408   1.187   5.343  0.1642 -0.2228  0.5558
 3016SOL     OW20680   2.525   1.331   5.680  0.3385 -0.4330 -0.1092
 3016SOL    HW120681   2.520   1.401   5.745 -1.9670 -0.0839 -0.6711
 3016SOL    HW220682   2.611   1.356   5.646  0.0223 -0.1473 -0.7022
 3017SOL     OW20683   0.177   2.803   4.277 -0.1049  0.4745 -0.1370
 3017SOL    HW120684   0.129   2.747   4.217  0.6063 -0.9860  0.6558
 3017SOL    HW220685   0.247   2.741   4.296 -1.6803 -1.1929  0.1669
 3018SOL     OW20686   1.798   0.763   5.423  0.1074 -0.4918  0.3836
 3018SOL    HW120687   1.823   0.831   5.486  0.9431  0.9251 -1.4866
 3018SOL    HW220688   1.747   0.711   5.486 -0.0889 -0.1322  0.5226
 3019SOL     OW20689   4.067   3.166   6.733 -0.0165  0.2474  0.7864
 3019SOL    HW120690   4.016   3.247   6.727 -2.3226 -1.3400 -1.1540
 3019SOL    HW220691   4.040   3.136   6.819  1.1006  0.2253  1.1205
 3020SOL     OW20692   0.993   2.269   0.973  0.1191 -0.1590  0.3645
 3020SOL    HW120693   1.057   2.299   0.909  2.2353 -0.4371  2.3393
 3020SOL    HW220694   0.933   2.339   0.947  1.6543  0.4293 -1.5215
 3021SOL     OW20695   4.488   1.447  15.370 -0.8269 -0.5045  0.1021
 3021SOL    HW120696   4.474   1.503  15.446 -0.5953  1.5499 -1.3692
 3021SOL    HW220697   4.406   1.398  15.373 -1.2512  0.2220  0.3317
 3022SOL     OW20698   3.272   4.567   9.183 -0.9144  0.0026 -0.0575
 3022SOL    HW120699   3.196   4.592   9.131  0.0088 -0.3349 -1.5800
 3022SOL    HW220700   3.300   4.649   9.223 -0.7732 -0.3668  0.6048
 3023SOL     OW20701   0.209   3.894  10.981  0.1020 -0.1115 -0.6592
 3023SOL    HW120702   0.180   3.876  11.070 -0.3632  1.8385 -0.4071
 3023SOL    HW220703   0.304   3.895  10.991  0.0774 -0.1688 -0.4126
 3024SOL     OW20704   2.337   2.514   8.814 -0.1445  0.2148 -0.1038
 3024SOL    HW120705   2.315   2.509   8.908 -0.9136  1.1603 -0.2332
 3024SOL    HW220706   2.426   2.549   8.817  0.3072 -0.8125 -2.3062
 3025SOL     OW20707   1.657   3.693   6.811 -0.6794  0.3428  0.3338
 3025SOL    HW120708   1.587   3.658   6.755 -0.6707 -2.2120  1.9281
 3025SOL    HW220709   1.732   3.694   6.752 -1.4971 -1.2029 -0.6959
 3026SOL     OW20710   1.556   1.494   5.271  0.0076  0.2515  0.3807
 3026SOL    HW120711   1.547   1.474   5.178  2.0173  0.5417  0.1431
 3026SOL    HW220712   1.486   1.554   5.298  0.7942  1.0503  0.6180
 3027SOL     OW20713   2.845   3.736   9.862  0.2141  0.1122 -1.2408
 3027SOL    HW120714   2.795   3.738   9.781 -1.2995 -0.6207 -0.3064
 3027SOL    HW220715   2.873   3.645   9.859 -0.1565 -0.0683  1.5856
 3028SOL     OW20716   0.932   3.550   9.010 -0.3102  0.2299 -0.5446
 3028SOL    HW120717   0.950   3.597   8.928  0.7785 -0.4497 -0.6908
 3028SOL    HW220718   0.871   3.605   9.059 -1.7063 -1.1223 -0.7902
 3029SOL     OW20719   3.177   1.683   2.540  0.5360 -0.1883  0.3646
 3029SOL    HW120720   3.111   1.655   2.477  0.6732 -0.0027  0.1390
 3029SOL    HW220721   3.127   1.731   2.607  0.8483 -2.3558  2.1471
 3030SOL     OW20722   4.138   0.586   1.275 -0.0767 -0.4160  0.3979
 3030SOL    HW120723   4.108   0.624   1.193  2.8439  0.7396 -0.1489
 3030SOL    HW220724   4.229   0.560   1.258  0.2575  0.4198  0.8859
 3031SOL     OW20725   1.323   2.951   7.588  0.3978 -0.1564 -0.1439
 3031SOL    HW120726   1.375   3.030   7.598  2.5504 -1.4297 -1.1521
 3031SOL    HW220727   1.392   2.885   7.594  0.3406 -0.4074 -2.2209
 3032SOL     OW20728   3.737   1.276   1.755 -0.5081 -0.2896 -0.5538
 3032SOL    HW120729   3.684   1.351   1.782 -1.6281 -0.7154 -1.5639
 3032SOL    HW220730   3.675   1.204   1.741 -1.6969  0.8584 -1.2151
 3033SOL     OW20731   1.842   3.402   6.772  0.0654 -0.0236 -0.7731
 3033SOL    HW120732   1.871   3.392   6.681  0.0561 -0.0943 -0.7685
 3033SOL    HW220733   1.900   3.469   6.807 -1.4564  1.7133 -1.5982
 3034SOL     OW20734   1.749   4.015   4.551 -0.1639 -0.1180 -0.1356
 3034SOL    HW120735   1.732   3.922   4.540  1.0625 -0.3219 -0.2479
 3034SOL    HW220736   1.663   4.043   4.584  0.5589  2.1489 -0.1867
 3035SOL     OW20737   4.711   2.370  13.020  0.0776 -0.1945  0.1020
 3035SOL    HW120738   4.674   2.429  12.955  2.9095  1.5696  0.0789
 3035SOL    HW220739   4.640   2.370  13.084 -0.3537  5.2613 -0.3936
 3036SOL     OW20740   1.651   4.098  17.322 -0.1717  0.3841  0.9121
 3036SOL    HW120741   1.562   4.131  17.315 -0.1703 -0.0738 -1.4377
 3036SOL    HW220742   1.660   4.066  17.232 -1.9989  0.3866  0.7302
 3037SOL     OW20743   3.445   2.950   5.988  0.6300 -0.1700 -0.1600
 3037SOL    HW120744   3.355   2.969   5.963  0.1948 -1.8327  0.1516
 3037SOL    HW220745   3.493   3.032   5.975  0.3267  0.2385  1.3666
 3038SOL     OW20746   3.100   0.147   4.054  0.2994  0.3761  0.4323
 3038SOL    HW120747   3.111   0.241   4.064  1.5789  0.0616  2.0342
 3038SOL    HW220748   3.046   0.137   3.975 -0.0798  0.0025  0.7343
 3039SOL     OW20749   1.185   1.263   2.947  0.2336  0.7864 -0.4651
 3039SOL    HW120750   1.170   1.329   3.014 -1.4988 -2.0822  1.9897
 3039SOL    HW220751   1.207   1.316   2.870  0.1298 -1.8321 -2.2933
 3040SOL     OW20752   0.331   1.200  13.272  0.2432 -0.3420  0.3066
 3040SOL    HW120753   0.298   1.145  13.201 -1.3484 -0.2396  0.9688
 3040SOL    HW220754   0.397   1.241  13.216 -0.2666 -0.9532 -0.7527
 3041SOL     OW20755   2.928   2.755   5.690  0.2275  0.0420 -0.4490
 3041SOL    HW120756   2.931   2.673   5.640 -1.9383 -0.5220  0.3178
 3041SOL    HW220757   2.839   2.786   5.670  0.2829 -0.9214 -2.1561
 3042SOL     OW20758   1.102   2.730   5.036  0.5237  0.2113 -0.6319
 3042SOL    HW120759   1.093   2.798   4.970 -0.0983  2.1235  1.4443
 3042SOL    HW220760   1.016   2.727   5.077  1.0271  1.3860  0.5063
 3043SOL     OW20761   0.138   4.504   8.116 -0.0539 -0.3958 -0.5206
 3043SOL    HW120762   0.175   4.590   8.096  2.1499 -1.3027 -0.2657
 3043SOL    HW220763   0.127   4.504   8.211  0.7811  3.4158 -0.4360
 3044SOL     OW20764   2.309   0.486   6.418  0.1397  0.3645 -0.4733
 3044SOL    HW120765   2.302   0.538   6.338 -0.1187  0.8536 -0.1294
 3044SOL    HW220766   2.364   0.536   6.477  4.5748 -1.6769 -2.8675
 3045SOL     OW20767   4.303   4.409  10.492  0.3905 -0.3238  0.0299
 3045SOL    HW120768   4.309   4.314  10.480  0.4159 -0.3193  0.0074
 3045SOL    HW220769   4.314   4.423  10.586 -1.9230  0.9267  0.1047
 3046SOL     OW20770   3.112   1.249   2.736  0.0577  0.3681 -0.1107
 3046SOL    HW120771   3.045   1.183   2.754  0.5259 -0.3087 -0.8468
 3046SOL    HW220772   3.192   1.199   2.747  0.1336  0.1589 -1.6514
 3047SOL     OW20773   3.036   1.867   2.716  0.4706  0.8259  0.1484
 3047SOL    HW120774   3.021   1.937   2.780 -1.7164  1.0255 -0.5926
 3047SOL    HW220775   3.021   1.911   2.633 -1.3825  0.5830  0.3598
 3048SOL     OW20776   3.948   2.441   6.082 -0.3576 -0.0908 -0.0308
 3048SOL    HW120777   3.866   2.439   6.032 -0.3492  1.6663 -0.1290
 3048SOL    HW220778   3.997   2.372   6.037 -0.4860 -0.7862  0.9248
 3049SOL     OW20779   1.068   4.322   8.674 -0.0311 -0.1269 -0.4122
 3049SOL    HW120780   1.121   4.250   8.641  0.6056  0.4657 -0.6814
 3049SOL    HW220781   1.051   4.369   8.593 -1.5284 -0.1603 -0.1130
 3050SOL     OW20782   0.063   4.062  10.768  0.1648  0.0980  0.3882
 3050SOL    HW120783   0.095   4.011  10.842  0.1622 -0.3541  0.0831
 3050SOL    HW220784   0.134   4.067  10.704  1.5834  0.1982  2.0024
 3051SOL     OW20785   2.508   1.486   0.268 -0.0401  0.4526  0.3768
 3051SOL    HW120786   2.415   1.490   0.245 -0.2901 -3.7467  0.6645
 3051SOL    HW220787   2.544   1.484   0.179 -0.4160  0.1720  0.2305
 3052SOL     OW20788   3.313   3.108   6.232 -0.2283 -0.2873  0.0920
 3052SOL    HW120789   3.248   3.153   6.286 -1.0010 -3.0880  1.4739
 3052SOL    HW220790   3.387   3.168   6.221 -0.9827  0.5781 -0.2999
 3053SOL     OW20791   0.080   3.332   8.213  0.2687 -0.2296  0.2689
 3053SOL    HW120792   0.018   3.367   8.277  0.7829  0.1821  0.5399
 3053SOL    HW220793   0.146   3.301   8.274 -1.0219  0.5412  2.0381
 3054SOL     OW20794   1.441   4.386   2.748  0.0707  0.0122  0.0852
 3054SOL    HW120795   1.424   4.297   2.718 -1.0387 -0.0758  0.9549
 3054SOL    HW220796   1.354   4.415   2.776  1.0837  0.6918  2.5583
 3055SOL     OW20797   4.629   2.227   2.655 -0.1092  0.0761 -0.1009
 3055SOL    HW120798   4.558   2.287   2.675 -0.8369 -0.6651 -0.4360
 3055SOL    HW220799   4.584   2.145   2.678 -0.7306 -0.1297 -2.0605
 3056SOL     OW20800   1.825   1.365   3.614  0.7202  0.1051  0.1803
 3056SOL    HW120801   1.850   1.381   3.523 -0.6490 -0.9118 -0.3828
 3056SOL    HW220802   1.890   1.411   3.667  1.7733 -1.4929  0.2730
 3057SOL     OW20803   4.634   0.621   6.791  0.6539 -0.1142 -0.8766
 3057SOL    HW120804   4.691   0.547   6.768  1.4935  0.8503 -1.9006
 3057SOL    HW220805   4.618   0.666   6.708  2.7866  1.5802 -0.3635
 3058SOL     OW20806   0.324   2.355  15.480  0.5546 -0.2409 -0.0116
 3058SOL    HW120807   0.346   2.284  15.419  1.3623 -0.9572  1.1150
 3058SOL    HW220808   0.399   2.410  15.457  0.0296 -0.2630 -1.8192
 3059SOL     OW20809   0.291   2.141   5.955  0.0519 -0.2805  0.3168
 3059SOL    HW120810   0.355   2.073   5.937 -0.7759 -1.3558  1.4333
 3059SOL    HW220811   0.295   2.189   5.872  0.3537 -3.1744 -1.3670
 3060SOL     OW20812   2.973   2.622  12.825  0.0307 -0.1507  0.6705
 3060SOL    HW120813   3.050   2.626  12.769  0.1668 -1.2647  0.7645
 3060SOL    HW220814   2.980   2.532  12.857  0.4250 -0.5165 -0.4361
 3061SOL     OW20815   4.087   2.896   4.786  0.0325  0.2152  0.2803
 3061SOL    HW120816   4.143   2.960   4.830 -0.7759  0.0012  1.6215
 3061SOL    HW220817   4.027   2.947   4.731 -1.4374  0.4940  2.1590
 3062SOL     OW20818   3.276   3.647   1.023  0.6547 -0.0336  0.1829
 3062SOL    HW120819   3.237   3.598   0.951 -1.9426 -0.1170  1.6556
 3062SOL    HW220820   3.337   3.703   0.974 -0.7897  1.3587 -0.0533
 3063SOL     OW20821   3.725   4.648  11.873  0.4494 -0.0076  0.1869
 3063SOL    HW120822   3.709   4.573  11.931 -4.4223  0.9027  0.0048
 3063SOL    HW220823   3.648   4.637  11.816  1.0930  0.7342 -0.8167
 3064SOL     OW20824   0.579   1.403   1.917  0.0669 -0.0885  0.6008
 3064SOL    HW120825   0.500   1.361   1.884  1.4364 -2.0833 -0.1975
 3064SOL    HW220826   0.549   1.452   1.993  1.9927  1.0115  0.6509
 3065SOL     OW20827   1.604   4.135  16.771 -0.0827  0.1559  0.1763
 3065SOL    HW120828   1.598   4.145  16.676  2.5901  0.3316  0.0227
 3065SOL    HW220829   1.682   4.185  16.795 -1.5045  1.7431  1.5222
 3066SOL     OW20830   3.421   3.924   6.904  0.3769 -0.5050 -0.0226
 3066SOL    HW120831   3.367   3.856   6.864 -1.7343  0.8275  0.5570
 3066SOL    HW220832   3.348   3.964   6.952  0.7370 -1.3489  1.2239
 3067SOL     OW20833   3.479   2.152  12.829  0.3176 -0.0795  0.1079
 3067SOL    HW120834   3.505   2.239  12.861  0.6344 -0.1757  0.1153
 3067SOL    HW220835   3.520   2.091  12.890 -1.6190 -0.1854  1.2979
 3068SOL     OW20836   1.831   1.841   3.208 -0.4907 -0.3017 -0.2140
 3068SOL    HW120837   1.789   1.797   3.134  1.1532  0.8585 -1.8307
 3068SOL    HW220838   1.755   1.895   3.230  0.0636  0.6114 -0.5464
 3069SOL     OW20839   4.597   1.003   6.026  0.2406 -0.5936 -0.1868
 3069SOL    HW120840   4.642   0.976   6.106 -0.6939  0.7999  0.7996
 3069SOL    HW220841   4.640   0.957   5.954 -0.0075 -2.2569  0.7293
 3070SOL     OW20842   0.347   4.667  15.384 -0.3452  0.6419 -0.1178
 3070SOL    HW120843   0.305   4.583  15.402  0.1993  0.0453 -1.6165
 3070SOL    HW220844   0.405   4.679  15.460 -0.1415  1.2747 -0.3730
 3071SOL     OW20845   2.444   0.468   9.939 -0.3427 -0.0245 -0.0886
 3071SOL    HW120846   2.539   0.475   9.941 -0.2100 -2.0462  0.9289
 3071SOL    HW220847   2.410   0.432  10.021  2.0858 -0.6535  0.6517
 3072SOL     OW20848   2.341   2.740   8.625  0.4581  0.1395 -0.1412
 3072SOL    HW120849   2.248   2.751   8.605  0.0951 -3.0124 -0.3046
 3072SOL    HW220850   2.325   2.666   8.685  0.5672 -0.9527 -1.4544
 3073SOL     OW20851   2.703   1.464   7.528 -0.0682  0.0429 -0.0071
 3073SOL    HW120852   2.714   1.397   7.595 -2.5850  0.7062  1.0744
 3073SOL    HW220853   2.738   1.433   7.445  0.6611  0.0433  0.3049
 3074SOL     OW20854   0.249   1.523  14.062  0.6450  0.3586 -0.2579
 3074SOL    HW120855   0.270   1.433  14.035 -0.1331 -0.1554  0.7973
 3074SOL    HW220856   0.155   1.504  14.064  0.7105 -0.2916 -3.3813
 3075SOL     OW20857   1.899   4.735   4.079 -0.2018  0.1574 -0.5642
 3075SOL    HW120858   1.952   0.020   4.155 -2.8080  3.7486  0.2327
 3075SOL    HW220859   1.966   4.726   4.011 -0.9546 -0.2396 -1.2650
 3076SOL     OW20860   3.881   1.896   0.702  0.6124 -0.3733 -0.4564
 3076SOL    HW120861   3.839   1.856   0.626 -1.9139  0.9080  0.2631
 3076SOL    HW220862   3.954   1.839   0.729  0.7761 -0.9826 -2.2283
 3077SOL     OW20863   2.898   2.985   2.518  0.1124  0.2748 -0.1521
 3077SOL    HW120864   2.905   3.070   2.562  1.4809  0.7786 -1.3351
 3077SOL    HW220865   2.833   2.940   2.572 -1.8789  1.3231 -1.6792
 3078SOL     OW20866   3.921   2.683  17.724  0.2440  0.1400  0.1109
 3078SOL    HW120867   3.991   2.619  17.710  0.0201 -0.6634  2.7332
 3078SOL    HW220868   3.912   2.726  17.639 -1.6795 -0.5710 -0.0288
 3079SOL     OW20869   2.418   2.129   2.505 -0.8037 -0.3256 -0.4554
 3079SOL    HW120870   2.424   2.085   2.590 -2.2855 -1.5445 -0.9717
 3079SOL    HW220871   2.323   2.121   2.497 -0.9711  1.2502  0.1678
 3080SOL     OW20872   4.383   4.410   2.702 -0.3306 -0.2973  0.3856
 3080SOL    HW120873   4.314   4.469   2.733 -1.9825 -1.1731 -1.6870
 3080SOL    HW220874   4.380   4.416   2.607  0.3256 -2.5971  0.2229
 3081SOL     OW20875   4.587   3.421   6.506  0.0374  0.0689 -0.3206
 3081SOL    HW120876   4.668   3.382   6.472  0.4515 -0.5066  1.3451
 3081SOL    HW220877   4.594   3.507   6.465 -0.9361  0.2792 -0.0445
 3082SOL     OW20878   3.394   1.788   5.405 -0.4784 -0.0094  0.3667
 3082SOL    HW120879   3.427   1.734   5.333 -1.6916 -0.1564 -0.0804
 3082SOL    HW220880   3.324   1.736   5.443 -0.0877 -0.5425  0.3691
 3083SOL     OW20881   4.540   0.081  17.458  0.2848 -0.0511  0.2494
 3083SOL    HW120882   4.491   0.002  17.482 -3.3412  2.6932  1.9240
 3083SOL    HW220883   4.522   0.085  17.364  0.7324 -1.9262  0.0906
 3084SOL     OW20884   0.169   4.284   2.115 -0.4269  0.1752 -1.1659
 3084SOL    HW120885   0.132   4.373   2.123 -0.4580  0.1911 -1.4965
 3084SOL    HW220886   0.091   4.234   2.091 -0.1920  0.5097 -2.6069
 3085SOL     OW20887   4.590   2.625  14.226  0.0061  0.0393 -0.6897
 3085SOL    HW120888   4.534   2.573  14.284 -0.3649  0.7924 -0.3727
 3085SOL    HW220889   4.531   2.617  14.151 -0.6087  1.6954 -0.3876
 3086SOL     OW20890   4.384   2.912   8.507 -0.1753 -0.1849 -0.8522
 3086SOL    HW120891   4.402   2.960   8.426  2.0138 -0.4293 -0.5266
 3086SOL    HW220892   4.348   2.986   8.555  0.1215 -1.1282  0.8327
 3087SOL     OW20893   1.001   2.489   2.294  0.1833 -0.6193 -0.1667
 3087SOL    HW120894   1.016   2.539   2.374  1.3883  2.0984 -2.1167
 3087SOL    HW220895   0.929   2.533   2.250  1.3702  0.8364 -0.6651
 3088SOL     OW20896   3.858   0.309   8.729 -0.4541  0.1877  0.2189
 3088SOL    HW120897   3.772   0.342   8.703 -0.0620 -1.2332 -2.8577
 3088SOL    HW220898   3.860   0.244   8.659  0.0619  0.3543  0.0782
 3089SOL     OW20899   1.559   1.915   2.799 -0.1171 -0.2180 -0.2940
 3089SOL    HW120900   1.473   1.920   2.758 -0.3058 -1.1722 -0.0037
 3089SOL    HW220901   1.569   2.010   2.810 -0.7454 -0.3149  1.1675
 3090SOL     OW20902   0.892   3.289   6.732 -0.4993  0.3326 -0.0331
 3090SOL    HW120903   0.936   3.351   6.789  1.2256  1.1788 -2.2783
 3090SOL    HW220904   0.969   3.247   6.694 -1.0730 -0.8274  0.0879
 3091SOL     OW20905   3.607   4.225  15.667 -0.3951  0.5746 -0.3101
 3091SOL    HW120906   3.696   4.202  15.638 -0.8741  1.1627 -2.2777
 3091SOL    HW220907   3.595   4.174  15.747  1.1764 -0.0198 -0.4465
 3092SOL     OW20908   3.539   1.595   3.116  0.1999 -0.5960  0.0624
 3092SOL    HW120909   3.590   1.605   3.036  2.5154  0.6663  1.7252
 3092SOL    HW220910   3.590   1.539   3.175 -2.6004 -0.4163  2.6549
 3093SOL     OW20911   0.789   4.006  16.901  0.4781  0.1058 -0.3900
 3093SOL    HW120912   0.744   3.943  16.957 -0.7341  1.6195  0.3359
 3093SOL    HW220913   0.863   4.027  16.958 -1.8366  1.5814  2.0128
 3094SOL     OW20914   4.429   0.416   8.430 -0.3363  0.1236 -0.3433
 3094SOL    HW120915   4.474   0.497   8.407  0.3445 -0.4308 -0.9530
 3094SOL    HW220916   4.434   0.367   8.348 -0.4409 -1.2749  0.4755
 3095SOL     OW20917   4.515   0.527  15.523  0.0969 -0.8254 -0.2725
 3095SOL    HW120918   4.425   0.534  15.491  0.0957 -2.0603 -0.5788
 3095SOL    HW220919   4.564   0.590  15.470  0.7914 -1.3489 -0.2643
 3096SOL     OW20920   0.483   1.789   9.484 -0.0821  0.0922  0.0815
 3096SOL    HW120921   0.511   1.778   9.575  0.1198 -0.6386 -0.0659
 3096SOL    HW220922   0.392   1.813   9.500 -0.0917  0.2293 -0.1858
 3097SOL     OW20923   0.471   4.166  10.951  0.2063  0.7416  0.8301
 3097SOL    HW120924   0.476   4.125  10.865 -1.0279 -0.3422  1.2663
 3097SOL    HW220925   0.480   4.087  11.005 -0.1213 -0.3777 -0.7473
 3098SOL     OW20926   4.485   0.075   3.575 -0.3743  0.0929 -0.4162
 3098SOL    HW120927   4.487   0.139   3.647  1.4116 -0.8264  0.3433
 3098SOL    HW220928   4.576   0.048   3.583  0.0751  1.5818 -0.3743
 3099SOL     OW20929   3.617   4.014  11.682 -0.3746  0.1471  0.3276
 3099SOL    HW120930   3.700   4.048  11.651 -1.2463  1.5922 -0.4186
 3099SOL    HW220931   3.553   4.077  11.647 -0.4680  0.6101  1.3366
 3100SOL     OW20932   0.227   1.631   9.193  0.4380  0.6048  0.4305
 3100SOL    HW120933   0.211   1.619   9.287 -0.2738 -0.3841  0.1695
 3100SOL    HW220934   0.265   1.719   9.188  1.1210  0.2049 -1.3342
 3101SOL     OW20935   3.377   1.806   3.146 -0.1690 -0.4830  0.2740
 3101SOL    HW120936   3.408   1.716   3.143  0.7597 -0.1927  1.1758
 3101SOL    HW220937   3.461   1.851   3.155  0.1437 -1.2122  0.9944
 3102SOL     OW20938   4.417   1.165   3.815 -0.2945 -0.2971  0.3480
 3102SOL    HW120939   4.406   1.259   3.824  0.4567 -0.1400 -0.4152
 3102SOL    HW220940   4.331   1.129   3.791 -1.2092  2.6079 -0.7432
 3103SOL     OW20941   2.362   3.899  15.989  0.0157 -0.0796 -0.1441
 3103SOL    HW120942   2.387   3.867  15.902  0.6107 -1.1849  0.4385
 3103SOL    HW220943   2.442   3.883  16.039  0.4812 -1.5647 -1.3357
 3104SOL     OW20944   1.208   0.082   8.008 -0.6750 -0.1031  0.0195
 3104SOL    HW120945   1.271   0.110   7.942 -0.5524 -0.0805  0.1466
 3104SOL    HW220946   1.262   0.040   8.074 -1.0971  0.0410  0.4557
 3105SOL     OW20947   1.647   2.838   1.291  0.1417  0.3306  0.1772
 3105SOL    HW120948   1.580   2.780   1.254  0.3476  0.3417 -0.2191
 3105SOL    HW220949   1.588   2.902   1.331 -0.8711  2.8176 -5.2208
 3106SOL     OW20950   0.790   0.672   1.890  0.8940  0.1247 -0.1587
 3106SOL    HW120951   0.786   0.706   1.979  0.2167  1.6502 -0.7550
 3106SOL    HW220952   0.847   0.597   1.900 -0.3287 -0.5943  1.3485
 3107SOL     OW20953   3.376   4.254   0.112 -0.4034  0.2688  0.3987
 3107SOL    HW120954   3.320   4.267   0.035 -0.1758 -0.7280  0.0618
 3107SOL    HW220955   3.316   4.223   0.180 -1.6332  1.6107 -0.0716
 3108SOL     OW20956   0.729   0.660  16.914 -0.3171  0.0607  0.1570
 3108SOL    HW120957   0.819   0.640  16.937 -0.4303 -0.7760 -0.0902
 3108SOL    HW220958   0.681   0.595  16.966 -1.9226  2.1664  1.2838
 3109SOL     OW20959   2.761   2.484   8.210  0.2003 -0.2968  0.0449
 3109SOL    HW120960   2.792   2.395   8.194  0.2803 -0.3339  0.3998
 3109SOL    HW220961   2.689   2.470   8.272  0.7116  0.9540  0.9224
 3110SOL     OW20962   4.247   3.627   5.357 -0.1850  0.2971 -0.0545
 3110SOL    HW120963   4.203   3.617   5.273  0.2437 -1.6288 -0.0523
 3110SOL    HW220964   4.224   3.543   5.398 -0.2799 -0.4785 -1.7055
 3111SOL     OW20965   4.155   3.845   5.732 -0.2492  0.0109  0.0830
 3111SOL    HW120966   4.183   3.844   5.641  1.2211  0.5004  0.5084
 3111SOL    HW220967   4.165   3.753   5.754 -1.0612 -0.1548 -0.2642
 3112SOL     OW20968   3.715   4.469  11.528  0.0367 -0.3126 -0.0592
 3112SOL    HW120969   3.798   4.504  11.496  0.2694 -1.6886 -0.9572
 3112SOL    HW220970   3.726   4.382  11.489  1.4010  0.8167 -2.1934
 3113SOL     OW20971   0.621   2.560   8.357 -0.0063 -0.2230  0.1897
 3113SOL    HW120972   0.637   2.466   8.358  1.9883  0.1444  2.2978
 3113SOL    HW220973   0.710   2.581   8.328 -0.4194  1.5144  0.1675
 3114SOL     OW20974   1.070   4.116   9.275 -0.2914 -0.7267  0.3872
 3114SOL    HW120975   1.030   4.029   9.283 -1.0984 -0.5961 -2.1375
 3114SOL    HW220976   1.025   4.168   9.341  1.1040  0.4872  0.3838
 3115SOL     OW20977   0.960   2.173   7.161 -0.2503 -0.1852 -0.3087
 3115SOL    HW120978   0.993   2.262   7.163  0.1258 -0.3050 -1.2326
 3115SOL    HW220979   0.985   2.139   7.247 -2.1400 -2.3413 -0.6177
 3116SOL     OW20980   0.892   3.581   5.483  0.1021  0.8382 -0.0030
 3116SOL    HW120981   0.862   3.587   5.574  1.8920  1.1088  0.5656
 3116SOL    HW220982   0.816   3.613   5.435  0.5605 -1.0331 -1.9183
 3117SOL     OW20983   2.957   3.306   8.637  0.2960 -0.1799 -0.6426
 3117SOL    HW120984   2.897   3.297   8.563  0.0769  1.8656 -0.7155
 3117SOL    HW220985   2.983   3.398   8.629 -1.7645  0.6179  1.6157
 3118SOL     OW20986   2.734   2.531   0.473 -0.1969 -0.2421  0.2421
 3118SOL    HW120987   2.683   2.600   0.430 -0.2389 -0.0704  0.5591
 3118SOL    HW220988   2.792   2.506   0.402  0.5280  0.9358  0.4249
 3119SOL     OW20989   0.614   1.604   2.130 -0.4785 -0.1334  0.4796
 3119SOL    HW120990   0.612   1.698   2.144 -0.2372  0.1582 -1.4988
 3119SOL    HW220991   0.707   1.581   2.129 -0.9491 -1.9482 -3.5851
 3120SOL     OW20992   0.785   1.198   3.620 -0.8384 -0.3798 -0.1610
 3120SOL    HW120993   0.787   1.115   3.668  1.0634 -0.0130  0.3524
 3120SOL    HW220994   0.873   1.210   3.584 -1.4829  0.5328 -1.4640
 3121SOL     OW20995   4.451   0.564   3.017 -0.3841 -0.4314  0.4508
 3121SOL    HW120996   4.412   0.652   3.009 -0.5378 -0.5637 -0.2684
 3121SOL    HW220997   4.506   0.580   3.094 -0.0301 -2.9801  0.7163
 3122SOL     OW20998   1.148   2.788   4.597 -0.4850 -0.0924  0.3275
 3122SOL    HW120999   1.140   2.845   4.673  2.2683 -1.4482  1.6372
 3122SOL    HW221000   1.242   2.769   4.602 -0.7455 -1.1609  1.3233
 3123SOL     OW21001   3.577   2.753   6.554  0.2365  0.1876  0.5389
 3123SOL    HW121002   3.586   2.793   6.468 -2.5878  2.5867  1.3675
 3123SOL    HW221003   3.521   2.687   6.511 -0.4097  1.9479 -1.3049
 3124SOL     OW21004   3.370   2.199   7.376 -0.3816 -0.4749 -0.0398
 3124SOL    HW121005   3.458   2.203   7.413 -0.4585  1.6697 -0.0798
 3124SOL    HW221006   3.333   2.117   7.411 -2.2281  0.3728 -0.0030
 3125SOL     OW21007   0.778   1.641   2.961 -0.5912  0.6838  0.4249
 3125SOL    HW121008   0.745   1.702   2.895  1.2356  0.7698 -0.3859
 3125SOL    HW221009   0.711   1.572   2.969  0.4869 -0.3596  0.3573
 3126SOL     OW21010   2.671   4.503   6.235  0.4876  0.4221 -0.4866
 3126SOL    HW121011   2.647   4.566   6.303  1.5759  0.5998 -0.2641
 3126SOL    HW221012   2.657   4.423   6.287 -0.6451  0.4318 -0.7663
 3127SOL     OW21013   0.629   3.217   2.754 -0.1651  0.2871  0.2707
 3127SOL    HW121014   0.718   3.185   2.767  0.3578  1.1372 -1.1958
 3127SOL    HW221015   0.570   3.142   2.754  0.4967 -0.2264 -0.0290
 3128SOL     OW21016   1.108   2.480   9.669  0.7742  0.0324  0.4393
 3128SOL    HW121017   1.193   2.454   9.632  1.0214  0.1817  0.8975
 3128SOL    HW221018   1.115   2.574   9.649  3.1021  0.1299  1.6548
 3129SOL     OW21019   2.932   2.722   4.195 -0.4892 -0.2008  0.1945
 3129SOL    HW121020   3.022   2.714   4.162  0.1949 -1.9779  2.4732
 3129SOL    HW221021   2.926   2.638   4.240  0.1381 -0.4240 -0.1349
 3130SOL     OW21022   0.422   1.182  10.685 -0.6477 -0.0175  0.0985
 3130SOL    HW121023   0.460   1.143  10.606  0.8802 -1.4603  1.5586
 3130SOL    HW221024   0.424   1.109  10.747  0.7542  0.6703  0.8583
 3131SOL     OW21025   3.906   2.230   4.810  0.1217  0.2269  0.6590
 3131SOL    HW121026   3.979   2.283   4.842 -0.1405 -0.7046  2.8286
 3131SOL    HW221027   3.958   2.183   4.745 -1.5343  1.2509 -1.3756
 3132SOL     OW21028   0.062   1.593   3.631  0.2966 -0.6963  0.1967
 3132SOL    HW121029   0.140   1.557   3.588  0.6508  1.7797 -1.2106
 3132SOL    HW221030   4.729   1.547   3.584  0.9784 -0.1845 -1.3115
 3133SOL     OW21031   3.541   0.818   5.797 -0.0782 -0.2705 -0.5909
 3133SOL    HW121032   3.559   0.750   5.862 -0.4380 -0.0252 -0.2320
 3133SOL    HW221033   3.627   0.839   5.760  0.3885 -0.5137  0.3714
 3134SOL     OW21034   2.875   2.966  17.668 -0.7257 -0.3814  0.0795
 3134SOL    HW121035   2.909   2.914  17.741 -0.1883  2.3129  1.7790
 3134SOL    HW221036   2.822   2.897  17.628 -1.1770  0.5197 -0.8740
 3135SOL     OW21037   3.850   0.460   6.281 -0.4359  0.0610  0.0899
 3135SOL    HW121038   3.945   0.469   6.285  0.1346 -5.8793  0.0980
 3135SOL    HW221039   3.834   0.388   6.220  1.1935  1.4222 -1.9329
 3136SOL     OW21040   2.349   0.954   3.453  0.1582 -0.1627  0.0304
 3136SOL    HW121041   2.275   1.015   3.452  1.6437  1.6921  2.9675
 3136SOL    HW221042   2.310   0.870   3.478 -1.0243  0.6922  1.0264
 3137SOL     OW21043   0.358   0.786   9.621  0.1384  0.0103 -0.6160
 3137SOL    HW121044   0.445   0.807   9.587  1.0142 -1.8527  0.5236
 3137SOL    HW221045   0.336   0.714   9.561 -2.6286  0.0519  0.3576
 3138SOL     OW21046   3.531   2.043   7.622  0.3228  0.3176  0.1358
 3138SOL    HW121047   3.620   2.020   7.649  0.2562 -0.8126 -0.5979
 3138SOL    HW221048   3.499   1.956   7.597 -0.1919  1.4075 -3.0220
 3139SOL     OW21049   0.485   2.065  11.501  0.1663  0.4077 -0.7353
 3139SOL    HW121050   0.539   2.141  11.477  2.6496 -0.2924  2.7295
 3139SOL    HW221051   0.559   2.012  11.530  0.4467  1.3781  0.3323
 3140SOL     OW21052   1.237   3.259   2.329  0.3390 -0.0174  0.4317
 3140SOL    HW121053   1.157   3.208   2.341  1.8045 -2.3428  0.3491
 3140SOL    HW221054   1.264   3.228   2.242 -0.9280 -0.5287  0.2109
 3141SOL     OW21055   1.452   1.271   4.889  0.4031 -0.1337  0.6015
 3141SOL    HW121056   1.384   1.314   4.838  0.0925  1.0397  2.0105
 3141SOL    HW221057   1.404   1.232   4.962  0.6594 -2.2872 -0.3532
 3142SOL     OW21058   0.442   4.003   6.711  0.0911 -0.2275  0.4022
 3142SOL    HW121059   0.371   4.024   6.773 -0.9908  1.8704 -1.5234
 3142SOL    HW221060   0.516   3.982   6.767  1.9484  2.2758 -1.1223
 3143SOL     OW21061   2.806   3.974  15.304  0.0002  0.5857  0.1493
 3143SOL    HW121062   2.783   4.048  15.248  2.9435 -0.4844 -2.5106
 3143SOL    HW221063   2.897   3.971  15.273 -0.1843  0.0973 -0.3476
 3144SOL     OW21064   1.760   0.423   9.505 -0.5040 -0.0834  0.2477
 3144SOL    HW121065   1.772   0.514   9.479 -1.0495  0.3350  1.4716
 3144SOL    HW221066   1.814   0.381   9.438 -0.0917 -0.0859  0.5814
 3145SOL     OW21067   4.464   4.393   8.062  0.5418  0.0969  0.1727
 3145SOL    HW121068   4.434   4.328   8.125 -1.6605  0.1141 -0.8597
 3145SOL    HW221069   4.531   4.438   8.115  0.6035  0.0577  0.1280
 3146SOL     OW21070   1.241   4.315   7.088 -0.4757 -0.7418  0.2164
 3146SOL    HW121071   1.232   4.220   7.080  0.5549 -0.7662 -0.6519
 3146SOL    HW221072   1.219   4.342   6.999 -0.5700  1.8235  1.0028
 3147SOL     OW21073   2.915   4.291   3.823  0.2191 -0.0471  0.1256
 3147SOL    HW121074   2.986   4.322   3.767 -0.6255 -1.6601 -1.8255
 3147SOL    HW221075   2.851   4.344   3.776 -1.2293 -2.4771 -0.6170
 3148SOL     OW21076   1.080   2.076   9.444 -0.4689  0.5048 -0.2665
 3148SOL    HW121077   1.071   2.073   9.349  0.7338  0.3876 -0.3863
 3148SOL    HW221078   1.077   1.981   9.455  1.3070  0.4494 -0.1298
 3149SOL     OW21079   3.987   0.184   7.635  0.9080 -0.0545  0.1962
 3149SOL    HW121080   4.010   0.114   7.695 -0.7369 -0.0428  0.8339
 3149SOL    HW221081   3.899   0.207   7.667 -0.2544 -1.2651 -2.0666
 3150SOL     OW21082   4.244   0.579   5.743 -0.2590  0.5952 -0.2105
 3150SOL    HW121083   4.250   0.647   5.676  0.6063  0.9459  0.2255
 3150SOL    HW221084   4.322   0.530   5.716  0.3305  1.6173 -0.3597
 3151SOL     OW21085   2.062   0.867   2.020  0.1360 -0.2726  0.3539
 3151SOL    HW121086   2.049   0.929   2.092  2.8806 -0.3086  0.8680
 3151SOL    HW221087   1.986   0.810   2.034  0.3549 -0.6440  0.0269
 3152SOL     OW21088   1.405   4.515  14.428 -0.0565  0.7496 -0.0171
 3152SOL    HW121089   1.491   4.479  14.448 -1.2255 -3.2838 -2.2766
 3152SOL    HW221090   1.430   4.598  14.387 -0.0217  0.0048 -1.4854
 3153SOL     OW21091   4.577   3.104   8.718 -0.3595 -0.5531 -0.4773
 3153SOL    HW121092   4.629   3.163   8.664 -0.2760 -2.5833 -2.5927
 3153SOL    HW221093   4.597   3.021   8.676  1.4640 -0.2162 -0.2737
 3154SOL     OW21094   3.322   0.867   9.456  0.5681  0.0958  0.2043
 3154SOL    HW121095   3.300   0.794   9.399  1.5266 -0.8952  1.1140
 3154SOL    HW221096   3.376   0.829   9.525 -0.8782 -0.4579  1.0493
 3155SOL     OW21097   2.917   3.306   7.620 -0.5964  0.2277 -0.6425
 3155SOL    HW121098   2.959   3.261   7.693 -2.2479  1.1282  0.8906
 3155SOL    HW221099   2.907   3.396   7.652  0.2512 -1.1060  3.3990
 3156SOL     OW21100   4.706   4.205   5.988 -0.5155  0.3665  0.5685
 3156SOL    HW121101   4.715   4.295   6.019  3.4544 -0.9554  3.3526
 3156SOL    HW221102   0.051   4.179   5.945  1.5561  1.4748  3.7629
 3157SOL     OW21103   4.446   0.789   1.287 -0.0674 -0.0141  0.3784
 3157SOL    HW121104   4.432   0.696   1.305  0.0396 -0.0666  0.1934
 3157SOL    HW221105   4.447   0.788   1.191 -0.7103  1.3426  0.3541
 3158SOL     OW21106   1.505   4.226   6.044  0.6985  0.1884  0.1654
 3158SOL    HW121107   1.479   4.259   6.130 -4.3478 -3.7899  0.1012
 3158SOL    HW221108   1.417   4.209   6.011 -0.5348  3.6402  1.7165
 3159SOL     OW21109   2.036   1.895   2.361 -0.9439 -0.3255  0.0109
 3159SOL    HW121110   2.091   1.875   2.437  1.1371 -1.1146 -1.6896
 3159SOL    HW221111   2.071   1.847   2.286 -0.5464  2.6521 -1.7177
 3160SOL     OW21112   0.835   4.096  14.577  0.1970  0.4340 -0.0521
 3160SOL    HW121113   0.750   4.062  14.606  0.4549  0.5719  0.8784
 3160SOL    HW221114   0.862   4.134  14.660 -2.2037  1.3204  0.3008
 3161SOL     OW21115   2.457   3.243   4.255 -0.0721  0.0002  0.2180
 3161SOL    HW121116   2.427   3.327   4.289 -0.7685 -0.2584  0.2395
 3161SOL    HW221117   2.450   3.262   4.161  0.7044  0.9248  0.3404
 3162SOL     OW21118   2.356   3.121  16.284  0.6557 -0.0557  0.0746
 3162SOL    HW121119   2.282   3.156  16.234  0.9691  1.4898  0.6919
 3162SOL    HW221120   2.339   3.157  16.371  0.7953  0.4353 -0.1037
 3163SOL     OW21121   2.832   4.113   9.444  0.4816  0.1445 -0.1590
 3163SOL    HW121122   2.786   4.110   9.528  0.2349  0.1788 -0.2957
 3163SOL    HW221123   2.906   4.166   9.475  1.7300 -1.2209 -0.8054
 3164SOL     OW21124   2.009   1.533  16.082 -0.4361  0.0680  0.5650
 3164SOL    HW121125   2.024   1.505  15.992 -0.4548  0.6170  0.3919
 3164SOL    HW221126   2.072   1.605  16.092  0.3403 -0.7417  1.4425
 3165SOL     OW21127   4.610   0.613   3.227 -0.5580  0.3001 -0.2540
 3165SOL    HW121128   4.562   0.657   3.297 -1.4415  0.9555 -1.2781
 3165SOL    HW221129   4.679   0.676   3.207  0.2271 -0.2105  0.8444
 3166SOL     OW21130   0.750   1.640   4.272 -0.7105  0.5496  0.1539
 3166SOL    HW121131   0.756   1.718   4.216  1.1261  0.4171  0.1665
 3166SOL    HW221132   0.830   1.650   4.325  0.5350 -2.2408 -1.2099
 3167SOL     OW21133   0.279   0.850   2.431 -0.2017  0.3943  0.2435
 3167SOL    HW121134   0.276   0.907   2.354 -1.1084  3.0908  2.2744
 3167SOL    HW221135   0.321   0.910   2.492 -0.0982  1.2477 -0.6659
 3168SOL     OW21136   1.350   0.914   8.853 -0.2984  0.5278 -0.0609
 3168SOL    HW121137   1.306   0.944   8.933  1.9260  2.4658  0.4531
 3168SOL    HW221138   1.409   0.857   8.903 -1.0180  0.6055  0.8749
 3169SOL     OW21139   0.705   4.521   6.857  0.3633 -0.2640 -0.6436
 3169SOL    HW121140   0.665   4.603   6.830 -0.8500 -0.6292  0.0473
 3169SOL    HW221141   0.686   4.503   6.949  5.4734 -1.6598  0.1352
 3170SOL     OW21142   4.149   1.453   0.781 -0.4237 -0.1510  0.4905
 3170SOL    HW121143   4.149   1.390   0.709  1.5775  0.7101 -0.2602
 3170SOL    HW221144   4.241   1.441   0.803 -0.2796  0.3647  0.1566
 3171SOL     OW21145   3.609   1.742   6.069 -0.5170  0.4790  0.1812
 3171SOL    HW121146   3.591   1.794   6.147 -0.3120 -1.3008  1.4288
 3171SOL    HW221147   3.566   1.657   6.077  1.2574 -0.4874 -0.3576
 3172SOL     OW21148   3.861   1.663   8.252 -0.7504  0.0921  0.3220
 3172SOL    HW121149   3.926   1.650   8.321 -0.5283 -1.3538 -0.1603
 3172SOL    HW221150   3.860   1.759   8.250 -1.7721  0.0519 -0.7745
 3173SOL     OW21151   2.007   0.955   7.047 -0.2306  0.3225 -0.0658
 3173SOL    HW121152   1.938   0.889   7.058  0.5468 -1.0638 -3.5534
 3173SOL    HW221153   2.087   0.930   7.092 -0.4656 -1.9441 -0.9280
 3174SOL     OW21154   0.302   2.821   3.885 -0.2879  0.2451  0.1023
 3174SOL    HW121155   0.279   2.751   3.824  0.6388  0.5450 -0.5913
 3174SOL    HW221156   0.364   2.770   3.937 -0.8904 -0.0011  0.5649
 3175SOL     OW21157   1.772   3.018  15.545  0.3771  0.3926  0.4957
 3175SOL    HW121158   1.689   3.021  15.592  2.2258 -0.9790  3.8018
 3175SOL    HW221159   1.763   2.926  15.517 -0.6378  0.9430 -1.0083
 3176SOL     OW21160   2.151   3.183  16.562 -0.0673  0.0966  0.1808
 3176SOL    HW121161   2.079   3.177  16.499 -0.3592  0.8243  0.4339
 3176SOL    HW221162   2.169   3.275  16.584  0.7391 -0.8864  3.6888
 3177SOL     OW21163   3.690   0.497   2.107 -0.1471 -0.7056 -0.5537
 3177SOL    HW121164   3.645   0.545   2.037  2.5246  0.4393 -1.4929
 3177SOL    HW221165   3.709   0.570   2.166 -0.5988 -3.8995  3.6015
 3178SOL     OW21166   4.482   3.371   2.575 -0.0356 -0.1043  0.2982
 3178SOL    HW121167   4.521   3.362   2.662 -1.1190 -0.3358  0.7595
 3178SOL    HW221168   4.470   3.465   2.563 -1.1447 -0.6193 -2.6906
 3179SOL     OW21169   4.410   3.656   1.820  0.4457 -0.4915 -0.2650
 3179SOL    HW121170   4.369   3.604   1.889  2.1426  1.0722  1.9185
 3179SOL    HW221171   4.484   3.698   1.864  0.4176  2.9674 -3.5198
 3180SOL     OW21172   1.331   0.756  11.786  0.2170 -0.3095  0.6633
 3180SOL    HW121173   1.351   0.787  11.874  0.6406  0.4333  0.3053
 3180SOL    HW221174   1.264   0.813  11.749  1.7443  0.6533 -0.6134
 3181SOL     OW21175   1.357   2.107   9.213  0.0688  0.1878  0.0370
 3181SOL    HW121176   1.419   2.169   9.176 -0.1064 -0.9218 -2.1385
 3181SOL    HW221177   1.414   2.072   9.281 -1.0679 -1.3837  0.1888
 3182SOL     OW21178   0.790   0.829   6.761 -0.1995  0.0569  0.9815
 3182SOL    HW121179   0.779   0.907   6.816  0.0468  2.3184 -2.2047
 3182SOL    HW221180   0.817   0.869   6.678 -0.2426  1.8300  1.8221
 3183SOL     OW21181   0.263   4.371   3.307  0.1911  0.1412  0.0049
 3183SOL    HW121182   0.209   4.412   3.374 -0.1462  0.8808 -0.7286
 3183SOL    HW221183   0.341   4.427   3.307 -1.4988  2.4934 -2.3648
 3184SOL     OW21184   3.372   4.573   2.617 -0.6040 -0.3614 -0.5119
 3184SOL    HW121185   3.415   4.528   2.544 -1.1982 -3.3225  0.9683
 3184SOL    HW221186   3.285   4.567   2.578 -0.3970 -0.4360 -0.9638
 3185SOL     OW21187   4.487   3.189  12.169  0.2513 -0.4889 -0.8196
 3185SOL    HW121188   4.506   3.253  12.238  2.2364 -1.1353 -0.7711
 3185SOL    HW221189   4.556   3.128  12.194 -0.8775 -1.7513 -0.8041
 3186SOL     OW21190   0.381   2.374   7.790 -0.0407 -0.4255  0.7888
 3186SOL    HW121191   0.343   2.448   7.837  0.0790  0.1224  0.0191
 3186SOL    HW221192   0.300   2.350   7.746 -0.1696  2.2152 -0.3629
 3187SOL     OW21193   1.272   2.148   2.113 -0.6894 -0.1984 -0.0491
 3187SOL    HW121194   1.219   2.070   2.099  1.4941 -1.5960 -0.5471
 3187SOL    HW221195   1.325   2.142   2.033 -0.3227 -0.4723  0.2144
 3188SOL     OW21196   2.541   2.267   7.664 -0.4557 -0.0764 -0.1833
 3188SOL    HW121197   2.510   2.182   7.695  0.9174 -1.6184 -3.0542
 3188SOL    HW221198   2.574   2.250   7.575  0.7287  0.1420  0.2159
 3189SOL     OW21199   0.233   0.858   0.711 -0.2717 -0.2571 -0.3724
 3189SOL    HW121200   0.139   0.863   0.730 -0.0428 -0.5529  0.8326
 3189SOL    HW221201   0.259   0.946   0.685  1.1507 -0.3247  0.8199
 3190SOL     OW21202   1.541   3.065   3.141 -0.1534 -0.3506  0.4631
 3190SOL    HW121203   1.521   3.150   3.179 -0.2781 -0.6182  0.9882
 3190SOL    HW221204   1.454   3.027   3.127 -0.6590  0.4525  1.4862
 3191SOL     OW21205   3.436   3.854  12.954  0.1099 -0.1659 -0.1065
 3191SOL    HW121206   3.527   3.842  12.928  0.0392 -1.7269  0.3701
 3191SOL    HW221207   3.435   3.819  13.043  1.2129  1.3788  0.5100
 3192SOL     OW21208   4.190   2.679   8.042 -0.3036 -0.0158  0.3840
 3192SOL    HW121209   4.231   2.714   8.121 -0.5276  0.2620  0.3795
 3192SOL    HW221210   4.098   2.702   8.059 -0.0731  1.8177 -0.7892
 3193SOL     OW21211   4.574   4.168  13.787 -0.3496  0.0704  0.1636
 3193SOL    HW121212   4.523   4.117  13.725  1.2026 -1.7023  0.3151
 3193SOL    HW221213   4.545   4.123  13.867  0.9157 -2.6738 -0.9354
 3194SOL     OW21214   0.206   0.801   5.711  0.3613 -0.0900  0.1274
 3194SOL    HW121215   0.186   0.718   5.667 -1.0017 -0.4194  1.3588
 3194SOL    HW221216   0.281   0.825   5.658  1.3466 -0.5582  1.3064
 3195SOL     OW21217   3.074   1.411  12.549 -0.2048  0.7331 -0.1027
 3195SOL    HW121218   2.985   1.431  12.520 -0.8266 -2.7306 -0.5505
 3195SOL    HW221219   3.045   1.368  12.630  2.0916  0.8619  0.7818
 3196SOL     OW21220   4.473   2.355   8.648 -0.1537  0.4841  0.2828
 3196SOL    HW121221   4.465   2.448   8.670 -0.5667  0.3870  0.5410
 3196SOL    HW221222   4.461   2.360   8.553  1.6677  0.2819  0.0484
 3197SOL     OW21223   4.644   1.039   6.765 -0.1228  0.3508 -1.0245
 3197SOL    HW121224   4.571   1.100   6.776 -1.0097 -0.6982 -1.0349
 3197SOL    HW221225   4.612   0.986   6.692 -1.4533  0.7756 -0.7671
 3198SOL     OW21226   3.578   2.773   9.049 -0.3615 -0.0804 -0.2292
 3198SOL    HW121227   3.584   2.818   8.965  0.3792  1.1464  0.4898
 3198SOL    HW221228   3.541   2.846   9.100 -0.3206 -2.5908  3.4231
 3199SOL     OW21229   3.457   1.386   8.818 -0.0578  0.3377  0.1002
 3199SOL    HW121230   3.388   1.396   8.884  0.4535  0.8906  0.5492
 3199SOL    HW221231   3.538   1.401   8.865 -0.2624  0.2924  0.4686
 3200SOL     OW21232   2.727   2.925   5.361 -0.7298  0.5780  0.1355
 3200SOL    HW121233   2.810   2.878   5.353 -0.0674  2.0329 -1.4417
 3200SOL    HW221234   2.735   2.969   5.446 -2.6209  0.5300  0.3499
 3201SOL     OW21235   4.734   3.384  15.699 -0.0943 -0.3177  0.1243
 3201SOL    HW121236   0.042   3.390  15.615  0.2508  0.1064  0.3317
 3201SOL    HW221237   4.677   3.460  15.688  1.9239  1.2205  0.1280
 3202SOL     OW21238   0.501   0.998   5.872  0.6253 -0.2405 -0.3583
 3202SOL    HW121239   0.592   1.005   5.901 -0.3051  2.7883  1.8398
 3202SOL    HW221240   0.473   0.916   5.914 -0.7371  1.6730  2.5063
 3203SOL     OW21241   3.855   2.137   0.991  0.4589 -0.0766 -0.2631
 3203SOL    HW121242   3.788   2.083   1.033  0.4722  1.0634  1.2412
 3203SOL    HW221243   3.930   2.078   0.993  0.2065 -0.3918 -0.0743
 3204SOL     OW21244   2.594   3.009  16.528 -0.1874 -0.2402  0.2822
 3204SOL    HW121245   2.680   3.035  16.562  0.0316 -0.7153  0.0911
 3204SOL    HW221246   2.542   2.982  16.603 -0.6278 -1.5268 -0.4967
 3205SOL     OW21247   4.682   3.710   3.563 -0.1282  0.2943 -0.8120
 3205SOL    HW121248   4.731   3.665   3.493  1.3666 -0.3741  0.6558
 3205SOL    HW221249   4.680   3.800   3.532 -2.5359  0.4304 -0.2451
 3206SOL     OW21250   1.069   2.365   7.541 -0.3569  0.1121  0.4432
 3206SOL    HW121251   1.058   2.275   7.512 -0.6385 -0.4401  2.2875
 3206SOL    HW221252   1.152   2.364   7.590  0.9784  0.1144 -1.7995
 3207SOL     OW21253   4.328   1.923   3.008  0.2903 -0.9312  0.4456
 3207SOL    HW121254   4.391   1.857   2.980  0.1624 -0.7885 -0.1778
 3207SOL    HW221255   4.339   1.908   3.102 -1.3323 -0.6562  0.6715
 3208SOL     OW21256   1.403   2.728   9.539 -0.3651  0.0544  0.1586
 3208SOL    HW121257   1.387   2.728   9.633 -0.7979 -1.5172  0.0895
 3208SOL    HW221258   1.408   2.822   9.523  0.3658  0.0966  0.6357
 3209SOL     OW21259   0.910   4.532  17.413  0.2048 -0.1378  0.6156
 3209SOL    HW121260   0.988   4.499  17.457 -0.5661 -2.0974  0.4760
 3209SOL    HW221261   0.849   4.460  17.424  1.4957 -1.1732  0.9419
 3210SOL     OW21262   1.138   3.265   6.569  0.3893  0.3274  0.4302
 3210SOL    HW121263   1.140   3.358   6.547 -0.5819  0.3359  0.4044
 3210SOL    HW221264   1.229   3.234   6.569  0.0358 -0.7127  0.3215
 3211SOL     OW21265   2.009   0.843   8.230 -0.2385  0.2251  0.3049
 3211SOL    HW121266   2.098   0.878   8.230 -0.4601  0.8205 -1.6463
 3211SOL    HW221267   1.990   0.814   8.319  0.7059  2.4655  1.2482
 3212SOL     OW21268   0.488   1.595   8.887  0.0405  0.3052  0.5330
 3212SOL    HW121269   0.499   1.678   8.932  2.2440  0.7871 -0.8881
 3212SOL    HW221270   0.431   1.621   8.815 -0.1858  1.2489  1.0466
 3213SOL     OW21271   0.526   4.179   9.914  0.0282  0.2307 -0.9595
 3213SOL    HW121272   0.460   4.116   9.940 -0.0705  1.2613  1.3084
 3213SOL    HW221273   0.511   4.245   9.982 -0.8845 -0.9964  0.0235
 3214SOL     OW21274   2.492   1.865   6.202 -0.0606 -0.4639  0.6107
 3214SOL    HW121275   2.587   1.878   6.193 -0.4089  0.9406 -1.0361
 3214SOL    HW221276   2.483   1.801   6.272  2.7906  0.3321  1.7067
 3215SOL     OW21277   2.559   1.542  10.705 -0.0826 -0.7539 -0.0191
 3215SOL    HW121278   2.617   1.613  10.733  0.2932 -0.5249 -1.3875
 3215SOL    HW221279   2.613   1.488  10.647  2.9758  1.4817  0.7590
 3216SOL     OW21280   2.776   2.153   1.156 -0.4105 -0.4954  0.3683
 3216SOL    HW121281   2.770   2.060   1.178 -3.5882 -0.1533  0.8750
 3216SOL    HW221282   2.841   2.175   1.223  0.0867 -0.3282 -0.1742
 3217SOL     OW21283   0.995   2.919  10.062 -0.2794  0.1034  0.4448
 3217SOL    HW121284   0.947   2.948  10.140 -1.4716 -1.3745  0.2662
 3217SOL    HW221285   1.083   2.938  10.095  1.0195 -4.6870 -0.2734
 3218SOL     OW21286   4.554   2.032   0.078  0.2338 -0.1359  0.0790
 3218SOL    HW121287   4.624   1.968   0.088 -0.8253 -1.5147 -1.2457
 3218SOL    HW221288   4.498   2.019   0.155 -1.0022 -1.4216 -1.0146
 3219SOL     OW21289   1.182   1.914  16.031 -0.0328 -0.0828  0.0801
 3219SOL    HW121290   1.163   1.867  15.949  1.0063  0.1195 -0.2781
 3219SOL    HW221291   1.211   1.844  16.089 -0.5987 -0.3917 -0.0024
 3220SOL     OW21292   0.489   4.603   7.608 -0.5661 -0.4996 -0.0748
 3220SOL    HW121293   0.569   4.578   7.652  0.5820  2.8618 -0.2487
 3220SOL    HW221294   0.505   4.697   7.602 -1.3706 -0.3838 -0.5251
 3221SOL     OW21295   1.233   1.743   9.134 -0.3797 -0.0769  0.8382
 3221SOL    HW121296   1.190   1.827   9.115  0.5739  0.2930  0.2933
 3221SOL    HW221297   1.316   1.773   9.170  1.1293 -2.0629 -0.9857
 3222SOL     OW21298   0.023   3.855   5.553 -0.2005 -0.0444 -0.2750
 3222SOL    HW121299   0.066   3.806   5.483  2.2637  0.9524  0.5617
 3222SOL    HW221300   0.101   3.876   5.605  0.2642  0.6645 -1.2602
 3223SOL     OW21301   1.544   2.595   8.335  0.4892  0.2014 -0.6732
 3223SOL    HW121302   1.636   2.577   8.350  0.3114 -1.3585 -1.4225
 3223SOL    HW221303   1.511   2.507   8.356 -1.7906  1.5502  1.4598
 3224SOL     OW21304   1.690   1.459   1.500 -0.3163 -0.4586 -0.1927
 3224SOL    HW121305   1.748   1.394   1.461 -1.7921 -2.0791  0.3028
 3224SOL    HW221306   1.622   1.471   1.434 -0.1828  3.2228  0.3485
 3225SOL     OW21307   2.736   4.066   9.726 -0.0435 -0.4642  0.4322
 3225SOL    HW121308   2.708   3.981   9.692 -1.2136 -0.0550  0.3491
 3225SOL    HW221309   2.781   4.047   9.808  2.2422  1.5459 -0.3599
 3226SOL     OW21310   1.649   2.860   0.609 -0.9028  0.0968  0.2752
 3226SOL    HW121311   1.640   2.881   0.516 -1.4253  0.1514  0.3375
 3226SOL    HW221312   1.693   2.938   0.641  0.5530 -0.5992 -0.0606
 3227SOL     OW21313   3.424   1.807   0.510 -0.3870 -0.2240 -0.2635
 3227SOL    HW121314   3.349   1.849   0.467  0.2472 -0.3050 -1.4651
 3227SOL    HW221315   3.387   1.767   0.588  0.1610  0.2312  0.2200
 3228SOL     OW21316   1.668   1.717  11.583 -0.4462 -0.3328  0.4138
 3228SOL    HW121317   1.613   1.694  11.508  1.5801  1.0046 -1.4842
 3228SOL    HW221318   1.751   1.685  11.548 -0.4011  2.1193 -1.7378
 3229SOL     OW21319   2.612   0.313   4.318 -0.5174 -0.2657 -0.1600
 3229SOL    HW121320   2.628   0.248   4.250 -1.3713 -0.5200 -0.1252
 3229SOL    HW221321   2.655   0.386   4.274 -1.7776  1.1029  0.8444
 3230SOL     OW21322   2.872   2.110  13.631  0.5233 -0.5866 -0.5932
 3230SOL    HW121323   2.931   2.035  13.633 -0.3705 -1.3070 -1.3877
 3230SOL    HW221324   2.802   2.075  13.686  2.4450 -0.2613  2.0180
 3231SOL     OW21325   3.631   3.684   3.866 -0.0907  0.0022  0.1947
 3231SOL    HW121326   3.696   3.621   3.837 -0.7149 -0.4816 -0.1595
 3231SOL    HW221327   3.683   3.763   3.852  0.3697 -0.4002 -0.3316
 3232SOL     OW21328   3.822   2.467  12.163 -0.3466 -0.7643 -0.0556
 3232SOL    HW121329   3.819   2.517  12.081 -2.3992 -0.5317  0.1588
 3232SOL    HW221330   3.916   2.469  12.181 -0.0538  0.2978 -1.7085
 3233SOL     OW21331   3.798   3.438   8.215 -0.1736  0.1471 -0.3296
 3233SOL    HW121332   3.882   3.472   8.183 -0.4544  0.6968 -0.4908
 3233SOL    HW221333   3.800   3.441   8.310  1.8922  3.5386 -0.4646
 3234SOL     OW21334   1.590   0.654   3.083 -0.2618 -0.1636  0.7087
 3234SOL    HW121335   1.575   0.560   3.080 -2.9436  0.2558  0.9281
 3234SOL    HW221336   1.611   0.676   3.174 -4.2272  1.1915  1.3032
 3235SOL     OW21337   4.608   1.867  17.523 -0.2926 -0.4983 -0.1711
 3235SOL    HW121338   4.522   1.909  17.532 -0.6109 -0.7280 -1.9979
 3235SOL    HW221339   4.623   1.851  17.616 -0.1103  0.6619  0.0032
 3236SOL     OW21340   3.411   3.787   1.632  0.0493  0.4431 -0.1524
 3236SOL    HW121341   3.408   3.809   1.539  0.8599 -0.0065 -0.2896
 3236SOL    HW221342   3.404   3.691   1.628 -0.0253  0.4263  0.3495
 3237SOL     OW21343   3.215   4.504   3.197  0.0011 -0.5613  0.0119
 3237SOL    HW121344   3.269   4.435   3.235 -1.1160  0.0113  2.6136
 3237SOL    HW221345   3.224   4.571   3.264  0.6335 -0.2854 -0.3500
 3238SOL     OW21346   4.673   1.174   2.670 -0.0116  0.4946  0.5370
 3238SOL    HW121347   4.628   1.094   2.697  0.6134 -0.5201 -1.4353
 3238SOL    HW221348   0.007   1.141   2.615  0.9335  1.3090  1.2636
 3239SOL     OW21349   1.582   3.383   5.944 -0.8707 -0.1811 -0.1978
 3239SOL    HW121350   1.511   3.329   5.979  0.4490 -2.4726 -0.9868
 3239SOL    HW221351   1.565   3.389   5.850  0.1343  0.1269 -0.3623
 3240SOL     OW21352   2.918   4.677  17.017  0.1340  0.4681  0.0470
 3240SOL    HW121353   2.931   0.035  17.024 -2.5164  0.8713 -0.4978
 3240SOL    HW221354   2.833   4.677  16.974  0.1736  2.6995 -0.0429
 3241SOL     OW21355   1.046   3.330   3.721 -0.3663 -0.8286 -0.4720
 3241SOL    HW121356   1.125   3.278   3.726 -0.5841 -1.1517 -0.4291
 3241SOL    HW221357   0.997   3.278   3.784  0.7115 -0.5214  0.6106
 3242SOL     OW21358   0.092   3.626   6.697  0.0687 -0.6738 -0.4462
 3242SOL    HW121359   0.187   3.631   6.707 -0.1739  2.1417  0.5034
 3242SOL    HW221360   0.087   3.534   6.674 -1.0677 -1.0890  1.4729
 3243SOL     OW21361   1.698   1.735   1.830  0.3547 -0.8006 -0.2162
 3243SOL    HW121362   1.794   1.736   1.835  0.2867 -1.6567  1.0974
 3243SOL    HW221363   1.677   1.711   1.920  1.3396 -1.4295 -0.1575
 3244SOL     OW21364   3.853   1.317   6.979  0.1757  0.1335  0.4679
 3244SOL    HW121365   3.871   1.233   7.020 -1.2899  0.6063  2.0824
 3244SOL    HW221366   3.898   1.327   6.895  0.5153 -0.2199  0.6074
 3245SOL     OW21367   3.396   2.849  10.234  0.1093  0.1258 -0.1291
 3245SOL    HW121368   3.408   2.913  10.304  0.5100 -0.4695  0.3457
 3245SOL    HW221369   3.487   2.821  10.220  0.4017  0.3839  1.3303
 3246SOL     OW21370   2.148   4.261   2.731 -0.5762 -0.3279 -0.2405
 3246SOL    HW121371   2.061   4.280   2.695 -0.5291 -2.4172 -1.4363
 3246SOL    HW221372   2.167   4.180   2.685 -0.1982  0.5571 -1.6245
 3247SOL     OW21373   0.682   1.777   8.652  0.2177  0.3474  0.5367
 3247SOL    HW121374   0.615   1.759   8.585  0.4977 -0.9316  0.5991
 3247SOL    HW221375   0.662   1.870   8.665 -2.3728 -0.0283 -0.7643
 3248SOL     OW21376   1.544   3.423   3.796 -0.3235  0.2757 -0.1111
 3248SOL    HW121377   1.593   3.444   3.716 -2.5898  1.5016 -1.1607
 3248SOL    HW221378   1.586   3.346   3.836  0.4624  0.2422 -1.0081
 3249SOL     OW21379   2.476   4.667   7.202  0.2428  0.4091 -0.0569
 3249SOL    HW121380   2.473   4.585   7.251  0.0400 -1.0158 -2.4605
 3249SOL    HW221381   2.554   4.723   7.210 -0.2627  1.2071 -0.7639
 3250SOL     OW21382   3.683   4.137   7.239  0.2032  0.3020 -0.2753
 3250SOL    HW121383   3.642   4.168   7.320  0.0160 -1.2033  0.2054
 3250SOL    HW221384   3.770   4.173   7.257  0.9146 -1.1017 -0.9056
 3251SOL     OW21385   1.928   3.806  10.340 -0.3402  0.4457  0.5272
 3251SOL    HW121386   1.911   3.777  10.251 -2.9467 -0.2480  1.2451
 3251SOL    HW221387   1.835   3.813  10.362 -0.7506 -0.3857 -0.9302
 3252SOL     OW21388   2.919   0.243   1.782  0.0973 -0.0876 -0.3290
 3252SOL    HW121389   2.954   0.305   1.718  5.8888 -2.0570  0.9324
 3252SOL    HW221390   2.993   0.228   1.840 -0.8443 -0.5001  0.7715
 3253SOL     OW21391   3.207   0.442   2.072  0.1562  0.0753  0.0346
 3253SOL    HW121392   3.255   0.510   2.024  0.5512 -0.4854 -0.3675
 3253SOL    HW221393   3.122   0.486   2.075 -0.2258 -0.5789 -1.2294
 3254SOL     OW21394   1.489   1.838   4.310 -0.1637 -0.5571  0.0691
 3254SOL    HW121395   1.567   1.872   4.353 -0.5814  1.4796 -0.7733
 3254SOL    HW221396   1.530   1.801   4.232 -0.2596 -0.4402 -0.0368
 3255SOL     OW21397   3.939   0.499  16.037 -0.2152 -0.2557 -1.0162
 3255SOL    HW121398   3.989   0.459  16.109  0.5462 -0.7201 -1.7940
 3255SOL    HW221399   4.001   0.491  15.964  0.9051 -0.0211 -0.0814
 3256SOL     OW21400   0.189   3.447   1.882  0.7654  0.0271  0.5190
 3256SOL    HW121401   0.156   3.376   1.826 -2.1913  0.4748  1.7278
 3256SOL    HW221402   0.251   3.394   1.932  2.2857 -0.7944 -2.1992
 3257SOL     OW21403   0.036   3.844   7.764  0.1258 -0.2880  0.4697
 3257SOL    HW121404   0.088   3.765   7.776  0.3365 -0.2824 -0.4690
 3257SOL    HW221405   4.694   3.797   7.736  0.5352 -0.0400 -1.0846
 3258SOL     OW21406   4.175   2.794   8.676  0.1609 -0.1544  0.5362
 3258SOL    HW121407   4.236   2.841   8.732  2.0731 -1.6008 -0.3624
 3258SOL    HW221408   4.235   2.765   8.609 -0.1039  1.7201 -0.5066
 3259SOL     OW21409   4.733   3.604   3.996 -0.1410 -0.2586 -0.2672
 3259SOL    HW121410   0.063   3.581   4.061  1.1749 -0.3055 -1.6268
 3259SOL    HW221411   0.038   3.583   3.912  1.0625  1.1011 -0.0307
 3260SOL     OW21412   3.642   3.452  10.783 -0.3335  0.5150 -0.4553
 3260SOL    HW121413   3.625   3.358  10.776  1.3652  0.1000  1.0677
 3260SOL    HW221414   3.611   3.489  10.701  1.5008 -0.0024 -1.3680
 3261SOL     OW21415   2.010   4.142   9.100  0.2923  0.2897 -0.6274
 3261SOL    HW121416   2.067   4.191   9.160 -1.7956 -0.1183  1.6878
 3261SOL    HW221417   1.944   4.113   9.163 -0.2033 -0.7595 -1.6135
 3262SOL     OW21418   1.930   3.794   4.690  0.3247 -0.1047  0.0057
 3262SOL    HW121419   1.940   3.852   4.766 -0.9756  2.7003 -1.9398
 3262SOL    HW221420   1.839   3.769   4.705  0.4300 -0.1306  0.6012
 3263SOL     OW21421   0.292   1.713   0.355 -0.1518 -0.2940  0.2868
 3263SOL    HW121422   0.251   1.795   0.383  2.2392  0.7958  0.6504
 3263SOL    HW221423   0.217   1.656   0.369 -1.6352  1.4421 -0.6487
 3264SOL     OW21424   0.957   0.294   4.581 -0.0966  0.2433  0.1866
 3264SOL    HW121425   0.884   0.238   4.554 -0.7925  1.0287  0.4247
 3264SOL    HW221426   1.000   0.308   4.496  0.3977 -1.5190  0.1485
 3265SOL     OW21427   0.978   3.676   5.245  0.4134  0.5871 -0.3553
 3265SOL    HW121428   1.038   3.632   5.306  1.6783 -0.2057 -2.1853
 3265SOL    HW221429   0.973   3.759   5.293  1.0260  2.3272 -3.3035
 3266SOL     OW21430   1.079   4.105   6.659  0.3436 -0.4911  0.2809
 3266SOL    HW121431   1.060   4.138   6.571 -2.9315 -2.3721  0.2879
 3266SOL    HW221432   1.173   4.087   6.659  0.5858  0.7600  1.0683
 3267SOL     OW21433   4.485   1.352   9.507  0.5556 -0.1214  0.3220
 3267SOL    HW121434   4.457   1.275   9.457  1.1074 -0.1834  0.1085
 3267SOL    HW221435   4.400   1.387   9.534  0.2744 -0.2767 -0.3706
 3268SOL     OW21436   1.424   0.021   2.703 -0.1071  0.2841  0.2379
 3268SOL    HW121437   1.450   4.714   2.785 -0.9713  0.4599  0.6088
 3268SOL    HW221438   1.340   0.060   2.727  0.9395  1.4054  2.1379
 3269SOL     OW21439   3.359   2.272   8.850  0.2550 -0.0548  0.4752
 3269SOL    HW121440   3.432   2.295   8.907 -0.0245 -0.5604  1.0307
 3269SOL    HW221441   3.412   2.250   8.772  1.4131 -0.3952  1.3538
 3270SOL     OW21442   1.159   0.659   6.290 -0.5399  0.7310  0.1821
 3270SOL    HW121443   1.086   0.720   6.303  0.9377  2.1944  1.7391
 3270SOL    HW221444   1.225   0.716   6.251  0.1962 -0.3084 -0.0732
 3271SOL     OW21445   2.285   4.643   5.304 -0.0623  0.0464  0.2552
 3271SOL    HW121446   2.225   4.716   5.287 -0.3818 -0.0555  0.9505
 3271SOL    HW221447   2.246   4.605   5.383 -0.1409  0.1373  0.2600
 3272SOL     OW21448   1.337   3.397  10.600  0.3910  0.1709  0.2888
 3272SOL    HW121449   1.403   3.359  10.658  0.2660  2.1161  1.7093
 3272SOL    HW221450   1.391   3.419  10.524 -1.3196  0.9113 -0.7207
 3273SOL     OW21451   3.858   3.450   6.932 -0.3776  0.0555  0.2700
 3273SOL    HW121452   3.905   3.436   6.850  0.9236 -1.0410  1.1933
 3273SOL    HW221453   3.819   3.362   6.936  0.4492 -0.2176  2.4258
 3274SOL     OW21454   1.131   1.031   7.600  0.3752 -0.0128 -0.0925
 3274SOL    HW121455   1.111   1.091   7.528 -0.1224  2.7738  2.3546
 3274SOL    HW221456   1.051   0.978   7.601  0.7476 -0.5571  0.9792
 3275SOL     OW21457   0.228   0.674  15.259 -0.1192  0.8721 -0.0207
 3275SOL    HW121458   0.241   0.656  15.166 -1.8829 -0.6213  0.0100
 3275SOL    HW221459   0.252   0.766  15.251  2.0195  0.3501  0.2534
 3276SOL     OW21460   2.801   1.427  12.439 -0.2386 -0.1165  0.4034
 3276SOL    HW121461   2.756   1.368  12.378  1.7511  0.4096 -1.5962
 3276SOL    HW221462   2.781   1.392  12.525 -0.4277  0.4116  0.5732
 3277SOL     OW21463   2.145   0.565   9.386  0.4734 -0.1609  0.2202
 3277SOL    HW121464   2.102   0.561   9.301  0.6682  2.6097 -0.0347
 3277SOL    HW221465   2.143   0.658   9.410 -0.7943 -0.4575  1.2363
 3278SOL     OW21466   3.209   2.348   2.662  0.8874  0.0353  0.0769
 3278SOL    HW121467   3.293   2.332   2.706 -0.4262 -2.9898  1.4891
 3278SOL    HW221468   3.231   2.408   2.591 -1.5720  0.4012 -0.3713
 3279SOL     OW21469   0.563   4.567   1.740 -0.4139  0.5517 -0.5294
 3279SOL    HW121470   0.575   4.599   1.829 -0.2569 -0.1492 -0.2998
 3279SOL    HW221471   0.576   4.472   1.742 -0.4470  0.5161 -2.2794
 3280SOL     OW21472   4.499   4.185   8.806 -0.1872  0.1298  0.0731
 3280SOL    HW121473   4.416   4.151   8.838  0.6506 -2.2596 -0.3282
 3280SOL    HW221474   4.533   4.228   8.884 -0.1839  1.3383 -0.5827
 3281SOL     OW21475   0.608   2.148  14.408 -0.7187  0.0627 -0.2464
 3281SOL    HW121476   0.593   2.205  14.333  1.1115  2.2266  1.0403
 3281SOL    HW221477   0.522   2.106  14.413 -1.5437  1.7326 -0.4619
 3282SOL     OW21478   3.712   2.680  12.314 -0.2987 -0.1247  0.0516
 3282SOL    HW121479   3.762   2.600  12.331 -0.5245 -0.5677 -1.3608
 3282SOL    HW221480   3.762   2.710  12.237  1.1013 -0.0674  0.9764
 3283SOL     OW21481   3.001   4.667   3.122 -0.4276  0.3858  0.1912
 3283SOL    HW121482   3.079   4.615   3.140  0.5922  1.7163 -0.3657
 3283SOL    HW221483   2.939   4.598   3.143  0.4075 -0.7716 -1.1481
 3284SOL     OW21484   3.904   0.025   2.667 -0.0605 -0.3511  0.4174
 3284SOL    HW121485   3.815   0.002   2.642 -0.3817 -0.0998  1.3085
 3284SOL    HW221486   3.893   0.017   2.762 -0.4432  0.1319  0.4170
 3285SOL     OW21487   3.309   4.365  15.239  0.4441  0.2108 -0.0216
 3285SOL    HW121488   3.264   4.295  15.193  0.7696  0.9914 -1.5302
 3285SOL    HW221489   3.367   4.309  15.292 -1.3175 -1.5592  0.0202
 3286SOL     OW21490   3.231   4.498  16.067 -0.2399 -0.2814 -0.2050
 3286SOL    HW121491   3.326   4.509  16.074 -0.1493  0.2442 -2.4298
 3286SOL    HW221492   3.216   4.404  16.059 -0.8102 -0.1740 -0.3980
 3287SOL     OW21493   2.764   3.581   5.686 -0.4164 -0.6554  0.0272
 3287SOL    HW121494   2.789   3.612   5.599 -2.7460 -2.5484 -1.3124
 3287SOL    HW221495   2.719   3.656   5.725 -0.9096 -0.7702 -0.3181
 3288SOL     OW21496   1.101   0.545   7.723  0.5178 -0.1129  0.0626
 3288SOL    HW121497   1.091   0.450   7.717  1.1491 -0.0141 -2.7570
 3288SOL    HW221498   1.120   0.558   7.630  0.1190  0.9258  0.1334
 3289SOL     OW21499   0.498   3.897  11.049  0.1026 -0.3826 -0.0216
 3289SOL    HW121500   0.572   3.907  11.108 -0.1550 -1.6725  0.5193
 3289SOL    HW221501   0.527   3.814  11.011 -1.7441 -1.2191  0.3870
 3290SOL     OW21502   3.668   3.080  15.639 -0.2081 -0.1442 -0.6737
 3290SOL    HW121503   3.707   3.017  15.578  1.4075  1.1259 -0.9644
 3290SOL    HW221504   3.689   3.049  15.727  0.5068  0.1696 -0.7320
 3291SOL     OW21505   1.819   0.833   3.681 -0.1350 -0.3829 -0.6370
 3291SOL    HW121506   1.820   0.926   3.661 -1.0907  0.6586  4.4133
 3291SOL    HW221507   1.879   0.798   3.615 -2.1100  0.5143 -2.9503
 3292SOL     OW21508   4.162   1.016   4.328 -0.6086 -0.0035  0.0728
 3292SOL    HW121509   4.234   1.048   4.273 -0.4393 -0.6447 -0.0746
 3292SOL    HW221510   4.223   0.973   4.388  0.7700 -0.3812 -1.5944
 3293SOL     OW21511   1.319   0.935   7.797 -0.4187 -0.6596  0.0392
 3293SOL    HW121512   1.254   0.967   7.735  0.4577  2.0043  0.4845
 3293SOL    HW221513   1.283   0.965   7.880 -1.8327 -1.9997 -0.0873
 3294SOL     OW21514   3.867   1.340   6.041  0.0534 -0.0624  0.3996
 3294SOL    HW121515   3.883   1.297   6.125  0.9730 -1.0321 -0.2772
 3294SOL    HW221516   3.776   1.312   6.030 -0.0140  0.3848 -0.2079
 3295SOL     OW21517   0.394   0.690   8.206  0.1855 -0.4674 -0.2110
 3295SOL    HW121518   0.450   0.742   8.263 -0.8159  0.5080 -0.1277
 3295SOL    HW221519   0.437   0.607   8.229 -0.3777 -0.8963 -0.6992
 3296SOL     OW21520   0.880   4.525   4.143 -0.1156  0.2168  0.0573
 3296SOL    HW121521   0.881   4.591   4.074  0.8171 -1.1427 -1.2273
 3296SOL    HW221522   0.903   4.443   4.099 -2.5568 -1.4175  1.8481
 3297SOL     OW21523   3.786   1.114  12.794  0.3350 -0.0553  0.1478
 3297SOL    HW121524   3.785   1.124  12.698 -0.0097 -1.0237  0.0514
 3297SOL    HW221525   3.846   1.183  12.823  0.1010  0.4683 -0.6067
 3298SOL     OW21526   4.136   1.486   2.089 -0.1112  0.3569 -0.0500
 3298SOL    HW121527   4.114   1.436   2.168  0.2870  0.0571 -0.1316
 3298SOL    HW221528   4.135   1.418   2.021  1.3000 -0.2851  0.5750
 3299SOL     OW21529   1.029   4.480   8.452 -0.0139 -0.8928 -0.7002
 3299SOL    HW121530   0.974   4.441   8.383  0.5966 -0.8123 -1.2265
 3299SOL    HW221531   1.086   4.547   8.415 -0.3126 -0.0314  0.3918
 3300SOL     OW21532   3.834   4.272   9.502  0.0683  0.3514 -0.2343
 3300SOL    HW121533   3.829   4.288   9.596 -1.0185 -1.0034 -0.0517
 3300SOL    HW221534   3.754   4.231   9.469 -0.6425  0.0083  1.9168
 3301SOL     OW21535   0.925   1.293   5.718  0.7230  0.2020  0.0859
 3301SOL    HW121536   0.836   1.290   5.754  0.1378  0.0305 -1.3599
 3301SOL    HW221537   0.976   1.257   5.791 -0.9907 -2.2850  0.0421
 3302SOL     OW21538   3.452   3.466   3.222  0.1534  0.0704  0.6499
 3302SOL    HW121539   3.412   3.543   3.262  0.6920 -0.4657  2.2220
 3302SOL    HW221540   3.404   3.394   3.263 -1.4620  0.6883 -0.1333
 3303SOL     OW21541   0.827   2.725   3.128  0.6113 -0.2396 -0.1202
 3303SOL    HW121542   0.826   2.781   3.051 -1.7506 -0.9677 -0.6031
 3303SOL    HW221543   0.836   2.785   3.202 -0.7437 -1.4137  1.0138
 3304SOL     OW21544   3.945   1.960   0.109 -0.0400 -0.6845 -0.5997
 3304SOL    HW121545   3.883   2.032   0.097 -0.5433 -0.7139  1.7934
 3304SOL    HW221546   3.895   1.893   0.155 -0.1826 -0.1148  0.0917
 3305SOL     OW21547   1.561   3.413   1.817 -0.1990  0.3398  0.3263
 3305SOL    HW121548   1.574   3.491   1.870  1.8197  0.2062  0.0313
 3305SOL    HW221549   1.581   3.446   1.730 -0.0148  0.3201  0.3624
 3306SOL     OW21550   2.745   3.671  11.814 -0.5772 -0.1267  0.3089
 3306SOL    HW121551   2.654   3.646  11.799  0.0243 -3.2190  1.8354
 3306SOL    HW221552   2.741   3.723  11.894 -1.2627 -0.0920  0.2575
 3307SOL     OW21553   2.640   3.352  17.049  0.1427  0.0929 -0.5831
 3307SOL    HW121554   2.625   3.446  17.059 -1.7412  0.0608 -3.1871
 3307SOL    HW221555   2.650   3.350  16.954  1.0751  2.7455 -0.5378
 3308SOL     OW21556   0.067   4.436   8.408  0.2473 -0.3053  0.4071
 3308SOL    HW121557   0.069   4.354   8.457 -2.5791 -1.0981 -0.7754
 3308SOL    HW221558   0.009   4.486   8.464  0.5215 -1.3588  1.6248
 3309SOL     OW21559   1.540   2.389  16.236  0.3410 -0.1268 -0.3043
 3309SOL    HW121560   1.503   2.468  16.198  1.7290  0.0704 -1.2333
 3309SOL    HW221561   1.495   2.393  16.320  2.2226  0.3737  0.6831
 3310SOL     OW21562   2.623   2.682   4.198 -0.1965 -0.6738  0.3821
 3310SOL    HW121563   2.583   2.615   4.252 -0.5644 -1.2357 -0.5888
 3310SOL    HW221564   2.710   2.649   4.175  1.1381  1.1701  2.8560
 3311SOL     OW21565   3.673   3.256  10.415 -0.6986  0.5712 -0.1065
 3311SOL    HW121566   3.734   3.184  10.430 -0.5415  0.9416  0.9804
 3311SOL    HW221567   3.586   3.220  10.397  0.8855 -3.5345  0.4803
 3312SOL     OW21568   3.686   2.979   0.120  0.2039 -0.2623 -0.5521
 3312SOL    HW121569   3.719   3.069   0.114  1.1148 -0.5635  0.0466
 3312SOL    HW221570   3.605   3.004   0.164 -1.4022 -3.3334 -1.7561
 3313SOL     OW21571   4.053   4.692   7.785 -0.4631  0.2629  0.5482
 3313SOL    HW121572   4.098   4.656   7.861  2.0194 -0.3954 -1.2308
 3313SOL    HW221573   3.971   4.642   7.782 -0.6494  0.6159 -0.2582
 3314SOL     OW21574   0.706   0.747   2.138 -0.0515  0.4381 -0.6884
 3314SOL    HW121575   0.663   0.828   2.110 -0.6728 -0.0918 -1.2830
 3314SOL    HW221576   0.645   0.718   2.206  0.8149 -0.4737 -0.3176
 3315SOL     OW21577   1.229   1.296   9.533  0.2852  0.5265 -0.3099
 3315SOL    HW121578   1.253   1.271   9.443 -0.2706 -1.4577  0.0877
 3315SOL    HW221579   1.138   1.326   9.525  0.4201  0.6610 -1.3427
 3316SOL     OW21580   4.704   3.756   1.621  0.0576 -0.1670  0.2593
 3316SOL    HW121581   0.053   3.793   1.643 -0.2972  0.1059  1.1840
 3316SOL    HW221582   4.641   3.821   1.589  1.9623  1.8247  0.5711
 3317SOL     OW21583   3.287   3.004   3.797 -0.4110  0.1427 -0.0211
 3317SOL    HW121584   3.213   2.994   3.856 -0.2483 -0.0709  0.1464
 3317SOL    HW221585   3.334   2.930   3.834 -0.7879  0.5393  1.2314
 3318SOL     OW21586   4.648   2.049   7.655  0.4227  0.4100 -0.6829
 3318SOL    HW121587   4.650   2.138   7.622  2.2115  0.3565 -0.7372
 3318SOL    HW221588   4.608   2.067   7.740  2.5748  0.5767  0.2930
 3319SOL     OW21589   3.081   3.350   5.975  0.4142 -0.4958 -0.8622
 3319SOL    HW121590   3.019   3.339   6.047  3.3642 -3.5703  1.2049
 3319SOL    HW221591   3.017   3.392   5.918  0.0609 -0.2583 -0.2852
 3320SOL     OW21592   3.278   4.539  11.520 -0.1893 -0.1483 -0.6582
 3320SOL    HW121593   3.230   4.458  11.507  0.4584 -0.5813 -0.3519
 3320SOL    HW221594   3.202   4.597  11.529 -1.2559 -1.4772 -1.2049
 3321SOL     OW21595   4.258   0.707   5.486  0.6673 -0.3659  0.0853
 3321SOL    HW121596   4.223   0.731   5.400  1.6724  1.6591  0.2553
 3321SOL    HW221597   4.344   0.748   5.483 -0.0653  1.2573  1.8098
 3322SOL     OW21598   1.207   3.776   5.103  0.0449  0.0618 -0.3639
 3322SOL    HW121599   1.155   3.738   5.174  1.1004 -1.0263 -0.1810
 3322SOL    HW221600   1.150   3.851   5.086  0.8242  0.9652  1.0374
 3323SOL     OW21601   3.592   2.574   1.996  0.4367  0.3670  0.3180
 3323SOL    HW121602   3.648   2.521   2.052 -0.5989 -1.9096 -0.8164
 3323SOL    HW221603   3.611   2.526   1.916  1.4964  1.8955 -0.3545
 3324SOL     OW21604   1.168   2.477   8.265  0.0129  0.5070  0.3063
 3324SOL    HW121605   1.097   2.540   8.271  1.0178  1.6612  0.1332
 3324SOL    HW221606   1.136   2.411   8.327  0.8258 -0.4705 -0.2963
 3325SOL     OW21607   3.287   0.562   5.993 -0.2961 -0.6007 -0.1773
 3325SOL    HW121608   3.234   0.493   5.952 -1.5004  1.1790 -1.6394
 3325SOL    HW221609   3.212   0.607   6.032 -1.4274 -2.7298  0.1594
 3326SOL     OW21610   1.767   4.385   7.572 -0.1186  0.2451 -0.1763
 3326SOL    HW121611   1.822   4.347   7.504 -2.4160 -1.1354 -1.2607
 3326SOL    HW221612   1.680   4.368   7.535 -0.5991  0.4539  0.8546
 3327SOL     OW21613   1.559   3.112  13.050  0.2891  0.1230 -0.5339
 3327SOL    HW121614   1.649   3.118  13.081  0.2171 -0.7463 -0.1426
 3327SOL    HW221615   1.507   3.149  13.121 -2.7573  1.3486 -3.4107
 3328SOL     OW21616   3.545   1.124   3.823 -0.7146  0.3218  0.2550
 3328SOL    HW121617   3.502   1.159   3.900  2.8603 -0.5118  2.6498
 3328SOL    HW221618   3.614   1.189   3.817 -0.6059  0.0454 -1.6510
 3329SOL     OW21619   1.538   3.932   2.009 -0.3208  0.3738  0.1397
 3329SOL    HW121620   1.457   3.910   2.056 -1.6557  1.1442 -1.7850
 3329SOL    HW221621   1.565   3.843   1.988 -3.8343 -0.5152 -0.6243
 3330SOL     OW21622   0.670   2.650   3.651 -0.2558  0.2918  0.0879
 3330SOL    HW121623   0.607   2.711   3.612 -0.2739  0.2193  0.0036
 3330SOL    HW221624   0.640   2.567   3.616 -0.8345  0.7827 -0.5742
 3331SOL     OW21625   3.814   2.237  16.527  0.3816  0.3860 -0.3852
 3331SOL    HW121626   3.883   2.244  16.460  1.2405  1.8380  0.6424
 3331SOL    HW221627   3.865   2.271  16.601  1.3000 -0.5736 -0.5695
 3332SOL     OW21628   1.979   3.065   8.095  0.1414 -0.5145  0.1287
 3332SOL    HW121629   2.042   3.078   8.024  0.3958 -3.7038 -0.2612
 3332SOL    HW221630   1.963   3.158   8.109 -0.2078 -0.7319  1.1446
 3333SOL     OW21631   0.308   0.173   9.190  0.4981  0.7971 -0.5579
 3333SOL    HW121632   0.400   0.155   9.171  0.1351 -0.1337 -1.4477
 3333SOL    HW221633   0.289   0.123   9.269 -0.6664  1.4261 -0.4425
 3334SOL     OW21634   4.280   1.081   6.583 -0.3315  0.2523  0.1391
 3334SOL    HW121635   4.322   1.123   6.658  0.5529 -1.3014  0.5180
 3334SOL    HW221636   4.261   1.153   6.523  1.2437  0.1327 -0.5132
 3335SOL     OW21637   2.542   3.037  17.562 -0.4863 -0.1884  0.3168
 3335SOL    HW121638   2.474   3.102  17.580  0.0966 -0.0868  2.0714
 3335SOL    HW221639   2.618   3.095  17.556 -1.2373  0.6461 -1.2082
 3336SOL     OW21640   2.281   4.543   5.896  0.1181  0.1314 -0.0812
 3336SOL    HW121641   2.279   4.496   5.812  1.1392  0.7196 -0.4379
 3336SOL    HW221642   2.329   4.622   5.870 -0.7854  1.1983  1.4841
 3337SOL     OW21643   3.887   1.901   2.760 -0.2765  0.0109  0.0325
 3337SOL    HW121644   3.861   1.822   2.712 -0.9599  0.8038 -0.9140
 3337SOL    HW221645   3.982   1.896   2.767 -0.3414 -1.1373  0.1527
 3338SOL     OW21646   3.102   0.011   5.446  0.2706  0.6811  0.0884
 3338SOL    HW121647   3.176   0.043   5.395 -1.4989  0.5023 -2.5920
 3338SOL    HW221648   3.055   0.094   5.451 -0.3307  0.3535 -0.1187
 3339SOL     OW21649   2.293   3.011   6.604 -0.1802  0.1507  0.0601
 3339SOL    HW121650   2.265   2.952   6.534  1.3542 -1.6204  0.9093
 3339SOL    HW221651   2.373   3.048   6.567 -1.0457  0.8015 -1.1270
 3340SOL     OW21652   1.470   2.667   2.534 -0.1449  0.0621 -0.1534
 3340SOL    HW121653   1.392   2.641   2.583 -0.8611 -1.3753 -2.0782
 3340SOL    HW221654   1.457   2.628   2.448 -0.0790  0.9386 -0.5629
 3341SOL     OW21655   0.930   0.851   8.722 -0.0421  0.7299  0.1096
 3341SOL    HW121656   1.015   0.819   8.751  0.5033 -0.0672 -2.3402
 3341SOL    HW221657   0.874   0.817   8.791 -0.7816 -0.2404 -0.9581
 3342SOL     OW21658   3.150   2.562   2.927 -0.0618  0.4804  0.2717
 3342SOL    HW121659   3.070   2.580   2.976 -0.2473 -2.1665  0.9288
 3342SOL    HW221660   3.124   2.581   2.837 -1.8211 -0.2160  0.6488
 3343SOL     OW21661   0.345   3.812  17.355 -0.0618 -0.8909 -0.3973
 3343SOL    HW121662   0.277   3.756  17.317 -0.5906 -1.2932  1.1640
 3343SOL    HW221663   0.297   3.844  17.431 -0.6689 -0.2565 -1.0581
 3344SOL     OW21664   1.459   2.759   3.481  0.3684  0.3415  0.1298
 3344SOL    HW121665   1.528   2.695   3.469  1.5247  1.6249 -0.0148
 3344SOL    HW221666   1.496   2.845   3.460 -0.8351  1.1072  1.1163
 3345SOL     OW21667   4.623   1.664   7.855  0.0359  0.1975 -0.4258
 3345SOL    HW121668   4.598   1.582   7.898 -0.6891  0.4680 -0.3218
 3345SOL    HW221669   4.718   1.660   7.847 -0.2575 -0.9746 -3.1665
 3346SOL     OW21670   0.577   2.248   8.864  0.4887 -1.0072  0.5922
 3346SOL    HW121671   0.574   2.300   8.783 -1.7496 -1.4081  0.4063
 3346SOL    HW221672   0.535   2.309   8.924 -0.3189 -1.8832  0.9175
 3347SOL     OW21673   4.714   3.401   7.609 -0.2824  0.5534  0.1172
 3347SOL    HW121674   4.669   3.372   7.531 -0.8063 -1.0987  1.0325
 3347SOL    HW221675   0.063   3.357   7.613  0.4904  2.2621  2.3277
 3348SOL     OW21676   0.094   0.111   9.008  0.1707 -0.4963  0.8322
 3348SOL    HW121677   0.161   0.147   9.066 -1.5965  0.4574  2.2377
 3348SOL    HW221678   0.019   0.119   9.067 -0.4537 -1.6711  0.2051
 3349SOL     OW21679   4.548   3.183   6.976 -0.1168 -0.1722  0.0360
 3349SOL    HW121680   4.535   3.267   7.020  1.9680 -0.3563  0.9775
 3349SOL    HW221681   4.561   3.213   6.886 -0.2035 -0.5074 -0.0876
 3350SOL     OW21682   4.236   3.528   8.018  0.1630 -0.5909  0.0778
 3350SOL    HW121683   4.286   3.476   7.955  2.6313  1.9941 -0.0712
 3350SOL    HW221684   4.303   3.576   8.067  1.5409  0.1113 -2.4753
 3351SOL     OW21685   1.659   3.739   3.883  0.3728 -0.1875  0.7136
 3351SOL    HW121686   1.605   3.757   3.960 -0.7516  0.6598 -0.2686
 3351SOL    HW221687   1.662   3.823   3.837  0.0198  0.9793  2.8193
 3352SOL     OW21688   0.082   2.081   4.460 -0.1391 -0.0271  0.2967
 3352SOL    HW121689   0.075   2.066   4.554  2.2005  2.7133  0.8958
 3352SOL    HW221690   0.125   2.166   4.453 -1.2670  0.5061 -0.2081
 3353SOL     OW21691   2.207   0.851   3.989 -0.7344  0.2265 -0.4339
 3353SOL    HW121692   2.271   0.867   3.920 -1.8525 -0.6076 -1.6710
 3353SOL    HW221693   2.138   0.804   3.941 -0.5064  0.2061 -0.7394
 3354SOL     OW21694   1.480   2.625   5.631  0.1021 -0.0588 -0.7198
 3354SOL    HW121695   1.513   2.697   5.578  1.6148 -0.6973 -0.6484
 3354SOL    HW221696   1.387   2.632   5.611  0.0912  0.6666 -0.4246
 3355SOL     OW21697   1.360   1.091   6.036 -0.5396  0.1136  0.1633
 3355SOL    HW121698   1.436   1.033   6.043 -1.2546 -0.6874  1.1446
 3355SOL    HW221699   1.348   1.121   6.126  1.6535 -0.8749  0.7966
 3356SOL     OW21700   1.659   4.661   4.397  0.3394 -0.3809 -0.8286
 3356SOL    HW121701   1.640   0.018   4.393  0.8549 -0.2581 -0.2708
 3356SOL    HW221702   1.696   4.652   4.484  1.8370 -1.0509 -1.5276
 3357SOL     OW21703   4.390   0.107  15.013  0.3673 -0.4948  0.1850
 3357SOL    HW121704   4.317   0.145  14.964 -1.2284 -0.4065  2.6336
 3357SOL    HW221705   4.456   0.167  14.980  0.2741 -0.4547  0.0709
 3358SOL     OW21706   2.966   3.519  10.544  0.0162  0.2037 -0.2048
 3358SOL    HW121707   2.978   3.453  10.613 -1.1934  0.4336  0.2222
 3358SOL    HW221708   2.917   3.583  10.595  2.2835  2.6044 -1.0416
 3359SOL     OW21709   1.796   4.306  15.226 -0.0712  0.2892  0.3931
 3359SOL    HW121710   1.791   4.210  15.226  0.1866  0.2798  1.3783
 3359SOL    HW221711   1.887   4.319  15.252 -0.7045 -0.9844  3.2099
 3360SOL     OW21712   0.877   1.832   1.897 -0.3507  0.2730  0.3528
 3360SOL    HW121713   0.929   1.757   1.925 -1.0276 -0.9837 -1.7767
 3360SOL    HW221714   0.918   1.858   1.815 -2.5893  0.3282 -0.7487
 3361SOL     OW21715   0.585   2.172   1.537  0.2269  0.1947 -0.1691
 3361SOL    HW121716   0.514   2.118   1.502  0.4912  0.2016 -0.7153
 3361SOL    HW221717   0.652   2.112   1.503 -2.0671 -2.3809 -0.2014
 3362SOL     OW21718   3.882   1.883   5.026  0.2357  0.0420 -0.0181
 3362SOL    HW121719   3.909   1.869   5.117  0.0205 -2.7542 -0.3821
 3362SOL    HW221720   3.874   1.978   5.033 -0.2323  0.0622 -0.9607
 3363SOL     OW21721   1.686   0.084   2.567 -0.5740 -0.0749 -0.1692
 3363SOL    HW121722   1.599   0.091   2.607 -0.4814 -1.3918  0.2761
 3363SOL    HW221723   1.652   0.080   2.478  2.2992 -0.7721 -1.2305
 3364SOL     OW21724   4.287   0.997   2.000  0.1120 -0.1495 -0.2413
 3364SOL    HW121725   4.301   0.954   1.916  0.7823 -0.9937  0.3065
 3364SOL    HW221726   4.233   0.926   2.034  1.8053 -1.0692  0.5126
 3365SOL     OW21727   4.487   0.030   4.821  0.1167 -0.1593 -0.1808
 3365SOL    HW121728   4.456   4.685   4.859 -1.1819  0.1374 -0.5981
 3365SOL    HW221729   4.578   0.008   4.837  0.6051  1.2989 -0.9662
 3366SOL     OW21730   3.402   3.347  15.661  0.3197 -0.2179  0.7628
 3366SOL    HW121731   3.374   3.413  15.598  0.7448  0.6494  1.4999
 3366SOL    HW221732   3.323   3.294  15.645  0.6486 -0.0444 -1.4081
 3367SOL     OW21733   4.007   2.756   6.561 -0.0916  0.9306 -0.5712
 3367SOL    HW121734   3.956   2.829   6.525 -0.6162  1.3581  0.9942
 3367SOL    HW221735   3.986   2.778   6.652 -0.4722  0.8984 -0.6495
 3368SOL     OW21736   4.284   3.330   3.007  0.5989  0.6079  0.0293
 3368SOL    HW121737   4.258   3.348   2.916  3.8379 -1.1096 -1.2376
 3368SOL    HW221738   4.212   3.365   3.060 -0.7661 -0.5611 -1.0433
 3369SOL     OW21739   3.262   1.307   9.018 -0.3534  0.1706 -0.1655
 3369SOL    HW121740   3.214   1.279   8.940 -0.5592 -1.3564  0.4951
 3369SOL    HW221741   3.210   1.285   9.095 -0.6412 -1.0773 -0.7079
 3370SOL     OW21742   3.612   3.842   5.601 -0.6023  0.4234  0.0032
 3370SOL    HW121743   3.626   3.877   5.512  0.7501 -1.4054 -0.5009
 3370SOL    HW221744   3.701   3.819   5.627 -1.1871  1.0185  2.4702
 3371SOL     OW21745   3.074   3.599  12.930  0.1992 -0.2590 -0.2992
 3371SOL    HW121746   2.979   3.613  12.927  0.1434  0.0078  2.6272
 3371SOL    HW221747   3.078   3.517  12.979 -0.5103 -0.2387 -0.2010
 3372SOL     OW21748   3.885   3.837  13.669  0.3823 -0.4993 -0.0543
 3372SOL    HW121749   3.794   3.841  13.699  0.1072 -0.3739 -0.8858
 3372SOL    HW221750   3.903   3.744  13.661 -1.7251 -0.6811 -2.5662
 3373SOL     OW21751   2.366   1.223  15.928 -0.2530 -0.3144  0.5822
 3373SOL    HW121752   2.428   1.180  15.869 -0.4203 -0.0184  0.1942
 3373SOL    HW221753   2.416   1.218  16.010  0.6704 -0.2587  0.0188
 3374SOL     OW21754   0.485   1.847  16.170  0.5713  0.4959 -0.6084
 3374SOL    HW121755   0.498   1.915  16.236  0.3191  0.4598 -0.5213
 3374SOL    HW221756   0.394   1.868  16.149 -0.2931  0.5137  3.0097
 3375SOL     OW21757   3.490   4.110  17.484 -0.2143 -0.1057  0.8050
 3375SOL    HW121758   3.478   4.015  17.484 -2.3409  0.1769  0.2093
 3375SOL    HW221759   3.470   4.121  17.391 -1.3419  0.4335  1.1116
 3376SOL     OW21760   0.233   0.063  11.436  0.1260 -0.8073  0.4216
 3376SOL    HW121761   0.143   0.088  11.415  1.2795  2.6273 -0.5532
 3376SOL    HW221762   0.246   0.106  11.521  2.6507  1.6525 -1.2101
 3377SOL     OW21763   1.791   2.673   1.436 -0.0673 -0.4351 -0.2249
 3377SOL    HW121764   1.855   2.732   1.476 -0.9373  0.0054  0.5331
 3377SOL    HW221765   1.744   2.724   1.370  0.6134  0.6446  0.1260
 3378SOL     OW21766   3.075   3.000   4.636 -0.5113  0.2709 -0.2076
 3378SOL    HW121767   3.006   3.041   4.584 -0.1976  1.2119  0.1123
 3378SOL    HW221768   3.128   3.080   4.645 -1.1884  0.5729  1.1052
 3379SOL     OW21769   1.424   1.828  13.944  0.1364  0.5248 -0.5178
 3379SOL    HW121770   1.510   1.824  13.986 -1.0948  1.0075  2.0743
 3379SOL    HW221771   1.374   1.798  14.020 -1.0119 -0.7209 -1.7716
 3380SOL     OW21772   0.969   3.698   6.786 -0.0573  0.3405  0.0361
 3380SOL    HW121773   1.043   3.714   6.845  0.0495  0.8800 -0.2500
 3380SOL    HW221774   0.897   3.717   6.846 -0.3585 -1.6903  0.3172
 3381SOL     OW21775   1.522   4.160   3.746 -0.1992  0.0142 -0.0903
 3381SOL    HW121776   1.590   4.199   3.800 -0.3391 -0.7556  0.6367
 3381SOL    HW221777   1.463   4.143   3.819  0.4337  1.5288  0.7553
 3382SOL     OW21778   2.577   3.318   1.113 -0.1774 -0.0609  0.2713
 3382SOL    HW121779   2.482   3.308   1.121 -0.2585  0.7024  0.2446
 3382SOL    HW221780   2.586   3.300   1.020  0.5213  1.1297  0.1013
 3383SOL     OW21781   0.409   4.215   1.992  0.1055  0.4891  0.3059
 3383SOL    HW121782   0.328   4.229   2.041  1.2370 -1.0741  2.6215
 3383SOL    HW221783   0.440   4.128   2.016  0.5805  0.8914  1.1355
 3384SOL     OW21784   1.327   4.123   2.774 -0.5633 -0.5972 -0.2582
 3384SOL    HW121785   1.244   4.104   2.728 -0.7074  0.7535 -0.5615
 3384SOL    HW221786   1.345   4.040   2.818 -3.6225  0.1872  2.5181
 3385SOL     OW21787   3.606   2.560  11.702 -0.8346  0.0541 -0.4142
 3385SOL    HW121788   3.559   2.636  11.668 -0.3864  1.5145  2.2545
 3385SOL    HW221789   3.554   2.484  11.676  1.4894 -0.9276 -2.2252
 3386SOL     OW21790   0.996   0.052  12.175  0.6742 -0.2617  0.1814
 3386SOL    HW121791   1.071   0.111  12.177  0.6163 -0.2165  1.3858
 3386SOL    HW221792   0.974   0.055  12.082  2.0870 -0.6275 -0.1809
 3387SOL     OW21793   0.305   2.203  15.730  0.2229 -0.4222 -0.2013
 3387SOL    HW121794   0.327   2.121  15.684 -0.4913  0.3223 -1.8905
 3387SOL    HW221795   0.293   2.257  15.651  1.4191  1.3202  0.8370
 3388SOL     OW21796   4.111   2.863   9.071 -0.5429 -1.0121  0.9297
 3388SOL    HW121797   4.169   2.896   9.003 -0.2770 -0.4817  1.4107
 3388SOL    HW221798   4.068   2.947   9.089  0.3649 -0.1467 -0.9445
 3389SOL     OW21799   3.053   2.592  11.498 -0.6188 -0.1142  0.1729
 3389SOL    HW121800   3.149   2.583  11.495 -0.6701 -0.8795  0.8195
 3389SOL    HW221801   3.019   2.552  11.419  1.6102 -1.1248 -0.2838
 3390SOL     OW21802   4.165   1.540   3.701 -0.0322  0.0111  0.2230
 3390SOL    HW121803   4.143   1.450   3.679  2.5126 -1.0143  1.9017
 3390SOL    HW221804   4.168   1.536   3.797 -1.1942  0.7104  0.2921
 3391SOL     OW21805   1.416   3.184   3.432 -0.6823 -0.2774 -0.0255
 3391SOL    HW121806   1.324   3.193   3.409 -0.3050  0.7376 -1.1496
 3391SOL    HW221807   1.444   3.268   3.395 -0.8995 -0.2495 -0.1254
 3392SOL     OW21808   1.622   4.172   3.249  0.1222 -0.1980 -0.5291
 3392SOL    HW121809   1.634   4.084   3.284 -2.0246 -0.3493 -0.2172
 3392SOL    HW221810   1.700   4.191   3.197  1.3863 -0.4885  1.2657
 3393SOL     OW21811   3.325   3.497   4.209 -0.5677 -0.1421  0.1309
 3393SOL    HW121812   3.400   3.536   4.165  2.2308 -1.7824  3.4239
 3393SOL    HW221813   3.257   3.563   4.192  1.3898  1.0029 -3.0975
 3394SOL     OW21814   0.059   3.105   2.303 -0.3065 -0.0356  0.0826
 3394SOL    HW121815   0.023   3.193   2.298  2.1592  0.9115 -0.7755
 3394SOL    HW221816   4.724   3.042   2.305 -0.7724  0.4524 -1.3384
 3395SOL     OW21817   2.102   0.015   1.252  0.2809  0.4307 -0.1047
 3395SOL    HW121818   2.091   0.021   1.157 -1.6522 -1.8197 -0.0097
 3395SOL    HW221819   2.116   4.660   1.275  0.0726  0.4122 -0.0542
 3396SOL     OW21820   1.096   0.235   1.590  0.1887 -0.0755  0.4398
 3396SOL    HW121821   1.165   0.175   1.619  2.9249  3.4850  1.2992
 3396SOL    HW221822   1.092   0.290   1.668 -0.2958 -1.7785  1.6156
 3397SOL     OW21823   4.184   3.572   3.672 -0.0583 -0.3285 -0.0206
 3397SOL    HW121824   4.216   3.607   3.755 -2.9148  0.4620  0.7550
 3397SOL    HW221825   4.187   3.654   3.623 -0.2386  0.7607  1.8234
 3398SOL     OW21826   1.411   1.617   8.849  0.3305 -0.0483  0.1008
 3398SOL    HW121827   1.334   1.664   8.881  0.3024  0.2802 -0.4610
 3398SOL    HW221828   1.366   1.538   8.819  0.0155 -0.1965  0.9474
 3399SOL     OW21829   0.551   2.171   6.742 -0.2028 -0.2037  0.0286
 3399SOL    HW121830   0.595   2.204   6.820  0.3553 -0.2146 -0.2808
 3399SOL    HW221831   0.460   2.163   6.772  1.0458 -3.0358  3.1319
 3400SOL     OW21832   2.501   3.735  10.006 -0.0034 -0.2283  0.2141
 3400SOL    HW121833   2.534   3.821  10.033  1.0144 -0.4772 -0.2551
 3400SOL    HW221834   2.455   3.707  10.086  0.1124 -2.1179 -0.4007
 3401SOL     OW21835   3.547   4.082   9.089  0.2165 -0.0816  0.0612
 3401SOL    HW121836   3.476   4.025   9.116  1.1354 -1.3592 -0.2189
 3401SOL    HW221837   3.487   4.156   9.101  0.2576 -0.1912  0.9604
 3402SOL     OW21838   0.602   1.722  11.553  0.0325 -0.0124 -0.4452
 3402SOL    HW121839   0.588   1.814  11.572 -1.1249  0.1665 -2.1701
 3402SOL    HW221840   0.615   1.719  11.458  0.4013  3.5323 -0.4930
 3403SOL     OW21841   3.124   3.814   3.432  0.0570  1.1585 -0.4339
 3403SOL    HW121842   3.056   3.879   3.447  0.8647  1.1623  3.3067
 3403SOL    HW221843   3.072   3.746   3.390  0.0995  0.4638  0.6356
 3404SOL     OW21844   1.097   0.206   6.696  0.4378 -0.7663 -0.3335
 3404SOL    HW121845   1.088   0.239   6.785  1.7009  0.8194 -0.7947
 3404SOL    HW221846   1.112   0.113   6.715 -0.5866 -1.0656 -0.9418
 3405SOL     OW21847   3.014   2.223   6.729  0.5178 -0.0158 -0.0935
 3405SOL    HW121848   3.033   2.216   6.822  0.5787  0.8467 -0.0402
 3405SOL    HW221849   3.079   2.291   6.711 -0.1738  0.7172  0.1715
 3406SOL     OW21850   2.376   3.750   3.811 -0.0748 -0.0620 -0.3122
 3406SOL    HW121851   2.317   3.799   3.754 -0.8974  0.9811  1.4292
 3406SOL    HW221852   2.323   3.736   3.889 -0.9143 -0.9335 -1.0434
 3407SOL     OW21853   4.260   4.675  16.847  0.3825 -0.6471 -0.2703
 3407SOL    HW121854   4.303   4.655  16.763  1.2646  0.4444 -0.0748
 3407SOL    HW221855   4.336   4.682  16.904  0.8226 -1.4243 -0.7489
 3408SOL     OW21856   4.388   1.011  13.127  0.4247 -0.0893  0.0245
 3408SOL    HW121857   4.321   1.075  13.104  1.5432  1.0740 -0.0155
 3408SOL    HW221858   4.349   0.929  13.097 -1.2986  0.6948  0.1235
 3409SOL     OW21859   1.831   3.684   6.603  1.0957 -0.2378 -0.2016
 3409SOL    HW121860   1.792   3.691   6.516 -1.0666  0.2882  0.8008
 3409SOL    HW221861   1.923   3.709   6.607  0.1938  2.8202  1.3173
 3410SOL     OW21862   0.694   0.253   2.696 -0.3892 -0.0558 -0.1330
 3410SOL    HW121863   0.726   0.312   2.628 -1.3407 -1.7078 -1.9986
 3410SOL    HW221864   0.768   0.258   2.756 -0.8336  3.2828  0.1531
 3411SOL     OW21865   4.576   2.713  14.623  0.3097  0.4897  0.4412
 3411SOL    HW121866   4.647   2.719  14.686 -0.9093 -2.8724  2.1290
 3411SOL    HW221867   4.609   2.718  14.533  3.4224 -1.2177  1.4790
 3412SOL     OW21868   4.624   2.117   8.130 -0.0871  0.3584  0.2508
 3412SOL    HW121869   4.712   2.125   8.167  0.5357  0.1012 -1.1781
 3412SOL    HW221870   4.574   2.117   8.211  0.6759 -0.6373  0.7188
 3413SOL     OW21871   1.530   4.391  13.594  0.3451 -0.4866  0.0078
 3413SOL    HW121872   1.573   4.382  13.509  0.5828 -2.7192  0.3748
 3413SOL    HW221873   1.603   4.373  13.652 -0.0402 -0.9421  0.3459
 3414SOL     OW21874   4.231   1.445  16.844 -0.1964  1.0493  0.0764
 3414SOL    HW121875   4.301   1.381  16.855 -0.5163  1.1831  3.1033
 3414SOL    HW221876   4.156   1.394  16.814 -0.1578  1.1007 -0.1039
 3415SOL     OW21877   1.692   3.482   2.669 -0.0086 -0.4532  0.1736
 3415SOL    HW121878   1.647   3.436   2.740  0.7028 -1.3683  0.0432
 3415SOL    HW221879   1.620   3.494   2.607 -0.2999  0.1480  0.6388
 3416SOL     OW21880   1.235   2.807   4.129 -0.0521 -0.1398 -0.4769
 3416SOL    HW121881   1.216   2.883   4.074 -0.2327 -0.1158 -0.3770
 3416SOL    HW221882   1.199   2.834   4.213  2.0532 -1.1356  0.7736
 3417SOL     OW21883   3.380   3.968   7.637  0.3626 -0.1999  0.3752
 3417SOL    HW121884   3.459   3.936   7.593  0.5874  1.0508 -0.1427
 3417SOL    HW221885   3.318   3.939   7.570 -0.2339 -1.5401  1.5125
 3418SOL     OW21886   4.184   0.043   6.166 -0.6314  0.2601  0.4445
 3418SOL    HW121887   4.156   4.732   6.089  0.0307  2.9475 -1.4753
 3418SOL    HW221888   4.265   4.730   6.177  0.2520  1.9442  1.6238
 3419SOL     OW21889   3.668   0.803  16.470  0.5354  0.4870  0.0549
 3419SOL    HW121890   3.591   0.746  16.463  1.1774 -0.3913  0.1644
 3419SOL    HW221891   3.662   0.858  16.392 -1.5461  1.1862  0.7068
 3420SOL     OW21892   2.562   0.019   7.503 -0.2401  0.0764 -0.3564
 3420SOL    HW121893   2.556   0.114   7.504  0.5791  0.1207 -0.0490
 3420SOL    HW221894   2.480   4.725   7.542 -0.0327  0.9534  0.7630
 3421SOL     OW21895   0.580   2.563   2.304 -0.0403  0.1376 -0.1408
 3421SOL    HW121896   0.493   2.539   2.337  0.3786 -1.8557 -0.5305
 3421SOL    HW221897   0.563   2.547   2.211 -0.6375 -0.6916  0.1124
 3422SOL     OW21898   4.721   2.483   2.357 -0.0487  0.2632 -0.4422
 3422SOL    HW121899   0.006   2.570   2.323  0.1700  0.2010 -0.4665
 3422SOL    HW221900   4.672   2.463   2.278  0.2940 -0.4492 -0.4739
 3423SOL     OW21901   2.501   0.138  14.608  0.4545 -0.0500  0.5213
 3423SOL    HW121902   2.424   0.081  14.597  0.2140  0.4759 -0.5285
 3423SOL    HW221903   2.460   0.224  14.609 -0.6531 -0.5410 -0.7390
 3424SOL     OW21904   0.270   1.033  15.563 -0.1875  0.1644  0.2105
 3424SOL    HW121905   0.230   1.107  15.516 -0.1740 -1.0493 -1.7063
 3424SOL    HW221906   0.226   0.957  15.526 -1.6775 -0.5528  3.5372
 3425SOL     OW21907   0.479   4.156   9.385 -0.4114 -0.1166 -0.5918
 3425SOL    HW121908   0.430   4.098   9.327 -0.8794 -2.7162  2.3873
 3425SOL    HW221909   0.515   4.215   9.318  1.6762  0.2269  0.8470
 3426SOL     OW21910   4.030   1.818   0.393  0.2479 -0.0889 -0.3827
 3426SOL    HW121911   4.118   1.793   0.366  0.9158 -1.1573  2.6841
 3426SOL    HW221912   3.978   1.737   0.391  1.8926 -1.1759  0.1483
 3427SOL     OW21913   2.994   3.163  12.510 -0.0053 -0.0270 -0.4629
 3427SOL    HW121914   3.060   3.230  12.497 -0.6569  0.2019 -2.6306
 3427SOL    HW221915   3.011   3.104  12.436  0.5404 -1.3135  0.6667
 3428SOL     OW21916   3.089   0.994   7.023 -0.1999  0.0059 -0.1401
 3428SOL    HW121917   3.118   1.054   7.092 -1.1262 -0.3846  0.5945
 3428SOL    HW221918   3.024   1.041   6.971 -1.4873  0.8694  2.2487
 3429SOL     OW21919   3.510   1.805  13.694  0.2560  0.0080  0.2529
 3429SOL    HW121920   3.605   1.795  13.688  0.1855 -1.2589  1.2220
 3429SOL    HW221921   3.496   1.871  13.762  1.5873  2.1791 -1.5449
 3430SOL     OW21922   1.461   3.388  10.355 -0.4878  0.5014 -0.0550
 3430SOL    HW121923   1.539   3.400  10.300  1.0485 -2.3918  1.4943
 3430SOL    HW221924   1.404   3.326  10.310 -0.6958  0.7807 -0.1726
 3431SOL     OW21925   0.337   3.476   4.436  0.0816  0.9347  0.2817
 3431SOL    HW121926   0.422   3.434   4.453  0.6243  1.8771 -0.0898
 3431SOL    HW221927   0.273   3.440   4.497 -0.1163  0.1444 -0.3971
 3432SOL     OW21928   1.847   0.480   8.962  0.0632  0.3506 -0.3764
 3432SOL    HW121929   1.854   0.405   8.902 -3.4928 -1.2318  1.1518
 3432SOL    HW221930   1.835   0.546   8.894  0.9359  0.1082 -0.7643
 3433SOL     OW21931   0.363   0.353  12.267  0.3572  0.8355  0.7418
 3433SOL    HW121932   0.347   0.397  12.351  0.4801 -0.8068  1.6159
 3433SOL    HW221933   0.383   0.425  12.207 -2.0109  0.6787 -0.2379
 3434SOL     OW21934   3.758   3.851   0.888 -0.1543  0.1270  0.0229
 3434SOL    HW121935   3.812   3.926   0.859  0.2768  0.0175  0.5428
 3434SOL    HW221936   3.793   3.835   0.975 -1.1985 -1.3729  0.1528
 3435SOL     OW21937   3.370   0.050   4.088  0.1133  0.3506  0.5376
 3435SOL    HW121938   3.295   0.100   4.053  0.6810 -0.5089 -1.9061
 3435SOL    HW221939   3.408   0.122   4.139  2.0199  0.2905 -0.7885
 3436SOL     OW21940   4.094   3.995   3.176  0.3919  0.3744 -0.6354
 3436SOL    HW121941   4.124   4.016   3.088 -0.7781 -0.1957 -1.1650
 3436SOL    HW221942   4.063   3.905   3.170  0.8594  0.2708 -1.5509
 3437SOL     OW21943   0.128   1.710   8.093 -0.0825  0.6712  0.2290
 3437SOL    HW121944   0.148   1.661   8.013  1.1919  0.6021  0.5953
 3437SOL    HW221945   0.209   1.747   8.127 -1.2897  1.0011  2.7604
 3438SOL     OW21946   3.898   0.585   1.403  0.1452  0.7316  0.9243
 3438SOL    HW121947   3.989   0.598   1.374  0.0967 -0.9546  0.0286
 3438SOL    HW221948   3.866   0.561   1.316 -1.7299  0.4798  1.6851
 3439SOL     OW21949   1.778   1.119   2.972 -0.0541 -0.2329  0.1190
 3439SOL    HW121950   1.852   1.092   2.917  0.3424 -1.3571  1.1920
 3439SOL    HW221951   1.765   1.209   2.943  0.2603 -0.5777 -1.0809
 3440SOL     OW21952   1.965   1.850  10.191 -0.4712 -0.1178 -0.4062
 3440SOL    HW121953   2.019   1.923  10.222 -4.3663  2.3610  0.4597
 3440SOL    HW221954   1.881   1.892  10.207 -0.6735  0.6073 -3.4676
 3441SOL     OW21955   3.302   0.401  12.116  0.3189  0.2263 -0.6497
 3441SOL    HW121956   3.234   0.360  12.169  1.4321 -1.8590 -0.8366
 3441SOL    HW221957   3.362   0.440  12.179 -0.1370  0.9423 -0.6596
 3442SOL     OW21958   0.301   0.649  13.009 -0.2171  0.0455  0.3632
 3442SOL    HW121959   0.292   0.669  12.916 -2.0744 -1.6271  0.1947
 3442SOL    HW221960   0.243   0.574  13.019 -0.2665  0.2451  1.6588
 3443SOL     OW21961   3.548   0.234   2.691  0.0846 -0.0522 -0.0791
 3443SOL    HW121962   3.560   0.318   2.647  1.3854 -0.5835 -0.7618
 3443SOL    HW221963   3.469   0.199   2.651  1.6029 -0.0862 -3.0506
 3444SOL     OW21964   0.801   0.957  12.009 -0.1711 -0.1713  0.7161
 3444SOL    HW121965   0.864   0.920  12.071  1.5903  2.3403  0.4419
 3444SOL    HW221966   0.842   1.043  11.999 -1.0948  0.2958  1.0069
 3445SOL     OW21967   4.100   4.431   0.801  0.0632  0.4477  0.1358
 3445SOL    HW121968   4.105   4.400   0.711  0.0360 -0.1857  0.3520
 3445SOL    HW221969   4.158   4.368   0.843 -0.7745 -1.0734 -0.9960
 3446SOL     OW21970   1.669   2.475   9.037 -0.3130 -0.0463  0.0788
 3446SOL    HW121971   1.705   2.527   8.965 -2.2727 -0.7036 -1.3602
 3446SOL    HW221972   1.641   2.540   9.102  1.0073  0.8495 -0.2490
 3447SOL     OW21973   2.942   2.769   5.306 -0.2372  0.6479  0.0802
 3447SOL    HW121974   3.010   2.708   5.334  0.2336  0.9734 -0.3538
 3447SOL    HW221975   2.994   2.845   5.277  2.0174 -0.0962  2.1308
 3448SOL     OW21976   3.549   4.636   8.323  0.0608  0.3660  0.2030
 3448SOL    HW121977   3.612   4.625   8.251 -1.9839 -2.5881 -1.1215
 3448SOL    HW221978   3.485   4.569   8.300  0.5406 -0.2906  0.7581
 3449SOL     OW21979   3.365   1.179  14.976  0.3148 -0.0371 -0.3706
 3449SOL    HW121980   3.358   1.151  14.885 -2.6360  0.1807 -0.2071
 3449SOL    HW221981   3.355   1.274  14.972  0.4372  0.0179  0.6508
 3450SOL     OW21982   3.288   1.670   8.258 -1.5319  0.4694 -0.5173
 3450SOL    HW121983   3.376   1.696   8.287 -0.4886 -2.0751 -1.4260
 3450SOL    HW221984   3.287   1.576   8.271 -0.1653  0.2240 -2.1601
 3451SOL     OW21985   0.550   3.443   5.891  0.5776  0.6432  0.3928
 3451SOL    HW121986   0.618   3.381   5.917 -1.1636 -1.0774  0.8266
 3451SOL    HW221987   0.584   3.518   5.941  1.2680  0.7849 -0.2823
 3452SOL     OW21988   4.344   2.757   3.921 -0.2254 -0.5486 -0.2170
 3452SOL    HW121989   4.282   2.828   3.932  1.8094  0.8976  1.9607
 3452SOL    HW221990   4.310   2.723   3.838 -2.3824  0.0119  0.4499
 3453SOL     OW21991   0.386   0.178   5.660  0.2981 -0.1542  0.1390
 3453SOL    HW121992   0.365   0.269   5.677  1.8358  0.7068 -2.5218
 3453SOL    HW221993   0.307   0.141   5.620 -0.7087  1.7920  0.3590
 3454SOL     OW21994   4.459   4.169   7.097  0.0997 -0.3951 -0.1699
 3454SOL    HW121995   4.502   4.150   7.181  1.0456  2.0027 -0.1260
 3454SOL    HW221996   4.514   4.129   7.029 -1.8277 -0.9809 -1.3963
 3455SOL     OW21997   0.480   3.310   7.939  0.2876  0.2025 -0.1403
 3455SOL    HW121998   0.389   3.340   7.931  0.7425  1.5498 -0.2785
 3455SOL    HW221999   0.473   3.234   7.996 -0.3268  1.0540  0.9165
 3456SOL     OW22000   1.418   1.421   1.778 -0.0300 -0.2731 -0.0730
 3456SOL    HW122001   1.450   1.497   1.730  0.2962 -1.7408 -2.1854
 3456SOL    HW222002   1.497   1.406   1.830 -0.3756 -1.5974  0.0803
 3457SOL     OW22003   0.729   0.378   0.714 -0.2210  0.5936 -0.4229
 3457SOL    HW122004   0.742   0.470   0.738 -0.2470  0.1483  1.2366
 3457SOL    HW222005   0.655   0.364   0.772  1.5829 -1.0165  1.4642
 3458SOL     OW22006   2.266   4.414   5.659  0.4077  0.9483 -0.2396
 3458SOL    HW122007   2.251   4.427   5.565 -1.9122 -1.0996 -0.1651
 3458SOL    HW222008   2.354   4.377   5.664  0.7762  2.0639  1.5466
 3459SOL     OW22009   1.792   0.983   2.342 -0.1887  0.5589  0.3405
 3459SOL    HW122010   1.699   1.000   2.323  0.6746 -1.3729 -5.8750
 3459SOL    HW222011   1.794   0.992   2.437 -2.3770  2.3654  0.2304
 3460SOL     OW22012   0.889   2.927   8.671 -0.2603 -0.2943 -0.6998
 3460SOL    HW122013   0.966   2.885   8.634  1.5103  1.4022  1.0641
 3460SOL    HW222014   0.921   3.017   8.675 -0.2147 -0.2958 -1.0156
 3461SOL     OW22015   2.756   2.477   2.511  0.5964 -0.0339  0.2586
 3461SOL    HW122016   2.746   2.532   2.433 -0.2115 -2.2895 -1.2366
 3461SOL    HW222017   2.675   2.426   2.515  0.1819  0.5997 -0.0591
 3462SOL     OW22018   1.001   1.056  12.379  0.2463  0.2324  0.2647
 3462SOL    HW122019   0.984   1.139  12.335  0.5043  0.4524  0.5740
 3462SOL    HW222020   1.006   0.995  12.305 -0.2064 -0.1597  0.5584
 3463SOL     OW22021   4.204   0.348   5.254 -0.0875 -0.0589 -0.4958
 3463SOL    HW122022   4.203   0.337   5.349  3.3887 -0.4785 -0.5051
 3463SOL    HW222023   4.115   0.325   5.226 -0.2199 -1.0376  0.7566
 3464SOL     OW22024   0.909   2.172  11.658 -0.4189 -0.2369  0.4858
 3464SOL    HW122025   0.845   2.217  11.713  1.5161  2.0662  0.8623
 3464SOL    HW222026   0.990   2.195  11.703 -0.5489 -0.2583  0.7307
 3465SOL     OW22027   3.816   3.551   3.528  0.1460  0.0216  0.3122
 3465SOL    HW122028   3.839   3.582   3.615  1.7136  0.6619 -0.3257
 3465SOL    HW222029   3.888   3.490   3.514 -1.2189 -1.3523 -0.6966
 3466SOL     OW22030   4.393   4.573   5.826 -0.2832  0.4334 -0.6401
 3466SOL    HW122031   4.464   4.606   5.880  0.8071  1.3093 -2.5934
 3466SOL    HW222032   4.440   4.513   5.768 -1.6423  1.7222 -3.0964
 3467SOL     OW22033   1.715   4.014  10.942  0.2507 -0.5629 -0.1330
 3467SOL    HW122034   1.710   4.076  10.869 -0.1693  1.2261  1.4032
 3467SOL    HW222035   1.644   3.956  10.915  0.3898 -1.8656  2.3669
 3468SOL     OW22036   3.957   1.595   1.838  0.5785 -0.9507  0.0055
 3468SOL    HW122037   3.984   1.661   1.902  2.4982 -2.1554  0.4265
 3468SOL    HW222038   3.864   1.595   1.862 -0.1009 -0.4799 -2.6109
 3469SOL     OW22039   0.800   3.714   2.475  0.0954 -0.4042  0.5517
 3469SOL    HW122040   0.707   3.720   2.497  0.0277 -0.3887  0.2489
 3469SOL    HW222041   0.814   3.807   2.458  0.5485 -0.4346  0.7533
 3470SOL     OW22042   3.771   2.186   6.558  0.1260  0.4767 -0.4589
 3470SOL    HW122043   3.807   2.246   6.623 -1.3546  2.7787 -1.7539
 3470SOL    HW222044   3.777   2.096   6.592  0.3125  0.8500  0.4942
 3471SOL     OW22045   0.060   3.406   2.249  0.0443 -0.2532 -0.1103
 3471SOL    HW122046   0.148   3.439   2.230 -0.5705  0.5079 -1.6233
 3471SOL    HW222047   0.012   3.426   2.169 -0.0374  1.5959  0.3942
 3472SOL     OW22048   2.957   2.756  11.704  0.0137 -0.2609 -0.3826
 3472SOL    HW122049   2.983   2.691  11.639  1.6941  0.7160 -0.6583
 3472SOL    HW222050   3.024   2.746  11.772 -0.6006  0.5353  0.3436
 3473SOL     OW22051   1.890   0.414   2.664  0.0325  0.0512 -0.2738
 3473SOL    HW122052   1.812   0.383   2.618  1.0514 -0.6169 -1.5438
 3473SOL    HW222053   1.849   0.468   2.732  1.0596  0.2634  0.1705
 3474SOL     OW22054   1.381   3.744  10.342 -0.4204 -0.0740  0.5567
 3474SOL    HW122055   1.289   3.765  10.330 -0.2366  1.3431  1.5192
 3474SOL    HW222056   1.391   3.658  10.301 -3.2099  0.8390 -2.0026
 3475SOL     OW22057   2.854   4.444   6.584  0.1730 -0.0562  0.6689
 3475SOL    HW122058   2.766   4.469   6.612 -0.1415 -1.3107  0.8268
 3475SOL    HW222059   2.831   4.406   6.499 -3.2020 -0.7602  1.9099
 3476SOL     OW22060   2.523   3.398   6.557  0.1371 -1.0626  0.0232
 3476SOL    HW122061   2.457   3.467   6.552  2.5325  1.4255  2.8385
 3476SOL    HW222062   2.602   3.452   6.558 -0.6831  0.1184  1.4646
 3477SOL     OW22063   0.775   0.227   6.422 -0.0862  0.0537  0.4813
 3477SOL    HW122064   0.863   0.194   6.402  0.1878  0.9179  0.2357
 3477SOL    HW222065   0.780   0.299   6.360 -1.0624  1.1989  1.7157
 3478SOL     OW22066   1.892   0.312   2.070 -0.3309  0.1048  0.2953
 3478SOL    HW122067   1.973   0.295   2.119  0.2639 -0.0978 -0.7521
 3478SOL    HW222068   1.900   0.248   1.999  0.7735  0.0841  0.4379
 3479SOL     OW22069   0.320   1.046  12.822  0.0342 -0.1082 -0.5810
 3479SOL    HW122070   0.412   1.065  12.806  0.0790 -0.3455 -0.6007
 3479SOL    HW222071   0.273   1.098  12.756  3.0794  2.1603 -0.9720
 3480SOL     OW22072   4.412   3.956   7.378  0.6189 -0.1209 -0.0817
 3480SOL    HW122073   4.478   3.890   7.396 -0.4136 -0.6691  1.7005
 3480SOL    HW222074   4.379   3.993   7.460 -1.6086 -0.0263 -1.0244
 3481SOL     OW22075   3.861   2.772   3.506 -0.0852 -0.2563 -0.3255
 3481SOL    HW122076   3.915   2.692   3.512 -1.0471 -0.7140  2.2182
 3481SOL    HW222077   3.926   2.839   3.527 -0.2347 -0.2173  0.0161
 3482SOL     OW22078   2.754   3.383   3.945  0.2719  0.3184  0.1893
 3482SOL    HW122079   2.761   3.304   3.891  0.7815 -1.6833  3.1820
 3482SOL    HW222080   2.826   3.432   3.903  0.2890  0.8583  0.8557
 3483SOL     OW22081   0.554   2.805   9.623  0.1160  0.5402  0.4865
 3483SOL    HW122082   0.582   2.760   9.543  0.2385 -0.7202  1.2310
 3483SOL    HW222083   0.596   2.757   9.695 -1.0120 -2.7395 -1.0269
 3484SOL     OW22084   0.390   1.711   0.088  0.1838  0.1073 -0.2954
 3484SOL    HW122085   0.386   1.708   0.183  0.9291  1.9974 -0.2108
 3484SOL    HW222086   0.362   1.622   0.066 -2.3824  1.1666 -1.2062
 3485SOL     OW22087   1.465   3.349   8.879 -0.2567 -0.5120 -0.4367
 3485SOL    HW122088   1.421   3.427   8.847  1.8467  1.0725  0.4657
 3485SOL    HW222089   1.470   3.299   8.798  2.0763 -0.7978 -0.1248
 3486SOL     OW22090   2.216   1.517   3.626 -0.3591 -0.2855 -1.1509
 3486SOL    HW122091   2.160   1.463   3.682 -1.6217  1.7607 -0.4569
 3486SOL    HW222092   2.219   1.457   3.551  1.4317 -0.8116 -0.6510
 3487SOL     OW22093   3.750   2.096   9.092  0.1680  0.1184 -0.2297
 3487SOL    HW122094   3.719   2.045   9.017 -2.5143  1.3782  0.0161
 3487SOL    HW222095   3.673   2.152   9.105  0.3952  0.2971  0.3328
 3488SOL     OW22096   3.076   3.187   6.567 -0.9971 -0.4138 -0.3016
 3488SOL    HW122097   3.114   3.121   6.625  0.0555  0.2733 -0.2040
 3488SOL    HW222098   3.005   3.212   6.625  0.4716  0.7957  0.9689
 3489SOL     OW22099   0.171   3.260   4.827  0.0810  0.2299  0.3849
 3489SOL    HW122100   0.117   3.304   4.761  0.3524  2.4350  1.6107
 3489SOL    HW222101   0.202   3.186   4.775  0.3742  0.6833 -0.0901
 3490SOL     OW22102   3.251   4.118   1.869 -0.0523 -0.0244 -0.5686
 3490SOL    HW122103   3.258   4.093   1.961 -1.2927 -0.1200 -0.5033
 3490SOL    HW222104   3.240   4.213   1.872 -3.2500 -0.4075 -0.8686
 3491SOL     OW22105   0.131   3.723   4.748  0.5476  0.1632  0.2351
 3491SOL    HW122106   0.123   3.709   4.843 -2.4389 -0.3594 -0.0825
 3491SOL    HW222107   0.082   3.805   4.737  2.6214  1.0106 -2.6058
 3492SOL     OW22108   2.078   4.340   0.208  0.0757  0.0344  0.0069
 3492SOL    HW122109   2.041   4.262   0.250  1.0933  0.4795  1.7283
 3492SOL    HW222110   1.997   4.388   0.192  1.5844  2.7092  0.3863
 3493SOL     OW22111   1.587   4.545   5.952 -0.0228 -0.2590  0.5392
 3493SOL    HW122112   1.626   4.543   5.865 -1.4541 -1.0399 -0.0811
 3493SOL    HW222113   1.495   4.532   5.927  0.0961 -1.8194  0.9470
 3494SOL     OW22114   0.937   0.838   7.660  0.0774 -0.4140  0.2497
 3494SOL    HW122115   0.902   0.856   7.573 -3.3085 -1.5156  1.3747
 3494SOL    HW222116   0.977   0.752   7.650 -1.6751 -1.4582  2.2338
 3495SOL     OW22117   2.667   2.757   3.772 -0.3504  0.6815 -0.1535
 3495SOL    HW122118   2.627   2.676   3.740 -0.4460  0.8363 -0.4255
 3495SOL    HW222119   2.752   2.734   3.810  0.2111  0.6804 -1.3911
 3496SOL     OW22120   2.262   4.434   8.193  0.0108 -0.0491  0.2952
 3496SOL    HW122121   2.260   4.353   8.245  0.5924  0.4464  1.0893
 3496SOL    HW222122   2.222   4.494   8.257  3.2844 -0.0116  2.2895
 3497SOL     OW22123   1.967   2.448  13.783  0.0260 -0.2679 -0.6217
 3497SOL    HW122124   1.976   2.468  13.876 -0.9060 -1.8042 -0.1886
 3497SOL    HW222125   1.952   2.353  13.790 -1.6408  0.2273  2.2173
 3498SOL     OW22126   1.958   2.468  11.995  0.0847  0.1761  0.8443
 3498SOL    HW122127   1.969   2.491  11.902 -0.5016 -1.4947  0.3615
 3498SOL    HW222128   2.046   2.442  12.023  0.5267  1.5327  0.7135
 3499SOL     OW22129   2.882   1.362   9.023 -0.0954  0.1054 -0.0069
 3499SOL    HW122130   2.901   1.326   9.110 -1.4640 -0.3218  0.1259
 3499SOL    HW222131   2.876   1.454   9.047 -3.2446 -0.5932  1.9330
 3500SOL     OW22132   1.136   4.457   1.994 -0.0574 -0.5084 -0.6208
 3500SOL    HW122133   1.120   4.551   2.003 -1.0109 -0.7584  0.2565
 3500SOL    HW222134   1.062   4.425   1.942 -0.6723 -0.3669  0.1675
 3501SOL     OW22135   4.070   2.841   2.042 -0.3587  0.1054  0.2661
 3501SOL    HW122136   3.993   2.806   1.996 -0.3296 -1.6508  1.5463
 3501SOL    HW222137   4.080   2.767   2.102 -0.5695  0.0134  0.1870
 3502SOL     OW22138   1.578   3.272   2.142 -0.0748  0.1117  0.3431
 3502SOL    HW122139   1.606   3.258   2.052  0.4258  2.8520  0.0718
 3502SOL    HW222140   1.500   3.217   2.140  1.0444 -1.5407  1.4180
 3503SOL     OW22141   0.769   0.043   8.014 -0.4519  0.4705 -0.0345
 3503SOL    HW122142   0.839   0.074   8.071  0.5463 -1.7343 -0.0680
 3503SOL    HW222143   0.817   0.047   7.931 -1.9628 -0.7383 -0.9903
 3504SOL     OW22144   1.352   3.471  17.714  0.0119  0.3937 -0.1833
 3504SOL    HW122145   1.445   3.452  17.726 -0.3837 -1.2693  0.2921
 3504SOL    HW222146   1.317   3.393   0.013 -1.0254 -0.3250 -2.3068
 3505SOL     OW22147   3.145   4.122   3.952 -0.1898  0.3378 -0.3263
 3505SOL    HW122148   3.053   4.147   3.948 -0.6738 -1.2079  0.9808
 3505SOL    HW222149   3.173   4.173   4.028 -0.5009  0.5212 -0.3381
 3506SOL     OW22150   4.639   2.224   9.097 -0.1765 -0.3324  0.0838
 3506SOL    HW122151   4.648   2.308   9.053 -0.5871  0.1424  0.8966
 3506SOL    HW222152   4.545   2.216   9.115  0.0755 -2.1290  0.6035
 3507SOL     OW22153   1.889   3.294  14.510  0.1114 -0.1750 -0.5050
 3507SOL    HW122154   1.886   3.304  14.415  1.4381 -1.5905 -0.6916
 3507SOL    HW222155   1.928   3.207  14.516 -1.2894 -0.5202  3.3658
 3508SOL     OW22156   2.051   4.107  16.710 -0.6618  0.3338  0.3847
 3508SOL    HW122157   2.092   4.039  16.763  0.2591 -0.1610 -0.9784
 3508SOL    HW222158   2.115   4.121  16.641  0.5391 -0.7310  1.3077
 3509SOL     OW22159   2.401   0.305   7.382  0.0105  0.1426  0.6635
 3509SOL    HW122160   2.323   0.352   7.352  0.3345  0.1366 -0.1800
 3509SOL    HW222161   2.465   0.325   7.314  0.3855 -0.6486  0.7782
 3510SOL     OW22162   3.137   4.332   9.295 -0.5804 -0.2143 -0.0544
 3510SOL    HW122163   3.139   4.321   9.391  0.0276  0.6278  0.0295
 3510SOL    HW222164   3.190   4.412   9.294  0.3846 -0.8233  1.1585
 3511SOL     OW22165   0.801   4.187   2.077  0.5398 -0.1338 -0.0193
 3511SOL    HW122166   0.882   4.136   2.074  1.0431  0.5633  1.4462
 3511SOL    HW222167   0.762   4.171   1.991 -1.3914  2.5933  0.3584
 3512SOL     OW22168   4.106   1.974   0.897  0.4408 -0.0333  0.3238
 3512SOL    HW122169   4.113   1.880   0.884  3.6316  0.2346  0.1405
 3512SOL    HW222170   4.129   2.005   0.809 -1.8610  0.7622 -0.0161
 3513SOL     OW22171   4.461   1.365   4.764 -0.1998  0.3829 -0.1124
 3513SOL    HW122172   4.506   1.425   4.705 -1.4212  2.2539  0.8688
 3513SOL    HW222173   4.372   1.397   4.777  0.1120  1.6402 -1.0621
 3514SOL     OW22174   4.473   2.114   4.950  0.0308  0.0285  0.3136
 3514SOL    HW122175   4.400   2.094   4.892  0.4593  0.7227 -0.4693
 3514SOL    HW222176   4.530   2.037   4.958 -0.0161 -0.0953 -0.5612
 3515SOL     OW22177   1.452   0.374   6.029 -0.1747  0.3035 -0.1688
 3515SOL    HW122178   1.438   0.352   6.121  0.6801  1.9794  0.3664
 3515SOL    HW222179   1.482   0.464   6.038 -1.0857  0.6571 -0.7620
 3516SOL     OW22180   2.121   0.313  16.089  0.2174 -0.1201 -0.3130
 3516SOL    HW122181   2.127   0.330  15.995  0.6447  1.8489  0.0833
 3516SOL    HW222182   2.045   0.365  16.113  1.0920  1.4132 -0.8703
 3517SOL     OW22183   1.608   1.926   8.406 -0.2752  0.0968  0.2841
 3517SOL    HW122184   1.641   1.858   8.348 -0.5973 -0.0333  0.2535
 3517SOL    HW222185   1.574   1.866   8.472  1.3003  0.6219  1.5642
 3518SOL     OW22186   2.539   4.177   4.293 -0.3513  0.2537  0.1695
 3518SOL    HW122187   2.533   4.103   4.233 -0.0270  0.0785  0.3541
 3518SOL    HW222188   2.454   4.179   4.337  0.2756  1.1635  1.3540
 3519SOL     OW22189   3.172   1.290   3.406  0.5991 -0.1215  0.6118
 3519SOL    HW122190   3.242   1.349   3.376 -0.5832  0.6082 -0.7444
 3519SOL    HW222191   3.109   1.299   3.335  0.3139  1.6727  1.0820
 3520SOL     OW22192   3.219   0.890   5.412  0.2177 -0.2540  0.2545
 3520SOL    HW122193   3.181   0.804   5.430 -0.5617  0.0232 -0.0429
 3520SOL    HW222194   3.255   0.880   5.323 -0.3786  0.8208 -0.1028
 3521SOL     OW22195   4.404   1.869   9.198  0.0833  0.1633 -0.0308
 3521SOL    HW122196   4.495   1.898   9.206 -0.6044  2.3669 -0.0929
 3521SOL    HW222197   4.398   1.794   9.257 -0.6798  1.3920  1.4718
 3522SOL     OW22198   1.661   1.432   4.956 -0.3326  0.0106 -0.1617
 3522SOL    HW122199   1.578   1.385   4.952 -0.4981  0.3029 -0.1979
 3522SOL    HW222200   1.691   1.411   4.868  0.8874  1.1111 -0.0110
 3523SOL     OW22201   0.587   1.394   7.789  0.5787 -0.2122  0.7184
 3523SOL    HW122202   0.522   1.464   7.792  1.7362  0.9660 -1.5729
 3523SOL    HW222203   0.574   1.345   7.708 -0.1443 -1.0858  1.3728
 3524SOL     OW22204   0.581   3.995  13.523 -0.4667 -0.4649 -0.3718
 3524SOL    HW122205   0.589   3.903  13.495 -0.2099  0.4876 -3.4037
 3524SOL    HW222206   0.670   4.011  13.552 -0.5653 -2.0775  0.8807
 3525SOL     OW22207   3.104   2.833   0.979 -0.2072 -0.3153  0.3228
 3525SOL    HW122208   3.189   2.864   0.948 -0.4673  2.2151  2.0889
 3525SOL    HW222209   3.098   2.902   1.045 -0.7879  1.6062 -1.7013
 3526SOL     OW22210   2.934   2.329   3.725  0.1084  0.4016 -0.6839
 3526SOL    HW122211   2.937   2.424   3.724 -0.0961  0.4009 -1.3058
 3526SOL    HW222212   2.856   2.296   3.681  0.6332 -0.9417 -0.6258
 3527SOL     OW22213   1.129   0.661  10.429  0.0346  0.2223  0.3232
 3527SOL    HW122214   1.143   0.694  10.518  2.0351  1.6519 -0.5284
 3527SOL    HW222215   1.222   0.647  10.413 -0.1980 -0.5022 -0.4131
 3528SOL     OW22216   4.091   0.552   1.884  0.3241 -0.1213 -0.1219
 3528SOL    HW122217   4.157   0.489   1.911  1.1974  1.0547  0.4611
 3528SOL    HW222218   4.094   0.549   1.788 -1.9821 -0.4390 -0.1864
 3529SOL     OW22219   2.071   3.800   6.609  0.1659 -0.3316 -0.5695
 3529SOL    HW122220   2.032   3.833   6.690 -1.4949 -0.3944 -1.3600
 3529SOL    HW222221   2.145   3.858   6.594  1.1637 -1.8102 -1.4133
 3530SOL     OW22222   2.401   4.025  10.131  0.4544 -0.1695  0.1123
 3530SOL    HW122223   2.384   3.970  10.208 -0.9040  0.7609  0.4667
 3530SOL    HW222224   2.332   3.996  10.071  1.0026 -0.0574 -0.5651
 3531SOL     OW22225   0.302   2.223   5.700  0.3535 -0.0252  0.5836
 3531SOL    HW122226   0.376   2.175   5.661  0.8162  1.2248 -0.0942
 3531SOL    HW222227   0.248   2.211   5.622 -1.1257 -0.2337  1.6588
 3532SOL     OW22228   2.207   3.170   5.197 -0.4445 -0.5591 -0.5284
 3532SOL    HW122229   2.165   3.106   5.139 -3.3429 -0.2422  1.2231
 3532SOL    HW222230   2.125   3.206   5.233  0.1029 -1.1406  1.3095
 3533SOL     OW22231   1.270   2.267   7.261 -0.2596 -0.1505  0.1909
 3533SOL    HW122232   1.204   2.336   7.256  0.5626  0.5005 -1.7528
 3533SOL    HW222233   1.351   2.318   7.256 -0.5307 -0.1112 -4.0156
 3534SOL     OW22234   0.551   1.176   2.311  0.6304 -0.2962  0.7264
 3534SOL    HW122235   0.521   1.266   2.323  0.0576 -0.0440 -2.8438
 3534SOL    HW222236   0.469   1.129   2.293  2.4648 -3.0628 -0.4056
 3535SOL     OW22237   0.170   1.562   0.879 -0.6815  0.3592 -0.1810
 3535SOL    HW122238   0.203   1.616   0.808  0.8934 -0.0070  0.2726
 3535SOL    HW222239   0.249   1.577   0.932 -0.2684  2.2105 -1.3205
 3536SOL     OW22240   2.100   2.249   2.757 -0.0751 -0.2148 -0.2834
 3536SOL    HW122241   2.124   2.224   2.668  0.1990 -0.3419 -0.1739
 3536SOL    HW222242   2.060   2.165   2.777  0.8981 -0.9595 -1.4427
 3537SOL     OW22243   2.048   0.333   3.721 -0.1091  0.0053  0.3769
 3537SOL    HW122244   1.997   0.252   3.716 -0.9157  0.6715 -1.7226
 3537SOL    HW222245   2.044   0.360   3.630 -2.9167 -0.5952  0.3240
 3538SOL     OW22246   3.156   2.491   7.002 -0.8086 -0.5664  0.1511
 3538SOL    HW122247   3.147   2.540   7.083 -0.3746  1.1039 -0.8116
 3538SOL    HW222248   3.094   2.544   6.952  1.7677 -0.1070 -2.5214
 3539SOL     OW22249   0.950   1.972   2.133 -0.1236 -0.2661  0.0918
 3539SOL    HW122250   0.944   1.951   2.040  0.4632  1.9503 -0.4301
 3539SOL    HW222251   0.913   2.060   2.143  0.2547 -0.0584 -0.3408
 3540SOL     OW22252   3.742   2.744   5.310 -0.1410  0.5700 -0.0824
 3540SOL    HW122253   3.803   2.715   5.242  0.3974  1.1370  0.1670
 3540SOL    HW222254   3.670   2.728   5.248 -1.7826 -0.8670  2.1939
 3541SOL     OW22255   2.982   2.291   3.085 -0.0908  0.2245 -0.3855
 3541SOL    HW122256   2.939   2.314   3.167  0.3270 -0.7334  0.0980
 3541SOL    HW222257   3.061   2.345   3.083 -0.3109  0.5856  0.5969
 3542SOL     OW22258   4.509   2.427   7.961  0.3310  0.4194 -0.0322
 3542SOL    HW122259   4.555   2.491   7.908  0.9344 -0.6140 -0.7629
 3542SOL    HW222260   4.537   2.447   8.051 -1.3222  1.5359  0.2285
 3543SOL     OW22261   3.541   4.022  17.741  0.0270  0.2083 -0.3096
 3543SOL    HW122262   3.467   4.072   0.032  0.2518  0.3058  0.0173
 3543SOL    HW222263   3.521   4.029  17.648  0.4961  2.0610 -0.2599
 3544SOL     OW22264   2.266   0.254  10.404 -0.6905 -0.0739  0.4444
 3544SOL    HW122265   2.274   0.160  10.389 -1.4504  0.1546 -1.3551
 3544SOL    HW222266   2.174   0.251  10.429 -1.6063 -1.5717 -3.0651
 3545SOL     OW22267   1.454   4.552   4.574 -0.3422  0.3085  0.0850
 3545SOL    HW122268   1.405   4.621   4.619  0.1989  0.1332  0.9406
 3545SOL    HW222269   1.462   4.587   4.486  0.0340  0.1326  0.0515
 3546SOL     OW22270   2.217   0.502  15.445  0.1490  0.3612 -0.6291
 3546SOL    HW122271   2.260   0.563  15.385  1.5779 -0.8023 -0.7838
 3546SOL    HW222272   2.219   0.548  15.529  0.6236  0.2250 -0.5698
 3547SOL     OW22273   2.036   0.109  13.651  0.1204 -0.0890  0.2164
 3547SOL    HW122274   2.010   0.180  13.593 -1.1820  0.1945  1.1391
 3547SOL    HW222275   1.987   0.140  13.728  1.7436  0.1192  1.1709
 3548SOL     OW22276   4.146   0.744   1.006 -0.1895  0.5696  0.2116
 3548SOL    HW122277   4.160   0.832   1.042 -2.2499 -0.1478  2.7093
 3548SOL    HW222278   4.236   0.714   1.019  0.0577  0.7881 -1.0321
 3549SOL     OW22279   1.844   4.034   3.456  0.2079  0.3139 -0.2693
 3549SOL    HW122280   1.760   4.050   3.498  0.5675 -0.2011  0.6524
 3549SOL    HW222281   1.830   3.946   3.421 -1.4344 -0.3220  1.9732
 3550SOL     OW22282   0.430   0.862   9.027  0.0329  0.1396  0.2699
 3550SOL    HW122283   0.462   0.870   9.117 -0.9928 -0.1547  0.6615
 3550SOL    HW222284   0.383   0.944   9.013 -0.1524 -0.0558 -0.2206
 3551SOL     OW22285   1.112   2.309   4.383 -0.0204  0.0855 -0.4883
 3551SOL    HW122286   1.088   2.394   4.420  1.2449  0.1081  0.3093
 3551SOL    HW222287   1.031   2.261   4.399 -1.2076  1.7052 -1.7303
 3552SOL     OW22288   2.626   4.514   6.782  0.0238 -0.0929 -0.6791
 3552SOL    HW122289   2.586   4.552   6.860  0.8471  1.7127 -1.1411
 3552SOL    HW222290   2.556   4.453   6.758  0.9491 -0.2541 -2.9523
 3553SOL     OW22291   3.701   4.307  16.319 -0.3391  0.4218 -0.0914
 3553SOL    HW122292   3.728   4.355  16.241 -0.3858  1.1049  0.3160
 3553SOL    HW222293   3.609   4.331  16.324 -0.9513 -2.0766  0.7195
 3554SOL     OW22294   0.079   3.939   8.906  0.0986 -0.6598  0.5209
 3554SOL    HW122295   0.133   3.860   8.898  1.6249  0.3964  0.5078
 3554SOL    HW222296   0.142   4.011   8.902 -0.3686 -0.1894  1.8086
 3555SOL     OW22297   2.077   2.476   5.982  0.0556 -0.2676  0.1251
 3555SOL    HW122298   2.159   2.523   5.969 -0.9854  1.5441  0.0861
 3555SOL    HW222299   2.110   2.395   6.022  3.7117  1.5130  0.7077
 3556SOL     OW22300   2.882   3.339   5.797 -0.6852 -0.2705 -0.4821
 3556SOL    HW122301   2.852   3.428   5.776 -0.6148 -0.3807 -1.0661
 3556SOL    HW222302   2.853   3.292   5.718  1.3843 -1.1265 -0.7208
 3557SOL     OW22303   2.187   3.070   7.001 -0.3109 -0.6057 -0.4903
 3557SOL    HW122304   2.176   3.129   6.926  2.7111 -0.4698 -0.8411
 3557SOL    HW222305   2.260   3.015   6.973  1.2623  1.6142 -0.6963
 3558SOL     OW22306   1.897   1.492   1.700 -0.0842 -0.4361  0.0554
 3558SOL    HW122307   1.826   1.448   1.748  0.0157 -0.9183 -0.2349
 3558SOL    HW222308   1.849   1.509   1.619  0.8432  0.0131 -0.3939
 3559SOL     OW22309   2.662   1.036   6.763  0.1524  0.0228 -0.0347
 3559SOL    HW122310   2.595   1.102   6.781  2.5878  2.4735  0.1185
 3559SOL    HW222311   2.724   1.063   6.831 -1.9992 -0.5374  2.1754
 3560SOL     OW22312   2.258   2.204  13.905 -0.2793 -0.0351 -0.0313
 3560SOL    HW122313   2.217   2.156  13.833  1.5560  1.1093 -1.8430
 3560SOL    HW222314   2.345   2.165  13.909  0.6637  1.7583 -2.8551
 3561SOL     OW22315   2.333   4.569   1.333 -0.1011 -0.1032  0.1384
 3561SOL    HW122316   2.333   4.628   1.258 -0.0782 -0.6321 -0.2773
 3561SOL    HW222317   2.387   4.498   1.297  0.3681  1.0136 -1.3841
 3562SOL     OW22318   3.809   2.884   2.170  0.4437  0.0323  0.6356
 3562SOL    HW122319   3.783   2.975   2.185  3.4486  0.7272  1.5348
 3562SOL    HW222320   3.756   2.865   2.093  2.0705  2.6752 -1.1175
 3563SOL     OW22321   1.305   2.354   7.650  0.5725  0.5245 -0.5146
 3563SOL    HW122322   1.293   2.436   7.700  0.8794  0.0411  0.3568
 3563SOL    HW222323   1.398   2.352   7.630  0.6522 -0.4773 -0.0502
 3564SOL     OW22324   4.498   1.484   3.607  0.5572 -0.5123 -0.3157
 3564SOL    HW122325   4.445   1.413   3.572 -0.7421  0.7307 -0.8877
 3564SOL    HW222326   4.491   1.551   3.539  0.5447 -0.7835 -0.5816
 3565SOL     OW22327   1.827   4.677   2.787  0.2018 -0.2498  0.6728
 3565SOL    HW122328   1.906   4.675   2.732  1.3784  1.1477  2.3335
 3565SOL    HW222329   1.767   4.705   2.718  0.8245 -1.9039 -0.5552
 3566SOL     OW22330   4.112   0.609   5.989 -0.0899  0.3758  0.3912
 3566SOL    HW122331   4.147   0.620   5.900 -3.5806 -1.4083 -1.1754
 3566SOL    HW222332   4.025   0.645   5.974 -0.1353 -0.2255 -0.8452
 3567SOL     OW22333   4.283   0.321  14.641  0.3140 -0.8397 -0.0856
 3567SOL    HW122334   4.276   0.226  14.655  0.1069 -0.5391  1.8430
 3567SOL    HW222335   4.280   0.339  14.735  0.4042 -0.7603 -0.0987
 3568SOL     OW22336   3.382   0.735  17.721  1.0215 -0.4257  0.3879
 3568SOL    HW122337   3.408   0.721   0.067 -0.5204 -0.7460  0.7784
 3568SOL    HW222338   3.378   0.645  17.689  0.1296 -0.8137  1.6208
 3569SOL     OW22339   0.025   2.585   6.754 -0.0809  0.4506  0.0089
 3569SOL    HW122340   4.692   2.613   6.813  0.0920 -0.9028  0.8566
 3569SOL    HW222341   0.039   2.493   6.777 -3.3990 -0.2860 -0.9563
 3570SOL     OW22342   0.003   1.630   3.924  0.2793  0.4209 -0.0329
 3570SOL    HW122343   0.042   1.584   3.851 -1.3054 -0.1850 -0.4947
 3570SOL    HW222344   0.072   1.625   3.990 -1.2718 -2.2533  1.3974
 3571SOL     OW22345   1.594   3.098  17.707  0.5474  0.2577 -0.6691
 3571SOL    HW122346   1.605   3.158  17.633  0.9318  1.9875  0.7874
 3571SOL    HW222347   1.514   3.051  17.685  0.2033 -0.6164  2.4824
 3572SOL     OW22348   0.137   1.874   3.572 -0.2340  0.1427 -0.3463
 3572SOL    HW122349   0.054   1.916   3.552 -0.1113  0.0765 -0.9767
 3572SOL    HW222350   0.111   1.797   3.623 -1.7600 -0.8223 -2.6292
 3573SOL     OW22351   3.182   4.431   7.774 -0.5045 -0.1941 -0.3965
 3573SOL    HW122352   3.089   4.454   7.777 -0.2408  0.5799  1.7536
 3573SOL    HW222353   3.229   4.508   7.808 -0.2181  0.1764 -1.6374
 3574SOL     OW22354   3.359   1.324   2.565  0.2623  0.5714  0.0057
 3574SOL    HW122355   3.390   1.276   2.488  1.2106  0.7391  0.2912
 3574SOL    HW222356   3.356   1.257   2.633  0.8885  0.8559  0.3088
 3575SOL     OW22357   3.507   4.196   1.804 -0.2237 -0.0704  0.2827
 3575SOL    HW122358   3.459   4.114   1.806  1.7263 -1.1088  3.8913
 3575SOL    HW222359   3.501   4.209   1.709  1.8071  0.0671  0.1618
 3576SOL     OW22360   2.264   3.467   4.257 -0.0689  0.1599  0.4800
 3576SOL    HW122361   2.228   3.479   4.345 -0.3276  0.8685  0.2825
 3576SOL    HW222362   2.201   3.530   4.221 -1.7755 -1.4776  0.6161
 3577SOL     OW22363   4.079   0.928  16.060 -0.0534  0.1536  0.3226
 3577SOL    HW122364   3.984   0.926  16.065 -0.1173  0.1207 -1.1161
 3577SOL    HW222365   4.098   0.942  16.153  2.1058 -2.5459  0.2909
 3578SOL     OW22366   3.339   1.748   4.258 -0.3877 -0.1710  0.0504
 3578SOL    HW122367   3.348   1.783   4.169  0.3432 -0.7792 -0.1189
 3578SOL    HW222368   3.270   1.802   4.296  2.3989  1.6832  2.4960
 3579SOL     OW22369   2.575   2.420   1.122 -0.2002 -0.4259  0.3412
 3579SOL    HW122370   2.557   2.326   1.115  1.1293 -0.4719 -2.3306
 3579SOL    HW222371   2.513   2.453   1.057 -0.8969  0.2173  1.3171
 3580SOL     OW22372   2.413   0.772   4.955 -0.5728 -0.1844  0.0589
 3580SOL    HW122373   2.398   0.737   5.043  1.4779  0.6708  0.7297
 3580SOL    HW222374   2.320   0.783   4.932 -1.0590 -1.4667  1.4045
 3581SOL     OW22375   4.415   2.932  16.002  0.0624 -0.4786 -0.1214
 3581SOL    HW122376   4.465   2.975  16.071  0.9184 -1.4129 -0.1495
 3581SOL    HW222377   4.424   2.840  16.026 -0.0347 -0.4528  0.0080
 3582SOL     OW22378   2.473   3.710   8.389 -0.2897 -0.4803  0.1127
 3582SOL    HW122379   2.397   3.730   8.334 -0.4625 -1.7333 -0.1222
 3582SOL    HW222380   2.532   3.649   8.345  0.7424 -0.0149  0.8767
 3583SOL     OW22381   0.305   0.460   7.750  0.3301 -0.2919  0.3934
 3583SOL    HW122382   0.255   0.481   7.671  0.0465  0.5695  0.8016
 3583SOL    HW222383   0.378   0.522   7.748  0.5916 -0.6872 -1.6542
 3584SOL     OW22384   1.734   4.030  10.143  1.2424 -0.1144 -0.0237
 3584SOL    HW122385   1.708   3.967  10.210 -1.3328 -0.0380 -0.9475
 3584SOL    HW222386   1.705   4.109  10.187 -0.3038 -0.5729 -0.2254
 3585SOL     OW22387   2.422   3.350   1.817 -0.5704  0.1127 -0.5212
 3585SOL    HW122388   2.502   3.378   1.862  0.4972  0.0973 -2.4157
 3585SOL    HW222389   2.461   3.301   1.745 -0.6404 -0.4316 -0.1859
 3586SOL     OW22390   4.118   4.570  12.880  0.8762  0.3280  0.1292
 3586SOL    HW122391   4.207   4.534  12.884  1.6149  1.9237 -1.4783
 3586SOL    HW222392   4.073   4.515  12.816 -0.6111 -0.9807  2.3259
 3587SOL     OW22393   2.890   4.415   5.289  0.2495 -0.1518 -0.2960
 3587SOL    HW122394   2.887   4.363   5.370  1.3431 -0.3382 -0.3759
 3587SOL    HW222395   2.923   4.347   5.230 -0.6701 -0.7379 -0.1438
 3588SOL     OW22396   2.990   1.972   9.361 -0.2675  0.2816 -0.0726
 3588SOL    HW122397   2.898   1.951   9.342 -0.9089  0.9521  2.2869
 3588SOL    HW222398   3.041   1.894   9.343  0.3432  0.1522  2.2569
 3589SOL     OW22399   1.160   1.769   0.319  0.1181  0.0773 -0.7054
 3589SOL    HW122400   1.129   1.699   0.262 -0.4553  0.3201 -0.6926
 3589SOL    HW222401   1.077   1.813   0.335  1.0077  0.6182  2.5216
 3590SOL     OW22402   1.931   1.282   4.998 -0.0982 -1.2793  0.3935
 3590SOL    HW122403   1.839   1.296   4.976  0.0256 -0.5462  0.3637
 3590SOL    HW222404   1.980   1.323   4.926 -1.3905  1.1487  0.9034
 3591SOL     OW22405   0.639   1.664   3.796  0.4133 -0.1035 -0.6097
 3591SOL    HW122406   0.619   1.747   3.752 -0.0421  0.0159 -0.1675
 3591SOL    HW222407   0.568   1.612   3.759 -0.1362 -1.2796  2.1431
 3592SOL     OW22408   3.722   2.904  12.977  0.2326 -0.2312  0.5216
 3592SOL    HW122409   3.738   2.845  12.903 -1.1035 -0.4851  0.4375
 3592SOL    HW222410   3.808   2.937  13.003 -0.4634  1.3958  0.7655
 3593SOL     OW22411   3.277   1.326  12.367 -0.1245 -0.4251  0.0256
 3593SOL    HW122412   3.208   1.336  12.433  0.8167  2.2558  0.5953
 3593SOL    HW222413   3.325   1.259  12.417 -2.5185 -0.5197  2.2334
 3594SOL     OW22414   1.387   1.322  17.745 -0.0045 -0.2796  0.2058
 3594SOL    HW122415   1.437   1.269  17.683 -0.3441  2.1778 -2.1653
 3594SOL    HW222416   1.331   1.252   0.033 -1.5406  1.9085  2.2522
 3595SOL     OW22417   3.988   2.786   2.846 -0.0850  0.0114  0.1695
 3595SOL    HW122418   3.999   2.841   2.923  1.0129  0.4608 -0.3173
 3595SOL    HW222419   3.980   2.856   2.781 -2.6642  0.6596  1.1807
 3596SOL     OW22420   1.343   4.006   9.196  0.7164 -0.1777 -0.2321
 3596SOL    HW122421   1.272   4.060   9.231  0.6390 -0.8119  0.5896
 3596SOL    HW222422   1.388   4.077   9.150 -1.4656 -0.9622 -3.5418
 3597SOL     OW22423   4.454   0.422   5.649  0.0855  0.2873 -0.2570
 3597SOL    HW122424   4.419   0.335   5.634  1.3375 -0.0447 -1.2407
 3597SOL    HW222425   4.542   0.403   5.616 -0.4086 -1.2299 -0.6810
 3598SOL     OW22426   0.980   0.381  14.035  0.1103 -0.3596  0.0415
 3598SOL    HW122427   0.964   0.404  13.943 -1.6386 -3.2584 -0.3691
 3598SOL    HW222428   1.072   0.355  14.025 -0.1472 -0.6474 -1.6801
 3599SOL     OW22429   0.218   0.393   8.979  0.0306 -0.1841 -0.1998
 3599SOL    HW122430   0.287   0.421   8.919  1.1307 -1.0053  0.6780
 3599SOL    HW222431   0.257   0.333   9.043 -0.7408 -0.7826 -0.2961
 3600SOL     OW22432   3.055   0.594   8.589 -0.7468  0.3689 -0.0416
 3600SOL    HW122433   3.077   0.623   8.677  3.2298 -0.9935 -0.5435
 3600SOL    HW222434   3.052   0.500   8.608  1.4492  0.2511 -0.2120
 3601SOL     OW22435   4.359   2.388   3.506  0.1622 -0.3355  0.6388
 3601SOL    HW122436   4.284   2.418   3.558  0.0145 -1.6702  1.2076
 3601SOL    HW222437   4.324   2.409   3.420  1.3280 -4.4938 -0.8137
 3602SOL     OW22438   3.133   3.583  14.833  0.0058 -0.0645 -0.0143
 3602SOL    HW122439   3.071   3.574  14.761 -0.7460 -3.0430  0.9716
 3602SOL    HW222440   3.107   3.519  14.900  3.1773 -2.3620 -0.9815
 3603SOL     OW22441   3.839   3.163  10.786  0.2911 -0.0216 -0.5588
 3603SOL    HW122442   3.822   3.076  10.822 -1.1837  0.6143  0.2708
 3603SOL    HW222443   3.933   3.149  10.770  0.1896 -0.7223 -0.5456
 3604SOL     OW22444   3.572   0.665   3.672  0.2230  0.1634 -0.1103
 3604SOL    HW122445   3.623   0.594   3.635  1.3823  2.1387 -2.2259
 3604SOL    HW222446   3.499   0.618   3.713 -1.3646  1.2057 -1.7085
 3605SOL     OW22447   2.265   4.660   4.145  0.4527 -0.2731 -0.2435
 3605SOL    HW122448   2.236   4.705   4.065  1.0019  1.4374  0.5213
 3605SOL    HW222449   2.259   4.569   4.115  0.8285 -0.8706  1.5200
 3606SOL     OW22450   0.254   4.118   8.815  0.0552 -0.1427 -0.5016
 3606SOL    HW122451   0.321   4.167   8.863 -1.5090  1.4380  0.0896
 3606SOL    HW222452   0.268   4.143   8.724 -0.1031  1.5008 -0.0764
 3607SOL     OW22453   0.569   1.103   9.424  0.1211 -0.8162  0.1541
 3607SOL    HW122454   0.521   1.026   9.393 -3.3464  1.1118  0.6602
 3607SOL    HW222455   0.526   1.122   9.508 -1.6200 -1.5966 -0.5540
 3608SOL     OW22456   0.792   3.707   1.933  0.4375 -0.1160 -0.0183
 3608SOL    HW122457   0.808   3.657   1.853 -1.3865 -0.1747 -0.3348
 3608SOL    HW222458   0.741   3.640   1.978 -2.0025  0.6422 -1.6923
 3609SOL     OW22459   3.356   1.983  16.789 -0.0113  0.6892 -0.1124
 3609SOL    HW122460   3.267   1.956  16.769  0.3606 -0.5605 -0.0614
 3609SOL    HW222461   3.341   2.075  16.769 -3.5867 -0.3421 -2.1187
 3610SOL     OW22462   2.423   0.443   5.972  0.4194 -0.2709 -0.4498
 3610SOL    HW122463   2.364   0.372   5.999 -2.0979  2.2138  0.5829
 3610SOL    HW222464   2.363   0.517   5.963 -0.9551 -1.3047  0.0913
 3611SOL     OW22465   1.864   3.791   0.250  0.3318 -0.1250  0.2557
 3611SOL    HW122466   1.932   3.733   0.284 -0.5376 -0.6470  1.1201
 3611SOL    HW222467   1.789   3.733   0.264  0.6736 -0.7805 -0.6364
 3612SOL     OW22468   4.472   1.824   8.919 -0.5415  0.6011  0.5270
 3612SOL    HW122469   4.531   1.749   8.923  0.3159  1.2105 -1.0757
 3612SOL    HW222470   4.447   1.836   9.011  0.2267  0.5261  0.7437
 3613SOL     OW22471   1.870   2.017   4.588  0.4389  0.1217 -0.5677
 3613SOL    HW122472   1.831   2.064   4.662 -0.9906  0.3722 -1.4875
 3613SOL    HW222473   1.824   1.933   4.591 -1.3876  1.0887 -1.4022
 3614SOL     OW22474   1.235   2.715   3.111 -0.1654 -0.0145  0.3876
 3614SOL    HW122475   1.312   2.688   3.061  1.2202  2.1187  1.3687
 3614SOL    HW222476   1.181   2.636   3.104  0.6377 -0.5203 -0.1433
 3615SOL     OW22477   4.437   0.182   8.577  0.1278  0.7223  0.2101
 3615SOL    HW122478   4.441   0.231   8.659  0.7126 -0.4823  0.9041
 3615SOL    HW222479   4.429   0.254   8.514  0.3832  2.5297  2.2368
 3616SOL     OW22480   1.115   3.639   9.933 -0.0777 -0.2009  0.5937
 3616SOL    HW122481   1.171   3.579   9.982  0.6095 -0.0647 -0.0202
 3616SOL    HW222482   1.059   3.678  10.000  0.3042  1.4593 -0.0397
 3617SOL     OW22483   1.445   3.099   0.476 -0.3735 -0.2353  0.2509
 3617SOL    HW122484   1.489   3.027   0.429 -0.2434 -0.1831  0.2944
 3617SOL    HW222485   1.356   3.067   0.460  0.1658 -1.1153 -1.0808
 3618SOL     OW22486   4.620   1.015  12.288  0.2178 -0.2273 -0.2944
 3618SOL    HW122487   4.555   0.948  12.308  1.1570 -0.0651  3.2438
 3618SOL    HW222488   4.588   1.095  12.328  0.1763 -1.2316  1.6518
 3619SOL     OW22489   0.352   1.520   1.083  0.1490  0.3470 -0.5787
 3619SOL    HW122490   0.349   1.478   1.169  1.2962  0.2443 -0.5868
 3619SOL    HW222491   0.368   1.611   1.110  0.4255  0.8019 -2.2287
 3620SOL     OW22492   2.896   0.937   8.041  0.1343 -0.2871  0.4015
 3620SOL    HW122493   2.818   0.914   8.091 -0.7249  1.2283 -0.2317
 3620SOL    HW222494   2.880   1.026   8.009 -0.2651 -0.9020 -1.1078
 3621SOL     OW22495   1.281   4.113   2.389  0.0010 -0.0975  0.0909
 3621SOL    HW122496   1.215   4.055   2.426 -2.2900  2.6678  0.3556
 3621SOL    HW222497   1.239   4.145   2.309 -0.1715 -1.0983 -0.2115
 3622SOL     OW22498   0.710   2.848   7.673 -0.2325 -0.0693  0.1767
 3622SOL    HW122499   0.671   2.769   7.635 -0.2675 -1.3719  2.9166
 3622SOL    HW222500   0.737   2.813   7.758 -0.1811 -3.8505 -1.3865
 3623SOL     OW22501   2.121   4.406  13.284 -0.0704 -0.2976 -0.0797
 3623SOL    HW122502   2.212   4.434  13.281  0.4964 -2.2090 -0.7671
 3623SOL    HW222503   2.102   4.396  13.377  0.1718  0.3620  0.0387
 3624SOL     OW22504   2.230   1.692   8.080 -0.6344  0.1926  0.3775
 3624SOL    HW122505   2.325   1.702   8.077 -0.7118  1.2649  1.8023
 3624SOL    HW222506   2.216   1.731   8.166 -1.4796  1.2356 -0.2338
 3625SOL     OW22507   2.524   2.145   4.103 -0.0536 -0.4748  0.1690
 3625SOL    HW122508   2.498   2.056   4.079  0.6163 -0.4864 -0.5194
 3625SOL    HW222509   2.579   2.113   4.175 -0.9032 -0.5703  0.7752
 3626SOL     OW22510   2.718   3.134   3.353 -0.0616 -0.4028 -0.3066
 3626SOL    HW122511   2.783   3.138   3.282 -2.9650 -0.1353 -2.9713
 3626SOL    HW222512   2.733   3.047   3.389 -0.5016  0.9551  3.1222
 3627SOL     OW22513   1.909   4.640   5.372 -0.3909 -0.3108  0.5522
 3627SOL    HW122514   1.900   4.695   5.450 -0.5703  0.9752 -0.3735
 3627SOL    HW222515   1.872   4.687   5.297  1.1776 -0.7455 -0.4885
 3628SOL     OW22516   1.541   1.167   1.976  0.7460  0.5104  0.5065
 3628SOL    HW122517   1.569   1.109   1.905 -2.5489 -2.6899  1.7755
 3628SOL    HW222518   1.514   1.110   2.049 -3.5827  1.6488 -0.1670
 3629SOL     OW22519   3.563   0.599   1.418  0.3322 -0.0355  0.6886
 3629SOL    HW122520   3.529   0.655   1.488  1.0225 -0.6699  1.5249
 3629SOL    HW222521   3.538   0.651   1.341 -0.8351  0.9002  1.7010
 3630SOL     OW22522   4.006   0.597   4.137  0.2181  0.0230 -0.1980
 3630SOL    HW122523   4.016   0.502   4.140  0.8424  0.1902  3.3943
 3630SOL    HW222524   3.952   0.609   4.215  1.5883 -0.4900  0.8416
 3631SOL     OW22525   1.705   1.960   0.815  0.0515  0.0868 -0.9134
 3631SOL    HW122526   1.660   1.964   0.899  1.5385  0.7996 -0.1591
 3631SOL    HW222527   1.673   1.874   0.789  0.5657  0.2325 -2.0339
 3632SOL     OW22528   3.000   1.084   2.000 -0.4387 -0.0382  1.0260
 3632SOL    HW122529   2.910   1.116   2.007 -0.7429 -0.9788  1.3396
 3632SOL    HW222530   3.016   1.084   2.095  1.1463  0.2878  0.7741
 3633SOL     OW22531   1.604   1.684   6.269  0.1030  0.1759  0.4583
 3633SOL    HW122532   1.630   1.599   6.306 -1.6691 -0.1548  0.9199
 3633SOL    HW222533   1.564   1.728   6.344  0.3447 -0.1857  0.8058
 3634SOL     OW22534   2.688   0.737   7.522  0.2396  0.4317 -0.5870
 3634SOL    HW122535   2.734   0.653   7.530 -1.2434 -0.4930 -1.6308
 3634SOL    HW222536   2.763   0.796   7.517  1.1521 -0.7545 -0.9859
 3635SOL     OW22537   0.224   2.567   7.040 -0.1179 -0.2679 -0.7684
 3635SOL    HW122538   0.183   2.578   7.126  0.5443 -0.4190 -0.4323
 3635SOL    HW222539   0.238   2.656   7.007 -0.8109  0.6175  1.2852
 3636SOL     OW22540   4.236   1.650   2.649  0.2784  0.3418  0.1526
 3636SOL    HW122541   4.252   1.730   2.699  1.2262 -0.6632  1.4691
 3636SOL    HW222542   4.188   1.598   2.713  0.4610 -0.0628 -0.0437
 3637SOL     OW22543   4.620   2.601   7.339 -0.5102  0.0444  0.4856
 3637SOL    HW122544   4.672   2.680   7.342  1.1946 -0.9664 -2.4219
 3637SOL    HW222545   4.564   2.615   7.415  0.9634 -0.1212  1.5874
 3638SOL     OW22546   3.161   0.699   0.296  0.1486  0.8221 -0.1727
 3638SOL    HW122547   3.106   0.709   0.218  0.5786  1.6335 -0.3658
 3638SOL    HW222548   3.102   0.739   0.360  1.1150  0.3444  1.0084
 3639SOL     OW22549   0.394   4.577   9.599  0.3553 -0.4242  0.1128
 3639SOL    HW122550   0.462   4.623   9.549  1.4348 -0.6068  1.3955
 3639SOL    HW222551   0.447   4.501   9.624  3.1782  1.3515 -0.5025
 3640SOL     OW22552   3.899   4.708   1.971 -0.4270  0.1837  0.2543
 3640SOL    HW122553   3.914   4.663   1.887  2.4105  2.7956 -0.6377
 3640SOL    HW222554   3.983   0.017   1.974  0.4602 -1.4659  0.7559
 3641SOL     OW22555   0.793   2.986   1.381  0.5289 -0.1700 -0.4782
 3641SOL    HW122556   0.855   2.986   1.308 -0.2190  1.3478 -1.1096
 3641SOL    HW222557   0.847   3.020   1.453  2.4629 -1.7319 -1.1902
 3642SOL     OW22558   0.535   0.059   9.089 -0.0175  0.5483  0.1430
 3642SOL    HW122559   0.521   4.705   9.063  0.6223  0.4746  0.0467
 3642SOL    HW222560   0.604   0.090   9.029  0.8874  1.9632  1.9169
 3643SOL     OW22561   2.914   0.241  10.400  0.0564 -0.5745 -0.0883
 3643SOL    HW122562   2.885   0.228  10.490  1.8719  2.1847  0.9259
 3643SOL    HW222563   2.989   0.298  10.421 -0.0151  0.0180 -1.4567
 3644SOL     OW22564   0.357   1.675  12.955  0.1481  0.0758  0.4391
 3644SOL    HW122565   0.415   1.750  12.963 -1.1560  0.7884  3.3721
 3644SOL    HW222566   0.273   1.718  12.972 -0.4712 -2.2559  3.3913
 3645SOL     OW22567   1.323   2.746   6.569 -0.2699  0.0239  0.7397
 3645SOL    HW122568   1.358   2.748   6.480 -2.7717  0.2577 -0.2380
 3645SOL    HW222569   1.403   2.771   6.615  0.7286  0.9467 -1.4891
 3646SOL     OW22570   0.681   4.608   3.074  0.1817 -0.2467 -0.2885
 3646SOL    HW122571   0.662   4.662   2.997 -2.2531  0.5968  0.9264
 3646SOL    HW222572   0.734   4.536   3.040  2.5563  1.8306 -1.0124
 3647SOL     OW22573   1.313   3.569   3.055 -0.1573 -0.1112  0.2463
 3647SOL    HW122574   1.218   3.581   3.048  0.0054  0.4473 -1.0554
 3647SOL    HW222575   1.330   3.625   3.131  1.3159 -0.4874  0.1933
 3648SOL     OW22576   0.981   0.680  10.221  0.2238  0.2087  0.1675
 3648SOL    HW122577   1.037   0.648  10.291  0.4145  1.3860  0.5514
 3648SOL    HW222578   0.980   0.769  10.258  2.5934  0.7006 -0.9542
 3649SOL     OW22579   1.257   4.551   5.298  0.1319 -0.1675 -0.3809
 3649SOL    HW122580   1.314   4.478   5.323 -0.4228 -0.3683  0.2932
 3649SOL    HW222581   1.177   4.528   5.346  0.5213 -0.8965 -0.0779
 3650SOL     OW22582   1.397   0.370   3.751  0.0267  0.0111  0.1599
 3650SOL    HW122583   1.325   0.394   3.809 -0.9176 -1.5681 -0.3805
 3650SOL    HW222584   1.459   0.443   3.759  0.3400 -0.0213 -2.1932
 3651SOL     OW22585   2.477   0.610   6.635 -0.2934  0.3259  0.2929
 3651SOL    HW122586   2.537   0.627   6.707  0.6409  0.8454 -0.5974
 3651SOL    HW222587   2.492   0.690   6.584 -1.3304 -0.0619 -0.6258
 3652SOL     OW22588   0.264   4.445  12.557 -0.3641  0.0141  0.6747
 3652SOL    HW122589   0.188   4.487  12.597 -0.2760 -0.2001  1.0659
 3652SOL    HW222590   0.333   4.462  12.620  0.8358 -2.2629 -0.0453
 3653SOL     OW22591   2.607   1.673   4.751 -0.1895  0.0543  0.2833
 3653SOL    HW122592   2.683   1.713   4.710 -0.3732 -1.4101 -1.5137
 3653SOL    HW222593   2.541   1.676   4.682  0.8515  0.4308 -0.6945
 3654SOL     OW22594   3.531   2.436  10.726 -0.1629  0.8522 -0.0620
 3654SOL    HW122595   3.508   2.368  10.789 -1.0087 -0.7430 -2.0895
 3654SOL    HW222596   3.521   2.389  10.643  1.4839  0.0927  0.1700
 3655SOL     OW22597   4.350   0.815   9.674 -0.4890 -0.0120 -0.6236
 3655SOL    HW122598   4.364   0.793   9.766  1.0370 -1.7529 -1.2680
 3655SOL    HW222599   4.378   0.906   9.679  0.9364 -0.4931  0.2500
 3656SOL     OW22600   3.015   1.792   4.912 -0.0231 -0.4676  0.3012
 3656SOL    HW122601   2.977   1.704   4.914  0.5023 -0.6987  0.1556
 3656SOL    HW222602   3.086   1.796   4.977 -1.3685 -1.9674  1.8597
 3657SOL     OW22603   1.254   0.591   4.528  0.2685  0.1776  0.6584
 3657SOL    HW122604   1.272   0.679   4.563 -0.9824  1.1573 -1.1435
 3657SOL    HW222605   1.223   0.545   4.606 -0.3387 -1.5193 -0.5841
 3658SOL     OW22606   1.549   4.613  17.049  0.4197 -0.6936  0.7017
 3658SOL    HW122607   1.627   4.660  17.079  1.3102 -0.1234 -2.4644
 3658SOL    HW222608   1.573   4.523  17.069  0.1308 -1.0333 -0.5123
 3659SOL     OW22609   2.819   1.414   8.450  0.0696 -0.8647  0.3016
 3659SOL    HW122610   2.728   1.444   8.461  0.4877  0.1688  0.8991
 3659SOL    HW222611   2.830   1.393   8.358  1.3549  0.1888  0.2213
 3660SOL     OW22612   0.419   0.464   2.428 -0.3656 -0.3444 -0.5841
 3660SOL    HW122613   0.449   0.400   2.363  0.1607  0.1350 -0.8084
 3660SOL    HW222614   0.363   0.417   2.489 -1.3483  0.0708 -1.1686
 3661SOL     OW22615   2.315   3.197   8.332  0.4172 -0.8323  0.4427
 3661SOL    HW122616   2.303   3.113   8.289 -0.1856 -0.5367  0.0290
 3661SOL    HW222617   2.382   3.184   8.399  1.8641  0.9111 -0.6743
 3662SOL     OW22618   3.681   3.365   2.040 -0.3078  0.9251  0.2458
 3662SOL    HW122619   3.684   3.289   2.099 -0.9793  0.3900 -0.4200
 3662SOL    HW222620   3.775   3.381   2.029 -0.3170  0.7846 -0.0472
 3663SOL     OW22621   3.495   0.930   1.960  0.0830  0.0587 -0.4520
 3663SOL    HW122622   3.547   0.854   1.931  1.2001  1.3422 -1.7862
 3663SOL    HW222623   3.474   0.886   2.043 -1.1341  0.2805 -0.6457
 3664SOL     OW22624   0.468   2.404   9.057  0.7533  0.7484  0.5941
 3664SOL    HW122625   0.523   2.474   9.092  0.1871 -0.2325  3.4323
 3664SOL    HW222626   0.383   2.446   9.070  0.4627 -0.2738  1.9229
 3665SOL     OW22627   0.439   3.009   1.920 -0.8507  0.0811 -0.5609
 3665SOL    HW122628   0.477   2.926   1.948 -1.9668 -1.0579 -2.4306
 3665SOL    HW222629   0.383   2.968   1.854  0.0753  1.7516 -2.3901
 3666SOL     OW22630   1.705   1.634   8.278 -0.3390  0.3693  0.2143
 3666SOL    HW122631   1.610   1.649   8.273 -0.0100  0.7668 -4.0652
 3666SOL    HW222632   1.700   1.539   8.270  0.9095  0.2304  1.1120
 3667SOL     OW22633   0.159   0.667   5.403 -0.2580 -0.2024  0.1245
 3667SOL    HW122634   0.237   0.631   5.360  0.2500  0.2806  0.6461
 3667SOL    HW222635   0.172   0.758   5.375  1.4022 -0.7077 -0.6986
 3668SOL     OW22636   1.587   1.801  11.823 -0.3994  0.2772 -0.0100
 3668SOL    HW122637   1.595   1.768  11.733 -2.5885 -0.1842 -0.0393
 3668SOL    HW222638   1.674   1.792  11.861 -1.6025 -1.6181  2.2795
 3669SOL     OW22639   4.271   4.039  16.352 -0.8736  0.2573  0.2229
 3669SOL    HW122640   4.322   4.069  16.277 -0.7152 -2.2515 -0.6760
 3669SOL    HW222641   4.339   4.050  16.419 -0.3662 -1.9258  0.0837
 3670SOL     OW22642   0.160   0.905   3.907 -0.2581  0.6881 -0.4856
 3670SOL    HW122643   0.136   0.921   3.998 -1.8443  0.0995 -0.7952
 3670SOL    HW222644   0.118   0.979   3.864 -0.8704  1.2137  1.0210
 3671SOL     OW22645   0.941   1.027   4.196 -0.0844 -0.1036 -0.1906
 3671SOL    HW122646   0.885   1.100   4.223 -1.2509 -2.0277  2.5841
 3671SOL    HW222647   0.994   1.022   4.275 -2.5519 -0.5639  1.4502
 3672SOL     OW22648   2.387   4.722   1.105 -0.2756  0.0738 -0.6864
 3672SOL    HW122649   2.479   4.726   1.081 -0.7097  0.6492 -2.2390
 3672SOL    HW222650   2.343   4.735   1.021 -0.5587  2.2213 -0.2231
 3673SOL     OW22651   3.534   1.640   5.713 -0.7179 -0.4205 -0.1871
 3673SOL    HW122652   3.522   1.731   5.737 -1.5636 -0.2617 -1.2505
 3673SOL    HW222653   3.523   1.591   5.795 -0.5537 -0.1405 -0.0005
 3674SOL     OW22654   1.971   2.083   8.327  0.0698  0.4424  0.2000
 3674SOL    HW122655   1.990   2.044   8.412 -2.1129  3.3455  2.0426
 3674SOL    HW222656   1.898   2.140   8.353 -1.2423 -1.3528  0.4537
 3675SOL     OW22657   2.623   3.126   9.833  0.0416  0.5852  0.4070
 3675SOL    HW122658   2.558   3.067   9.871 -0.2065  0.0445 -0.8658
 3675SOL    HW222659   2.571   3.161   9.761 -0.0215  0.3913  0.3574
 3676SOL     OW22660   0.954   3.830   9.251 -0.1043 -0.4103  0.3372
 3676SOL    HW122661   0.935   3.818   9.344  0.9712 -1.0764  0.4732
 3676SOL    HW222662   1.021   3.767   9.224  0.4275 -0.2857  1.3939
 3677SOL     OW22663   4.207   4.194   2.724  0.6611 -0.0350  0.2139
 3677SOL    HW122664   4.133   4.224   2.672  0.2735  0.2507  0.9374
 3677SOL    HW222665   4.266   4.270   2.721  0.2647  0.2729  0.1379
 3678SOL     OW22666   1.029   0.244  10.870  0.3222 -0.0907 -0.0588
 3678SOL    HW122667   1.010   0.286  10.954 -1.1075 -0.8524  0.0152
 3678SOL    HW222668   1.119   0.212  10.877  0.4849  0.2036 -0.7611
 3679SOL     OW22669   1.293   1.541   2.105 -0.6147 -0.4007 -0.3552
 3679SOL    HW122670   1.380   1.503   2.097 -0.2160  0.5656 -0.6406
 3679SOL    HW222671   1.286   1.610   2.039  0.4013 -1.0436 -1.1264
 3680SOL     OW22672   1.985   2.636   4.359 -0.1080 -0.0328 -0.2156
 3680SOL    HW122673   1.984   2.590   4.275  0.7978 -1.3963  0.5245
 3680SOL    HW222674   2.071   2.679   4.359  0.0761 -0.4137  0.7219
 3681SOL     OW22675   1.529   2.726   3.837 -0.7465  0.0861  0.2363
 3681SOL    HW122676   1.439   2.743   3.810 -0.5099 -0.3020 -0.7869
 3681SOL    HW222677   1.566   2.660   3.778 -1.3491  0.2376 -0.3123
 3682SOL     OW22678   3.939   1.829   2.006  0.5045  0.0121 -0.7564
 3682SOL    HW122679   3.969   1.894   2.069 -0.5993 -2.3013  2.1092
 3682SOL    HW222680   3.845   1.820   2.021  0.3453 -0.4571 -2.0101
 3683SOL     OW22681   0.674   0.643   3.661 -0.4967  0.5172  0.2125
 3683SOL    HW122682   0.622   0.634   3.741 -0.1342  0.6774  0.4673
 3683SOL    HW222683   0.712   0.555   3.657 -0.6406  0.4689 -0.0283
 3684SOL     OW22684   1.597   1.774   2.412 -0.6102 -0.5416  0.2159
 3684SOL    HW122685   1.639   1.860   2.412 -2.0856  0.1668  1.5038
 3684SOL    HW222686   1.505   1.800   2.418  0.2062  2.4445 -0.3705
 3685SOL     OW22687   3.348   3.876  10.052 -0.3478  0.5550  0.2829
 3685SOL    HW122688   3.277   3.853  10.111 -0.0977 -0.0019  0.3693
 3685SOL    HW222689   3.359   3.794  10.004 -1.4239  0.4142  0.2876
 3686SOL     OW22690   1.035   3.802   0.794 -0.2198  0.0884  0.1230
 3686SOL    HW122691   1.106   3.864   0.815  0.1634 -0.4663  0.4656
 3686SOL    HW222692   1.040   3.802   0.698 -1.2970  2.3033  0.0736
 3687SOL     OW22693   3.168   0.085  17.716  0.2020 -0.1566 -0.7398
 3687SOL    HW122694   3.107   0.096  17.643 -1.4738  1.3111  0.8714
 3687SOL    HW222695   3.184   4.728  17.702 -0.5716 -0.0274 -2.5193
 3688SOL     OW22696   2.493   1.536  12.022  0.7757  0.1354 -0.1684
 3688SOL    HW122697   2.532   1.575  11.944  0.0010 -0.9420 -1.0866
 3688SOL    HW222698   2.403   1.538  11.990 -0.4566  1.5302  3.3686
 3689SOL     OW22699   4.353   0.969   0.662  0.0727  0.0348  0.6209
 3689SOL    HW122700   4.436   1.009   0.689 -0.0720  0.3357  0.6253
 3689SOL    HW222701   4.306   1.048   0.636 -2.8619 -1.9659 -0.0464
 3690SOL     OW22702   1.585   4.168   4.709  0.2072  0.3070 -0.3086
 3690SOL    HW122703   1.539   4.242   4.750 -1.2637 -0.4933 -0.5105
 3690SOL    HW222704   1.584   4.206   4.621 -1.6484 -0.9120 -0.8335
 3691SOL     OW22705   3.812   0.393   5.854  0.3369 -0.2296  0.3233
 3691SOL    HW122706   3.905   0.374   5.850 -0.2881 -3.0742 -0.8490
 3691SOL    HW222707   3.767   0.337   5.790  0.6783  2.2738 -2.1014
 3692SOL     OW22708   1.918   0.062   1.960  0.0817  0.1891  0.0104
 3692SOL    HW122709   1.850   0.002   1.931  0.4656  0.0723 -0.6460
 3692SOL    HW222710   1.909   0.048   2.055  0.4885 -2.5101 -0.3631
 3693SOL     OW22711   3.021   4.409   3.585 -0.7206 -0.0615 -0.6618
 3693SOL    HW122712   3.115   4.395   3.577 -0.5372 -0.2013  1.6113
 3693SOL    HW222713   3.008   4.498   3.617  3.3881  0.6802 -1.0993
 3694SOL     OW22714   4.334   1.169   8.198  0.2796 -0.4704 -0.4759
 3694SOL    HW122715   4.365   1.193   8.285 -0.4508  1.2271 -0.6808
 3694SOL    HW222716   4.403   1.107   8.174 -0.4691 -0.9288 -1.4841
 3695SOL     OW22717   0.550   3.842   9.402 -0.1224  0.0202 -0.0398
 3695SOL    HW122718   0.601   3.919   9.427 -1.9515  0.5180  2.1627
 3695SOL    HW222719   0.462   3.880   9.393 -0.7873 -1.1497  1.5266
 3696SOL     OW22720   0.406   3.213  14.908 -0.1151  0.2587  0.3374
 3696SOL    HW122721   0.477   3.272  14.885  0.1269 -0.3678 -0.5043
 3696SOL    HW222722   0.379   3.152  14.839  2.4916  1.4527 -1.7411
 3697SOL     OW22723   3.584   3.430  14.469  0.0864 -0.2407 -0.0752
 3697SOL    HW122724   3.655   3.480  14.428 -0.5262 -0.7542 -1.7650
 3697SOL    HW222725   3.627   3.402  14.550 -0.5345 -0.5643  0.1354
 3698SOL     OW22726   3.353   4.683   7.716 -0.6460  0.1261  0.3682
 3698SOL    HW122727   3.343   0.028   7.668  0.0837 -0.4624 -0.7854
 3698SOL    HW222728   3.304   4.624   7.659 -1.9220  1.1743  0.4003
 3699SOL     OW22729   0.698   0.359  10.446  0.0772  0.4138 -0.1549
 3699SOL    HW122730   0.747   0.319  10.518 -1.5244 -0.5739  0.4008
 3699SOL    HW222731   0.749   0.439  10.443  1.3812 -0.4380 -0.5331
 3700SOL     OW22732   2.379   3.071  16.900 -0.3981 -0.0018 -0.4225
 3700SOL    HW122733   2.416   3.022  16.826 -1.0400  0.1123 -0.8154
 3700SOL    HW222734   2.446   3.063  16.968  0.3479 -1.2832 -1.3243
 3701SOL     OW22735   2.313   2.164   8.442 -0.1631  0.4144 -0.3093
 3701SOL    HW122736   2.265   2.207   8.512  0.8335  1.6603 -0.4047
 3701SOL    HW222737   2.319   2.070   8.461 -1.7245  0.4077  0.1604
 3702SOL     OW22738   1.269   0.089  10.056  0.7647  0.4013  0.4734
 3702SOL    HW122739   1.265   0.181  10.082  1.0674  0.3956  0.5455
 3702SOL    HW222740   1.335   0.051  10.114 -0.5809 -2.0859  0.3376
 3703SOL     OW22741   3.767   4.421   6.082 -0.0736 -0.4727  0.2849
 3703SOL    HW122742   3.747   4.421   6.175  3.0645  1.0409  0.9632
 3703SOL    HW222743   3.860   4.401   6.086 -0.3271 -1.5218  0.7637
 3704SOL     OW22744   4.302   1.966   8.418  0.0201  0.7698 -0.0083
 3704SOL    HW122745   4.389   2.006   8.428  0.5039 -1.0319  2.9139
 3704SOL    HW222746   4.294   1.935   8.327  1.9354 -0.3655  0.2086
 3705SOL     OW22747   2.827   1.790  17.744  0.5648  0.6856  0.5468
 3705SOL    HW122748   2.877   1.735   0.060 -1.2648 -1.5369  0.0327
 3705SOL    HW222749   2.741   1.785   0.040  0.0712  0.1312 -0.5433
 3706SOL     OW22750   2.086   1.265   7.671 -0.0376  0.8324  0.5641
 3706SOL    HW122751   2.115   1.308   7.752  0.4379 -1.8550  1.8216
 3706SOL    HW222752   2.032   1.328   7.624 -1.4282 -0.4636  0.4563
 3707SOL     OW22753   2.702   1.814   3.182 -0.3486 -0.0455  0.2970
 3707SOL    HW122754   2.606   1.816   3.172 -0.4352  1.4782  1.5481
 3707SOL    HW222755   2.729   1.739   3.129  0.5828  0.8283 -0.4507
 3708SOL     OW22756   2.642   0.007   6.449 -0.5073  0.2485  0.1194
 3708SOL    HW122757   2.680   0.065   6.382 -1.9773  0.0877 -0.8665
 3708SOL    HW222758   2.682   0.039   6.529  1.4284 -1.1304 -0.2967
 3709SOL     OW22759   0.830   0.036   7.758 -0.0873  0.5785  0.2593
 3709SOL    HW122760   0.766   4.701   7.756 -1.1221  1.4768  1.2553
 3709SOL    HW222761   0.902   4.724   7.717 -0.0701 -0.4354  1.4601
 3710SOL     OW22762   3.987   0.129   9.287 -0.1613  0.0985  0.8199
 3710SOL    HW122763   4.071   0.166   9.316 -0.8584  3.7289 -1.7021
 3710SOL    HW222764   4.023   0.049   9.250  0.5615 -0.1819  2.1375
 3711SOL     OW22765   3.460   0.525  16.737 -0.0491  0.0829 -0.3924
 3711SOL    HW122766   3.394   0.470  16.778 -1.0715  1.7529  0.1923
 3711SOL    HW222767   3.403   0.589  16.693 -1.2460 -0.9590 -0.3651
 3712SOL     OW22768   2.864   0.471   4.231 -0.1379  0.9958 -0.2726
 3712SOL    HW122769   2.930   0.523   4.184  1.8556 -0.7868  0.5279
 3712SOL    HW222770   2.827   0.416   4.162  3.2435 -0.1204 -1.2208
 3713SOL     OW22771   1.527   2.711   5.300  0.2699 -0.3631  0.1944
 3713SOL    HW122772   1.503   2.631   5.252 -0.5603 -0.5734  0.9659
 3713SOL    HW222773   1.466   2.772   5.259  1.1864  0.8403  0.6173
 3714SOL     OW22774   0.638   0.704   9.682  0.3881 -0.1905  0.4518
 3714SOL    HW122775   0.724   0.696   9.723 -0.6699 -0.4174  2.6087
 3714SOL    HW222776   0.646   0.647   9.605  0.3584  1.8498 -1.0745
 3715SOL     OW22777   4.300   2.478   7.157 -0.0619  0.2187  0.2975
 3715SOL    HW122778   4.214   2.436   7.151  0.0960 -0.1669  0.7620
 3715SOL    HW222779   4.358   2.403   7.176  1.3393  1.6848  1.8171
 3716SOL     OW22780   2.593   2.329   5.907  0.3613 -0.0595 -0.1015
 3716SOL    HW122781   2.578   2.237   5.926 -1.6964 -0.0519 -1.7355
 3716SOL    HW222782   2.594   2.323   5.811 -1.3917  2.0978 -0.2559
 3717SOL     OW22783   4.105   0.617  12.808  0.2495  0.2150  0.5270
 3717SOL    HW122784   4.022   0.593  12.766  1.4792 -0.7418 -1.3587
 3717SOL    HW222785   4.121   0.535  12.856  1.4521  1.1757  1.7855
 3718SOL     OW22786   1.981   4.711  13.983 -0.1254  0.4034 -0.3363
 3718SOL    HW122787   1.996   4.711  14.078 -0.9016  3.0068 -0.2189
 3718SOL    HW222788   1.953   4.621  13.966  1.2415 -0.4687  2.0601
 3719SOL     OW22789   0.273   4.128   6.533  0.2287  0.5831 -0.0269
 3719SOL    HW122790   0.355   4.083   6.551 -0.1571 -0.4604 -0.8855
 3719SOL    HW222791   0.246   4.144   6.624 -1.3983  2.4043 -0.8334
 3720SOL     OW22792   2.629   2.822  15.593 -0.1938 -0.3895  0.3788
 3720SOL    HW122793   2.717   2.787  15.586  0.2744  1.6808 -3.6116
 3720SOL    HW222794   2.582   2.766  15.531  1.9774  1.4600 -2.8817
 3721SOL     OW22795   3.093   0.364   6.712  0.1547 -0.3580 -0.0356
 3721SOL    HW122796   3.154   0.433   6.737 -0.2331 -0.4199  1.0794
 3721SOL    HW222797   3.119   0.352   6.620  0.6273 -1.6157  0.2597
 3722SOL     OW22798   1.549   0.688  11.624 -0.0212  0.6612  0.0934
 3722SOL    HW122799   1.560   0.777  11.590  0.5037  1.6336  2.7981
 3722SOL    HW222800   1.495   0.707  11.701 -2.3987  0.7238 -1.5672
 3723SOL     OW22801   4.380   3.833  10.483 -0.1464 -0.2740 -0.5433
 3723SOL    HW122802   4.392   3.926  10.500  1.9512 -0.6704  0.1758
 3723SOL    HW222803   4.445   3.795  10.543 -1.9057  1.1587  2.2914
 3724SOL     OW22804   2.264   3.999   6.594  0.1385  0.7738  1.1522
 3724SOL    HW122805   2.234   4.090   6.603 -0.2499  0.7257  0.3355
 3724SOL    HW222806   2.359   4.006   6.595  0.1328  0.8547  1.0846
 3725SOL     OW22807   4.607   0.336   0.160  0.0526 -0.3449 -0.0075
 3725SOL    HW122808   4.600   0.270   0.091 -0.3489 -2.3469  1.9786
 3725SOL    HW222809   4.619   0.282   0.238 -1.6246 -0.4121  0.2159
 3726SOL     OW22810   0.407   1.609  14.709  0.2349  0.1893  0.4998
 3726SOL    HW122811   0.419   1.677  14.643  0.3943  0.3323  0.6769
 3726SOL    HW222812   0.312   1.617  14.721  0.1614  0.3637 -0.1899
 3727SOL     OW22813   4.713   3.143   4.999  0.1420 -0.3786 -0.2647
 3727SOL    HW122814   4.717   3.051   4.972 -1.2346  0.0331 -1.8777
 3727SOL    HW222815   0.051   3.173   4.947 -0.3480  0.9480 -0.1937
 3728SOL     OW22816   4.704   2.093  14.079 -0.3306  0.0944 -0.3487
 3728SOL    HW122817   4.733   2.184  14.073 -1.9920  0.7083  0.9136
 3728SOL    HW222818   4.642   2.093  14.006  0.7444 -0.8160 -1.2720
 3729SOL     OW22819   1.931   1.071   8.044 -0.2476  0.5004  0.3005
 3729SOL    HW122820   1.856   1.065   8.103 -2.2158 -0.6690 -2.3134
 3729SOL    HW222821   1.988   1.011   8.092  0.2471  0.9343  0.2564
 3730SOL     OW22822   1.879   4.251   4.622 -0.0926  0.0195 -0.1468
 3730SOL    HW122823   1.933   4.242   4.700  0.4380  1.0169 -0.3945
 3730SOL    HW222824   1.835   4.167   4.610 -1.0176  0.4007  0.5128
 3731SOL     OW22825   1.633   3.235   0.961  0.5238  0.1247 -0.0023
 3731SOL    HW122826   1.601   3.303   1.019  0.2755 -0.2718  0.3254
 3731SOL    HW222827   1.673   3.171   1.020 -0.2083  0.5931  0.9897
 3732SOL     OW22828   1.049   0.161   7.559  0.3379  0.0776  0.3869
 3732SOL    HW122829   1.143   0.179   7.556  0.6455 -1.5112  0.4056
 3732SOL    HW222830   1.053   0.079   7.608 -0.2163  1.0928  2.1461
 3733SOL     OW22831   3.057   3.032  12.287  0.2302  0.0719  0.5962
 3733SOL    HW122832   3.031   2.971  12.217  1.2959  0.5716 -0.2377
 3733SOL    HW222833   3.140   3.062  12.250  0.1187 -0.6017 -0.2151
 3734SOL     OW22834   4.016   0.794   2.649  0.0425  0.1916  0.2843
 3734SOL    HW122835   4.028   0.887   2.670 -1.4150  0.4213  0.1254
 3734SOL    HW222836   3.924   0.793   2.623  1.1656 -2.9850 -3.4044
 3735SOL     OW22837   3.193   1.811   6.189  0.1499 -0.1225 -0.0120
 3735SOL    HW122838   3.271   1.861   6.164 -0.6483  0.5477 -1.1512
 3735SOL    HW222839   3.126   1.850   6.133 -0.7477 -1.8763 -0.1410
 3736SOL     OW22840   0.351   4.473   6.458 -0.4785 -0.0054  0.3895
 3736SOL    HW122841   0.406   4.518   6.523 -0.6271  1.1526 -0.3003
 3736SOL    HW222842   0.414   4.406   6.430 -2.7962 -1.7179 -0.6587
 3737SOL     OW22843   1.276   0.371   5.353 -0.2806 -0.1720 -0.0688
 3737SOL    HW122844   1.257   0.289   5.307 -1.5182 -0.4201  0.8714
 3737SOL    HW222845   1.362   0.395   5.318 -0.4992 -0.5646 -0.8733
 3738SOL     OW22846   1.984   0.234   5.043  0.3395  1.0338  0.2536
 3738SOL    HW122847   1.944   0.266   4.962 -1.4012  0.2868  0.8217
 3738SOL    HW222848   2.069   0.216   5.004  1.4090  1.4099  2.4217
 3739SOL     OW22849   0.038   3.464   5.604  0.0594  0.5397 -0.1454
 3739SOL    HW122850   0.088   3.386   5.581  1.7669  1.6741 -0.3169
 3739SOL    HW222851   0.106   3.531   5.606  0.0587  0.5879 -2.1504
 3740SOL     OW22852   0.633   4.662   2.004 -0.1578 -0.7585  0.3145
 3740SOL    HW122853   0.655   4.573   2.032 -1.5554 -0.1901  3.1638
 3740SOL    HW222854   0.675   4.715   2.071  2.1626 -0.7065 -1.1624
 3741SOL     OW22855   3.280   3.114   1.885 -0.0197  0.3049 -0.1298
 3741SOL    HW122856   3.195   3.158   1.892 -0.2142  0.0945 -1.2891
 3741SOL    HW222857   3.316   3.116   1.974 -2.1981  0.3278  0.7545
 3742SOL     OW22858   1.997   2.475   1.675  0.2428  0.6463  0.3503
 3742SOL    HW122859   1.951   2.514   1.600  1.1915  0.0410 -0.5480
 3742SOL    HW222860   1.932   2.411   1.704  0.0549  1.0378  0.7971
 3743SOL     OW22861   3.675   4.465   3.312 -0.2332 -0.6443 -0.5906
 3743SOL    HW122862   3.745   4.409   3.278  0.5132 -0.7375  1.1431
 3743SOL    HW222863   3.715   4.482   3.397 -2.0799 -0.5774  0.2506
 3744SOL     OW22864   3.218   1.187   1.640 -0.4177  0.0958 -0.0826
 3744SOL    HW122865   3.206   1.101   1.681 -0.1621  1.1141  2.1496
 3744SOL    HW222866   3.128   1.218   1.640 -0.1868  0.6975 -2.8202
 3745SOL     OW22867   0.181   3.658   3.384  0.1706  0.3880  0.0721
 3745SOL    HW122868   0.239   3.734   3.386  2.0608 -1.0921  1.1756
 3745SOL    HW222869   0.156   3.648   3.292  0.5927  0.3113 -0.0322
 3746SOL     OW22870   4.368   1.673   9.376 -0.4952 -0.0743 -0.3818
 3746SOL    HW122871   4.454   1.633   9.362 -0.3250  0.7338 -1.6647
 3746SOL    HW222872   4.343   1.630   9.457  0.2688  0.4845  0.1524
 3747SOL     OW22873   1.027   3.972   9.794 -0.3236  0.6445 -0.0208
 3747SOL    HW122874   1.056   4.060   9.816  0.3995 -0.1190  2.1218
 3747SOL    HW222875   1.112   3.928   9.787  0.4527  2.0381  0.6625
 3748SOL     OW22876   1.864   1.345   8.011  0.8332  0.1917  0.3352
 3748SOL    HW122877   1.875   1.370   8.103 -0.1330  0.5656  0.3515
 3748SOL    HW222878   1.869   1.249   8.007 -0.0125  0.2267 -1.3762
 3749SOL     OW22879   3.055   0.614   2.790  0.2304 -0.1890  0.1298
 3749SOL    HW122880   3.017   0.572   2.867 -1.1149  1.7135  0.4918
 3749SOL    HW222881   3.128   0.554   2.776  1.1125  0.7073  0.8485
 3750SOL     OW22882   3.238   3.950   2.781 -0.1872 -0.4276  0.5938
 3750SOL    HW122883   3.156   3.902   2.764 -1.1300  1.2089  0.5108
 3750SOL    HW222884   3.211   3.991   2.863 -0.3869  0.6798 -0.0307
 3751SOL     OW22885   4.158   1.212   7.070  0.1254  0.1850 -0.1066
 3751SOL    HW122886   4.112   1.266   7.007 -1.1521 -1.7947 -0.8656
 3751SOL    HW222887   4.085   1.177   7.122  1.8176 -2.3352  0.5677
 3752SOL     OW22888   0.119   2.101  12.921  0.0980  0.3818 -0.0154
 3752SOL    HW122889   0.041   2.151  12.897 -0.8785 -0.6734  0.9396
 3752SOL    HW222890   0.181   2.161  12.962  0.3681 -0.8670  1.4222
 3753SOL     OW22891   0.121   2.229  12.270  0.4856  0.1495  0.0954
 3753SOL    HW122892   0.109   2.200  12.360  0.8820 -0.2210  0.0270
 3753SOL    HW222893   0.032   2.226  12.235  1.4248  3.4539 -2.6543
 3754SOL     OW22894   4.305   4.386   9.191 -0.4756 -0.2854 -0.3263
 3754SOL    HW122895   4.230   4.440   9.216 -0.5853 -1.4665  1.8643
 3754SOL    HW222896   4.267   4.302   9.166 -0.2166  0.1650 -2.2344
 3755SOL     OW22897   3.558   3.939   8.856  0.4808 -0.6050  0.2946
 3755SOL    HW122898   3.562   4.015   8.915  0.1605 -0.2293 -0.1738
 3755SOL    HW222899   3.518   3.878   8.918  1.3987 -1.1763  0.3135
 3756SOL     OW22900   3.483   2.129   2.575  0.0806  0.3527 -0.5904
 3756SOL    HW122901   3.550   2.062   2.560 -0.6106 -1.0565  2.6324
 3756SOL    HW222902   3.498   2.189   2.502 -0.6346  0.0334 -1.0029
 3757SOL     OW22903   4.087   0.589   6.490  0.1378  0.0376  0.7749
 3757SOL    HW122904   4.129   0.532   6.425 -0.9746 -1.7215  1.5833
 3757SOL    HW222905   4.094   0.680   6.463 -1.6077  0.0870  0.5030
 3758SOL     OW22906   3.799   3.905   3.212 -0.0339 -0.0487  0.3535
 3758SOL    HW122907   3.770   3.841   3.277 -0.3393 -1.2493 -0.9449
 3758SOL    HW222908   3.862   3.847   3.169 -0.1326  0.0370  0.0908
 3759SOL     OW22909   0.786   0.605  10.043 -0.4330  0.1603 -0.5156
 3759SOL    HW122910   0.866   0.612  10.094 -1.1532 -2.2094  0.9518
 3759SOL    HW222911   0.748   0.692  10.056  2.4808  1.3928 -0.1876
 3760SOL     OW22912   3.207   1.481   5.791 -0.2716  0.6002  0.3702
 3760SOL    HW122913   3.257   1.423   5.848 -0.3824 -2.2572 -2.3916
 3760SOL    HW222914   3.130   1.431   5.764 -0.1695  2.3839 -3.2152
 3761SOL     OW22915   0.241   4.620  13.463  0.0906  0.1084  0.6109
 3761SOL    HW122916   0.269   4.612  13.554  0.3126  2.0614  0.7076
 3761SOL    HW222917   0.150   4.650  13.462 -0.6371 -2.1132 -1.1076
 3762SOL     OW22918   2.548   3.212  11.648  0.2574 -0.1202  0.4295
 3762SOL    HW122919   2.484   3.241  11.713  1.6884  1.2133  1.2424
 3762SOL    HW222920   2.624   3.179  11.697  0.7463  0.3415 -0.0093
 3763SOL     OW22921   3.556   4.528   8.573 -0.0842 -0.4541 -0.5017
 3763SOL    HW122922   3.467   4.495   8.582 -0.5492  0.5268 -1.5331
 3763SOL    HW222923   3.540   4.569   8.488  0.7379 -0.5498 -0.7113
 3764SOL     OW22924   0.269   1.030   2.220 -0.1781 -0.2367 -0.3866
 3764SOL    HW122925   0.313   1.057   2.139  2.3527  0.2042  1.1243
 3764SOL    HW222926   0.236   1.114   2.251 -0.1658 -0.3484 -0.0643
 3765SOL     OW22927   2.184   1.132   3.607 -0.2168 -0.3459  0.3324
 3765SOL    HW122928   2.174   1.157   3.699 -2.9350  1.3255 -0.3989
 3765SOL    HW222929   2.273   1.101   3.595 -1.2669 -3.0765 -0.3621
 3766SOL     OW22930   2.286   2.046   3.666  0.1442  0.3422  0.0784
 3766SOL    HW122931   2.309   2.090   3.748  0.8289 -0.7135  0.4499
 3766SOL    HW222932   2.198   2.015   3.688 -0.5381  0.4194 -2.5797
 3767SOL     OW22933   1.585   4.320  17.081 -0.4294  0.5318 -0.2116
 3767SOL    HW122934   1.650   4.280  17.023 -2.5501  0.4202 -2.5321
 3767SOL    HW222935   1.507   4.270  17.055  0.1263  0.0029 -0.8516
 3768SOL     OW22936   0.357   2.604   3.249  0.7972 -0.0579 -0.7428
 3768SOL    HW122937   0.431   2.641   3.296 -0.9125  0.3531  1.6051
 3768SOL    HW222938   0.347   2.674   3.184 -0.7888  0.7056  0.3186
 3769SOL     OW22939   3.188   4.120  10.994  0.0566 -0.1380  0.1640
 3769SOL    HW122940   3.121   4.184  10.972 -0.8774 -1.2747 -0.2809
 3769SOL    HW222941   3.159   4.082  11.077 -0.9896  1.3695  0.4947
 3770SOL     OW22942   0.666   3.544   6.350  0.0020  0.0186  0.1197
 3770SOL    HW122943   0.575   3.529   6.377  0.2480  1.4129  1.7191
 3770SOL    HW222944   0.714   3.563   6.431  0.9027 -0.4815 -0.2922
 3771SOL     OW22945   2.272   4.419   4.355 -0.4780 -0.1673 -0.1222
 3771SOL    HW122946   2.181   4.410   4.381 -0.1258 -0.2304  1.0657
 3771SOL    HW222947   2.259   4.421   4.260  1.6941 -0.7444 -0.4410
 3772SOL     OW22948   1.973   1.519   7.509  0.5118 -0.0155 -0.1312
 3772SOL    HW122949   1.908   1.540   7.577  0.1580 -0.0582 -0.4543
 3772SOL    HW222950   1.920   1.550   7.435 -2.3562 -0.9014  1.5225
 3773SOL     OW22951   3.375   1.854   4.014  0.3071  0.0352  0.0081
 3773SOL    HW122952   3.297   1.847   3.959  1.2335 -2.1616 -1.0002
 3773SOL    HW222953   3.354   1.937   4.056 -0.1625  0.6412 -1.4426
 3774SOL     OW22954   3.660   4.418   0.522 -0.0273 -0.2047 -0.0388
 3774SOL    HW122955   3.575   4.417   0.479 -1.2676  1.1189  2.4743
 3774SOL    HW222956   3.711   4.473   0.462  2.3823  2.1324  4.1463
 3775SOL     OW22957   0.899   1.229   8.476 -0.5193 -0.6964  0.0999
 3775SOL    HW122958   0.862   1.234   8.564  0.7349  0.1925  0.5765
 3775SOL    HW222959   0.864   1.144   8.449 -0.5031 -0.3122 -1.1388
 3776SOL     OW22960   1.528   0.653   4.668  0.4538 -0.6082  0.1727
 3776SOL    HW122961   1.505   0.696   4.585 -1.9536 -2.1798  0.0356
 3776SOL    HW222962   1.492   0.717   4.729 -0.3061  0.2563 -1.1741
 3777SOL     OW22963   1.768   3.624  13.992  0.1012  0.2806 -0.1878
 3777SOL    HW122964   1.756   3.536  13.956 -0.5167  0.8240 -1.3113
 3777SOL    HW222965   1.835   3.654  13.931  0.5955  2.4965  1.4833
 3778SOL     OW22966   0.458   1.429   8.591  0.2637 -0.0748 -0.0849
 3778SOL    HW122967   0.400   1.486   8.642  1.0506  0.5874  0.0661
 3778SOL    HW222968   0.417   1.342   8.589  1.1584 -0.4362 -2.9611
 3779SOL     OW22969   2.295   2.569   5.865  0.1627 -0.2713  0.2703
 3779SOL    HW122970   2.373   2.619   5.841 -0.4824  0.2471 -0.7937
 3779SOL    HW222971   2.316   2.496   5.806 -0.3759  1.3150 -1.8861
 3780SOL     OW22972   3.903   4.030   2.835  0.2632  0.0559 -0.4334
 3780SOL    HW122973   3.877   4.073   2.916 -2.1179 -0.7043 -0.7943
 3780SOL    HW222974   3.985   4.079   2.827  0.7171 -0.9215 -1.8949
 3781SOL     OW22975   2.725   1.030  13.727  0.0366 -0.3687  0.0093
 3781SOL    HW122976   2.638   1.070  13.737 -0.9611 -2.5709  0.1902
 3781SOL    HW222977   2.701   0.949  13.682 -1.0308 -0.4622  0.7398
 3782SOL     OW22978   2.853   2.467   3.309 -0.1880 -0.0722 -0.1398
 3782SOL    HW122979   2.784   2.527   3.337 -1.0589 -1.2313  0.2179
 3782SOL    HW222980   2.917   2.470   3.380  0.8939 -3.8714 -0.9310
 3783SOL     OW22981   2.246   1.833   2.591 -0.4570 -0.3307 -0.2150
 3783SOL    HW122982   2.277   1.756   2.639 -3.6224 -1.5112 -0.0862
 3783SOL    HW222983   2.281   1.821   2.503 -0.1277 -0.4576 -0.0664
 3784SOL     OW22984   1.011   3.980   3.779 -0.1223  0.4066  0.0572
 3784SOL    HW122985   0.935   3.971   3.722  1.0148 -0.2353 -1.3688
 3784SOL    HW222986   1.034   3.887   3.778 -0.6881  0.2425  2.5951
 3785SOL     OW22987   1.839   2.053  15.940  0.3377 -0.7815 -0.0130
 3785SOL    HW122988   1.761   2.088  15.982  0.8877 -0.8687  1.0893
 3785SOL    HW222989   1.857   2.089  15.853 -0.8761  0.8702  0.4062
 3786SOL     OW22990   1.282   3.544   3.881  0.1847  0.1511 -0.3674
 3786SOL    HW122991   1.360   3.489   3.880  1.1923  1.5826 -0.5492
 3786SOL    HW222992   1.233   3.510   3.956  0.1919  1.5071  0.2631
 3787SOL     OW22993   4.414   2.927   7.284  0.1896 -0.3205  0.1817
 3787SOL    HW122994   4.360   2.850   7.300 -0.8559  0.7894  2.0137
 3787SOL    HW222995   4.422   2.918   7.189  0.2565 -0.1814  0.1729
 3788SOL     OW22996   0.839   0.896   8.181 -0.2435  0.1450 -0.2012
 3788SOL    HW122997   0.859   0.926   8.269  1.7215 -0.5942 -0.4051
 3788SOL    HW222998   0.893   0.947   8.121  1.7201 -0.7690  0.8083
 3789SOL     OW22999   1.774   3.884   2.305  0.5780 -0.7181 -0.1479
 3789SOL    HW123000   1.694   3.934   2.322  1.1953  0.2113 -0.0245
 3789SOL    HW223001   1.804   3.859   2.393  1.0276 -0.5985 -0.2709
 3790SOL     OW23002   1.671   2.227  16.075  0.0464  0.1305 -0.2357
 3790SOL    HW123003   1.666   2.263  15.986 -0.9940  0.9613  0.1672
 3790SOL    HW223004   1.616   2.291  16.120  2.3154  0.4380  2.0621
 3791SOL     OW23005   1.629   2.042   7.266 -0.3281 -0.1876 -0.3529
 3791SOL    HW123006   1.624   2.120   7.210 -1.3790 -0.6464 -0.9036
 3791SOL    HW223007   1.700   1.992   7.227 -0.3568 -1.0654  0.7084
 3792SOL     OW23008   1.940   1.388   5.694  0.7059 -0.1988 -0.0656
 3792SOL    HW123009   1.962   1.479   5.677  0.2546  0.2335  1.6400
 3792SOL    HW223010   1.924   1.356   5.606  1.0103  1.0880 -0.5809
 3793SOL     OW23011   1.213   3.208   6.226  0.2266  0.4013 -0.4774
 3793SOL    HW123012   1.234   3.129   6.276  0.7772 -0.3447 -1.8712
 3793SOL    HW223013   1.129   3.229   6.268  1.1662  1.0497  1.0841
 3794SOL     OW23014   3.550   4.362   2.461  0.0795 -0.5629  0.3876
 3794SOL    HW123015   3.482   4.330   2.402  0.3168 -0.4995  0.0786
 3794SOL    HW223016   3.617   4.359   2.393 -0.0691 -1.2820  0.2720
 3795SOL     OW23017   1.476   0.235   0.864  0.1454 -0.1130  0.1687
 3795SOL    HW123018   1.474   0.290   0.786 -0.9253 -0.0565  0.2390
 3795SOL    HW223019   1.482   0.145   0.831 -0.5552  0.0427 -0.3944
 3796SOL     OW23020   4.563   2.474   3.684  0.2299  0.6635 -0.3031
 3796SOL    HW123021   4.522   2.445   3.765 -2.0460 -0.2742 -1.8054
 3796SOL    HW223022   4.504   2.442   3.616  0.4004  1.1267 -0.6722
 3797SOL     OW23023   0.134   4.630   1.508  0.0601  0.3347 -0.3108
 3797SOL    HW123024   0.175   4.585   1.582  0.6776  0.9365 -0.2788
 3797SOL    HW223025   0.212   4.661   1.463  1.8875 -1.3227  1.7044
 3798SOL     OW23026   2.151   3.896   7.886 -0.0487  0.0918  0.0410
 3798SOL    HW123027   2.163   3.989   7.902 -0.3512  0.1403 -0.0219
 3798SOL    HW223028   2.136   3.869   7.976 -2.2534 -2.6031 -1.1143
 3799SOL     OW23029   3.825   3.578  14.400  0.2880  0.7214 -0.2914
 3799SOL    HW123030   3.849   3.632  14.475 -0.0081  0.2849  0.1108
 3799SOL    HW223031   3.767   3.638  14.353 -0.4772 -0.3257 -0.6593
 3800SOL     OW23032   3.467   3.259   6.933 -0.3591  0.3416 -0.3823
 3800SOL    HW123033   3.549   3.212   6.921  0.9899  2.3677  0.9933
 3800SOL    HW223034   3.492   3.338   6.886 -0.3822  1.1169  0.9112
 3801SOL     OW23035   0.545   0.273  15.151  0.1070  0.2201 -0.3332
 3801SOL    HW123036   0.599   0.223  15.213 -0.0395  1.0766  0.4790
 3801SOL    HW223037   0.552   0.363  15.183 -0.7471 -0.0301  0.5293
 3802SOL     OW23038   3.233   3.091   6.982 -0.1064  0.0185  0.1339
 3802SOL    HW123039   3.166   3.110   7.047 -0.0275  0.6078  0.0472
 3802SOL    HW223040   3.317   3.094   7.028  0.7388  1.3260 -1.4462
 3803SOL     OW23041   1.101   4.634   2.646  0.2197  0.2773  0.4812
 3803SOL    HW123042   1.094   4.575   2.571  1.7334  1.8212 -0.9060
 3803SOL    HW223043   1.093   4.720   2.605 -1.2859  0.7696  1.8080
 3804SOL     OW23044   1.119   4.369  10.441  0.2508  0.4168  0.1478
 3804SOL    HW123045   1.087   4.375  10.351  1.3713 -0.0009 -0.2745
 3804SOL    HW223046   1.043   4.385  10.497 -0.0885 -0.5090 -0.0556
 3805SOL     OW23047   0.016   1.715  13.707 -0.0509  0.1010  0.2113
 3805SOL    HW123048   0.037   1.759  13.790  0.6864 -3.4871  1.9145
 3805SOL    HW223049   0.103   1.680  13.684 -0.5796 -2.3738  1.9979
 3806SOL     OW23050   3.462   2.893   6.774  0.0288 -0.2379  0.7951
 3806SOL    HW123051   3.491   2.830   6.708  0.2476 -0.7936  1.4235
 3806SOL    HW223052   3.441   2.959   6.709  0.1522  0.2673  1.2659
 3807SOL     OW23053   2.029   2.281  15.279 -0.4124 -0.3306 -0.0772
 3807SOL    HW123054   2.110   2.268  15.231  1.6930 -1.0239  3.6236
 3807SOL    HW223055   2.038   2.375  15.297  0.4359 -0.3232 -0.5761
 3808SOL     OW23056   1.934   1.531  10.739 -0.1366 -0.1388  0.1130
 3808SOL    HW123057   1.873   1.475  10.691  0.6531 -1.6925  0.9629
 3808SOL    HW223058   1.972   1.463  10.794 -0.8186 -0.3405  0.3337
 3809SOL     OW23059   3.698   2.517   9.087 -0.0510  0.4142  0.2664
 3809SOL    HW123060   3.657   2.604   9.085 -0.1039  0.3473 -1.5719
 3809SOL    HW223061   3.785   2.541   9.118 -0.3436  1.7354  0.0829
 3810SOL     OW23062   4.328   1.156   9.319  0.2708  0.2690 -0.4771
 3810SOL    HW123063   4.293   1.103   9.391 -1.0243  0.9402 -0.6129
 3810SOL    HW223064   4.255   1.211   9.291 -0.8903 -0.3451  1.3617
 3811SOL     OW23065   0.527   2.186  16.059  0.7208 -0.3682  0.6884
 3811SOL    HW123066   0.543   2.092  16.049  1.9508 -0.0936  0.0669
 3811SOL    HW223067   0.511   2.212  16.150 -2.8177  0.1583 -0.0826
 3812SOL     OW23068   3.608   3.298   4.822  0.1732  0.2066 -0.7086
 3812SOL    HW123069   3.685   3.258   4.863  0.0460  1.7471  1.0150
 3812SOL    HW223070   3.540   3.238   4.852  0.1133  1.6568  2.0465
 3813SOL     OW23071   2.500   0.315   1.035  0.0160  0.0515 -0.5887
 3813SOL    HW123072   2.589   0.309   1.069  0.6214  2.0442 -1.8225
 3813SOL    HW223073   2.454   0.306   1.118 -0.1980 -0.9948 -0.8251
 3814SOL     OW23074   0.472   3.710   7.464 -0.1760 -0.1536 -0.1284
 3814SOL    HW123075   0.505   3.800   7.456 -1.3449  0.3697  0.7824
 3814SOL    HW223076   0.551   3.679   7.507 -0.0581 -0.5529 -0.6376
 3815SOL     OW23077   4.544   2.255  13.892  0.3190  0.7870  0.1389
 3815SOL    HW123078   4.465   2.283  13.938 -1.3462 -3.1456 -0.3004
 3815SOL    HW223079   4.541   2.298  13.806 -0.5812  0.0122 -0.2180
 3816SOL     OW23080   4.218   3.202   0.883 -0.3282  0.3466 -0.4510
 3816SOL    HW123081   4.193   3.117   0.846  1.3782 -0.2504 -0.2277
 3816SOL    HW223082   4.147   3.261   0.860 -1.5885 -0.8208  0.4847
 3817SOL     OW23083   4.661   4.594  14.610  0.0363  0.3702  0.0386
 3817SOL    HW123084   4.713   4.673  14.623  3.4561 -1.5305 -2.0015
 3817SOL    HW223085   4.677   4.575  14.517 -2.4350  0.8877 -0.4961
 3818SOL     OW23086   3.327   3.535   8.063 -0.2694 -0.0062  0.2453
 3818SOL    HW123087   3.395   3.531   8.130 -0.6901 -2.6762  0.5220
 3818SOL    HW223088   3.347   3.621   8.026  1.3926 -1.1725 -1.6066
 3819SOL     OW23089   0.419   1.661  11.727 -0.2410 -0.3510 -0.3808
 3819SOL    HW123090   0.390   1.751  11.711 -0.6462 -0.1254  1.6156
 3819SOL    HW223091   0.477   1.667  11.652 -0.8358  0.1836 -0.7967
 3820SOL     OW23092   0.676   0.381  13.672  0.4846 -0.1900  0.3843
 3820SOL    HW123093   0.735   0.455  13.661  0.3667 -0.3888 -1.5555
 3820SOL    HW223094   0.639   0.362  13.585  1.3672  1.4720 -0.3340
 3821SOL     OW23095   0.267   0.082  15.154  0.1780 -0.2221  0.0504
 3821SOL    HW123096   0.319   0.162  15.163 -1.4214  0.9924 -1.3398
 3821SOL    HW223097   0.301   0.020  15.218  2.7822  0.1569 -0.9801
 3822SOL     OW23098   3.440   2.777   2.413  0.6245  0.3357  0.4825
 3822SOL    HW123099   3.412   2.859   2.371  3.3031  1.7721  1.4751
 3822SOL    HW223100   3.445   2.808   2.503 -0.9908 -3.1684  1.7748
 3823SOL     OW23101   4.109   3.890  13.512  0.4179  0.4442 -1.0181
 3823SOL    HW123102   4.077   3.862  13.427 -2.1381  1.8502 -0.4958
 3823SOL    HW223103   4.028   3.873  13.559  2.4915  1.5397  3.0120
 3824SOL     OW23104   2.269   4.687   8.952  0.1839 -0.4899  0.1722
 3824SOL    HW123105   2.246   4.645   8.869  0.1855 -1.2796  0.5681
 3824SOL    HW223106   2.358   4.705   8.924  0.2082  0.3696  0.8353
 3825SOL     OW23107   2.935   2.820  11.993 -0.1160  0.4806 -0.7155
 3825SOL    HW123108   2.911   2.728  12.003 -1.0777  1.0026  1.7770
 3825SOL    HW223109   2.850   2.855  11.967  0.6158  0.9561 -2.4423
 3826SOL     OW23110   2.818   3.902   5.475 -0.0074  0.3873  1.0129
 3826SOL    HW123111   2.891   3.928   5.419  0.5964 -0.3843  1.4461
 3826SOL    HW223112   2.861   3.887   5.560  1.6141 -0.2333  0.0832
 3827SOL     OW23113   2.295   2.911   6.328  0.4979 -0.4213  0.5101
 3827SOL    HW123114   2.340   2.954   6.255 -0.9522  0.2538  0.0142
 3827SOL    HW223115   2.207   2.931   6.297  0.0586 -0.9546  1.4326
 3828SOL     OW23116   0.176   2.924  12.515  0.5239  0.2395 -0.1694
 3828SOL    HW123117   0.100   2.940  12.571 -1.2301 -0.3155 -2.3720
 3828SOL    HW223118   0.244   2.916  12.581  2.1163 -1.7862 -2.0302
 3829SOL     OW23119   4.728   4.048   7.554 -0.6034 -0.5768 -0.4062
 3829SOL    HW123120   4.667   4.095   7.612  2.4700  0.0239  2.3708
 3829SOL    HW223121   0.004   3.971   7.610 -1.1555 -1.1543 -1.0853
 3830SOL     OW23122   3.658   2.564   4.969  0.0265  0.3018 -0.1376
 3830SOL    HW123123   3.672   2.629   4.899  3.3384  0.7866  0.9627
 3830SOL    HW223124   3.691   2.481   4.936  0.6595  0.9239 -1.0853
 3831SOL     OW23125   4.060   4.390   9.406 -0.4178  0.0455  0.1735
 3831SOL    HW123126   3.989   4.331   9.433 -0.0873 -0.2085  0.4770
 3831SOL    HW223127   4.106   4.383   9.489 -0.6097  0.9928  0.3488
 3832SOL     OW23128   2.869   0.541   7.481  0.0923 -0.7223  0.0760
 3832SOL    HW123129   2.925   0.464   7.477 -0.7806 -1.4287  1.2485
 3832SOL    HW223130   2.892   0.582   7.398  0.8516 -0.6882  0.3070
 3833SOL     OW23131   1.107   1.163   6.489  0.4440 -0.0958  0.2053
 3833SOL    HW123132   1.154   1.232   6.537  0.6947  0.7611 -1.2839
 3833SOL    HW223133   1.022   1.198   6.514  0.1819 -0.3186 -0.3896
 3834SOL     OW23134   2.229   0.723  13.045  0.1998  0.0971  0.2242
 3834SOL    HW123135   2.267   0.652  12.993 -0.3988 -0.3725  0.4232
 3834SOL    HW223136   2.172   0.762  12.979 -0.6323  1.0143  1.4831
 3835SOL     OW23137   1.411   2.096   1.888  0.4453 -0.5622 -0.0260
 3835SOL    HW123138   1.506   2.102   1.897  0.4441 -1.1688  0.4007
 3835SOL    HW223139   1.397   2.031   1.820  2.0481 -1.7603  0.7821
 3836SOL     OW23140   3.282   2.255   6.500 -0.0013  0.3983  0.1459
 3836SOL    HW123141   3.277   2.315   6.574  1.4295 -0.7842  1.2137
 3836SOL    HW223142   3.303   2.316   6.429 -3.0043 -0.4915 -1.4959
 3837SOL     OW23143   0.639   0.094   5.584 -0.2260 -0.7603 -0.0802
 3837SOL    HW123144   0.545   0.095   5.603 -0.1031 -1.3726  0.5546
 3837SOL    HW223145   0.653   0.173   5.532  0.5206 -0.1008  1.1242
 3838SOL     OW23146   2.262   0.205   8.319  0.0123 -0.6847  0.4265
 3838SOL    HW123147   2.312   0.285   8.307 -2.2501  0.7588  0.6229
 3838SOL    HW223148   2.197   0.204   8.248 -0.3002  1.5380  0.6935
 3839SOL     OW23149   3.779   4.471  15.633  0.0509  0.2172 -0.6032
 3839SOL    HW123150   3.773   4.451  15.539 -1.5052  0.5472 -0.5705
 3839SOL    HW223151   3.695   4.430  15.655  0.0376  0.5424 -0.0563
 3840SOL     OW23152   3.251   2.116   4.553  0.5605  0.0191  0.2833
 3840SOL    HW123153   3.182   2.150   4.611 -0.7038 -1.9903 -0.0490
 3840SOL    HW223154   3.228   2.170   4.477 -0.5319 -0.9339 -0.0515
 3841SOL     OW23155   1.063   4.194   0.780  0.6690  0.4487  0.1874
 3841SOL    HW123156   1.122   4.211   0.854  0.2361  3.4311 -0.1405
 3841SOL    HW223157   1.029   4.280   0.757 -3.0427 -1.3809 -1.0422
 3842SOL     OW23158   1.953   1.439  11.556 -0.2677 -0.0495  0.9011
 3842SOL    HW123159   1.898   1.394  11.620  0.7428 -0.4331  1.5125
 3842SOL    HW223160   1.904   1.436  11.474 -0.3280 -0.2787  0.9445
 3843SOL     OW23161   0.134   1.179   4.289 -0.2431 -0.1215  0.1069
 3843SOL    HW123162   0.092   1.222   4.364  0.6872  1.5570 -0.3230
 3843SOL    HW223163   0.173   1.255   4.245  0.2201  0.4752  1.5524
 3844SOL     OW23164   3.368   3.370  14.294 -0.4514  0.5576 -0.0977
 3844SOL    HW123165   3.442   3.395  14.349 -0.7873  1.2723  0.0234
 3844SOL    HW223166   3.407   3.296  14.247 -1.7160 -0.2550  0.1261
 3845SOL     OW23167   2.278   3.201   3.962  0.2800 -0.1162 -0.1201
 3845SOL    HW123168   2.334   3.277   3.970  0.8034 -0.4070 -1.0249
 3845SOL    HW223169   2.214   3.234   3.899 -0.9057  1.4521  1.9047
 3846SOL     OW23170   0.854   1.735   0.614  0.4657  0.2447 -0.3791
 3846SOL    HW123171   0.829   1.643   0.603  1.4776 -0.0632 -0.1346
 3846SOL    HW223172   0.885   1.752   0.525  1.7147  2.2532  0.4384
 3847SOL     OW23173   1.366   1.982  13.705  0.2252 -0.3488  0.0403
 3847SOL    HW123174   1.411   1.954  13.626 -2.2878 -0.6661 -1.2681
 3847SOL    HW223175   1.403   1.922  13.770 -2.1459 -1.4823  0.3604
 3848SOL     OW23176   1.346   3.181   9.891  0.4247 -0.0209  0.0877
 3848SOL    HW123177   1.270   3.196   9.834  0.4243 -0.6697 -0.0767
 3848SOL    HW223178   1.310   3.238   9.959  0.6198 -0.1943  0.3342
 3849SOL     OW23179   2.867   4.020   8.298 -0.5273  0.5960  0.1202
 3849SOL    HW123180   2.831   4.061   8.220 -1.5235 -1.1692 -0.3294
 3849SOL    HW223181   2.855   3.930   8.269 -0.0166 -0.1185  2.1371
 3850SOL     OW23182   4.569   3.814   8.908 -0.1149 -0.4304  0.3373
 3850SOL    HW123183   4.595   3.768   8.988 -1.2177  0.2061  1.0732
 3850SOL    HW223184   4.638   3.879   8.899  0.8508 -1.3728  0.9549
 3851SOL     OW23185   2.661   0.902   2.077  0.4526 -0.2564 -0.6802
 3851SOL    HW123186   2.576   0.896   2.034  0.0865 -0.4100  0.0731
 3851SOL    HW223187   2.709   0.920   1.996 -0.3559 -2.7133 -1.6885
 3852SOL     OW23188   2.629   1.177   5.946 -0.9210  0.8799 -0.3622
 3852SOL    HW123189   2.569   1.105   5.964  0.2638 -0.0072 -0.0128
 3852SOL    HW223190   2.664   1.136   5.867 -1.7693 -0.4036 -0.0775
 3853SOL     OW23191   4.707   0.161   5.321  0.2542  0.2737 -0.0635
 3853SOL    HW123192   4.680   0.234   5.265  1.9928  1.7529  1.0232
 3853SOL    HW223193   4.637   0.097   5.316  0.7558 -0.2687 -0.1358
 3854SOL     OW23194   0.976   1.361   2.294  0.6063 -0.6023 -0.0525
 3854SOL    HW123195   0.925   1.286   2.324  1.0498 -0.1527  1.7926
 3854SOL    HW223196   1.033   1.389   2.365 -1.2305  2.1275  0.3751
 3855SOL     OW23197   4.169   3.617   2.951 -0.8506 -0.5144 -0.3155
 3855SOL    HW123198   4.178   3.553   2.880 -1.7584 -0.9524 -0.0361
 3855SOL    HW223199   4.261   3.630   2.973 -1.7823  0.0251  3.2771
 3856SOL     OW23200   3.066   3.186   8.151 -0.3297 -0.1173  0.3560
 3856SOL    HW123201   3.063   3.151   8.241 -0.4855 -2.4826 -0.5656
 3856SOL    HW223202   3.005   3.129   8.105 -0.2724  0.4702 -0.4343
 3857SOL     OW23203   3.720   3.043   6.624 -0.0732 -0.1270  0.0548
 3857SOL    HW123204   3.688   2.960   6.659  1.0902 -0.2678  0.8054
 3857SOL    HW223205   3.788   3.016   6.561  0.9582 -0.1631  1.1805
 3858SOL     OW23206   1.525   1.405   2.082  0.0317 -0.4223  0.1469
 3858SOL    HW123207   1.537   1.318   2.043 -1.1889 -1.4424  2.0235
 3858SOL    HW223208   1.532   1.379   2.174 -1.8468 -0.0919  0.3863
 3859SOL     OW23209   0.579   0.710  16.052  0.0236  0.3754  0.2220
 3859SOL    HW123210   0.558   0.653  16.126 -2.2607  1.7869  0.6481
 3859SOL    HW223211   0.497   0.702  16.003  0.5866 -0.2351 -0.6251
 3860SOL     OW23212   3.761   1.531   3.862  0.1174 -0.2228 -0.4903
 3860SOL    HW123213   3.728   1.586   3.933 -0.6034 -1.2669 -0.0123
 3860SOL    HW223214   3.855   1.533   3.881  0.4864 -0.3196 -2.3595
 3861SOL     OW23215   1.455   1.999   6.061 -0.2531 -0.0151 -0.0917
 3861SOL    HW123216   1.423   2.058   6.129 -0.0432  2.0330 -1.7674
 3861SOL    HW223217   1.544   2.033   6.049  0.5935 -2.4980 -1.0293
 3862SOL     OW23218   2.217   3.181   9.818 -0.0629 -0.0574  0.1814
 3862SOL    HW123219   2.178   3.160   9.733  2.4053 -1.7361 -0.5223
 3862SOL    HW223220   2.268   3.261   9.807 -0.2118  0.1427  0.9578
 3863SOL     OW23221   0.434   3.773   7.818  0.3161  0.2960 -0.5228
 3863SOL    HW123222   0.429   3.793   7.911  1.9628 -1.3928 -0.0550
 3863SOL    HW223223   0.413   3.855   7.774 -0.6111  0.8290  0.9252
 3864SOL     OW23224   1.887   3.856   8.693 -0.5491  0.2797 -0.1520
 3864SOL    HW123225   1.818   3.840   8.757 -0.6435 -2.0112 -0.8339
 3864SOL    HW223226   1.922   3.769   8.676 -0.2208 -0.0249  2.1521
 3865SOL     OW23227   0.653   2.133   5.139  0.4984  0.1907  0.3687
 3865SOL    HW123228   0.696   2.080   5.071  0.6473  2.0475 -0.9999
 3865SOL    HW223229   0.731   2.179   5.169  0.6200 -0.4764  1.0676
 3866SOL     OW23230   2.944   3.612   5.494 -0.1869 -0.1143  0.1197
 3866SOL    HW123231   2.989   3.534   5.528  0.7162  0.2261 -0.2781
 3866SOL    HW223232   2.990   3.676   5.549 -0.9788 -0.2410  0.9341
 3867SOL     OW23233   2.042   2.129  12.179 -0.3888 -0.0851  0.3769
 3867SOL    HW123234   2.136   2.124  12.194 -0.4720  1.5727  1.3449
 3867SOL    HW223235   2.018   2.221  12.172  2.0583  0.6322  1.3821
 3868SOL     OW23236   2.971   3.350   4.163  0.0424  0.1229 -0.1307
 3868SOL    HW123237   2.921   3.290   4.107  1.4356  0.6700 -1.9798
 3868SOL    HW223238   3.036   3.385   4.101  1.1111 -2.2536 -0.3511
 3869SOL     OW23239   2.728   4.330   9.766  0.0761  0.4971  0.0000
 3869SOL    HW123240   2.653   4.337   9.707 -0.7463 -0.6469  0.8949
 3869SOL    HW223241   2.765   4.247   9.735 -0.9698 -0.2421  0.7316
 3870SOL     OW23242   3.745   2.387   3.925  0.2983 -0.3640 -0.3482
 3870SOL    HW123243   3.725   2.383   4.019  0.1861  0.6046 -0.3305
 3870SOL    HW223244   3.679   2.436   3.876  0.8453  0.1440 -0.5752
 3871SOL     OW23245   1.394   2.460  16.451  0.1917 -0.7153 -0.1629
 3871SOL    HW123246   1.460   2.457  16.520  0.0001 -0.8738  0.0141
 3871SOL    HW223247   1.312   2.479  16.496  0.0717  0.7567 -1.0040
 3872SOL     OW23248   1.873   2.517   4.596  0.3557  0.4669 -0.3279
 3872SOL    HW123249   1.785   2.483   4.612  0.0373  1.2421 -0.4639
 3872SOL    HW223250   1.868   2.561   4.511 -0.8286 -0.2460 -0.6243
 3873SOL     OW23251   3.300   2.431   8.528 -0.2496 -0.3206 -0.1343
 3873SOL    HW123252   3.218   2.441   8.575  0.0204  0.7970  0.1056
 3873SOL    HW223253   3.276   2.457   8.439  1.1614  1.6675  0.0455
 3874SOL     OW23254   0.307   4.670   6.250  0.0540  0.1825  0.1551
 3874SOL    HW123255   0.381   4.633   6.202 -0.6591  0.4102 -1.1050
 3874SOL    HW223256   0.302   4.608   6.323  1.6072 -0.4579 -0.2807
 3875SOL     OW23257   4.290   3.490   5.665 -0.0415  0.0310  0.2728
 3875SOL    HW123258   4.363   3.478   5.604  0.5723  0.4560  0.9147
 3875SOL    HW223259   4.231   3.421   5.634 -0.3399  0.2711  0.3052
 3876SOL     OW23260   3.317   3.484   7.484  0.2362 -0.3521 -0.8747
 3876SOL    HW123261   3.347   3.465   7.573 -2.2081  1.3170  0.2890
 3876SOL    HW223262   3.298   3.577   7.483  0.0659 -0.3755  1.3925
 3877SOL     OW23263   3.404   2.106   8.320  0.3789  0.0790 -0.6354
 3877SOL    HW123264   3.363   2.107   8.406 -2.7245  2.4381 -2.1878
 3877SOL    HW223265   3.489   2.063   8.332  0.9330  1.2921 -0.2071
 3878SOL     OW23266   4.125   3.867   8.081  0.0781 -0.4866 -0.3155
 3878SOL    HW123267   4.105   3.961   8.078 -1.1723 -0.7565 -0.6353
 3878SOL    HW223268   4.040   3.830   8.055  0.6309 -1.9840  0.0214
 3879SOL     OW23269   2.512   1.500   4.942  0.9014  0.2548 -0.3801
 3879SOL    HW123270   2.469   1.455   4.869  0.1812  0.3079  0.0122
 3879SOL    HW223271   2.555   1.566   4.889  1.9995  0.9375  1.3787
 3880SOL     OW23272   1.549   3.470   3.408 -0.3280 -0.2638  0.2196
 3880SOL    HW123273   1.603   3.524   3.465 -0.2660 -0.5277  0.4114
 3880SOL    HW223274   1.508   3.539   3.357  2.6246  2.5438  1.6717
 3881SOL     OW23275   3.392   0.547   3.861 -0.5348 -0.1742  0.5118
 3881SOL    HW123276   3.324   0.556   3.795 -0.1432 -0.1832  0.1040
 3881SOL    HW223277   3.370   0.623   3.914  0.6321  0.0836  0.6332
 3882SOL     OW23278   2.536   4.568   9.340  0.1122 -0.1488 -0.4486
 3882SOL    HW123279   2.549   4.608   9.426  1.4862  2.6305 -1.9623
 3882SOL    HW223280   2.626   4.565   9.308  1.0037  2.4188  1.8318
 3883SOL     OW23281   4.470   1.200   5.006 -0.1142  0.1797  0.0833
 3883SOL    HW123282   4.491   1.248   4.926  0.4012 -0.4110 -0.1402
 3883SOL    HW223283   4.440   1.269   5.066  1.7045  0.5238  0.6131
 3884SOL     OW23284   1.521   3.315  13.579  0.3868 -0.3340 -0.1098
 3884SOL    HW123285   1.562   3.286  13.660  1.3839  1.0774 -0.1172
 3884SOL    HW223286   1.459   3.245  13.559 -0.7752  0.5690  0.2975
 3885SOL     OW23287   4.259   0.874   6.790 -0.1535 -0.0726 -0.9657
 3885SOL    HW123288   4.250   0.936   6.717 -0.5546  1.1309  0.1133
 3885SOL    HW223289   4.249   0.785   6.755 -0.1207  0.3879 -2.1575
 3886SOL     OW23290   1.165   3.389   4.667 -0.2061 -0.7585  0.8383
 3886SOL    HW123291   1.162   3.474   4.623  0.4875 -0.9604  0.4037
 3886SOL    HW223292   1.256   3.391   4.696 -0.8692  0.3750  2.8791
 3887SOL     OW23293   1.018   0.170   3.553  0.3761  0.5353 -0.1343
 3887SOL    HW123294   1.042   0.235   3.488 -0.0268  1.9875  1.1716
 3887SOL    HW223295   0.938   0.139   3.511 -0.6171 -1.6743  3.3047
 3888SOL     OW23296   2.984   3.350   3.239 -0.2470  0.0472 -0.1326
 3888SOL    HW123297   2.946   3.416   3.297 -0.8916 -0.4330 -0.0111
 3888SOL    HW223298   3.021   3.401   3.167  2.0661 -1.4062  0.0290
 3889SOL     OW23299   0.748   2.526   3.294 -0.1634 -0.0026  0.4732
 3889SOL    HW123300   0.775   2.583   3.222  0.3856  0.1826  0.8185
 3889SOL    HW223301   0.726   2.442   3.254 -0.7365 -0.0832  0.9618
 3890SOL     OW23302   2.749   0.239   5.907  0.0259 -0.1772  0.6448
 3890SOL    HW123303   2.701   0.314   5.871  0.8835 -1.0870 -2.4667
 3890SOL    HW223304   2.768   0.273   5.994  0.6541  0.1111  0.3975
 3891SOL     OW23305   2.210   3.311   3.346  0.7366  0.6607 -0.4982
 3891SOL    HW123306   2.137   3.264   3.387  1.4695  1.9328  2.2997
 3891SOL    HW223307   2.281   3.246   3.345  1.2644  1.1880  1.2504
 3892SOL     OW23308   3.254   1.087   8.150  0.1347 -0.0847  0.1636
 3892SOL    HW123309   3.216   1.044   8.074 -0.1102 -1.6755  1.1813
 3892SOL    HW223310   3.237   1.179   8.130 -0.6476 -0.5123 -1.0806
 3893SOL     OW23311   2.287   2.556   8.073  0.2274  0.5576  0.6770
 3893SOL    HW123312   2.356   2.619   8.050  2.5360 -2.5533 -0.8890
 3893SOL    HW223313   2.268   2.595   8.159  2.7387  2.6481  0.2854
 3894SOL     OW23314   0.151   3.613  16.625 -0.0408  0.0692 -0.1866
 3894SOL    HW123315   0.193   3.666  16.693 -1.0141 -0.1102  0.5390
 3894SOL    HW223316   0.168   3.675  16.554  0.5932  1.5014  1.2044
 3895SOL     OW23317   1.038   3.280   9.827  0.0442 -0.3684 -0.0050
 3895SOL    HW123318   1.023   3.342   9.899  1.6286  0.9819 -0.8379
 3895SOL    HW223319   0.953   3.250   9.796 -0.3190  1.0482 -0.3604
 3896SOL     OW23320   3.000   0.554   5.882 -0.4885  0.0069 -0.2785
 3896SOL    HW123321   2.990   0.521   5.793  3.4613  1.3411 -1.2294
 3896SOL    HW223322   2.966   0.490   5.944 -0.2164 -1.0939 -1.2741
 3897SOL     OW23323   3.415   3.829   9.099  0.0229 -0.3231  0.2101
 3897SOL    HW123324   3.366   3.868   9.172  2.1491  0.3448  1.2726
 3897SOL    HW223325   3.366   3.749   9.081 -0.5763  1.1123 -4.3151
 3898SOL     OW23326   4.631   2.451   4.788 -0.4174  0.4499 -0.6905
 3898SOL    HW123327   4.679   2.489   4.714  0.8309 -0.3238 -0.2884
 3898SOL    HW223328   4.698   2.455   4.856 -1.3367  1.1321  0.1763
 3899SOL     OW23329   3.542   1.672   5.202 -0.2613  0.1503 -0.0553
 3899SOL    HW123330   3.557   1.602   5.266  1.5052 -1.0202 -1.7558
 3899SOL    HW223331   3.547   1.622   5.121  3.3912 -0.3313  0.4431
 3900SOL     OW23332   3.231   3.522   1.277  0.1570 -0.1042 -0.2621
 3900SOL    HW123333   3.262   3.577   1.206  1.5519  2.6487  2.5190
 3900SOL    HW223334   3.300   3.517   1.343 -0.6869 -1.3034  0.5276
 3901SOL     OW23335   2.325   4.297   3.517  0.6696  0.5511 -0.3549
 3901SOL    HW123336   2.372   4.249   3.448 -0.6071 -1.6483  0.3202
 3901SOL    HW223337   2.235   4.283   3.489  0.5700 -0.5771  0.5204
 3902SOL     OW23338   4.549   1.003   3.976 -0.1023 -0.0742  0.5786
 3902SOL    HW123339   4.627   1.023   3.925  0.1604 -2.1885  0.1814
 3902SOL    HW223340   4.482   1.043   3.921  2.2127  1.1057 -1.3769
 3903SOL     OW23341   4.497   3.585   2.271 -0.2812  0.2203 -0.2332
 3903SOL    HW123342   4.560   3.641   2.316  0.1827  0.9367 -1.7851
 3903SOL    HW223343   4.550   3.531   2.213  0.3320  0.9361 -0.3366
 3904SOL     OW23344   4.588   0.753  13.504 -0.1127 -0.3982  0.1038
 3904SOL    HW123345   4.591   0.841  13.465 -2.0792 -1.1170 -1.6944
 3904SOL    HW223346   4.495   0.741  13.526 -1.2225  3.5173 -2.2596
 3905SOL     OW23347   2.705   3.297   4.436  0.6462  0.7276  0.0350
 3905SOL    HW123348   2.660   3.256   4.362  0.5276 -0.7194  0.9034
 3905SOL    HW223349   2.666   3.385   4.439  0.2672  0.5956 -1.0536
 3906SOL     OW23350   1.099   1.555   0.181  0.5749  0.0439  0.3512
 3906SOL    HW123351   1.125   1.528   0.093  0.0276 -2.4029  0.9396
 3906SOL    HW223352   1.072   1.469   0.213  1.3430 -0.1140  0.5721
 3907SOL     OW23353   2.991   0.779   5.040  0.7463  0.0318  0.4904
 3907SOL    HW123354   3.007   0.690   5.071  1.3719  0.0255  0.1520
 3907SOL    HW223355   2.895   0.785   5.034  0.5683 -1.1257  2.0593
 3908SOL     OW23356   2.764   4.175   1.814 -0.0061  0.0394  0.1768
 3908SOL    HW123357   2.787   4.264   1.840 -2.1081  0.5351  0.3718
 3908SOL    HW223358   2.676   4.176   1.851  0.5031  1.0804  1.3625
 3909SOL     OW23359   4.266   4.463   7.249 -0.0767 -0.1753 -0.0926
 3909SOL    HW123360   4.322   4.442   7.323  0.7120 -0.5050 -0.7917
 3909SOL    HW223361   4.218   4.539   7.283 -0.8111  0.1523 -1.8020
 3910SOL     OW23362   4.116   0.367  12.907 -0.2000  0.1787  0.8002
 3910SOL    HW123363   4.080   0.278  12.906  0.5670 -0.1245  0.5354
 3910SOL    HW223364   4.118   0.369  13.003  0.1851  1.3085  0.7680
 3911SOL     OW23365   1.267   2.984   3.141  0.0729  0.0825  0.4267
 3911SOL    HW123366   1.246   2.891   3.128  3.4494 -0.6073 -0.1898
 3911SOL    HW223367   1.194   3.026   3.186 -0.1254  2.0623 -1.7398
 3912SOL     OW23368   1.902   3.254   1.180 -0.4172 -0.4147  0.4839
 3912SOL    HW123369   1.858   3.173   1.154  0.4219 -1.0991  1.1864
 3912SOL    HW223370   1.985   3.244   1.134 -0.8502 -2.4545  0.1501
 3913SOL     OW23371   2.310   4.282   7.177 -0.1039  0.3001 -0.6123
 3913SOL    HW123372   2.291   4.332   7.256  2.5724  0.7047 -0.2272
 3913SOL    HW223373   2.234   4.310   7.126  1.3592  1.7134 -2.0343
 3914SOL     OW23374   2.013   2.872   1.027  0.2282 -0.2461  0.5177
 3914SOL    HW123375   2.063   2.904   0.952  1.8999 -0.2929  1.6276
 3914SOL    HW223376   2.057   2.912   1.102  1.6798  0.4407 -0.6940
 3915SOL     OW23377   2.400   1.989   3.187 -0.8492  0.4081  0.4618
 3915SOL    HW123378   2.325   2.006   3.244 -0.6959  1.4633  0.3476
 3915SOL    HW223379   2.416   1.897   3.206  1.0118  0.3563 -1.3513
 3916SOL     OW23380   0.192   4.057  10.524  0.1042 -0.3415 -0.3143
 3916SOL    HW123381   0.172   4.143  10.486 -1.0524 -0.8766 -0.9041
 3916SOL    HW223382   0.149   4.001  10.460 -2.1125 -1.4921  2.1982
 3917SOL     OW23383   2.085   0.468   9.122  0.1721 -0.1832  0.3687
 3917SOL    HW123384   2.124   0.384   9.098 -1.7750 -1.2741  1.0101
 3917SOL    HW223385   2.003   0.446   9.077  0.4827 -2.3037  0.8464
 3918SOL     OW23386   4.603   0.157   1.831 -0.3966 -0.0907 -0.0347
 3918SOL    HW123387   4.542   0.208   1.777 -1.8985  0.2466  1.9719
 3918SOL    HW223388   4.679   0.216   1.827 -0.3603 -0.1697 -0.4440
 3919SOL     OW23389   0.092   4.079  14.802  0.1460 -0.1240  0.0139
 3919SOL    HW123390   0.041   4.141  14.749  0.6163 -0.9936 -1.4453
 3919SOL    HW223391   0.034   4.003  14.812 -0.3403  0.4402  1.5286
 3920SOL     OW23392   0.117   2.573   4.691 -0.1302 -0.4064  0.2077
 3920SOL    HW123393   0.209   2.580   4.718  0.5121  1.6499 -2.4652
 3920SOL    HW223394   0.099   2.654   4.643  0.6524  0.6022  1.6132
 3921SOL     OW23395   4.491   3.486   7.018 -0.1225  0.5699 -0.6313
 3921SOL    HW123396   4.482   3.479   6.923  0.2548 -3.9516 -0.3145
 3921SOL    HW223397   4.467   3.577   7.035 -0.4243  0.3926 -0.1299
 3922SOL     OW23398   4.569   3.264   3.949 -0.2196 -0.4726 -0.0215
 3922SOL    HW123399   4.628   3.280   4.022  0.2861 -0.1376 -0.5025
 3922SOL    HW223400   4.495   3.318   3.975  1.7159  1.6814  1.0165
 3923SOL     OW23401   1.090   1.380   7.624  0.3009 -0.0049 -0.6535
 3923SOL    HW123402   1.125   1.420   7.544 -0.0542 -1.3294 -1.4832
 3923SOL    HW223403   1.041   1.305   7.590  0.8585 -0.8714  0.4378
 3924SOL     OW23404   4.288   0.251   2.471  0.0020  0.3849  0.6550
 3924SOL    HW123405   4.232   0.189   2.518  0.9292  0.1018  1.3732
 3924SOL    HW223406   4.219   0.277   2.409  0.9084 -1.7516 -1.2725
 3925SOL     OW23407   1.143   2.371   9.008 -0.3393 -0.1026 -0.0784
 3925SOL    HW123408   1.071   2.315   8.979 -0.9027  2.1184 -2.9595
 3925SOL    HW223409   1.109   2.461   9.010 -0.7114 -0.2529  0.3440
 3926SOL     OW23410   3.734   0.196   5.388 -0.1030 -0.0919 -0.5836
 3926SOL    HW123411   3.784   0.142   5.449 -1.3234 -0.7408 -0.1789
 3926SOL    HW223412   3.796   0.194   5.314 -1.4276  0.3967 -1.6995
 3927SOL     OW23413   2.013   1.096  17.139 -0.1621  0.2481  0.2658
 3927SOL    HW123414   2.023   1.123  17.230 -2.2449  0.2743  0.4851
 3927SOL    HW223415   2.092   1.045  17.121  0.1061  1.4038 -1.8954
 3928SOL     OW23416   1.173   4.291   6.156 -0.0648 -0.1537  0.5358
 3928SOL    HW123417   1.195   4.263   6.067 -1.1630 -2.3950  0.9760
 3928SOL    HW223418   1.093   4.242   6.176 -1.2092  0.9572 -1.3599
 3929SOL     OW23419   0.859   3.917   2.064  0.0208  0.0361 -0.1531
 3929SOL    HW123420   0.770   3.948   2.081 -0.3154 -2.0105  1.7321
 3929SOL    HW223421   0.834   3.836   2.020 -3.2977  1.1204 -0.2964
 3930SOL     OW23422   2.683   4.480   1.387  0.5099  0.0330 -0.0392
 3930SOL    HW123423   2.663   4.534   1.311 -0.1020 -1.1634 -0.7307
 3930SOL    HW223424   2.638   4.398   1.367 -0.0602  0.3713 -0.1433
 3931SOL     OW23425   0.196   3.806   7.111  0.4882 -0.2596  0.4182
 3931SOL    HW123426   0.195   3.901   7.114  2.6363 -0.2910  1.8029
 3931SOL    HW223427   0.132   3.778   7.177  0.4213 -0.7483  0.1526
 3932SOL     OW23428   0.101   1.358   1.621  0.3116  0.0575  0.1701
 3932SOL    HW123429   0.025   1.301   1.633 -0.9752  1.9059  0.8886
 3932SOL    HW223430   0.062   1.439   1.654  0.9568  0.0512  0.9557
 3933SOL     OW23431   4.704   3.530   2.030 -0.3778  0.6008 -0.2831
 3933SOL    HW123432   0.015   3.500   1.953  1.2762  1.4274  0.4188
 3933SOL    HW223433   4.692   3.624   2.015  0.0479  0.2759 -2.5825
 3934SOL     OW23434   1.549   0.509   7.761 -0.2974  0.0629 -0.5919
 3934SOL    HW123435   1.569   0.553   7.844 -1.2325 -2.8080  1.1847
 3934SOL    HW223436   1.507   0.588   7.728 -0.4087 -0.0095 -0.6270
 3935SOL     OW23437   3.091   0.249   6.466 -0.2947 -0.2496 -0.2681
 3935SOL    HW123438   3.104   0.313   6.396 -1.5005  0.5674  0.2651
 3935SOL    HW223439   3.178   0.209   6.462  0.3226  1.0523  0.1082
 3936SOL     OW23440   3.226   2.092   4.897  0.5156  0.3500 -0.2548
 3936SOL    HW123441   3.171   2.136   4.961  0.1451 -1.1170  0.4492
 3936SOL    HW223442   3.195   2.147   4.825 -1.0956 -1.8041 -1.2114
 3937SOL     OW23443   0.027   2.681  13.049 -0.3421 -0.5756 -0.6465
 3937SOL    HW123444   0.098   2.675  13.113 -0.6057 -1.8161 -0.4718
 3937SOL    HW223445   4.690   2.675  13.111  0.7746 -0.5302  0.6872
 3938SOL     OW23446   1.114   0.962   2.180  0.6303 -0.3594  0.2319
 3938SOL    HW123447   1.169   1.040   2.167  0.8919 -0.5161  0.3880
 3938SOL    HW223448   1.032   0.991   2.140 -0.2687 -2.7622  0.3336
 3939SOL     OW23449   4.245   4.068  15.482 -0.3178 -0.4964  0.1943
 3939SOL    HW123450   4.271   4.047  15.392 -2.4700  0.7516 -0.7024
 3939SOL    HW223451   4.312   4.134  15.503 -2.9250  2.2648 -0.0842
 3940SOL     OW23452   3.830   1.373   6.585  0.0208  0.3871  0.3329
 3940SOL    HW123453   3.772   1.325   6.526  0.2422  0.7149 -0.1526
 3940SOL    HW223454   3.829   1.458   6.543  0.3921  0.9787  1.5163
 3941SOL     OW23455   3.690   1.021   0.038  0.1157  0.5090 -0.0068
 3941SOL    HW123456   3.634   0.992  17.711  1.2033 -1.3529 -0.1019
 3941SOL    HW223457   3.617   1.016   0.100 -0.0369 -3.9997 -0.5419
 3942SOL     OW23458   1.574   2.695   8.622  0.7114  0.0441  0.1407
 3942SOL    HW123459   1.593   2.607   8.654 -1.5122 -0.8822 -1.0610
 3942SOL    HW223460   1.484   2.694   8.655 -0.0206  1.3351 -1.7784
 3943SOL     OW23461   3.017   2.602  12.169 -0.4974  0.0314 -0.2612
 3943SOL    HW123462   3.100   2.590  12.123  0.1951 -0.4453  1.1170
 3943SOL    HW223463   3.050   2.647  12.247 -4.1651  2.4269 -0.0938
 3944SOL     OW23464   3.491   1.880  11.543  0.0130 -0.4936 -0.5843
 3944SOL    HW123465   3.538   1.824  11.605 -1.3187 -2.0497 -0.9921
 3944SOL    HW223466   3.432   1.816  11.502 -0.7010  0.7873 -1.5442
 3945SOL     OW23467   2.727   0.571   9.932  0.3013 -1.1090  0.1004
 3945SOL    HW123468   2.750   0.637   9.866 -0.8274 -1.0003 -0.1906
 3945SOL    HW223469   2.771   0.605  10.010 -0.8686 -0.6125  0.5450
 3946SOL     OW23470   1.602   2.275   5.038 -0.6642 -1.0502  0.0953
 3946SOL    HW123471   1.538   2.270   4.967 -1.4647  0.3334  0.7387
 3946SOL    HW223472   1.616   2.180   5.041  1.8219 -0.6013  2.9470
 3947SOL     OW23473   2.593   2.754   7.741 -0.1398 -0.0970  0.3212
 3947SOL    HW123474   2.659   2.810   7.700 -1.1414 -0.1583 -1.3903
 3947SOL    HW223475   2.653   2.684   7.766  0.0862  0.4246  1.2709
 3948SOL     OW23476   2.347   3.735   8.089 -0.1865 -0.2097  0.0922
 3948SOL    HW123477   2.252   3.748   8.094 -0.1133  0.0935  0.6729
 3948SOL    HW223478   2.344   3.648   8.047 -0.2668  1.8866 -4.2381
 3949SOL     OW23479   4.597   1.129   3.582  0.1059 -0.5564  0.1041
 3949SOL    HW123480   4.510   1.134   3.621 -0.6829  0.4464 -1.7602
 3949SOL    HW223481   4.594   1.035   3.562  0.2240 -0.4005 -0.6585
 3950SOL     OW23482   3.141   3.818   1.725  0.5647 -0.5661  0.0271
 3950SOL    HW123483   3.117   3.794   1.635  3.5159 -0.0110 -0.9004
 3950SOL    HW223484   3.236   3.807   1.725  0.7528  1.0824 -1.6227
 3951SOL     OW23485   4.199   0.434   2.172 -0.4130 -0.4077 -0.0530
 3951SOL    HW123486   4.241   0.398   2.093 -1.5878 -3.2676  0.6088
 3951SOL    HW223487   4.106   0.437   2.147 -0.5192  0.1428  0.4098
 3952SOL     OW23488   4.654   3.259  11.110  0.4377  0.2628  0.0204
 3952SOL    HW123489   4.701   3.237  11.190 -2.1672 -0.9716  1.2162
 3952SOL    HW223490   4.622   3.346  11.133 -2.0982 -0.1598 -1.8734
 3953SOL     OW23491   2.148   1.543  12.873 -0.2701 -0.0251 -0.0277
 3953SOL    HW123492   2.173   1.503  12.956  0.2600 -1.4862 -0.8967
 3953SOL    HW223493   2.214   1.611  12.889 -0.4257  0.1288 -0.0411
 3954SOL     OW23494   3.475   0.650   6.687  0.1776 -1.0084 -0.4315
 3954SOL    HW123495   3.418   0.726   6.688  2.6457  0.7989  1.0166
 3954SOL    HW223496   3.421   0.580   6.725  0.4554  0.4541  2.6268
 3955SOL     OW23497   1.648   1.133   1.431 -0.2984  0.1701  0.0218
 3955SOL    HW123498   1.556   1.108   1.436 -0.7236  1.8371  0.3206
 3955SOL    HW223499   1.657   1.193   1.357 -0.3830 -0.8710 -0.8458
 3956SOL     OW23500   0.631   4.087   4.459  0.1899 -0.5434 -0.6392
 3956SOL    HW123501   0.615   4.091   4.554  0.9580  0.3707 -0.5578
 3956SOL    HW223502   0.549   4.113   4.418  0.8410 -0.3866 -1.8174
 3957SOL     OW23503   4.132   0.107   6.730  0.4863  0.7145 -0.1285
 3957SOL    HW123504   4.127   0.059   6.813 -2.0879 -0.8229 -1.1940
 3957SOL    HW223505   4.082   0.052   6.670 -2.1730  0.3339  2.4505
 3958SOL     OW23506   2.069   3.730   8.115  0.3284 -0.2770  0.1582
 3958SOL    HW123507   2.022   3.727   8.199  1.2571 -1.6348  0.6278
 3958SOL    HW223508   2.018   3.669   8.062 -1.2856 -0.8309  2.3609
 3959SOL     OW23509   0.377   3.953   4.374 -0.2895  0.0599 -0.0028
 3959SOL    HW123510   0.457   3.927   4.419  0.5195  0.2502 -1.3533
 3959SOL    HW223511   0.396   3.911   4.290 -0.2714 -1.3433  0.6990
 3960SOL     OW23512   3.238   1.219   1.986 -0.0844 -0.4997  0.7220
 3960SOL    HW123513   3.219   1.282   2.056  2.8340  0.2044  0.9078
 3960SOL    HW223514   3.148   1.189   1.972  0.2309 -1.1720  0.1309
 3961SOL     OW23515   1.327   0.412  15.921 -0.5506  0.2660  0.5695
 3961SOL    HW123516   1.244   0.446  15.891 -1.4711 -1.1065  1.5517
 3961SOL    HW223517   1.387   0.482  15.895 -0.3276 -0.6826 -1.4801
 3962SOL     OW23518   2.666   3.397   3.319 -0.5151 -0.0019 -0.1876
 3962SOL    HW123519   2.708   3.339   3.383 -0.2306 -0.7819 -1.0733
 3962SOL    HW223520   2.618   3.461   3.371 -1.5341 -0.7452 -0.1942
 3963SOL     OW23521   2.660   2.799  17.590  0.7179 -0.8977 -0.1031
 3963SOL    HW123522   2.606   2.872  17.561  0.5647 -0.5888  0.9879
 3963SOL    HW223523   2.634   2.783  17.680  2.1153  2.0629  0.8296
 3964SOL     OW23524   3.422   4.209  11.597 -0.2920  0.0781 -0.2460
 3964SOL    HW123525   3.421   4.238  11.688  0.1446 -0.6062 -0.0190
 3964SOL    HW223526   3.329   4.206  11.578 -0.3830  3.2092 -0.2666
 3965SOL     OW23527   3.926   2.522  15.824  0.3109 -0.1744  0.3091
 3965SOL    HW123528   3.917   2.428  15.814 -0.2330 -0.0716 -0.2076
 3965SOL    HW223529   3.844   2.535  15.873  0.3818 -2.1511  0.9557
 3966SOL     OW23530   0.336   1.672   0.691  0.4515  0.7667  0.1836
 3966SOL    HW123531   0.412   1.729   0.699 -0.5677  2.0252  0.8471
 3966SOL    HW223532   0.278   1.745   0.670  1.1369  0.9856 -0.9856
 3967SOL     OW23533   1.829   2.648   8.305  0.6582 -0.2130 -0.7257
 3967SOL    HW123534   1.889   2.589   8.260  0.3539 -0.2954 -1.0212
 3967SOL    HW223535   1.891   2.720   8.315 -0.6918  0.7627  0.6077
 3968SOL     OW23536   0.913   4.337   7.765  0.6786 -0.1017 -0.0912
 3968SOL    HW123537   0.931   4.249   7.796  0.4371  0.5339  1.8388
 3968SOL    HW223538   0.981   4.346   7.699  2.4010  2.0625  1.9676
 3969SOL     OW23539   0.588   4.657   6.547  0.0238  0.3310 -0.0675
 3969SOL    HW123540   0.618   4.719   6.480 -1.5448 -0.0656 -1.1342
 3969SOL    HW223541   0.674   4.636   6.584  0.4301  2.3875  0.1413
 3970SOL     OW23542   3.368   3.689   4.934 -0.3341 -0.6203  0.7919
 3970SOL    HW123543   3.448   3.636   4.934  0.6502  0.8728  1.6604
 3970SOL    HW223544   3.396   3.757   4.873  1.2810 -0.0700  2.1229
 3971SOL     OW23545   4.378   3.116  11.528  0.2499  0.3917 -0.0405
 3971SOL    HW123546   4.426   3.199  11.529 -0.0680  0.5895 -3.0464
 3971SOL    HW223547   4.427   3.069  11.596 -0.0241 -2.3622 -1.7658
 3972SOL     OW23548   4.542   2.286  17.683 -0.7290  0.6110 -0.1165
 3972SOL    HW123549   4.525   2.280  17.589  2.5643  1.0010 -0.7411
 3972SOL    HW223550   4.577   2.200  17.707  0.2092  1.1043  0.3302
 3973SOL     OW23551   1.383   4.550  17.385  0.0522 -0.0894  0.5449
 3973SOL    HW123552   1.339   4.619  17.336 -1.6546 -1.8925 -0.4000
 3973SOL    HW223553   1.305   4.524  17.434 -1.1900  0.2892 -1.2480
 3974SOL     OW23554   1.015   0.432   2.827  0.2289 -0.0682 -0.0112
 3974SOL    HW123555   0.986   0.341   2.835  3.1671 -1.2211 -2.2712
 3974SOL    HW223556   0.964   0.464   2.752 -0.0920 -0.3800  0.0728
 3975SOL     OW23557   1.449   2.271   5.850  0.1145  0.0408  0.3746
 3975SOL    HW123558   1.397   2.215   5.792 -0.2349 -1.0981  1.7958
 3975SOL    HW223559   1.525   2.308   5.806 -0.9213  2.7789  0.8826
 3976SOL     OW23560   0.397   1.050  10.045 -0.3995 -0.3662  0.1304
 3976SOL    HW123561   0.356   0.975  10.002 -1.6008  0.3341  0.0273
 3976SOL    HW223562   0.322   1.096  10.083  1.0257  3.0684 -1.2912
 3977SOL     OW23563   1.354   1.814   1.956 -0.1442  0.2929  0.0990
 3977SOL    HW123564   1.421   1.760   1.996 -1.2663 -1.7002 -0.7192
 3977SOL    HW223565   1.302   1.849   2.028  1.4297  1.7456  0.5347
 3978SOL     OW23566   3.692   2.248   3.149  0.2835 -0.2912 -0.7009
 3978SOL    HW123567   3.704   2.342   3.137  1.4751 -0.6779 -2.4764
 3978SOL    HW223568   3.769   2.216   3.102  1.5491  1.8700 -0.0729
 3979SOL     OW23569   0.228   1.706   6.043 -0.8547 -0.1969  0.4215
 3979SOL    HW123570   0.215   1.612   6.053 -1.3663  0.0531  2.1248
 3979SOL    HW223571   0.148   1.731   5.996  0.3695 -1.1505 -2.1406
 3980SOL     OW23572   1.671   0.916   5.917  0.0647  0.0339  0.1738
 3980SOL    HW123573   1.667   0.977   5.843  1.5997  1.5682  1.3763
 3980SOL    HW223574   1.738   0.953   5.974 -0.9088  0.6383  0.9102
 3981SOL     OW23575   3.574   3.365   3.552 -0.4826  0.3215  0.3665
 3981SOL    HW123576   3.649   3.358   3.493  0.7949  2.0405  1.8184
 3981SOL    HW223577   3.542   3.275   3.554  0.2575  0.0269 -0.6986
 3982SOL     OW23578   0.193   1.430   6.094 -0.1551  0.1235 -0.3853
 3982SOL    HW123579   0.245   1.398   6.168  0.3500  1.5923 -0.1079
 3982SOL    HW223580   0.114   1.425   6.148 -1.0597 -2.5462 -1.9743
 3983SOL     OW23581   2.419   1.106   2.905 -0.4217 -0.0507  0.0874
 3983SOL    HW123582   2.432   1.065   2.991 -0.2589  1.3007  0.6999
 3983SOL    HW223583   2.339   1.157   2.912 -0.3683  0.3142 -1.8844
 3984SOL     OW23584   3.906   4.325   7.563 -0.0973  0.0508  0.5318
 3984SOL    HW123585   3.854   4.249   7.592  1.0594 -0.6397  0.7910
 3984SOL    HW223586   3.878   4.398   7.617 -1.5349 -0.0894  0.0072
 3985SOL     OW23587   1.879   0.040   6.654  0.3280 -0.5423  0.2125
 3985SOL    HW123588   1.854   0.079   6.571 -0.2735 -0.3674  0.4779
 3985SOL    HW223589   1.799   0.075   6.694  0.6960 -1.1239  1.4821
 3986SOL     OW23590   0.808   3.060   4.777 -0.5576 -0.5142 -0.1251
 3986SOL    HW123591   0.900   3.066   4.800 -0.9235 -1.3869  1.5534
 3986SOL    HW223592   0.805   3.121   4.703 -2.2366  1.2839  1.4392
 3987SOL     OW23593   1.703   4.219   2.437 -0.1588  0.4537  0.7127
 3987SOL    HW123594   1.643   4.155   2.400 -0.1764 -0.4774  2.3635
 3987SOL    HW223595   1.707   4.216   2.532  1.1101  0.3239  0.6639
 3988SOL     OW23596   0.972   0.841   9.531 -0.1909  0.0155 -0.3438
 3988SOL    HW123597   0.991   0.802   9.616 -0.6003  0.9841  0.1927
 3988SOL    HW223598   0.890   0.889   9.543  0.7595  0.9496  2.3055
 3989SOL     OW23599   3.130   3.962   7.814  0.1375 -0.5567 -0.4970
 3989SOL    HW123600   3.224   3.964   7.793  0.0810 -0.9924 -0.7921
 3989SOL    HW223601   3.097   4.035   7.761  1.2079 -0.0317 -0.4381
 3990SOL     OW23602   1.335   3.541   1.486 -0.4950  0.6474 -0.1797
 3990SOL    HW123603   1.349   3.565   1.578  0.2654  2.5613 -0.7915
 3990SOL    HW223604   1.415   3.490   1.469 -0.3300  0.8176  0.0845
 3991SOL     OW23605   4.524   1.310   6.466  0.1214  0.2507 -0.1383
 3991SOL    HW123606   4.564   1.352   6.542  0.2042 -0.6970  0.3354
 3991SOL    HW223607   4.587   1.242   6.441  1.1341  1.1208  0.0189
 3992SOL     OW23608   3.347   2.361   7.883 -0.1858 -0.3050 -0.3731
 3992SOL    HW123609   3.264   2.401   7.911  0.4167  1.9222 -1.7042
 3992SOL    HW223610   3.368   2.403   7.799  1.0224 -1.0490 -0.4315
 3993SOL     OW23611   3.669   0.284   9.878 -0.1162  0.3734 -0.5283
 3993SOL    HW123612   3.604   0.352   9.861  0.2491  0.9254  0.2884
 3993SOL    HW223613   3.687   0.258   9.788  1.3275  0.9902 -0.4201
 3994SOL     OW23614   0.369   3.667  12.318 -0.3068  0.8134 -0.2911
 3994SOL    HW123615   0.429   3.698  12.386 -0.0604  1.5831 -0.8621
 3994SOL    HW223616   0.435   3.615  12.272  0.0797  0.5635  0.5457
 3995SOL     OW23617   4.444   2.311   8.352  0.1344  0.3124 -0.1486
 3995SOL    HW123618   4.491   2.368   8.291  0.7467  1.3952  1.3556
 3995SOL    HW223619   4.362   2.289   8.308 -1.0313 -1.0379  2.7218
 3996SOL     OW23620   0.202   1.599   6.755 -0.3522 -0.3579 -0.0560
 3996SOL    HW123621   0.216   1.671   6.816  1.0398  0.5680 -1.4850
 3996SOL    HW223622   0.228   1.534   6.820  1.1100 -1.7537 -2.0340
 3997SOL     OW23623   0.042   2.698   4.057  0.1205  0.0390 -0.5305
 3997SOL    HW123624   0.048   2.723   3.965 -3.3690 -2.3190 -1.3656
 3997SOL    HW223625   4.685   2.684   4.069  0.1607  0.1348 -0.0804
 3998SOL     OW23626   4.491   4.681   5.296  0.3737  0.2226 -0.2410
 3998SOL    HW123627   4.471   4.650   5.385  1.3149 -0.8472 -0.3950
 3998SOL    HW223628   4.403   4.707   5.269  0.2714 -0.0320 -0.1543
 3999SOL     OW23629   4.434   3.737  17.284  0.7448 -0.0745 -0.6640
 3999SOL    HW123630   4.434   3.818  17.232  0.9126  0.5595  0.3064
 3999SOL    HW223631   4.518   3.701  17.259 -0.0208 -2.2191 -0.1172
 4000SOL     OW23632   2.930   0.235   2.901  0.0125 -0.6255  0.1043
 4000SOL    HW123633   2.929   0.315   2.954  1.1183 -0.7786  0.3540
 4000SOL    HW223634   2.986   0.178   2.955  0.5758  0.6945  0.8982
 4001SOL     OW23635   3.068   4.505   4.697  0.2791 -0.6940 -0.4431
 4001SOL    HW123636   2.996   4.562   4.724  1.7685  1.2320 -0.5475
 4001SOL    HW223637   3.064   4.435   4.761  1.4868 -0.7212 -0.4066
 4002SOL     OW23638   4.442   1.626   1.275 -0.3199  0.1850 -0.4698
 4002SOL    HW123639   4.449   1.565   1.202  1.2655 -0.9533  0.6315
 4002SOL    HW223640   4.432   1.703   1.219  0.0805  0.8801  0.3969
 4003SOL     OW23641   0.803   2.647   6.021  0.1439 -0.3818  0.5014
 4003SOL    HW123642   0.829   2.603   6.102 -1.8776  0.5091  1.6345
 4003SOL    HW223643   0.756   2.719   6.064  1.0427  0.8105 -0.5081
 4004SOL     OW23644   0.326   1.181  14.474  0.2663 -0.8423  0.1011
 4004SOL    HW123645   0.392   1.179  14.544  1.1239  1.8413 -0.6511
 4004SOL    HW223646   0.382   1.217  14.406 -1.7976  1.8306 -0.1995
 4005SOL     OW23647   3.780   3.752   8.258  0.8573 -0.4959 -0.3047
 4005SOL    HW123648   3.833   3.796   8.325 -0.4965  0.9923 -0.2244
 4005SOL    HW223649   3.840   3.689   8.218  1.8150  2.1386 -3.0461
 4006SOL     OW23650   0.982   2.091   7.440 -0.0025  0.3058  0.2277
 4006SOL    HW123651   1.019   2.040   7.513 -0.0973 -0.2272 -0.0940
 4006SOL    HW223652   0.897   2.048   7.428  0.4741 -0.1431 -1.4920
 4007SOL     OW23653   1.932   3.968   9.763 -0.3752 -0.1473  0.6671
 4007SOL    HW123654   1.981   3.895   9.801  0.5355 -0.2793 -0.7719
 4007SOL    HW223655   1.844   3.935   9.780 -0.8670  1.1907  0.7464
 4008SOL     OW23656   1.499   1.577  13.583  0.9829 -0.1762 -0.8191
 4008SOL    HW123657   1.472   1.659  13.542 -2.3849 -0.6060  0.5276
 4008SOL    HW223658   1.571   1.616  13.633 -0.1546  2.5177 -1.2502
 4009SOL     OW23659   4.649   2.619   2.925  0.1455 -0.1183  0.4220
 4009SOL    HW123660   4.685   2.687   2.868  3.5350 -0.6406  1.9425
 4009SOL    HW223661   4.719   2.591   2.984  1.6304  1.4396 -0.5904
 4010SOL     OW23662   0.830   0.229   5.257  1.1531 -0.0305  0.0090
 4010SOL    HW123663   0.854   0.322   5.256 -1.3722  0.6293 -0.1378
 4010SOL    HW223664   0.850   0.204   5.348 -0.9198  1.4491  0.8869
 4011SOL     OW23665   1.149   2.303  16.352 -0.2788  0.0004  1.1071
 4011SOL    HW123666   1.231   2.349  16.336 -0.0222 -1.6911 -2.6205
 4011SOL    HW223667   1.162   2.230  16.292  2.2393  0.8197  0.6502
 4012SOL     OW23668   1.114   1.133   9.731  0.1969 -0.1163 -0.2631
 4012SOL    HW123669   1.143   1.171   9.648  0.8892 -1.7639 -0.7831
 4012SOL    HW223670   1.178   1.066   9.756 -0.7506 -1.4296 -1.3161
 4013SOL     OW23671   4.595   0.963  14.653 -0.0408 -0.1621  0.7717
 4013SOL    HW123672   4.638   0.942  14.570  0.1713 -0.1700  0.8839
 4013SOL    HW223673   4.667   0.989  14.709  0.1803  0.4644  0.1979
 4014SOL     OW23674   3.392   1.164   6.901 -0.1187 -0.1679  0.1130
 4014SOL    HW123675   3.337   1.195   6.973  1.5121  1.8652  0.4589
 4014SOL    HW223676   3.455   1.236   6.893  1.4340 -1.5026  0.3622
 4015SOL     OW23677   0.073   2.092  12.483 -0.2965 -0.9612 -0.2073
 4015SOL    HW123678   0.067   2.027  12.552  2.2906  0.8609  1.7494
 4015SOL    HW223679   0.063   2.167  12.542 -2.0118 -2.7810  1.8137
 4016SOL     OW23680   2.688   4.671   4.347  0.0745  0.3318  0.2631
 4016SOL    HW123681   2.661   4.583   4.371  0.8981 -0.0769 -0.3037
 4016SOL    HW223682   2.600   4.706   4.329  0.0838 -1.0245 -2.5556
 4017SOL     OW23683   1.432   3.728   3.253  0.0198  0.2904  0.3819
 4017SOL    HW123684   1.503   3.744   3.191  0.0347 -2.2333 -0.2738
 4017SOL    HW223685   1.411   3.814   3.291 -0.1853  0.4942 -0.2058
 4018SOL     OW23686   2.994   3.710   9.150  0.0490  0.0179 -0.2627
 4018SOL    HW123687   2.968   3.698   9.242  0.1017  0.1921 -0.2235
 4018SOL    HW223688   2.986   3.806   9.149  0.8952  0.0397 -3.6236
 4019SOL     OW23689   4.733   0.285   9.383  0.2609 -0.5400  0.6077
 4019SOL    HW123690   0.004   0.202   9.430  0.5959  0.4798  2.3563
 4019SOL    HW223691   4.694   0.352   9.438  1.1917 -0.9267  1.7227
 4020SOL     OW23692   3.137   1.848  16.734  0.0669 -0.3078 -0.2128
 4020SOL    HW123693   3.062   1.844  16.793  0.4070 -1.3527  0.1444
 4020SOL    HW223694   3.101   1.785  16.673 -0.3866 -3.6437  3.5237
 4021SOL     OW23695   0.665   1.345   7.440  0.0537 -0.2035  0.2859
 4021SOL    HW123696   0.672   1.259   7.400  0.8152  0.5020 -1.1203
 4021SOL    HW223697   0.743   1.385   7.400 -0.0946 -0.0483  0.1509
 4022SOL     OW23698   3.075   1.189   8.865  0.3942  0.4439 -0.3130
 4022SOL    HW123699   3.039   1.241   8.793 -1.5674  0.1016  0.4183
 4022SOL    HW223700   2.992   1.188   8.912  1.3190 -0.0180  1.3090
 4023SOL     OW23701   2.871   2.168  14.326 -0.0293  0.2471  0.9569
 4023SOL    HW123702   2.908   2.246  14.369  1.4524 -0.3485  0.7760
 4023SOL    HW223703   2.778   2.189  14.320  0.1800  1.0987  0.7372
 4024SOL     OW23704   0.887   1.466   9.428  0.5720  0.0352  0.2093
 4024SOL    HW123705   0.944   1.498   9.359 -0.3483  0.7930 -0.2091
 4024SOL    HW223706   0.843   1.389   9.392 -0.1972  0.5861 -0.0510
 4025SOL     OW23707   2.064   4.186   2.987  0.0400 -0.0865  0.0357
 4025SOL    HW123708   2.129   4.126   3.023  1.3297 -0.0151 -2.1623
 4025SOL    HW223709   2.100   4.209   2.901 -2.8870  0.0751 -1.1448
 4026SOL     OW23710   1.170   4.687   8.354  0.2071 -0.3907 -0.1824
 4026SOL    HW123711   1.237   4.706   8.289 -1.2525  4.0867 -0.4347
 4026SOL    HW223712   1.217   4.632   8.415  0.3666 -0.4122 -0.3266
 4027SOL     OW23713   0.673   3.085   8.204  0.4855  0.3655  0.7702
 4027SOL    HW123714   0.602   3.071   8.141 -0.3328 -0.9857  1.9898
 4027SOL    HW223715   0.649   3.157   8.262 -0.2257  2.2076 -1.8168
 4028SOL     OW23716   4.678   2.889   3.741  0.4969 -0.1357  0.3561
 4028SOL    HW123717   4.670   2.913   3.649 -1.5980  2.5318  1.2200
 4028SOL    HW223718   0.002   2.960   3.761 -1.2935  1.6001 -0.4127
 4029SOL     OW23719   3.512   0.801   4.952 -0.5426  0.6955  0.3742
 4029SOL    HW123720   3.448   0.780   4.884  0.7759  1.9357 -1.2710
 4029SOL    HW223721   3.454   0.812   5.027 -1.0391 -1.5842  0.3282
 4030SOL     OW23722   4.310   4.658   9.340  0.2302  0.4310 -0.0259
 4030SOL    HW123723   4.352   4.654   9.254 -0.9196  2.0412 -0.6650
 4030SOL    HW223724   4.218   4.654   9.313  0.1296 -2.3987  0.7525
 4031SOL     OW23725   1.014   4.053   5.882  0.1613 -0.1935  0.6085
 4031SOL    HW123726   0.958   4.024   5.809 -2.1703  1.7589  1.6328
 4031SOL    HW223727   0.954   4.106   5.934  2.5226  2.1439  0.9268
 4032SOL     OW23728   1.298   0.145   9.573 -0.4869 -0.0789  0.6663
 4032SOL    HW123729   1.274   0.053   9.561 -0.7019  0.1514 -0.6919
 4032SOL    HW223730   1.388   0.142   9.540 -0.7124  1.9834 -0.1125
 4033SOL     OW23731   4.103   0.204   3.356 -0.3598  0.2479  0.4183
 4033SOL    HW123732   4.193   0.235   3.362 -0.7443  1.4752 -0.1954
 4033SOL    HW223733   4.093   0.132   3.418 -1.1919 -0.6773 -0.7819
 4034SOL     OW23734   3.868   4.512   2.185  0.2707  0.1761  0.4408
 4034SOL    HW123735   3.865   4.561   2.103  0.0085 -0.7397 -0.1030
 4034SOL    HW223736   3.854   4.575   2.255  0.2978  2.7450 -1.8470
 4035SOL     OW23737   0.620   2.140   7.063 -0.4100 -0.0441 -0.0946
 4035SOL    HW123738   0.573   2.201   7.120  1.3645  1.3768 -0.1604
 4035SOL    HW223739   0.708   2.146   7.100  0.2819 -2.2797 -1.4075
 4036SOL     OW23740   3.336   1.160  13.882  0.0359  0.2195  0.5566
 4036SOL    HW123741   3.264   1.209  13.922 -2.3494 -1.2417 -1.9886
 4036SOL    HW223742   3.382   1.239  13.853 -0.0364  0.6464  1.6162
 4037SOL     OW23743   3.290   0.322  10.103 -0.1041  0.7411 -0.3146
 4037SOL    HW123744   3.363   0.296  10.160  0.1803 -1.9662 -1.9282
 4037SOL    HW223745   3.257   0.394  10.157 -1.5035  0.4135 -0.7320
 4038SOL     OW23746   4.650   0.376   7.218  0.1497  0.5928  0.5189
 4038SOL    HW123747   4.724   0.345   7.269 -0.6135 -0.3600  1.0397
 4038SOL    HW223748   4.670   0.466   7.192  1.2593 -0.1671 -1.2521
 4039SOL     OW23749   1.669   3.491   4.528  0.1770 -0.0399 -0.2250
 4039SOL    HW123750   1.705   3.414   4.485 -2.0674  0.7203 -3.4707
 4039SOL    HW223751   1.723   3.556   4.484 -0.4511  2.0124  2.0418
 4040SOL     OW23752   0.874   2.519   3.524  0.2886 -0.2271 -0.1782
 4040SOL    HW123753   0.814   2.576   3.573 -0.8963 -0.0069 -1.8662
 4040SOL    HW223754   0.826   2.505   3.442  1.7678  1.3855 -1.3326
 4041SOL     OW23755   3.771   3.927   9.106  0.6034  0.2653  0.5034
 4041SOL    HW123756   3.794   3.960   9.019 -2.1916  0.0297 -0.3334
 4041SOL    HW223757   3.685   3.968   9.119  1.3876  2.0506  0.0893
 4042SOL     OW23758   0.826   2.436  12.676 -0.0918 -0.6279 -0.1852
 4042SOL    HW123759   0.877   2.466  12.600  1.2146 -0.3652  0.7869
 4042SOL    HW223760   0.817   2.525  12.711  0.6454 -1.3332  1.7700
 4043SOL     OW23761   0.552   1.515   5.318  0.2038  0.7045 -0.5529
 4043SOL    HW123762   0.588   1.458   5.386 -3.6103 -1.2209 -0.1546
 4043SOL    HW223763   0.627   1.557   5.277  1.5540 -0.5052  0.6733
 4044SOL     OW23764   4.400   0.951   4.200 -0.6482 -0.5569 -0.3546
 4044SOL    HW123765   4.445   0.867   4.195 -1.1154 -0.6605 -3.2579
 4044SOL    HW223766   4.447   0.998   4.130  0.0467 -1.1612 -0.2940
 4045SOL     OW23767   2.505   0.326   3.070  0.1928 -0.2633  0.1612
 4045SOL    HW123768   2.474   0.235   3.068 -1.2859  0.3156 -3.4286
 4045SOL    HW223769   2.515   0.337   2.975  2.1581 -1.3841  0.2423
 4046SOL     OW23770   2.853   1.078   9.573  0.1104  0.0665 -0.7093
 4046SOL    HW123771   2.897   1.035   9.500  1.8041  1.3450 -0.4352
 4046SOL    HW223772   2.770   1.087   9.525  1.0847  0.2158 -2.3696
 4047SOL     OW23773   3.334   0.178   2.533 -0.4135 -0.1329 -0.0317
 4047SOL    HW123774   3.318   0.234   2.457  0.0723  0.3904  0.2565
 4047SOL    HW223775   3.243   0.177   2.564 -0.3139 -1.7224  0.2118
 4048SOL     OW23776   0.474   2.887   6.984 -0.0957  0.3484 -0.4964
 4048SOL    HW123777   0.562   2.901   6.950 -0.5076  0.0945 -1.6469
 4048SOL    HW223778   0.420   2.860   6.910 -0.9697  1.9243 -0.4428
 4049SOL     OW23779   1.601   2.998   5.814 -0.0864 -0.3414  0.3457
 4049SOL    HW123780   1.655   2.919   5.814 -2.1001 -1.7364 -0.2254
 4049SOL    HW223781   1.659   3.061   5.856 -1.7227  1.6097 -0.3053
 4050SOL     OW23782   3.288   2.013   6.879 -0.5227 -0.2231  0.0519
 4050SOL    HW123783   3.303   2.022   6.785  0.2933  0.5385  0.2478
 4050SOL    HW223784   3.264   1.922   6.896  1.2651 -0.6846  0.1018
 4051SOL     OW23785   1.614   1.696   7.237 -0.7843 -0.2397 -0.1999
 4051SOL    HW123786   1.626   1.696   7.332  1.0032 -0.5825 -0.4107
 4051SOL    HW223787   1.539   1.752   7.221 -1.3859  0.1570  3.9783
 4052SOL     OW23788   3.629   0.706   7.576  0.3613 -0.0359 -0.0557
 4052SOL    HW123789   3.581   0.789   7.565  2.3346  0.7242 -2.9120
 4052SOL    HW223790   3.688   0.708   7.501 -0.0351 -2.4687 -0.4196
 4053SOL     OW23791   4.484   4.437  13.348  0.3254  0.1007 -0.2606
 4053SOL    HW123792   4.414   4.440  13.413 -0.4994 -1.8361 -1.0843
 4053SOL    HW223793   4.544   4.379  13.394 -1.4418 -1.3736  0.1718
 4054SOL     OW23794   0.006   1.417   9.142 -0.5808 -0.2092 -0.0345
 4054SOL    HW123795   0.094   1.381   9.132  0.0533  1.7252 -1.4728
 4054SOL    HW223796   4.696   1.336   9.163  1.1573 -0.8913  1.2064
 4055SOL     OW23797   4.729   3.282   1.651  0.0273  0.0769  0.5673
 4055SOL    HW123798   0.031   3.270   1.564 -0.1695  1.0599  0.3397
 4055SOL    HW223799   4.694   3.371   1.640  0.8321  0.4440  1.0029
 4056SOL     OW23800   2.362   1.211   8.818 -0.0447 -0.5743  0.3042
 4056SOL    HW123801   2.305   1.277   8.857 -0.6474  1.1043 -3.3792
 4056SOL    HW223802   2.377   1.153   8.893 -1.2562  0.4158  1.3177
 4057SOL     OW23803   3.197   1.464   4.041 -0.5132 -0.2748 -0.1368
 4057SOL    HW123804   3.152   1.384   4.067  0.2349  0.3737  3.1103
 4057SOL    HW223805   3.195   1.515   4.121 -1.5772  0.5121 -0.6718
 4058SOL     OW23806   4.634   0.367   5.187 -0.0221 -0.0534 -0.4777
 4058SOL    HW123807   4.551   0.376   5.139  0.9841  0.1812 -2.2004
 4058SOL    HW223808   4.673   0.450   5.160  1.9013 -0.8174 -0.0386
 4059SOL     OW23809   3.214   2.430   6.288 -0.1973  0.0065  0.2273
 4059SOL    HW123810   3.144   2.486   6.320 -2.4562 -3.5858  1.6479
 4059SOL    HW223811   3.293   2.457   6.334 -0.6005 -0.8600  1.4190
 4060SOL     OW23812   0.681   2.042   1.837  0.0395  0.2253 -0.4693
 4060SOL    HW123813   0.713   2.089   1.760 -2.4725  1.2796 -0.8835
 4060SOL    HW223814   0.744   1.972   1.853  1.1447  0.6457 -3.0784
 4061SOL     OW23815   2.143   1.581   3.989 -0.0957  0.0654  0.0366
 4061SOL    HW123816   2.214   1.593   4.053  0.3004  1.7280 -0.7224
 4061SOL    HW223817   2.065   1.566   4.042  1.2217 -3.0757  1.1545
 4062SOL     OW23818   0.051   3.090   6.703  0.4618 -0.6851  0.1390
 4062SOL    HW123819   0.138   3.077   6.665  0.0442  0.4165 -1.1579
 4062SOL    HW223820   0.065   3.177   6.740 -0.8578 -0.1284 -0.6994
 4063SOL     OW23821   1.912   0.607   6.450 -0.2724 -0.7814  0.6823
 4063SOL    HW123822   1.948   0.653   6.525 -2.8268  1.1642  0.6918
 4063SOL    HW223823   1.892   0.528   6.500 -0.5938 -1.6964 -0.8608
 4064SOL     OW23824   3.628   0.794   4.127  0.0558 -0.1525 -0.0361
 4064SOL    HW123825   3.631   0.883   4.162 -0.3344  0.0301 -0.4660
 4064SOL    HW223826   3.627   0.810   4.033 -0.2986 -0.6782 -0.1223
 4065SOL     OW23827   4.135   1.890  17.482 -0.3841 -0.0853  0.5067
 4065SOL    HW123828   4.149   1.821  17.416  1.6046 -0.2114  1.0678
 4065SOL    HW223829   4.039   1.896  17.482 -0.5011 -1.9771  1.3931
 4066SOL     OW23830   2.230   2.307   4.384 -0.6449 -0.2097 -0.7804
 4066SOL    HW123831   2.292   2.379   4.374 -1.8439  0.9857  0.5334
 4066SOL    HW223832   2.184   2.318   4.467  0.7439 -1.6721  0.1987
 4067SOL     OW23833   3.673   2.368   8.473  0.3919 -0.2078  0.1148
 4067SOL    HW123834   3.606   2.354   8.406  0.5551 -2.0141  0.3461
 4067SOL    HW223835   3.728   2.438   8.439 -1.1569  0.0121 -1.9534
 4068SOL     OW23836   1.208   3.934   3.378  0.1346 -0.6973  0.1582
 4068SOL    HW123837   1.255   3.957   3.458 -1.8034 -1.4597  1.5224
 4068SOL    HW223838   1.270   3.983   3.325 -0.6778  0.4243  0.2274
 4069SOL     OW23839   1.247   3.832   2.628 -0.1914 -0.5449  0.6428
 4069SOL    HW123840   1.230   3.818   2.535 -1.4692 -1.8322  1.0685
 4069SOL    HW223841   1.159   3.826   2.666 -0.4138  0.3382  0.2460
 4070SOL     OW23842   1.998   1.876   2.712 -0.1385  0.3690 -0.0101
 4070SOL    HW123843   1.925   1.844   2.659 -0.8448 -0.3439  1.3848
 4070SOL    HW223844   2.072   1.869   2.652 -0.2651 -0.6486 -0.0546
 4071SOL     OW23845   3.808   1.464  16.720  0.2964 -0.3649  0.1167
 4071SOL    HW123846   3.728   1.499  16.679  0.9046 -1.8508 -2.3459
 4071SOL    HW223847   3.876   1.493  16.660 -0.8901 -0.2580 -1.1870
 4072SOL     OW23848   1.051   3.995   4.756  0.3316  0.0416 -0.1822
 4072SOL    HW123849   1.040   4.064   4.691 -0.5337  1.0240  0.9912
 4072SOL    HW223850   1.135   4.022   4.794  1.3087 -1.1738 -1.5176
 4073SOL     OW23851   0.115   3.421  11.405 -0.3939  0.3595  0.0193
 4073SOL    HW123852   0.026   3.442  11.377 -0.3375  1.4780  0.6416
 4073SOL    HW223853   0.110   3.326  11.412 -1.0880  0.3034 -1.3646
 4074SOL     OW23854   0.169   0.404  14.030  0.4002  0.8149 -0.3499
 4074SOL    HW123855   0.137   0.315  14.012  2.0207  0.5299 -1.8354
 4074SOL    HW223856   0.093   0.446  14.069 -1.8641 -2.6682 -0.9739
 4075SOL     OW23857   2.474   0.455   3.992  0.0265  0.5526 -0.1515
 4075SOL    HW123858   2.422   0.499   4.059 -0.7498 -0.3207 -0.1609
 4075SOL    HW223859   2.469   0.515   3.918 -1.8546 -0.7347 -1.1054
 4076SOL     OW23860   0.574   4.319   9.138  0.2161  0.6765 -0.0583
 4076SOL    HW123861   0.494   4.300   9.090 -0.4692  1.5295  0.7554
 4076SOL    HW223862   0.544   4.385   9.201 -0.3472 -0.1551  0.5457
 4077SOL     OW23863   3.331   2.504   0.937 -0.3348  0.0790 -1.0369
 4077SOL    HW123864   3.364   2.431   0.989 -1.1827  0.0745 -0.4965
 4077SOL    HW223865   3.348   2.573   1.001  2.6833 -0.8876 -0.8295
 4078SOL     OW23866   4.475   2.248  15.167  0.5313 -0.3736 -0.2321
 4078SOL    HW123867   4.518   2.255  15.252 -0.6886 -0.5873  0.3966
 4078SOL    HW223868   4.393   2.295  15.186  1.1380 -0.3448  2.3507
 4079SOL     OW23869   0.671   3.117  12.886  0.0084  0.4772  0.5476
 4079SOL    HW123870   0.739   3.128  12.820  0.4505 -0.4624  0.8530
 4079SOL    HW223871   0.672   3.021  12.880  1.4168  0.4850  0.7394
 4080SOL     OW23872   1.319   3.706  16.966  0.2902  0.3900 -0.2977
 4080SOL    HW123873   1.374   3.750  16.901  3.3145  1.8847  3.2532
 4080SOL    HW223874   1.324   3.775  17.033 -1.8004  2.1292 -1.9450
 4081SOL     OW23875   0.962   0.056  17.333  0.3613 -0.2935  0.1059
 4081SOL    HW123876   1.007   0.076  17.415  0.4733 -1.8875  0.4216
 4081SOL    HW223877   0.928   4.706  17.355 -0.8613  0.8745  2.8321
 4082SOL     OW23878   4.192   3.960   2.204  0.8936 -0.0997 -0.6867
 4082SOL    HW123879   4.098   3.971   2.220  1.3714  1.0434  1.2981
 4082SOL    HW223880   4.222   4.028   2.265  1.5835  0.3439 -1.5192
 4083SOL     OW23881   1.522   3.856   4.123 -0.2159  0.2379  0.6331
 4083SOL    HW123882   1.567   3.936   4.152 -3.3014  1.8471  1.0492
 4083SOL    HW223883   1.467   3.840   4.199 -2.8599  2.9527 -0.7199
 4084SOL     OW23884   2.204   0.488   3.479 -0.1085 -0.4434 -0.3802
 4084SOL    HW123885   2.298   0.492   3.496 -0.3895 -0.1398  1.1161
 4084SOL    HW223886   2.203   0.455   3.389 -0.1085  0.7174 -0.8070
 4085SOL     OW23887   2.476   1.384  14.483  0.5178 -0.1684 -0.4684
 4085SOL    HW123888   2.547   1.387  14.547 -1.0832 -3.3326  1.4208
 4085SOL    HW223889   2.519   1.393  14.398 -0.4330  0.8057 -0.8427
 4086SOL     OW23890   4.525   2.102   1.715  0.8897  0.0704  0.1025
 4086SOL    HW123891   4.528   2.190   1.677  1.0862 -0.4021 -0.9769
 4086SOL    HW223892   4.517   2.051   1.634  0.7761 -1.8692  1.3451
 4087SOL     OW23893   1.663   3.601   6.394  0.4886 -0.2346 -0.2225
 4087SOL    HW123894   1.688   3.509   6.402 -0.5582 -0.4838  0.1254
 4087SOL    HW223895   1.629   3.608   6.305  1.1876  0.0523 -0.4712
 4088SOL     OW23896   1.409   4.023   9.931  0.3452 -0.3466  0.3125
 4088SOL    HW123897   1.358   3.980   9.862 -0.6632 -0.9280  1.4334
 4088SOL    HW223898   1.343   4.062   9.988  1.1837 -0.2550  1.2098
 4089SOL     OW23899   0.509   3.371   7.243  0.3723  0.0685  0.1833
 4089SOL    HW123900   0.436   3.372   7.304  0.1273  1.0058 -0.1226
 4089SOL    HW223901   0.499   3.457   7.204 -0.3635  0.3586  1.0243
 4090SOL     OW23902   0.074   4.115  14.079 -0.2751  0.6193 -0.0659
 4090SOL    HW123903   4.720   4.087  14.086 -0.1059  0.3421  0.9432
 4090SOL    HW223904   0.049   4.203  14.053  2.7477  0.7923 -2.4544
 4091SOL     OW23905   3.244   3.999   8.084  0.1393 -0.2578 -0.0169
 4091SOL    HW123906   3.222   3.972   8.174 -0.2557 -1.4234 -0.4571
 4091SOL    HW223907   3.186   4.075   8.085 -0.7543 -0.9303 -0.5963
 4092SOL     OW23908   4.527   1.688  14.979  0.5538 -0.0798 -0.4488
 4092SOL    HW123909   4.472   1.659  14.906 -0.6468 -0.8168  0.7393
 4092SOL    HW223910   4.555   1.608  15.023  0.0291  1.3177  2.4062
 4093SOL     OW23911   0.425   1.840  15.283 -0.0353 -0.1284  0.5658
 4093SOL    HW123912   0.515   1.862  15.308 -0.6912  0.5876  2.2383
 4093SOL    HW223913   0.419   1.745  15.294 -1.1928 -0.1502 -0.2933
 4094SOL     OW23914   0.401   4.259   3.840  0.3391 -0.1118  0.4022
 4094SOL    HW123915   0.342   4.332   3.820  2.0931  1.2030  0.0280
 4094SOL    HW223916   0.408   4.267   3.935 -0.3811 -1.4272  0.5596
 4095SOL     OW23917   2.642   1.359   3.708  0.2425  0.4079  0.0105
 4095SOL    HW123918   2.582   1.409   3.764  0.7365 -1.4318  2.1771
 4095SOL    HW223919   2.703   1.427   3.679 -0.8470  1.7289  0.8269
 4096SOL     OW23920   0.044   3.840   6.165  0.4238  0.5462 -0.8917
 4096SOL    HW123921   0.105   3.889   6.220  1.3699 -2.4786  0.7581
 4096SOL    HW223922   4.710   3.905   6.168  0.2997  0.3971 -0.4043
 4097SOL     OW23923   0.873   3.838   4.559  0.0326 -0.0119 -0.2496
 4097SOL    HW123924   0.800   3.778   4.573 -0.0995  0.3068  0.4171
 4097SOL    HW223925   0.883   3.870   4.648 -0.1563  1.7341 -0.8468
 4098SOL     OW23926   1.430   1.081   6.664  0.2445 -0.2494  0.0602
 4098SOL    HW123927   1.460   1.114   6.749  0.3892 -1.1966  0.3688
 4098SOL    HW223928   1.394   0.994   6.683 -0.4692 -0.0076 -0.1771
 4099SOL     OW23929   2.565   0.888   2.837  0.1020 -0.0110 -0.4441
 4099SOL    HW123930   2.656   0.917   2.836  0.9750 -2.8336 -1.4093
 4099SOL    HW223931   2.520   0.973   2.833  1.8105  0.9513  0.8988
 4100SOL     OW23932   0.059   0.150   7.346  0.5639  0.0307 -0.2639
 4100SOL    HW123933   4.730   0.093   7.386  0.3040  0.5808  0.1027
 4100SOL    HW223934   0.128   0.151   7.413 -0.1722  1.4889  0.4868
 4101SOL     OW23935   2.672   4.580  12.596  0.0268 -0.7856  0.3028
 4101SOL    HW123936   2.738   4.636  12.637 -1.8476  1.3663  0.4422
 4101SOL    HW223937   2.719   4.498  12.604 -2.3406 -2.2870 -0.9178
 4102SOL     OW23938   3.067   2.699   1.995  0.5858  0.2092 -0.1575
 4102SOL    HW123939   3.047   2.785   1.958  3.0750  0.4650 -0.9351
 4102SOL    HW223940   3.050   2.647   1.917  3.2076  0.9190 -1.2251
 4103SOL     OW23941   1.157   1.564   5.832 -0.1282  0.1294 -0.0386
 4103SOL    HW123942   1.181   1.563   5.924  0.1996  3.3249 -0.0920
 4103SOL    HW223943   1.099   1.488   5.832 -1.1087  0.8855  1.1385
 4104SOL     OW23944   0.586   0.220   2.317 -0.1711 -0.5248  0.3335
 4104SOL    HW123945   0.531   0.165   2.261  0.1075 -0.7409  0.2716
 4104SOL    HW223946   0.554   0.183   2.399 -0.1040 -0.9040  0.1867
 4105SOL     OW23947   3.053   0.406   1.626 -0.0710  0.7279  0.2667
 4105SOL    HW123948   3.062   0.501   1.631 -2.2243  0.8680  1.5864
 4105SOL    HW223949   3.145   0.380   1.615 -0.0782  1.3698 -1.3223
 4106SOL     OW23950   4.381   3.046   7.752 -0.3461  0.4446 -0.5426
 4106SOL    HW123951   4.347   3.110   7.688 -2.7836  0.0198  0.3171
 4106SOL    HW223952   4.473   3.043   7.727  0.5273  0.2595  2.6948
 4107SOL     OW23953   3.084   3.478  11.218  0.1880 -0.4940 -0.3054
 4107SOL    HW123954   3.084   3.492  11.313 -3.0857  0.3589 -0.4413
 4107SOL    HW223955   3.079   3.571  11.196 -2.7946 -0.1607  1.8090
 4108SOL     OW23956   0.649   2.307   0.730  0.4220  0.1712 -0.0113
 4108SOL    HW123957   0.614   2.321   0.818  0.4789 -1.5133  0.2837
 4108SOL    HW223958   0.595   2.235   0.700 -0.8656  0.5868  1.2663
 4109SOL     OW23959   4.062   0.611   7.750  0.2641  0.1167  0.6208
 4109SOL    HW123960   4.083   0.548   7.819  0.2858 -1.5326 -0.8926
 4109SOL    HW223961   4.045   0.690   7.800  1.1880  1.5889 -1.3751
 4110SOL     OW23962   4.547   2.148   4.079  0.2973  0.5984 -0.2869
 4110SOL    HW123963   4.577   2.058   4.074 -1.7618 -0.0969 -0.0002
 4110SOL    HW223964   4.620   2.202   4.048  1.0875 -0.4649 -0.2594
 4111SOL     OW23965   1.463   3.185  14.693 -0.5712 -0.1519 -0.0483
 4111SOL    HW123966   1.507   3.189  14.778 -0.0503  3.2841 -0.4774
 4111SOL    HW223967   1.385   3.133  14.712 -0.1971 -1.2047 -1.4192
 4112SOL     OW23968   1.792   0.227   8.587 -0.5389 -0.1285  0.5497
 4112SOL    HW123969   1.742   0.149   8.609 -1.6662  0.5225  0.2721
 4112SOL    HW223970   1.841   0.252   8.665  0.9750  1.7393 -0.9922
 4113SOL     OW23971   2.835   3.375   2.886  0.0784  0.0907  0.5561
 4113SOL    HW123972   2.752   3.377   2.934  0.3997 -0.1293  1.1215
 4113SOL    HW223973   2.875   3.310   2.943 -0.2863 -1.1770 -0.6230
 4114SOL     OW23974   3.740   3.295   8.828  0.1749  0.0203 -0.1916
 4114SOL    HW123975   3.830   3.270   8.807 -0.6250 -2.2031 -0.9758
 4114SOL    HW223976   3.701   3.293   8.740  0.4766  1.2006 -0.3447
 4115SOL     OW23977   1.265   1.845   8.482 -0.2189  0.6063  1.0622
 4115SOL    HW123978   1.269   1.901   8.559  3.7126  1.7133  0.0381
 4115SOL    HW223979   1.171   1.835   8.466 -0.3402  1.3106  1.3299
 4116SOL     OW23980   0.094   3.494   2.929  0.6146  0.3927 -0.3345
 4116SOL    HW123981   0.026   3.433   2.902  0.7815  0.0952 -0.0730
 4116SOL    HW223982   0.124   3.527   2.844  2.0850  1.6516  0.6528
 4117SOL     OW23983   3.480   2.078   0.591 -0.0783  0.1233  0.0392
 4117SOL    HW123984   3.481   1.984   0.575  0.1954 -0.3556  2.9674
 4117SOL    HW223985   3.390   2.109   0.585  0.0800  0.5533 -0.1723
 4118SOL     OW23986   4.659   1.896   9.252 -0.6375  0.0383 -0.4042
 4118SOL    HW123987   4.730   1.958   9.270 -1.7566  0.4137  2.7711
 4118SOL    HW223988   4.675   1.816   9.301 -0.0927  0.3091 -0.1404
 4119SOL     OW23989   1.751   4.139   7.034 -0.2173  0.2930 -0.1281
 4119SOL    HW123990   1.690   4.209   7.056 -3.7513 -2.6369 -0.7280
 4119SOL    HW223991   1.740   4.065   7.093 -0.3333  0.5727  0.2020
 4120SOL     OW23992   2.854   1.471   9.937 -0.4140 -0.3343  0.3541
 4120SOL    HW123993   2.937   1.442   9.974  1.2706  1.6533 -1.8319
 4120SOL    HW223994   2.852   1.429   9.851 -5.4067 -0.9546  0.7578
 4121SOL     OW23995   2.526   3.231   9.614  0.5492  0.3851  0.6204
 4121SOL    HW123996   2.478   3.302   9.574 -0.0208 -0.2024  0.2767
 4121SOL    HW223997   2.511   3.154   9.559  0.7596  1.8003 -1.3678
 4122SOL     OW23998   2.018   1.950   8.092  0.4119 -0.2794 -0.0613
 4122SOL    HW123999   1.969   2.020   8.049  1.2804  0.1297 -0.3847
 4122SOL    HW224000   1.992   1.958   8.183  2.6963 -0.2293  0.5776
 4123SOL     OW24001   0.378   1.983  12.331 -0.0540 -0.1576  0.5600
 4123SOL    HW124002   0.352   1.896  12.301 -0.2432 -0.4539  1.6076
 4123SOL    HW224003   0.298   2.022  12.367  0.4122  0.3090  1.0874
 4124SOL     OW24004   0.179   2.631   5.891 -0.7645  0.3067 -0.2912
 4124SOL    HW124005   0.254   2.596   5.937 -1.1727 -0.1855  0.0047
 4124SOL    HW224006   0.200   2.604   5.802  1.2392 -0.3061  0.3768
 4125SOL     OW24007   3.277   4.084  16.461 -0.2616 -0.0539 -0.0965
 4125SOL    HW124008   3.278   4.033  16.542  0.8141  2.6453  1.5833
 4125SOL    HW224009   3.297   4.169  16.501 -1.1061  0.3215 -0.4557
 4126SOL     OW24010   0.242   2.167   3.476 -0.0129  0.3209 -0.4462
 4126SOL    HW124011   0.279   2.242   3.522  0.8497 -0.8331  0.7617
 4126SOL    HW224012   0.151   2.191   3.491  0.6673  2.8038 -0.4157
 4127SOL     OW24013   0.121   2.507  14.663  0.7782  0.3451 -0.1070
 4127SOL    HW124014   0.185   2.441  14.640 -0.5581 -1.0740  0.2815
 4127SOL    HW224015   0.114   2.544  14.575 -1.7040  1.8790  0.7174
 4128SOL     OW24016   3.060   0.534  13.121  0.1367  0.2615  0.1614
 4128SOL    HW124017   3.004   0.606  13.092 -1.1858  0.2094  2.5946
 4128SOL    HW224018   3.147   0.560  13.088 -0.8919  0.9451 -2.0483
 4129SOL     OW24019   3.860   0.341   3.779 -0.2147 -0.4365 -0.3524
 4129SOL    HW124020   3.882   0.424   3.822 -0.1921 -0.4343 -0.3680
 4129SOL    HW224021   3.825   0.379   3.698 -2.6513  0.7810  1.2811
 4130SOL     OW24022   2.683   1.354   2.467  0.3161  0.5087 -0.4693
 4130SOL    HW124023   2.755   1.363   2.530 -1.6409  0.2764  1.8010
 4130SOL    HW224024   2.697   1.268   2.426 -0.5017 -0.1640  0.6542
 4131SOL     OW24025   4.183   3.450   4.270 -0.2124  0.2984  1.0940
 4131SOL    HW124026   4.254   3.405   4.316 -0.4477 -0.2841  0.8904
 4131SOL    HW224027   4.107   3.390   4.273 -1.2737  1.4392 -4.1366
 4132SOL     OW24028   4.130   3.580  10.826  0.1117 -0.4860 -0.0903
 4132SOL    HW124029   4.157   3.663  10.786 -1.2353  0.5276  1.1247
 4132SOL    HW224030   4.104   3.531  10.748 -1.3939 -0.1637  0.2075
 4133SOL     OW24031   0.144   1.158   9.518 -0.5380 -0.2320  0.6885
 4133SOL    HW124032   0.209   1.165   9.449 -0.5660  0.7243  0.7499
 4133SOL    HW224033   0.094   1.240   9.521  0.4316  0.4111 -0.6847
 4134SOL     OW24034   1.876   1.663  12.965  0.0284 -0.1083  0.1953
 4134SOL    HW124035   1.956   1.712  12.983 -0.7199  0.8939  0.8260
 4134SOL    HW224036   1.892   1.608  12.889  0.6477 -1.6546  1.4554
 4135SOL     OW24037   2.939   4.293   4.120  0.3801 -0.5302  0.2889
 4135SOL    HW124038   2.946   4.363   4.054  0.1147 -0.5336  0.2596
 4135SOL    HW224039   2.873   4.239   4.077 -1.3696  2.6810 -1.0679
 4136SOL     OW24040   2.949   2.936   1.704  0.0108  0.0021 -0.2269
 4136SOL    HW124041   2.892   3.012   1.691 -0.5197 -0.3402  0.0722
 4136SOL    HW224042   2.983   2.949   1.793  0.1138 -0.6340 -0.1747
 4137SOL     OW24043   2.704   1.903   2.854 -0.9174 -0.1175  0.2210
 4137SOL    HW124044   2.714   1.901   2.759  1.0204  0.7978  0.4033
 4137SOL    HW224045   2.790   1.927   2.888 -0.3644 -0.4700 -0.9505
 4138SOL     OW24046   4.660   2.030   3.522 -0.3401  0.1472 -0.1105
 4138SOL    HW124047   4.591   2.028   3.589 -1.7555 -0.8714 -1.5911
 4138SOL    HW224048   4.647   2.120   3.494  1.2020  0.1419 -0.8215
 4139SOL     OW24049   3.717   3.904   6.406 -0.1772  0.2047  0.5044
 4139SOL    HW124050   3.673   3.954   6.337 -1.6171 -1.5298  0.1836
 4139SOL    HW224051   3.783   3.866   6.348  0.4465  1.1947  0.5614
 4140SOL     OW24052   4.473   4.094   6.672  0.2697  0.7819  0.7990
 4140SOL    HW124053   4.378   4.104   6.681 -0.1637 -0.3948 -2.6846
 4140SOL    HW224054   4.491   4.134   6.587 -0.0279  1.3887  1.0193
 4141SOL     OW24055   2.315   1.009   4.376 -0.7050  0.2718  0.4845
 4141SOL    HW124056   2.344   0.981   4.290  1.3224 -0.0829  1.2828
 4141SOL    HW224057   2.270   0.929   4.403 -0.9723  1.2827  3.1487
 4142SOL     OW24058   2.770   0.204   2.593  0.6906 -0.0260 -0.2605
 4142SOL    HW124059   2.747   0.291   2.560  0.6206  0.0932  0.1013
 4142SOL    HW224060   2.737   0.205   2.683 -3.2160  0.1960 -1.7142
 4143SOL     OW24061   1.263   2.655  13.366 -0.1612  0.7483 -0.9387
 4143SOL    HW124062   1.310   2.634  13.286  1.6561  0.7046  0.1388
 4143SOL    HW224063   1.172   2.643  13.338  0.6934 -1.9863 -2.5905
 4144SOL     OW24064   4.143   1.468  17.446 -0.2372 -0.5361 -0.2459
 4144SOL    HW124065   4.154   1.383  17.489  1.0539  0.3860  1.2193
 4144SOL    HW224066   4.201   1.443  17.374 -0.1915  2.3592 -1.2008
 4145SOL     OW24067   2.197   1.594   6.945  0.5119  0.0232 -0.7715
 4145SOL    HW124068   2.248   1.532   6.998  1.0590 -0.9139 -2.3959
 4145SOL    HW224069   2.214   1.562   6.856 -1.0788 -1.9934 -0.3634
 4146SOL     OW24070   2.854   4.394  10.521  0.0100  0.1704  0.2013
 4146SOL    HW124071   2.867   4.342  10.442 -2.4591  0.6428 -0.5090
 4146SOL    HW224072   2.935   4.368  10.565 -0.2729  0.7020  1.0298
 4147SOL     OW24073   3.875   3.416  14.855  0.3936 -0.0940  0.1923
 4147SOL    HW124074   3.897   3.401  14.763  2.4333  1.4282  0.4280
 4147SOL    HW224075   3.786   3.451  14.849  0.5920  0.2548 -0.7631
 4148SOL     OW24076   3.641   4.648   7.374  0.5142  0.2206  0.7998
 4148SOL    HW124077   3.584   4.719   7.344  0.7642  0.1016  0.0454
 4148SOL    HW224078   3.618   4.566   7.331 -2.6768  0.7904  1.3871
 4149SOL     OW24079   0.455   2.497   9.588  0.2697  0.0185  0.4422
 4149SOL    HW124080   0.482   2.427   9.529  0.0188  0.1728  0.1395
 4149SOL    HW224081   0.409   2.550   9.523 -0.6702 -0.5897  0.5950
 4150SOL     OW24082   0.898   3.511   7.136  0.6430 -0.1274 -0.0022
 4150SOL    HW124083   0.967   3.529   7.200 -0.2855 -0.9784  1.2395
 4150SOL    HW224084   0.844   3.588   7.154 -1.0726 -1.2630 -0.2480
 4151SOL     OW24085   3.459   3.204   0.629 -0.2752  0.6420 -0.0613
 4151SOL    HW124086   3.375   3.250   0.640 -0.3460  0.3707  0.5593
 4151SOL    HW224087   3.427   3.129   0.579  0.2660  0.5892 -0.3224
 4152SOL     OW24088   0.092   1.755   1.085  0.1001 -0.0300  0.5880
 4152SOL    HW124089   0.093   1.674   1.135  2.4703 -0.2656  0.1139
 4152SOL    HW224090   0.032   1.729   1.015  0.8868  2.4257 -0.9937
 4153SOL     OW24091   2.783   1.715   7.699 -0.2116 -0.1491 -0.0280
 4153SOL    HW124092   2.754   1.626   7.679 -3.3243  1.0837 -0.9593
 4153SOL    HW224093   2.861   1.688   7.749 -0.9223 -1.0329  0.6041
 4154SOL     OW24094   2.353   3.723  14.332 -0.2165  0.6586  0.2001
 4154SOL    HW124095   2.281   3.778  14.299 -0.4463  0.9863  1.2528
 4154SOL    HW224096   2.371   3.658  14.264  0.8853  1.4065 -0.2176
 4155SOL     OW24097   2.610   0.146   7.793  0.1844  1.0066  0.8673
 4155SOL    HW124098   2.704   0.155   7.809  0.7157 -0.9223 -1.2384
 4155SOL    HW224099   2.585   0.237   7.773  0.0949  1.0204  1.0435
 4156SOL     OW24100   3.215   2.442   6.668  0.0387 -0.1608  0.3424
 4156SOL    HW124101   3.177   2.529   6.654 -0.7468 -0.5375  0.1588
 4156SOL    HW224102   3.256   2.450   6.755  1.4292  1.3055 -0.4327
 4157SOL     OW24103   3.764   4.419   1.855  0.1594 -0.2761 -0.0551
 4157SOL    HW124104   3.695   4.426   1.921  1.1908 -0.2368  1.0215
 4157SOL    HW224105   3.763   4.325   1.839 -0.9507 -0.4512  1.0557
 4158SOL     OW24106   1.258   3.853   9.758  0.3220 -0.2951 -0.0533
 4158SOL    HW124107   1.281   3.830   9.668  0.9823  1.3684 -0.3202
 4158SOL    HW224108   1.266   3.769   9.802 -0.8344 -0.3629  0.0351
 4159SOL     OW24109   4.423   1.829   7.890  0.7219  0.4264 -0.2835
 4159SOL    HW124110   4.503   1.778   7.878  0.4632  0.1297 -0.7649
 4159SOL    HW224111   4.425   1.863   7.979  1.3466  0.6868 -0.3945
 4160SOL     OW24112   1.199   0.001   3.714 -0.1664  0.3866  0.1669
 4160SOL    HW124113   1.129   0.063   3.696 -1.0236 -0.4624  0.6038
 4160SOL    HW224114   1.272   0.026   3.658  0.7358 -1.1935  0.6191
 4161SOL     OW24115   2.803   1.633  10.757 -0.0855 -0.5893 -0.1089
 4161SOL    HW124116   2.868   1.611  10.690 -1.8065  1.5667 -2.4780
 4161SOL    HW224117   2.858   1.687  10.814 -0.0539  0.0375 -0.7300
 4162SOL     OW24118   3.879   1.686   7.024  0.4498  0.0257  0.1101
 4162SOL    HW124119   3.882   1.671   6.930  1.1082 -0.4239  0.2016
 4162SOL    HW224120   3.916   1.774   7.021 -1.6170  0.9242  0.9813
 4163SOL     OW24121   1.451   3.383  12.170 -0.2508 -0.6723  0.6128
 4163SOL    HW124122   1.441   3.474  12.143  0.6970 -1.1802 -1.4793
 4163SOL    HW224123   1.372   3.360  12.218 -0.9873  0.6183  0.0332
 4164SOL     OW24124   1.762   2.662   7.489 -0.6710  0.1584 -0.9382
 4164SOL    HW124125   1.755   2.657   7.393 -1.9941 -2.5681 -0.6843
 4164SOL    HW224126   1.853   2.636   7.505 -1.0771  0.6145  2.1291
 4165SOL     OW24127   3.155   2.218   5.131  0.2343  0.5733  0.2142
 4165SOL    HW124128   3.230   2.275   5.114 -1.1535  2.5804  0.8672
 4165SOL    HW224129   3.153   2.200   5.225  1.2426  0.6857  0.2576
 4166SOL     OW24130   1.321   1.568   2.367  0.3828 -0.5598 -0.2219
 4166SOL    HW124131   1.409   1.533   2.356  0.6882 -0.5507  2.0661
 4166SOL    HW224132   1.302   1.577   2.274 -0.8182  1.2984  0.2086
 4167SOL     OW24133   2.679   2.503  16.117 -0.0342  0.5015 -0.2089
 4167SOL    HW124134   2.689   2.530  16.026  0.0944 -1.4995 -0.7801
 4167SOL    HW224135   2.603   2.558  16.138  0.5462  1.0926  0.3323
 4168SOL     OW24136   0.144   3.683   5.362 -0.0126  0.1096  0.1537
 4168SOL    HW124137   0.203   3.608   5.348  2.0194  1.4699  1.3738
 4168SOL    HW224138   0.077   3.663   5.297 -0.6497  0.8142  0.5933
 4169SOL     OW24139   3.783   0.913   8.465 -0.4112  0.5181  0.3150
 4169SOL    HW124140   3.745   0.846   8.408 -1.5086  1.8646 -0.5051
 4169SOL    HW224141   3.844   0.939   8.397 -0.2475 -0.0059  0.2601
 4170SOL     OW24142   1.091   1.182   3.605 -0.0698  0.2500  0.0386
 4170SOL    HW124143   1.071   1.117   3.673 -0.0266  1.4837  1.2310
 4170SOL    HW224144   1.167   1.139   3.567 -1.0352 -1.4518  0.0305
 4171SOL     OW24145   4.361   3.449   4.724  0.4156  0.4156 -0.4977
 4171SOL    HW124146   4.286   3.420   4.777  0.6591  0.4651 -0.1229
 4171SOL    HW224147   4.432   3.415   4.778 -0.4029  1.9487  1.5843
 4172SOL     OW24148   0.692   3.485   7.935  0.1054  0.0738  0.3867
 4172SOL    HW124149   0.618   3.424   7.940  1.3844 -1.2626  3.1516
 4172SOL    HW224150   0.751   3.433   7.990  0.6675  0.1310 -0.1514
 4173SOL     OW24151   0.097   2.303  15.246  0.8183 -0.4624  0.3180
 4173SOL    HW124152   0.074   2.358  15.321  0.2436  0.6306 -0.6718
 4173SOL    HW224153   0.036   2.331  15.178  0.4649 -0.4239  0.6502
 4174SOL     OW24154   4.384   0.089  10.144 -0.0348  0.2445  0.0893
 4174SOL    HW124155   4.332   0.020  10.184  1.1626  0.3389  1.8220
 4174SOL    HW224156   4.329   0.116  10.070 -1.0055 -0.7544  0.4440
 4175SOL     OW24157   1.128   0.550  10.875  0.4764  0.3983  0.5054
 4175SOL    HW124158   1.201   0.489  10.868 -0.8306 -1.2261  0.9123
 4175SOL    HW224159   1.084   0.497  10.941  1.6787 -3.5254 -1.8335
 4176SOL     OW24160   4.047   0.962   7.793  0.1063 -0.1204 -0.7756
 4176SOL    HW124161   3.956   0.933   7.801  0.4296 -0.9220  0.0361
 4176SOL    HW224162   4.080   0.929   7.877 -0.1516 -0.1760 -0.6938
 4177SOL     OW24163   1.324   0.250   7.826 -0.2335 -0.1656  0.4418
 4177SOL    HW124164   1.335   0.225   7.734  0.6102  3.0688 -0.3369
 4177SOL    HW224165   1.406   0.293   7.848 -0.0982  1.1090 -2.6026
 4178SOL     OW24166   3.713   1.855   3.301  0.0287 -0.4752 -0.1527
 4178SOL    HW124167   3.808   1.859   3.309 -0.1019  0.9777  0.7742
 4178SOL    HW224168   3.695   1.881   3.211  1.4306  1.9518  0.2547
 4179SOL     OW24169   3.708   0.400  15.273 -0.0019 -0.2416  0.1083
 4179SOL    HW124170   3.708   0.449  15.191 -1.1461  0.2866  0.4235
 4179SOL    HW224171   3.745   0.319  15.239  0.8914  0.2397 -0.0555
 4180SOL     OW24172   1.088   4.460   3.385  0.3278 -0.5837 -0.2924
 4180SOL    HW124173   1.064   4.369   3.368 -1.0279 -0.1090 -0.9197
 4180SOL    HW224174   1.107   4.453   3.479  0.3300 -0.2043 -0.2643
 4181SOL     OW24175   0.216   2.121   6.397  0.0290  0.0656  0.5769
 4181SOL    HW124176   0.127   2.157   6.401 -0.0384 -0.0719  0.3524
 4181SOL    HW224177   0.195   2.027   6.396 -0.6668  0.2180  0.6273
 4182SOL     OW24178   3.665   4.265   4.399 -0.0972  0.2168 -0.1032
 4182SOL    HW124179   3.578   4.303   4.414  0.2198  0.7906  0.2561
 4182SOL    HW224180   3.662   4.233   4.309 -1.2531 -0.6305  0.2309
 4183SOL     OW24181   2.843   1.404   4.036  0.4065  0.0569  0.9312
 4183SOL    HW124182   2.916   1.358   4.078 -0.2066 -2.6494 -0.9961
 4183SOL    HW224183   2.778   1.333   4.035 -1.7745  2.1139 -1.1679
 4184SOL     OW24184   3.435   3.570  15.831 -0.7224  0.0249  0.6102
 4184SOL    HW124185   3.385   3.497  15.795 -0.4455 -0.6931  1.6830
 4184SOL    HW224186   3.476   3.596  15.749  2.5166  0.5447  2.3676
 4185SOL     OW24187   0.255   4.505   7.512 -0.0556 -0.0603 -0.2277
 4185SOL    HW124188   0.191   4.576   7.503 -2.7066 -2.3368  0.9074
 4185SOL    HW224189   0.333   4.555   7.537  1.3889 -2.9952  1.1979
 4186SOL     OW24190   3.750   1.644  12.784 -0.2172 -0.0494 -0.1319
 4186SOL    HW124191   3.745   1.616  12.693  1.2500 -1.7038  0.3187
 4186SOL    HW224192   3.743   1.740  12.777  0.9445 -0.2527 -4.0537
 4187SOL     OW24193   2.814   0.821   1.399 -0.3637  0.3580  0.2488
 4187SOL    HW124194   2.889   0.840   1.343 -0.2936  0.0107  0.2273
 4187SOL    HW224195   2.749   0.813   1.329  0.4742  0.4333 -0.5396
 4188SOL     OW24196   4.424   0.693   2.447  0.4414 -0.2668 -0.1336
 4188SOL    HW124197   4.467   0.712   2.363 -0.2346 -1.2611 -0.7114
 4188SOL    HW224198   4.354   0.633   2.421 -0.2287 -1.7346  5.0747
 4189SOL     OW24199   4.014   0.599   8.288 -0.5123  0.0981  0.6594
 4189SOL    HW124200   3.945   0.563   8.343  0.1587 -2.4550 -0.1652
 4189SOL    HW224201   4.075   0.526   8.302  3.2631  3.0488 -0.2490
 4190SOL     OW24202   3.588   1.823   3.761 -0.1623 -0.0335  0.0669
 4190SOL    HW124203   3.504   1.846   3.721  0.4282 -1.5806 -2.0177
 4190SOL    HW224204   3.558   1.846   3.849 -3.1269 -1.5710 -0.5546
 4191SOL     OW24205   3.266   0.641  15.726  0.0293 -0.1080  0.4155
 4191SOL    HW124206   3.202   0.665  15.658 -1.1910  1.0941  1.9855
 4191SOL    HW224207   3.329   0.598  15.668  2.7524  2.4561  1.4784
 4192SOL     OW24208   0.902   0.981   9.171  0.0991  0.2218  0.1982
 4192SOL    HW124209   0.836   0.918   9.199  1.4967 -0.6173  1.5986
 4192SOL    HW224210   0.860   1.008   9.089  0.2569  1.2462  0.4468
 4193SOL     OW24211   1.968   2.460   7.342  0.1126 -0.4068  0.1840
 4193SOL    HW124212   2.060   2.485   7.332  0.0607  0.2599  1.3629
 4193SOL    HW224213   1.986   2.401   7.416  2.2452  1.0221  0.8041
 4194SOL     OW24214   3.591   2.907   1.749 -1.0087  0.2855 -0.6514
 4194SOL    HW124215   3.554   2.865   1.672 -0.7554  1.2563 -1.3096
 4194SOL    HW224216   3.682   2.912   1.720 -1.0058  0.0370 -0.6797
 4195SOL     OW24217   4.024   4.562   3.401 -1.1107  0.0964  0.8438
 4195SOL    HW124218   4.024   4.474   3.440 -1.4329  0.3769  1.4891
 4195SOL    HW224219   4.084   4.613   3.454  0.3112 -0.0002 -0.6857
 4196SOL     OW24220   0.818   2.303   1.758 -0.6190  0.8231  0.1704
 4196SOL    HW124221   0.782   2.386   1.727 -1.5662  0.3099 -0.1221
 4196SOL    HW224222   0.854   2.261   1.680  1.7575 -0.0875  1.7585
 4197SOL     OW24223   1.201   1.603   9.640 -0.3345  0.6431  0.5214
 4197SOL    HW124224   1.255   1.648   9.704  0.6799 -1.9906  1.5302
 4197SOL    HW224225   1.145   1.569   9.709 -0.4256  2.4130  1.2962
 4198SOL     OW24226   1.260   1.278   6.989  0.0040 -0.1594  0.2688
 4198SOL    HW124227   1.224   1.234   6.912 -1.6633 -1.7605  1.9749
 4198SOL    HW224228   1.271   1.204   7.048  1.0040  0.6976  1.1862
 4199SOL     OW24229   3.584   3.042  17.574 -0.0659 -0.3809 -0.0629
 4199SOL    HW124230   3.575   3.020  17.667 -0.6405 -1.4952 -0.3899
 4199SOL    HW224231   3.675   3.072  17.578  0.2912 -1.2841 -1.6226
 4200SOL     OW24232   2.939   0.893   9.756  0.1407 -0.0624 -0.1008
 4200SOL    HW124233   2.937   0.962   9.690 -3.8329 -0.6909 -0.6910
 4200SOL    HW224234   2.845   0.887   9.775  0.4047  1.9595  1.8461
 4201SOL     OW24235   0.452   1.930   6.441 -0.6494 -0.5297 -0.4189
 4201SOL    HW124236   0.395   1.970   6.375 -0.4008 -1.0834 -0.9671
 4201SOL    HW224237   0.396   1.864   6.482 -1.5945  0.3918 -0.2018
 4202SOL     OW24238   2.528   3.132   6.523 -0.1376  0.3166  0.0551
 4202SOL    HW124239   2.536   3.226   6.533 -0.9077  0.4870 -0.8804
 4202SOL    HW224240   2.591   3.118   6.453 -0.7194 -2.8581  0.1302
 4203SOL     OW24241   3.596   4.653  12.870  0.0657  0.0577  0.1438
 4203SOL    HW124242   3.674   4.607  12.898 -1.3892 -2.5574 -0.0873
 4203SOL    HW224243   3.611   4.653  12.776 -0.2760  2.5455  0.0784
 4204SOL     OW24244   1.232   1.718   2.575  0.7150 -0.0381  0.5726
 4204SOL    HW124245   1.164   1.655   2.599 -0.4586  1.8449  2.1676
 4204SOL    HW224246   1.258   1.676   2.493 -0.8669 -0.9578  0.5272
 4205SOL     OW24247   1.581   3.637   1.999 -0.3488  0.2552 -0.7526
 4205SOL    HW124248   1.638   3.638   2.076 -1.6199 -5.4243  0.2350
 4205SOL    HW224249   1.490   3.645   2.028  0.5123  0.4875  1.8966
 4206SOL     OW24250   0.574   3.487   2.795 -0.4712  0.2328 -0.2608
 4206SOL    HW124251   0.543   3.467   2.707  0.2020  0.6233 -0.5863
 4206SOL    HW224252   0.595   3.395   2.813  0.6441  0.7505  1.0968
 4207SOL     OW24253   3.564   2.389   0.650 -0.1891  0.0153  0.0886
 4207SOL    HW124254   3.469   2.399   0.651 -0.0042  1.7420 -1.8814
 4207SOL    HW224255   3.564   2.315   0.589 -2.1598 -0.3609  0.5487
 4208SOL     OW24256   0.234   4.365   4.609  0.0056  0.0547  0.5373
 4208SOL    HW124257   0.231   4.432   4.677 -0.1938  1.5144 -0.9154
 4208SOL    HW224258   0.143   4.334   4.602  1.3067 -3.5155 -0.4804
 4209SOL     OW24259   2.997   0.013  11.155 -0.0727 -0.3248  0.4933
 4209SOL    HW124260   2.985   0.077  11.226  2.4511 -0.3178  0.9257
 4209SOL    HW224261   3.055   0.074  11.109 -3.3842  0.7783 -2.2432
 4210SOL     OW24262   1.763   3.049   2.327  0.0810 -0.0746 -0.3176
 4210SOL    HW124263   1.697   3.000   2.276 -0.3082 -0.8902  0.9706
 4210SOL    HW224264   1.834   3.036   2.264  1.3407 -0.6995  1.2436
 4211SOL     OW24265   3.853   4.603   8.609  0.1458  0.4675 -0.0001
 4211SOL    HW124266   3.912   4.560   8.547 -0.1921  0.0520 -0.0292
 4211SOL    HW224267   3.773   4.552   8.599 -0.9837  2.2759 -0.1620
 4212SOL     OW24268   1.148   0.621   5.183 -0.7218  0.5659  0.4200
 4212SOL    HW124269   1.101   0.659   5.109 -1.0393 -0.8650 -0.1127
 4212SOL    HW224270   1.238   0.617   5.150 -0.3189  1.6961  1.4321
 4213SOL     OW24271   1.934   4.703   9.986 -0.3990 -0.4871  0.5666
 4213SOL    HW124272   2.017   4.701   9.938  1.3102 -1.3882  3.5407
 4213SOL    HW224273   1.942   0.039  10.048 -0.1516 -0.7800  0.8804
 4214SOL     OW24274   0.760   1.753  15.977 -0.7004 -0.3481 -0.5925
 4214SOL    HW124275   0.683   1.809  15.965  1.0939  2.5334  1.3510
 4214SOL    HW224276   0.738   1.681  15.917  0.0567 -0.2108 -1.0337
 4215SOL     OW24277   3.092   4.184   4.504  0.4467 -0.2678 -0.1173
 4215SOL    HW124278   3.078   4.265   4.553  0.4620 -0.8698  0.8849
 4215SOL    HW224279   3.141   4.128   4.565 -0.6721 -0.9310  0.1706
 4216SOL     OW24280   2.397   0.017   1.940  0.1807  0.1743 -0.0152
 4216SOL    HW124281   2.342   0.047   1.868  1.0677  0.0461 -0.7378
 4216SOL    HW224282   2.354   0.069   2.008  2.4534  0.3517  1.2937
 4217SOL     OW24283   1.001   4.445   0.761 -0.0268 -0.1693 -0.3666
 4217SOL    HW124284   1.000   4.466   0.854 -0.4736 -1.7985 -0.0026
 4217SOL    HW224285   1.078   4.493   0.731  0.1407 -0.3346 -0.2049
 4218SOL     OW24286   4.689   1.848   8.393  0.3941  0.1920 -0.5277
 4218SOL    HW124287   0.008   1.896   8.332  0.3467  0.7711 -0.1073
 4218SOL    HW224288   4.631   1.916   8.426  0.8647  1.5236 -2.4076
 4219SOL     OW24289   3.042   0.203   7.206  0.0332 -0.3388  0.9055
 4219SOL    HW124290   3.052   0.185   7.112  1.2630  0.9807  0.7967
 4219SOL    HW224291   3.099   0.279   7.210  0.5474 -0.5868 -1.6863
 4220SOL     OW24292   3.003   2.497   9.342 -0.2356 -0.6452  0.0864
 4220SOL    HW124293   3.005   2.416   9.292  2.5791 -2.1207  2.6202
 4220SOL    HW224294   3.032   2.561   9.277  2.0306 -2.6181 -0.8013
 4221SOL     OW24295   3.080   0.744   9.535  0.2368 -0.0453 -0.3679
 4221SOL    HW124296   3.142   0.814   9.512  2.5916 -0.8549  3.3825
 4221SOL    HW224297   3.007   0.779   9.586 -0.7951 -3.1463  0.2726
 4222SOL     OW24298   0.536   1.101   4.012  0.1885  0.2429 -0.2689
 4222SOL    HW124299   0.533   1.187   3.970 -0.8488  0.6467  0.6524
 4222SOL    HW224300   0.496   1.047   3.944 -0.3568  0.2049  0.0840
 4223SOL     OW24301   3.581   2.740   5.822  0.8120  0.2942 -0.1427
 4223SOL    HW124302   3.570   2.798   5.898 -0.6819  0.4601 -0.4815
 4223SOL    HW224303   3.658   2.779   5.782  1.1051 -0.6153 -0.4696
 4224SOL     OW24304   3.319   0.629   3.383 -0.3235  0.3154 -0.6869
 4224SOL    HW124305   3.284   0.590   3.463 -1.4074  0.3922 -1.1195
 4224SOL    HW224306   3.343   0.555   3.328 -0.3659  0.2697 -0.6432
 4225SOL     OW24307   0.094   1.436   3.208 -0.3036  0.0188  0.2965
 4225SOL    HW124308   0.084   1.378   3.132 -1.9236  1.4988 -0.6213
 4225SOL    HW224309   0.099   1.368   3.275 -1.0051 -0.7321 -0.3919
 4226SOL     OW24310   0.514   4.208   8.340 -0.7778 -0.1997 -0.4869
 4226SOL    HW124311   0.449   4.234   8.275  1.2394  0.7219 -2.1288
 4226SOL    HW224312   0.536   4.299   8.363 -3.2178  0.5428 -1.1519
 4227SOL     OW24313   0.998   0.001  10.051 -0.0770 -0.4499  0.1803
 4227SOL    HW124314   1.088   0.021  10.027 -0.2834  1.8453  1.2925
 4227SOL    HW224315   0.964   0.082  10.090 -3.0485 -0.7403 -1.7779
 4228SOL     OW24316   3.319   2.851  14.528 -0.4690 -0.3180  0.1235
 4228SOL    HW124317   3.286   2.846  14.618 -0.6764  0.7019  0.1037
 4228SOL    HW224318   3.263   2.910  14.478 -2.2404 -2.3373 -0.2581
 4229SOL     OW24319   1.439   0.082  14.385  0.0207  0.3115  0.5307
 4229SOL    HW124320   1.473   0.124  14.464 -1.2122 -0.3361  1.3929
 4229SOL    HW224321   1.446   0.152  14.320  1.1531  0.6053  0.9663
 4230SOL     OW24322   3.150   0.170   1.881 -1.0428 -0.3757 -0.0467
 4230SOL    HW124323   3.172   0.241   1.942  1.8950 -0.4948 -0.9989
 4230SOL    HW224324   3.236   0.129   1.877 -1.8460 -1.8855 -1.5931
 4231SOL     OW24325   0.569   0.566   6.044 -0.0125  0.4089 -0.0076
 4231SOL    HW124326   0.565   0.589   5.952  0.4868 -1.3254 -0.4611
 4231SOL    HW224327   0.491   0.512   6.057 -0.4134  1.3082  1.3692
 4232SOL     OW24328   4.297   3.065   4.473 -0.2105 -0.3952 -0.1088
 4232SOL    HW124329   4.365   3.068   4.541  1.6118 -1.9563 -1.8791
 4232SOL    HW224330   4.293   2.971   4.457  0.8465 -0.6947  1.4265
 4233SOL     OW24331   3.099   2.766   7.725 -0.4047  0.2848 -0.2539
 4233SOL    HW124332   3.164   2.829   7.693  1.1569 -1.0412  0.3350
 4233SOL    HW224333   3.156   2.699   7.762 -0.6676  0.8039  1.0925
 4234SOL     OW24334   2.342   0.277  15.333 -0.0230  0.4635 -0.0474
 4234SOL    HW124335   2.293   0.288  15.251 -0.5467 -1.5185  0.0061
 4234SOL    HW224336   2.282   0.324  15.391  0.0273 -0.5945  0.8595
 4235SOL     OW24337   0.125   4.146   5.757  0.4701  0.4589 -0.1895
 4235SOL    HW124338   0.144   4.068   5.808 -0.1603 -0.0995 -0.8076
 4235SOL    HW224339   0.137   4.120   5.665 -2.0103  0.5097 -0.5452
 4236SOL     OW24340   4.387   3.553  13.751  0.4921 -0.1467 -0.2358
 4236SOL    HW124341   4.463   3.498  13.730  0.5250 -0.3666  0.4742
 4236SOL    HW224342   4.383   3.615  13.678 -0.7739 -0.0062 -0.0426
 4237SOL     OW24343   2.447   1.836   5.551  0.1915  0.3695 -0.0882
 4237SOL    HW124344   2.409   1.749   5.556  0.1585  0.4718  1.3123
 4237SOL    HW224345   2.448   1.873   5.639  1.0382  2.0412 -0.7881
 4238SOL     OW24346   0.678   3.685   5.302 -0.3974 -0.2707 -0.3585
 4238SOL    HW124347   0.607   3.624   5.321 -1.5336  0.9194 -0.8221
 4238SOL    HW224348   0.640   3.743   5.236 -2.1484  0.2056  1.0782
 4239SOL     OW24349   2.313   3.847  11.958  0.2242  0.1600  0.0242
 4239SOL    HW124350   2.315   3.873  12.050 -0.0046  2.8112 -0.7032
 4239SOL    HW224351   2.221   3.854  11.930 -0.1378 -0.4896  1.0743
 4240SOL     OW24352   2.947   2.483   2.127  0.3146 -0.3402  0.0925
 4240SOL    HW124353   2.917   2.428   2.055 -1.6034  2.6073 -1.3853
 4240SOL    HW224354   2.996   2.549   2.077 -1.2530  1.7144  1.2977
 4241SOL     OW24355   3.396   2.816   5.431  0.1300 -0.2099 -0.3238
 4241SOL    HW124356   3.428   2.737   5.474  0.0901 -0.2969 -0.4560
 4241SOL    HW224357   3.449   2.823   5.351  0.4506  1.3304  0.0208
 4242SOL     OW24358   3.884   3.745   3.710 -0.5114 -0.2464 -0.2241
 4242SOL    HW124359   3.869   3.839   3.699 -1.0177 -0.1169  1.6822
 4242SOL    HW224360   3.979   3.735   3.705 -0.3950  0.7013  0.0204
 4243SOL     OW24361   4.055   3.296   4.660  0.3459 -0.3972 -0.1847
 4243SOL    HW124362   3.966   3.325   4.680  0.6719  1.5508 -1.5582
 4243SOL    HW224363   4.035   3.248   4.579  1.5921  0.8432 -1.2179
 4244SOL     OW24364   1.684   1.093   5.724  0.1963  0.8410 -0.4917
 4244SOL    HW124365   1.744   1.101   5.650 -1.1321  1.3771 -1.5096
 4244SOL    HW224366   1.639   1.177   5.710 -2.8026 -0.8547 -1.0070
 4245SOL     OW24367   0.170   3.532  12.714  0.4327  0.6285  0.3581
 4245SOL    HW124368   0.157   3.627  12.711  3.0775  0.8523 -3.9321
 4245SOL    HW224369   0.265   3.522  12.708 -0.2073 -3.7299 -2.4535
 4246SOL     OW24370   3.568   0.608   8.880  0.1862 -0.2619  0.0614
 4246SOL    HW124371   3.609   0.677   8.828 -1.3638  0.6375  0.0326
 4246SOL    HW224372   3.525   0.670   8.939 -0.8175  0.1868 -1.1202
 4247SOL     OW24373   2.761   1.437   5.536  0.7313 -0.3047 -0.0057
 4247SOL    HW124374   2.831   1.445   5.471  0.5687 -1.7074 -0.3704
 4247SOL    HW224375   2.677   1.432   5.491 -0.1421 -0.0484  1.6180
 4248SOL     OW24376   1.101   0.730  12.400 -0.3769 -0.5956  0.3429
 4248SOL    HW124377   1.084   0.743  12.494  1.4426  1.5820  0.3846
 4248SOL    HW224378   1.111   0.635  12.394  1.7890 -0.4552  1.6050
 4249SOL     OW24379   3.312   1.637   3.572  0.3579 -0.0252 -0.2859
 4249SOL    HW124380   3.354   1.554   3.549  1.2081  0.9646 -2.2413
 4249SOL    HW224381   3.251   1.598   3.636  3.8426 -1.9490  1.8674
 4250SOL     OW24382   1.331   3.031   9.252  0.4596  0.7219 -0.2232
 4250SOL    HW124383   1.276   2.957   9.276  0.3132  0.3990 -1.5568
 4250SOL    HW224384   1.368   3.014   9.165 -1.7267  0.9683 -1.1956
 4251SOL     OW24385   3.354   0.637   1.874  0.7620 -0.0230 -0.0931
 4251SOL    HW124386   3.396   0.697   1.936  0.8863  0.0527 -0.2497
 4251SOL    HW224387   3.412   0.562   1.870  0.6569 -0.1233  0.2882
 4252SOL     OW24388   0.612   2.314   5.339  0.1941 -0.6129 -0.1953
 4252SOL    HW124389   0.602   2.227   5.301 -1.5669 -0.5267  0.0623
 4252SOL    HW224390   0.544   2.308   5.406  0.5548 -0.3572  0.1855
 4253SOL     OW24391   0.864   2.727   5.167 -0.1708 -0.0243 -0.3450
 4253SOL    HW124392   0.811   2.791   5.214 -2.1805 -0.7691 -1.5985
 4253SOL    HW224393   0.801   2.659   5.145 -0.1688 -0.0689 -0.2110
 4254SOL     OW24394   4.571   4.678   9.430  0.1832 -0.1744 -0.2304
 4254SOL    HW124395   4.610   4.607   9.480  0.1061 -0.1074 -0.0728
 4254SOL    HW224396   4.484   4.642   9.415  0.4528 -1.3961  1.1421
 4255SOL     OW24397   4.459   4.418   3.154 -0.0809 -0.1993 -0.6880
 4255SOL    HW124398   4.496   4.497   3.116  2.4237 -1.6528 -1.2688
 4255SOL    HW224399   4.487   4.425   3.245 -1.7385 -2.8295  0.0093
 4256SOL     OW24400   1.329   4.169   3.299  0.2853 -0.6165  0.1169
 4256SOL    HW124401   1.424   4.169   3.304  0.2006  1.0553  1.3213
 4256SOL    HW224402   1.313   4.208   3.213  3.0483 -0.5948 -0.3766
 4257SOL     OW24403   4.169   2.513  15.493 -0.7213  0.5246 -0.5531
 4257SOL    HW124404   4.172   2.576  15.422 -2.9012  1.2429 -0.0255
 4257SOL    HW224405   4.163   2.430  15.446 -2.8455  0.6947 -0.5866
 4258SOL     OW24406   0.350   4.672   4.694 -0.1339  0.4495 -0.2132
 4258SOL    HW124407   0.397   4.662   4.777 -0.4690  0.2118 -0.0550
 4258SOL    HW224408   0.352   0.029   4.675  0.9930 -0.0325 -2.3984
 4259SOL     OW24409   0.636   2.905  15.342  0.6255  0.6299 -0.1336
 4259SOL    HW124410   0.636   2.809  15.337  0.9582  0.6674 -0.8549
 4259SOL    HW224411   0.595   2.904  15.428  0.8438  2.5080 -0.0250
 4260SOL     OW24412   2.413   0.878   5.378  0.3635  0.4418  0.3346
 4260SOL    HW124413   2.380   0.788   5.388  0.5419  0.5416  1.9040
 4260SOL    HW224414   2.477   0.866   5.449  1.3185  1.0458 -0.4291
 4261SOL     OW24415   2.429   1.520   3.035 -0.5300 -0.2516  0.5771
 4261SOL    HW124416   2.445   1.562   2.951  0.6855 -1.7150  0.0628
 4261SOL    HW224417   2.504   1.460   3.039  0.0106  0.2418 -1.7844
 4262SOL     OW24418   2.078   4.220   9.835 -0.0302  0.3824  0.1830
 4262SOL    HW124419   2.038   4.138   9.806  1.5172 -0.5893  0.8011
 4262SOL    HW224420   2.029   4.287   9.788  0.4792  0.4906 -0.1964
 4263SOL     OW24421   1.670   1.124   4.778 -0.4460  0.0985  0.2608
 4263SOL    HW124422   1.687   1.066   4.853 -0.2048  0.5462  0.5543
 4263SOL    HW224423   1.588   1.168   4.800  1.1442  1.9912  2.4341
 4264SOL     OW24424   4.367   3.076   3.953 -0.0453  0.1244  0.3339
 4264SOL    HW124425   4.324   3.139   4.010  0.6521  0.9985 -0.1038
 4264SOL    HW224426   4.448   3.119   3.924 -0.4950 -0.4414 -1.7631
 4265SOL     OW24427   3.482   4.560   7.030 -0.3273  0.2049 -0.6816
 4265SOL    HW124428   3.481   4.476   6.985  1.4682 -1.1688  1.8278
 4265SOL    HW224429   3.502   4.534   7.120 -2.4280  2.3640  0.4238
 4266SOL     OW24430   1.646   3.179   1.890  0.0237  0.0370  0.4181
 4266SOL    HW124431   1.596   3.253   1.856  1.1625  1.2139  1.3290
 4266SOL    HW224432   1.712   3.162   1.822  0.5825  0.0653  0.9587
 4267SOL     OW24433   2.341   3.508   7.929 -0.8163 -0.1041 -0.2070
 4267SOL    HW124434   2.403   3.435   7.922  0.5175  0.8009  2.1829
 4267SOL    HW224435   2.301   3.502   7.842  1.9764 -1.7575 -1.3889
 4268SOL     OW24436   0.035   3.807   4.441  0.1349  0.0015  0.4093
 4268SOL    HW124437   0.009   3.766   4.359 -0.1617  4.1952 -1.6116
 4268SOL    HW224438   0.080   3.736   4.487  0.1152 -0.2585  0.0280
 4269SOL     OW24439   0.136   2.092   8.286 -0.0415  0.0140 -0.3323
 4269SOL    HW124440   0.231   2.108   8.290 -0.1374  0.2494  0.9099
 4269SOL    HW224441   0.116   2.139   8.367  1.0690 -0.9253  0.4873
 4270SOL     OW24442   2.025   4.025  10.147 -0.1036 -0.2619 -0.2936
 4270SOL    HW124443   1.934   4.019  10.176 -0.2514  1.4920 -0.3786
 4270SOL    HW224444   2.073   4.050  10.226 -1.3123  0.5968  0.1731
 4271SOL     OW24445   2.084   4.128   0.367  0.2891 -0.1813  0.4578
 4271SOL    HW124446   2.121   4.087   0.445  2.1815 -0.3132 -0.5095
 4271SOL    HW224447   2.131   4.083   0.297 -0.1400 -0.7141  0.5120
 4272SOL     OW24448   0.386   3.840   3.348  0.2565 -0.1957  0.2927
 4272SOL    HW124449   0.431   3.851   3.265  0.4727 -0.2865  0.3982
 4272SOL    HW224450   0.350   3.929   3.350 -1.2996 -0.7533 -2.5033
 4273SOL     OW24451   2.738   2.345   6.391 -0.1425 -0.5230 -0.2493
 4273SOL    HW124452   2.820   2.312   6.425 -0.3363 -0.1488  0.5833
 4273SOL    HW224453   2.762   2.341   6.298  1.2899  0.0193  0.1084
 4274SOL     OW24454   1.906   0.138   6.393 -0.3898 -0.6246  0.4284
 4274SOL    HW124455   1.990   0.184   6.394 -0.3021 -0.6910 -2.6152
 4274SOL    HW224456   1.936   0.047   6.394  1.1002 -0.1501 -0.8358
 4275SOL     OW24457   1.243   3.542   3.591 -0.1375 -0.2875  0.3005
 4275SOL    HW124458   1.157   3.538   3.634 -0.6953  1.5328 -0.6693
 4275SOL    HW224459   1.292   3.502   3.663  0.6694  1.2536  0.5966
 4276SOL     OW24460   0.844   3.657   0.958 -0.0344  0.8146  0.7842
 4276SOL    HW124461   0.916   3.704   0.916  0.2378  0.1805  0.5370
 4276SOL    HW224462   0.793   3.732   0.987 -0.3168  0.6697  0.6631
 4277SOL     OW24463   1.471   2.213   4.489  0.8291  0.1857  0.3753
 4277SOL    HW124464   1.414   2.227   4.413  2.5090 -0.8788 -1.0688
 4277SOL    HW224465   1.533   2.147   4.458  0.2856 -0.3874  0.5113
 4278SOL     OW24466   2.136   3.506   6.764  0.4646  0.1081 -0.2441
 4278SOL    HW124467   2.165   3.416   6.748  0.3210  0.1764 -0.8830
 4278SOL    HW224468   2.082   3.524   6.687 -0.4513 -1.3027  0.0790
 4279SOL     OW24469   0.624   2.447   4.774  0.0301  0.4926  0.4746
 4279SOL    HW124470   0.566   2.375   4.801 -0.8380  1.2635  0.6774
 4279SOL    HW224471   0.701   2.415   4.821  1.7105  0.9556 -1.9543
 4280SOL     OW24472   1.745   3.684   5.561  0.3511 -0.1022 -0.4247
 4280SOL    HW124473   1.650   3.675   5.553  0.0696  1.0098  1.3917
 4280SOL    HW224474   1.763   3.617   5.627  1.4633  0.7936  0.1900
 4281SOL     OW24475   0.185   1.904   5.720 -0.0392 -0.1215 -0.1578
 4281SOL    HW124476   0.251   1.926   5.654  0.5803  0.4581  0.6458
 4281SOL    HW224477   0.172   1.811   5.703  0.9280 -0.4982  1.1694
 4282SOL     OW24478   0.317   4.301   8.129 -0.2598  0.1186 -0.5453
 4282SOL    HW124479   0.371   4.305   8.051 -1.1022  0.1309 -1.1283
 4282SOL    HW224480   0.266   4.382   8.117 -1.1969 -0.6221 -1.5974
 4283SOL     OW24481   0.685   1.107   4.761 -0.5489  0.5999 -0.0075
 4283SOL    HW124482   0.600   1.123   4.721 -1.0281  0.8856  1.0963
 4283SOL    HW224483   0.656   1.059   4.839 -2.7756 -0.9026 -1.7842
 4284SOL     OW24484   3.651   2.148   5.850 -0.0477  0.2523 -0.1420
 4284SOL    HW124485   3.669   2.236   5.816 -1.3153  0.3019 -0.6910
 4284SOL    HW224486   3.620   2.171   5.937  1.8236 -0.0919  0.6147
 4285SOL     OW24487   4.626   1.928  17.271  0.1096 -0.1844  0.1927
 4285SOL    HW124488   4.720   1.915  17.267  0.0032 -0.0995 -2.4186
 4285SOL    HW224489   4.611   1.898  17.361 -0.3332  0.1839  0.2456
 4286SOL     OW24490   0.210   1.581  17.352  0.2576 -0.3674  0.0221
 4286SOL    HW124491   0.297   1.566  17.389  0.9303  1.6486 -0.7634
 4286SOL    HW224492   0.157   1.514  17.396  0.8402 -0.6654  0.2763
 4287SOL     OW24493   0.712   0.908   5.619 -0.6815  0.0337 -0.3311
 4287SOL    HW124494   0.792   0.907   5.672 -1.0252  0.4269  0.1912
 4287SOL    HW224495   0.751   0.933   5.535 -0.4069  0.4960 -0.0645
 4288SOL     OW24496   4.219   2.763   2.591  0.0722 -0.2071  0.6846
 4288SOL    HW124497   4.162   2.798   2.659 -3.4580 -3.2483 -0.7759
 4288SOL    HW224498   4.188   2.674   2.577  1.1717 -0.5940  0.7291
 4289SOL     OW24499   0.221   3.592   7.784 -0.3122 -0.1133  0.0231
 4289SOL    HW124500   0.220   3.503   7.819  0.1843  0.4336  1.4079
 4289SOL    HW224501   0.315   3.603   7.775 -0.6657  1.2655 -2.0054
 4290SOL     OW24502   0.231   3.941   7.410  0.3426 -0.8438 -0.1115
 4290SOL    HW124503   0.148   3.979   7.438  1.6903  1.3749  0.8808
 4290SOL    HW224504   0.208   3.849   7.413  0.1805 -0.8093 -0.2973
 4291SOL     OW24505   4.594   1.843  12.411 -0.3493  0.5431 -0.3694
 4291SOL    HW124506   4.657   1.876  12.347 -1.8429  0.4701 -1.9045
 4291SOL    HW224507   4.530   1.806  12.350 -1.6325  0.0412  1.2672
 4292SOL     OW24508   0.533   1.411   0.885  0.5467 -0.1715  0.0995
 4292SOL    HW124509   0.567   1.322   0.894 -1.4592 -0.9621 -0.1710
 4292SOL    HW224510   0.468   1.430   0.953  1.4931  1.2064  0.6048
 4293SOL     OW24511   4.194   0.308   8.955 -0.2276 -0.1664 -0.2786
 4293SOL    HW124512   4.269   0.277   9.005  0.1953  0.1413 -0.7283
 4293SOL    HW224513   4.213   0.401   8.956 -0.7594 -0.0858  1.8481
 4294SOL     OW24514   0.763   0.070   0.941  0.3439 -0.1870 -0.4227
 4294SOL    HW124515   0.720   0.040   0.861 -0.4898 -2.5137  0.8880
 4294SOL    HW224516   0.684   0.068   0.995 -0.8215  2.6650 -2.0310
 4295SOL     OW24517   0.513   4.327   2.595  0.1186 -0.5671 -1.2746
 4295SOL    HW124518   0.539   4.338   2.504  4.6088 -0.0796  0.0903
 4295SOL    HW224519   0.548   4.239   2.606  1.5177 -0.1535 -2.4126
 4296SOL     OW24520   0.408   1.330   6.804 -0.1250 -0.4832  0.4127
 4296SOL    HW124521   0.448   1.347   6.890 -0.7252 -0.6032  0.7113
 4296SOL    HW224522   0.485   1.355   6.752  0.8988 -1.2713  1.5326
 4297SOL     OW24523   2.471   3.106   6.849  0.8230 -0.0685 -0.0010
 4297SOL    HW124524   2.424   3.157   6.783 -0.0760 -1.8102 -0.7319
 4297SOL    HW224525   2.417   3.028   6.860 -0.8581  1.3343  1.6441
 4298SOL     OW24526   1.241   1.699   4.407  0.0803  0.4548  0.6909
 4298SOL    HW124527   1.323   1.747   4.408 -0.4125  1.3010  1.1734
 4298SOL    HW224528   1.209   1.679   4.495 -1.2365  0.1435  0.1515
 4299SOL     OW24529   3.862   4.141  15.632 -0.3517 -0.0407 -0.2041
 4299SOL    HW124530   3.911   4.137  15.714  0.5676 -0.0215 -0.7479
 4299SOL    HW224531   3.909   4.078  15.577  0.6085  0.9370 -0.5056
 4300SOL     OW24532   3.112   1.084  14.701 -0.2166 -0.0674  0.3579
 4300SOL    HW124533   3.112   1.005  14.647 -0.6776  1.0609 -1.2937
 4300SOL    HW224534   3.199   1.121  14.691 -0.3876 -0.0957 -1.1833
 4301SOL     OW24535   2.718   1.345   8.160  0.0973 -0.3857  0.0292
 4301SOL    HW124536   2.642   1.290   8.141 -1.2485  1.4663  0.0541
 4301SOL    HW224537   2.702   1.411   8.093 -1.5925 -0.9740 -0.1453
 4302SOL     OW24538   3.343   2.756   4.985  0.3085 -0.6479 -0.5104
 4302SOL    HW124539   3.282   2.688   5.014 -0.2579  0.0676 -0.0069
 4302SOL    HW224540   3.397   2.765   5.063  1.9034 -0.7990 -1.5861
 4303SOL     OW24541   1.004   0.867  12.181  0.0409 -0.0011 -0.0491
 4303SOL    HW124542   1.091   0.907  12.177 -0.2593  0.6098 -0.3486
 4303SOL    HW224543   1.029   0.783  12.221 -1.1773 -1.0899 -1.5664
 4304SOL     OW24544   1.179   2.820   3.381  0.0356  0.4989  0.3998
 4304SOL    HW124545   1.259   2.817   3.433 -0.3864  2.5944  1.1980
 4304SOL    HW224546   1.205   2.770   3.304 -0.3040  0.2002  0.4788
 4305SOL     OW24547   2.608   4.628   9.884 -0.0262 -0.2946  0.0923
 4305SOL    HW124548   2.604   4.534   9.903 -0.0408 -0.6157 -1.5725
 4305SOL    HW224549   2.700   4.639   9.910  0.2003  0.1783 -0.9352
 4306SOL     OW24550   1.460   2.584  13.870 -0.4845 -0.0282 -0.6353
 4306SOL    HW124551   1.553   2.561  13.872  0.0824  2.3521  0.5900
 4306SOL    HW224552   1.418   2.541  13.796 -1.2628  0.3977 -0.4413
 4307SOL     OW24553   3.015   1.407   6.229  0.2728 -0.0008 -0.0380
 4307SOL    HW124554   2.963   1.350   6.171 -0.8736  0.1110  0.8752
 4307SOL    HW224555   3.043   1.342   6.293  0.6500  0.6181  0.4185
 4308SOL     OW24556   1.731   0.279   3.629  0.2099 -0.4598 -0.4811
 4308SOL    HW124557   1.691   0.341   3.690 -0.2233  0.0587 -1.2924
 4308SOL    HW224558   1.676   0.282   3.550 -2.0371  1.0416  1.1499
 4309SOL     OW24559   0.881   2.378  17.677 -0.8994 -0.0223  0.0692
 4309SOL    HW124560   0.874   2.468  17.709  0.1783  0.2242 -0.3890
 4309SOL    HW224561   0.799   2.335  17.702  0.4599 -1.2263  2.4711
 4310SOL     OW24562   2.244   1.040  16.662  0.8040  0.0259 -0.2882
 4310SOL    HW124563   2.240   1.134  16.679  0.6689 -0.1327  0.5498
 4310SOL    HW224564   2.187   1.039  16.585 -1.9243 -0.3242  1.7320
 4311SOL     OW24565   2.737   0.963   6.240  0.0704  0.2573  0.5527
 4311SOL    HW124566   2.784   0.966   6.323  0.6758 -0.0188  0.2247
 4311SOL    HW224567   2.757   0.873   6.212  2.1133  0.8968 -0.0093
 4312SOL     OW24568   2.607   3.214  11.347 -0.1523 -0.0306  0.7758
 4312SOL    HW124569   2.660   3.150  11.393  0.3187  0.2196  0.5876
 4312SOL    HW224570   2.566   3.252  11.424  0.5147  3.2999 -0.4989
 4313SOL     OW24571   1.841   1.417   2.526 -0.1905 -0.3262  0.2124
 4313SOL    HW124572   1.830   1.494   2.470 -0.5015  0.7496  1.7555
 4313SOL    HW224573   1.853   1.454   2.613 -3.0649 -0.6559  0.7626
 4314SOL     OW24574   0.696   3.874   6.607  0.1514  0.2634 -0.0845
 4314SOL    HW124575   0.637   3.945   6.579  0.1335 -0.0179 -0.7542
 4314SOL    HW224576   0.684   3.873   6.702  0.3329 -1.1137 -0.0743
 4315SOL     OW24577   3.210   1.661   7.531  0.1528 -0.1180  0.3057
 4315SOL    HW124578   3.216   1.756   7.544  3.1201 -0.0228 -1.8286
 4315SOL    HW224579   3.225   1.624   7.618 -3.1789  3.0325  2.2240
 4316SOL     OW24580   3.106   4.221  16.920  0.4820  0.3171  0.2944
 4316SOL    HW124581   3.116   4.286  16.850 -1.0015  0.9749  0.6984
 4316SOL    HW224582   3.056   4.272  16.983  0.2907  0.9698 -0.3860
 4317SOL     OW24583   0.435   2.090   3.109  0.0937 -0.2486 -0.8492
 4317SOL    HW124584   0.392   2.077   3.025  0.6846  2.2420 -1.5265
 4317SOL    HW224585   0.370   2.047   3.165  0.3052 -0.0985 -0.4855
 4318SOL     OW24586   3.913   4.191   5.042 -0.1941  0.7334  0.4778
 4318SOL    HW124587   3.894   4.126   4.974 -1.8507  0.8786  0.8152
 4318SOL    HW224588   3.931   4.134   5.117  0.5259 -0.4440 -0.5726
 4319SOL     OW24589   4.030   1.920   7.012 -0.2345  0.1707  0.1351
 4319SOL    HW124590   4.007   2.002   6.968  0.4066 -0.1620 -0.8185
 4319SOL    HW224591   4.057   1.954   7.097  0.6123 -2.0476  0.7372
 4320SOL     OW24592   2.129   2.901   0.774 -0.3125  0.5612 -0.1999
 4320SOL    HW124593   2.192   2.830   0.772  0.2342  1.0301  0.5792
 4320SOL    HW224594   2.092   2.902   0.685 -1.7329  0.3579  0.3796
 4321SOL     OW24595   1.571   4.524   1.232 -0.0432 -0.1043  0.6132
 4321SOL    HW124596   1.578   4.457   1.164  0.1454 -1.1509  1.6603
 4321SOL    HW224597   1.545   4.600   1.180 -1.6980 -1.0220  0.1146
 4322SOL     OW24598   4.539   3.766  12.612 -0.7798  0.3626  0.0740
 4322SOL    HW124599   4.527   3.857  12.586  0.5157  0.4151 -0.3253
 4322SOL    HW224600   4.589   3.769  12.694  1.7381  0.6488 -1.5061
 4323SOL     OW24601   1.615   1.798   3.027  0.2956  0.0323 -0.1702
 4323SOL    HW124602   1.602   1.825   2.936  1.6342 -0.1424 -0.4122
 4323SOL    HW224603   1.531   1.817   3.068 -0.8622  0.1017 -2.5860
 4324SOL     OW24604   0.517   4.202  15.199 -0.2006 -0.9253  0.0422
 4324SOL    HW124605   0.591   4.220  15.141  0.8014 -0.6222  1.4119
 4324SOL    HW224606   0.455   4.157  15.142 -1.9378  1.6037 -0.0438
 4325SOL     OW24607   1.288   3.768   9.041 -0.3299  0.2992  0.2306
 4325SOL    HW124608   1.286   3.864   9.045  1.0931  0.3022  0.5684
 4325SOL    HW224609   1.243   3.741   9.121  1.3331 -2.2638  0.3008
 4326SOL     OW24610   2.072   3.813  13.099  0.0027 -0.0220 -0.4484
 4326SOL    HW124611   2.004   3.806  13.166 -0.1143  1.2947 -0.4410
 4326SOL    HW224612   2.049   3.886  13.041 -0.2282  0.1199 -0.1790
 4327SOL     OW24613   0.137   0.391   2.624 -0.2202  0.1297  0.2240
 4327SOL    HW124614   0.055   0.437   2.639  0.6967  1.7742  0.2423
 4327SOL    HW224615   0.110   0.308   2.585 -1.7402 -0.2533  2.0963
 4328SOL     OW24616   4.701   3.385   5.855  0.0278  0.0821  0.0038
 4328SOL    HW124617   0.014   3.455   5.898 -0.0923  0.6366 -0.7778
 4328SOL    HW224618   4.712   3.394   5.761 -2.5581 -2.8465 -0.6053
 4329SOL     OW24619   2.684   3.182  13.823 -0.5142  0.1453 -0.0759
 4329SOL    HW124620   2.775   3.201  13.801  0.3434 -1.7050  1.8281
 4329SOL    HW224621   2.658   3.273  13.828 -3.1691 -0.5920 -0.5111
 4330SOL     OW24622   0.900   2.048   3.500  0.4252  0.0375 -0.5981
 4330SOL    HW124623   0.989   2.045   3.536 -0.4219 -0.3231  1.4914
 4330SOL    HW224624   0.868   2.132   3.533 -0.5432 -0.7388  0.4121
 4331SOL     OW24625   0.596   1.576   7.015  0.2401 -0.1446 -0.7235
 4331SOL    HW124626   0.518   1.527   7.042  1.0772 -0.4723  1.0902
 4331SOL    HW224627   0.572   1.608   6.929 -1.0706  1.3717  0.2232
 4332SOL     OW24628   2.782   3.178   9.461 -0.3715 -0.0977 -0.2104
 4332SOL    HW124629   2.803   3.152   9.551 -1.2354  2.2482  0.6909
 4332SOL    HW224630   2.760   3.097   9.416  3.0516 -0.4979 -1.1775
 4333SOL     OW24631   0.000   1.152   9.773  0.5596  0.0791  0.6648
 4333SOL    HW124632   0.078   1.104   9.744  1.1393 -0.6739  3.4912
 4333SOL    HW224633   4.735   1.113   9.861 -1.3702  0.1567  0.6612
 4334SOL     OW24634   3.165   1.951   3.025 -0.4446 -0.0260 -0.3619
 4334SOL    HW124635   3.210   2.034   3.011  0.1427 -0.5174 -1.3887
 4334SOL    HW224636   3.233   1.889   3.049 -0.7755 -0.5482 -0.7671
 4335SOL     OW24637   0.253   2.466   3.468  0.0489 -0.0584  0.4277
 4335SOL    HW124638   0.159   2.475   3.453  0.2384 -0.3875 -0.9618
 4335SOL    HW224639   0.291   2.505   3.389  3.1918 -2.3224  0.7979
 4336SOL     OW24640   0.133   2.272   7.653 -0.2448 -0.1645  0.0857
 4336SOL    HW124641   0.142   2.197   7.594 -1.3591 -0.3018  0.1029
 4336SOL    HW224642   0.106   2.237   7.738 -1.8059 -1.9045 -1.1260
 4337SOL     OW24643   1.913   0.448  16.222  0.3570 -0.2512  0.7155
 4337SOL    HW124644   1.840   0.410  16.172  3.3610 -1.9178 -2.4296
 4337SOL    HW224645   1.881   0.457  16.312 -0.4782  1.4200  0.2479
 4338SOL     OW24646   3.857   1.438   8.642  0.1026 -0.0185  0.2496
 4338SOL    HW124647   3.830   1.352   8.612 -0.1167  0.1014  0.1091
 4338SOL    HW224648   3.789   1.461   8.705 -0.4593 -3.8797  1.0432
 4339SOL     OW24649   1.316   3.601   5.938 -0.3131  0.1659 -0.3063
 4339SOL    HW124650   1.260   3.675   5.915 -0.0805  0.7872  1.1466
 4339SOL    HW224651   1.251   3.531   5.929  0.1127 -0.4067  0.9986
 4340SOL     OW24652   4.732   1.187   3.016 -0.3176  0.4289 -0.1711
 4340SOL    HW124653   4.714   1.095   2.997 -1.7470  0.8403 -0.8421
 4340SOL    HW224654   4.673   1.178   3.092  0.8154 -2.3006  0.3859
 4341SOL     OW24655   2.525   0.720   4.366 -0.6148  0.2904 -1.0009
 4341SOL    HW124656   2.606   0.687   4.403  1.2302  3.4594 -2.1457
 4341SOL    HW224657   2.477   0.640   4.345 -0.1676  0.2588 -1.8940
 4342SOL     OW24658   3.377   1.779   8.848  0.3860 -0.1135 -0.2944
 4342SOL    HW124659   3.337   1.719   8.911  0.3600  1.5928  1.3328
 4342SOL    HW224660   3.392   1.857   8.902 -0.7480 -2.2006  3.0669
 4343SOL     OW24661   1.143   0.768   3.854  0.3420  0.3290  0.5761
 4343SOL    HW124662   1.100   0.840   3.808 -0.4761 -0.9792 -0.6843
 4343SOL    HW224663   1.081   0.696   3.845 -0.1300  0.7187  0.7017
 4344SOL     OW24664   0.154   1.962  17.503 -0.1913  0.2897  0.3158
 4344SOL    HW124665   0.150   2.016  17.425 -1.6677 -0.3029 -0.0249
 4344SOL    HW224666   0.064   1.944  17.531  0.3886 -1.8089  0.8706
 4345SOL     OW24667   1.717   3.173   8.564 -0.2963 -0.0858  0.0642
 4345SOL    HW124668   1.647   3.117   8.598 -0.4353  0.3316  0.4698
 4345SOL    HW224669   1.672   3.215   8.490  1.4946  1.5104 -0.1254
 4346SOL     OW24670   4.216   2.763   1.114  0.0028  0.0522  0.5510
 4346SOL    HW124671   4.159   2.804   1.049 -1.0231 -1.0092  0.7791
 4346SOL    HW224672   4.269   2.830   1.158  1.5296 -0.8208  0.0297
 4347SOL     OW24673   2.834   1.780   9.799  0.0910  0.3888 -0.3407
 4347SOL    HW124674   2.824   1.693   9.762  1.2948 -0.6809  1.8820
 4347SOL    HW224675   2.900   1.816   9.740 -0.4458  1.9118 -0.0324
 4348SOL     OW24676   4.707   2.723   2.218  0.5281  0.8659  0.1853
 4348SOL    HW124677   4.707   2.688   2.129 -0.1536 -1.9451  1.2827
 4348SOL    HW224678   4.677   2.813   2.203 -0.1669  0.4844 -0.6775
 4349SOL     OW24679   4.180   0.935  16.791  0.6883  0.2442 -0.3594
 4349SOL    HW124680   4.267   0.914  16.758  0.5153 -2.3378  0.7702
 4349SOL    HW224681   4.185   1.030  16.788 -0.8298  0.2758 -1.9660
 4350SOL     OW24682   4.529   0.903   3.231  0.1207 -0.5245 -0.4707
 4350SOL    HW124683   4.476   0.848   3.288  0.1495  0.3342  0.3761
 4350SOL    HW224684   4.605   0.920   3.287 -0.4174 -0.2124  0.1566
 4351SOL     OW24685   2.310   2.932   3.955 -0.6682 -0.1545 -0.3222
 4351SOL    HW124686   2.323   3.026   3.945  1.5133 -0.1923  2.2768
 4351SOL    HW224687   2.403   2.920   3.974 -0.5333 -0.0672 -0.9412
 4352SOL     OW24688   1.195   3.535   5.327 -0.5295 -0.2270 -0.0287
 4352SOL    HW124689   1.276   3.561   5.284 -0.1897  0.0872  0.7939
 4352SOL    HW224690   1.227   3.468   5.388  0.8818  1.0996  0.7102
 4353SOL     OW24691   0.318   1.231   7.978 -0.4294 -0.1777  0.5154
 4353SOL    HW124692   0.382   1.294   7.944  1.0998 -1.8472  0.3167
 4353SOL    HW224693   0.323   1.190   7.891 -1.1285 -0.7773  0.7647
 4354SOL     OW24694   1.535   0.829   2.032  0.3398  0.2410 -0.1342
 4354SOL    HW124695   1.616   0.779   2.033  1.2535  1.7402  1.4815
 4354SOL    HW224696   1.541   0.873   1.947  2.9514  0.0973 -0.0175
 4355SOL     OW24697   0.986   1.012   5.604 -0.4466 -0.6216  0.1827
 4355SOL    HW124698   1.022   1.099   5.621 -5.6861  1.5750  0.0405
 4355SOL    HW224699   1.059   0.955   5.628 -1.4802 -2.5943 -1.3274
 4356SOL     OW24700   1.015   3.134   5.925 -0.0799 -0.5018  0.3169
 4356SOL    HW124701   0.978   3.091   5.848 -0.2091 -2.1352  1.2912
 4356SOL    HW224702   1.019   3.061   5.987 -2.7782 -1.6117 -0.8146
 4357SOL     OW24703   1.934   1.415   0.501  0.0866  0.0891 -0.3728
 4357SOL    HW124704   1.848   1.375   0.510  0.1168 -0.0128 -0.5378
 4357SOL    HW224705   1.914   1.505   0.526 -1.4171 -0.6557  1.1202
 4358SOL     OW24706   2.939   2.276   1.340  0.1621  0.2882  0.2234
 4358SOL    HW124707   3.028   2.302   1.313  1.4140 -3.0046  1.1716
 4358SOL    HW224708   2.895   2.358   1.319 -2.3978 -2.1900 -4.1156
 4359SOL     OW24709   1.930   1.993   8.575 -0.3061 -0.0840  0.6242
 4359SOL    HW124710   1.998   1.961   8.635 -0.3865  0.8956  1.2497
 4359SOL    HW224711   1.903   1.910   8.537 -1.6118  1.4984 -1.8893
 4360SOL     OW24712   2.965   0.582   3.858  0.1636  0.4365 -0.0602
 4360SOL    HW124713   2.976   0.572   3.763 -0.2526 -0.6100 -0.0062
 4360SOL    HW224714   2.881   0.535   3.863 -0.6564  1.7743 -1.1862
 4361SOL     OW24715   4.151   2.062   0.647 -0.1379  0.1645 -1.0120
 4361SOL    HW124716   4.072   2.037   0.600 -0.5467  0.7907 -0.6537
 4361SOL    HW224717   4.149   2.157   0.637 -1.1160  0.4147  1.6131
 4362SOL     OW24718   2.539   4.038  12.280  0.3934 -0.3876  0.6830
 4362SOL    HW124719   2.590   4.103  12.328 -0.9785 -0.5596  2.3927
 4362SOL    HW224720   2.557   4.064  12.190 -0.3204 -0.4999  0.5058
 4363SOL     OW24721   3.043   3.843   5.658  0.0630  0.1559  0.4230
 4363SOL    HW124722   3.024   3.935   5.679  1.7137  0.1778  1.8719
 4363SOL    HW224723   3.137   3.851   5.637  0.1445 -2.2253 -0.1124
 4364SOL     OW24724   0.089   1.495   6.524 -0.6455 -0.3437 -0.0857
 4364SOL    HW124725   0.178   1.480   6.490  0.3866  0.8027  2.1192
 4364SOL    HW224726   0.108   1.528   6.612 -2.2683 -1.3508  0.6365
 4365SOL     OW24727   4.321   1.101   6.078  0.1101  0.9154  0.1793
 4365SOL    HW124728   4.326   1.182   6.027  1.7298  0.4109 -0.4687
 4365SOL    HW224729   4.394   1.056   6.035 -0.5421  0.4004 -0.3858
 4366SOL     OW24730   1.936   4.354   2.600  0.1544 -0.2072  0.1615
 4366SOL    HW124731   1.875   4.336   2.672  0.2555 -1.7499 -0.1187
 4366SOL    HW224732   1.891   4.405   2.532  0.1509 -0.6970 -0.2045
 4367SOL     OW24733   3.618   2.938   7.024  0.2025  0.1301  0.2420
 4367SOL    HW124734   3.570   2.925   6.943 -0.0757 -0.9837  0.5765
 4367SOL    HW224735   3.550   2.951   7.091  1.0599  0.6920  1.0010
 4368SOL     OW24736   1.762   2.319   7.190 -0.2327 -0.0516  0.5202
 4368SOL    HW124737   1.809   2.371   7.255 -2.2391 -1.2781  2.9143
 4368SOL    HW224738   1.828   2.299   7.123 -1.8981 -1.9113 -0.5729
 4369SOL     OW24739   1.474   3.348   4.656  0.0875 -0.2728 -0.0830
 4369SOL    HW124740   1.540   3.401   4.611 -1.6085  0.6935 -1.4448
 4369SOL    HW224741   1.508   3.260   4.640  1.7772  0.4236 -0.2418
 4370SOL     OW24742   2.501   0.382   2.783  0.0628  0.6820  0.6670
 4370SOL    HW124743   2.564   0.391   2.712  1.4862 -0.0236  1.8373
 4370SOL    HW224744   2.438   0.323   2.742  2.4584 -1.7739  0.5071
 4371SOL     OW24745   0.250   3.128  16.415  0.4812  0.0476 -0.1154
 4371SOL    HW124746   0.278   3.207  16.370 -1.4845  0.9794  0.3227
 4371SOL    HW224747   0.226   3.167  16.499  1.4181 -0.5743  0.4409
 4372SOL     OW24748   1.841   2.248   3.604  0.1605 -0.4916  0.0974
 4372SOL    HW124749   1.869   2.163   3.639  1.4081 -0.3707 -0.6113
 4372SOL    HW224750   1.884   2.321   3.648  0.6806 -2.5114  2.9232
 4373SOL     OW24751   1.355   1.835   3.166 -0.0047  0.0772 -0.0597
 4373SOL    HW124752   1.308   1.913   3.195  0.4219 -0.1721  1.2958
 4373SOL    HW224753   1.344   1.786   3.248  1.1142  0.2109  0.1649
 4374SOL     OW24754   4.348   2.106  14.972  0.5792 -0.6384  0.0856
 4374SOL    HW124755   4.418   2.090  14.909  0.0870 -2.4881  0.0012
 4374SOL    HW224756   4.392   2.158  15.039 -0.1587  1.6294 -1.2125
 4375SOL     OW24757   3.188   3.752   7.555 -0.2290 -0.5429 -0.2175
 4375SOL    HW124758   3.143   3.822   7.508  1.5637  2.0089  1.9124
 4375SOL    HW224759   3.117   3.723   7.613  0.2814 -0.5673  0.3934
 4376SOL     OW24760   3.509   4.535   5.490  0.1589 -0.1556  0.0279
 4376SOL    HW124761   3.461   4.588   5.554  0.6412  1.5078 -0.9811
 4376SOL    HW224762   3.586   4.512   5.542  0.7681  3.4167  0.7185
 4377SOL     OW24763   0.773   1.801   0.870 -0.0533 -0.3227  0.0815
 4377SOL    HW124764   0.840   1.863   0.898 -2.6475  1.6391  1.9672
 4377SOL    HW224765   0.810   1.767   0.788 -0.6276 -2.1070  0.5711
 4378SOL     OW24766   3.605   4.529  12.379  0.0393 -0.0815 -0.2582
 4378SOL    HW124767   3.518   4.546  12.416  0.2181  2.6744 -1.1504
 4378SOL    HW224768   3.612   4.609  12.328  1.0790 -0.2771 -0.4154
 4379SOL     OW24769   2.111   0.575   8.419 -0.3972  0.1848 -0.8006
 4379SOL    HW124770   2.091   0.661   8.456 -2.9944 -0.8725  0.2544
 4379SOL    HW224771   2.037   0.564   8.359 -0.3830 -0.4384 -0.6994
 4380SOL     OW24772   1.378   0.829   2.285  0.4529 -0.3781  0.2024
 4380SOL    HW124773   1.309   0.860   2.227  0.6158 -0.2904  0.0574
 4380SOL    HW224774   1.458   0.847   2.235  0.5785 -0.2549  0.4450
 4381SOL     OW24775   3.538   3.053  17.305  0.1535  0.0789  0.2896
 4381SOL    HW124776   3.478   3.125  17.326  1.1049  0.2242  2.4626
 4381SOL    HW224777   3.554   3.026  17.395  2.6668 -0.2822 -0.2732
 4382SOL     OW24778   4.489   3.978  16.497  0.0009 -0.3106  0.0997
 4382SOL    HW124779   4.473   3.991  16.590 -0.8904  2.3173 -0.4412
 4382SOL    HW224780   4.521   3.888  16.500  0.4269 -0.0826  1.8638
 4383SOL     OW24781   3.741   0.194   7.779  0.4962  0.4762 -0.0145
 4383SOL    HW124782   3.649   0.199   7.804  0.0574 -0.1196 -1.5460
 4383SOL    HW224783   3.748   0.099   7.768 -2.7166  0.2910 -0.3875
 4384SOL     OW24784   1.417   3.724  10.620 -0.3530 -0.2770  0.5540
 4384SOL    HW124785   1.417   3.724  10.524  1.5311  0.3753  0.5413
 4384SOL    HW224786   1.330   3.704  10.654 -0.5171 -0.9367 -0.2566
 4385SOL     OW24787   3.876   2.960   6.438 -0.1788 -0.4634  0.7471
 4385SOL    HW124788   3.929   3.039   6.432 -0.0413 -0.5910  0.2875
 4385SOL    HW224789   3.831   2.968   6.354 -2.3185 -0.7785  1.8780
 4386SOL     OW24790   0.070   2.575   6.315 -0.5780 -0.3485  0.0805
 4386SOL    HW124791   0.041   2.620   6.236  0.3701  0.2191  0.0538
 4386SOL    HW224792   0.035   2.637   6.379  0.5037  0.0459  0.2923
 4387SOL     OW24793   3.268   3.827   4.428 -0.2792  0.6075  0.3424
 4387SOL    HW124794   3.211   3.842   4.504 -1.1388  0.3238 -0.2531
 4387SOL    HW224795   3.312   3.749   4.460  1.1238  1.2429 -0.0586
 4388SOL     OW24796   2.849   4.373  16.777 -0.2047 -0.2803  0.1994
 4388SOL    HW124797   2.802   4.429  16.717 -0.7497 -0.1233  0.7751
 4388SOL    HW224798   2.828   4.283  16.750 -0.5530  0.0041 -0.4493
 4389SOL     OW24799   1.873   0.818  16.212  0.3319  0.0213 -0.7520
 4389SOL    HW124800   1.961   0.845  16.237  0.9363 -2.1682 -0.4566
 4389SOL    HW224801   1.824   0.817  16.294  0.6900 -0.4431 -0.5411
 4390SOL     OW24802   1.345   2.413  16.830  0.0716  0.4281  0.2523
 4390SOL    HW124803   1.376   2.468  16.901 -0.7711 -0.7217  1.5268
 4390SOL    HW224804   1.277   2.367  16.880 -0.1974 -1.9460 -2.3054
 4391SOL     OW24805   1.435   2.892   2.230 -0.2854 -0.1851 -0.1384
 4391SOL    HW124806   1.371   2.925   2.167  1.1392  0.0889 -1.4547
 4391SOL    HW224807   1.516   2.909   2.183 -0.7149 -2.4846 -1.7140
 4392SOL     OW24808   1.751   1.362   2.902 -0.1623 -0.2172  0.6464
 4392SOL    HW124809   1.684   1.422   2.870 -0.9310 -1.2802  0.2537
 4392SOL    HW224810   1.825   1.418   2.879 -0.9471  0.9659  1.0127
 4393SOL     OW24811   4.717   1.123   9.174 -0.3493 -0.5661  0.2143
 4393SOL    HW124812   4.720   1.116   9.078 -0.4148 -1.1159  0.2536
 4393SOL    HW224813   4.635   1.075   9.180 -2.0282  2.2969  0.0141
 4394SOL     OW24814   3.824   1.254   7.565 -0.3462  0.1532  0.5311
 4394SOL    HW124815   3.857   1.339   7.592  2.1724 -0.6256 -0.1353
 4394SOL    HW224816   3.906   1.216   7.535 -1.2571 -1.8688  0.5510
 4395SOL     OW24817   2.088   4.254   1.009  0.1985  0.6560  0.1422
 4395SOL    HW124818   2.137   4.296   1.080  0.2054  1.3389 -0.2757
 4395SOL    HW224819   2.023   4.324   1.013  1.0875  1.4909  0.0485
 4396SOL     OW24820   3.515   3.591   0.410  0.0131  0.0528  0.2242
 4396SOL    HW124821   3.581   3.646   0.451  0.3969  0.3269 -0.7655
 4396SOL    HW224822   3.576   3.567   0.341  0.9575  1.9363  0.3955
 4397SOL     OW24823   3.406   4.302   8.783 -0.6711  0.2915  0.1817
 4397SOL    HW124824   3.359   4.341   8.709 -0.6827 -0.5022 -0.2319
 4397SOL    HW224825   3.340   4.295   8.852 -2.1832 -0.0560 -1.2837
 4398SOL     OW24826   1.787   1.001   4.106 -0.3910 -0.2029 -0.2472
 4398SOL    HW124827   1.769   1.084   4.150  0.9257  0.3882 -0.8312
 4398SOL    HW224828   1.746   0.943   4.170  0.2926  1.5069  1.7204
 4399SOL     OW24829   2.154   4.328   7.517 -0.1867 -0.2234  0.3883
 4399SOL    HW124830   2.100   4.264   7.562  0.2208 -1.6443 -1.1537
 4399SOL    HW224831   2.098   4.405   7.529  1.0814  0.4134  2.4249
 4400SOL     OW24832   0.075   1.220  15.482  0.1681 -0.3630  0.0343
 4400SOL    HW124833   0.049   1.215  15.390 -0.3893 -0.0981  0.1761
 4400SOL    HW224834   4.726   1.238  15.521  0.2846  0.8776 -0.2914
 4401SOL     OW24835   0.198   4.602   4.369  0.0231  0.1049  0.4194
 4401SOL    HW124836   0.188   4.660   4.293  1.5402 -0.8220 -0.4798
 4401SOL    HW224837   0.143   4.530   4.338 -0.8434  1.7595 -1.8318
 4402SOL     OW24838   0.688   2.869   6.117 -0.0776 -0.2903  0.9258
 4402SOL    HW124839   0.659   2.886   6.206  1.2699  0.0182  1.3162
 4402SOL    HW224840   0.616   2.911   6.069 -1.3666 -3.3569  0.2191
 4403SOL     OW24841   0.802   0.517   4.676 -0.0059 -0.1546  0.4967
 4403SOL    HW124842   0.862   0.445   4.657 -1.3233 -0.8360 -1.1758
 4403SOL    HW224843   0.785   0.543   4.585 -1.6861  0.3583  0.9596
 4404SOL     OW24844   1.050   0.718   8.324  0.2957  0.4826  0.2712
 4404SOL    HW124845   0.983   0.657   8.295  1.3691  0.4014 -1.9826
 4404SOL    HW224846   1.132   0.668   8.331 -0.5893 -0.5257  3.8250
 4405SOL     OW24847   4.036   3.886   9.219 -0.0926  0.3050 -0.3099
 4405SOL    HW124848   3.956   3.894   9.167  0.0099  1.9392 -0.1949
 4405SOL    HW224849   4.013   3.911   9.308 -0.5346 -1.3918  0.0645
 4406SOL     OW24850   3.020   4.696   9.328  0.3430  0.3124 -0.6702
 4406SOL    HW124851   3.073   0.006   9.393 -0.5405  2.7744 -1.7094
 4406SOL    HW224852   3.001   4.616   9.376  1.6998  0.4807  0.1388
 4407SOL     OW24853   3.160   3.260   3.640  0.0532  0.2459  0.2771
 4407SOL    HW124854   3.179   3.341   3.592  0.2946  0.4964  0.7937
 4407SOL    HW224855   3.210   3.264   3.721  1.6637  1.0550 -0.7495
 4408SOL     OW24856   2.030   0.622   5.813  0.6885 -0.0605 -0.0589
 4408SOL    HW124857   1.978   0.582   5.883  0.9704 -2.6478 -1.3313
 4408SOL    HW224858   1.962   0.672   5.769 -1.3473 -1.6665  1.2403
 4409SOL     OW24859   2.967   2.963   8.341 -0.1050 -0.1633 -0.8750
 4409SOL    HW124860   2.979   2.878   8.299  0.8334 -0.1424 -0.6386
 4409SOL    HW224861   2.895   2.952   8.402  0.7637  2.5258  0.6473
 4410SOL     OW24862   2.705   3.225   8.207 -1.0215  0.0609 -0.4794
 4410SOL    HW124863   2.689   3.280   8.131 -1.6989 -1.2413 -1.2688
 4410SOL    HW224864   2.743   3.141   8.182  3.3902  1.3886  1.7499
 4411SOL     OW24865   2.630   0.175   4.880 -0.0962  0.3934  1.1251
 4411SOL    HW124866   2.600   0.265   4.893 -1.3948 -0.0722  1.3941
 4411SOL    HW224867   2.658   0.173   4.789  0.4155  0.1328  1.2876
 4412SOL     OW24868   4.602   4.028   2.337 -0.2103  0.0493 -0.1555
 4412SOL    HW124869   4.561   4.030   2.251  0.6383  1.6843 -0.5194
 4412SOL    HW224870   4.631   4.118   2.351  0.4280 -0.2300  0.3311
 4413SOL     OW24871   2.382   1.621   4.149 -0.5965 -0.2115  0.6547
 4413SOL    HW124872   2.391   1.583   4.237  0.5946  1.0236  1.0714
 4413SOL    HW224873   2.472   1.608   4.121 -1.1410  0.3060 -1.3156
 4414SOL     OW24874   3.073   4.118  16.239  0.4347  0.6036 -0.3865
 4414SOL    HW124875   3.117   4.039  16.208 -0.8673 -0.6148  0.9079
 4414SOL    HW224876   3.125   4.130  16.318  1.7988  0.0788 -1.1996
 4415SOL     OW24877   2.211   3.311   6.082  0.5121  0.1516 -0.3520
 4415SOL    HW124878   2.271   3.360   6.026 -0.6267  0.4240 -1.3400
 4415SOL    HW224879   2.177   3.378   6.141  1.6355  1.4843 -1.2189
 4416SOL     OW24880   1.278   0.352   2.722  0.4317  0.1496 -0.1202
 4416SOL    HW124881   1.225   0.423   2.759  1.2401  0.9789 -0.5420
 4416SOL    HW224882   1.364   0.393   2.715  0.0772  0.9687  0.3279
 4417SOL     OW24883   0.736   1.788   2.741  0.5553  0.1682 -0.5113
 4417SOL    HW124884   0.645   1.817   2.742 -0.3973 -2.7482 -1.1481
 4417SOL    HW224885   0.781   1.868   2.714 -2.0454  2.3008  1.5094
 4418SOL     OW24886   4.698   4.633  12.141  0.2742 -0.4346 -0.6604
 4418SOL    HW124887   0.051   4.601  12.143  0.6840  0.7669 -0.0010
 4418SOL    HW224888   4.655   4.590  12.067  1.1312 -0.9793 -0.8368
 4419SOL     OW24889   1.004   3.053  12.480  0.0817  0.1400 -0.1827
 4419SOL    HW124890   1.064   2.990  12.440 -2.6434 -2.6428  0.1590
 4419SOL    HW224891   0.990   3.108  12.403 -0.2669  0.4821  0.1277
 4420SOL     OW24892   1.470   0.829   4.940  0.3440 -0.1901  0.1145
 4420SOL    HW124893   1.392   0.869   4.903  1.2481  0.7166 -0.8283
 4420SOL    HW224894   1.433   0.753   4.985  0.6826 -0.2595  0.2813
 4421SOL     OW24895   3.403   3.524   1.621  0.1412 -0.3097  0.1685
 4421SOL    HW124896   3.376   3.480   1.702 -0.6405  0.6993  0.4641
 4421SOL    HW224897   3.404   3.452   1.558 -2.1065  0.6813 -1.0284
 4422SOL     OW24898   3.715   2.005   8.816  0.7508  0.4339  0.4621
 4422SOL    HW124899   3.638   1.980   8.765  0.6917  0.4835  0.5269
 4422SOL    HW224900   3.777   2.062   8.771  0.3283  1.7508  1.5318
 4423SOL     OW24901   3.023   0.439   9.148 -0.1190  0.0020 -0.1830
 4423SOL    HW124902   3.042   0.446   9.242  0.3388  1.6083 -0.3838
 4423SOL    HW224903   2.955   0.373   9.156  1.0290 -1.2544 -0.6723
 4424SOL     OW24904   0.405   4.060  15.416  0.2817 -0.1182  0.7961
 4424SOL    HW124905   0.458   4.135  15.388  1.6345 -1.5630 -0.4889
 4424SOL    HW224906   0.426   4.007  15.339  1.8023  1.2062  0.3047
 4425SOL     OW24907   1.525   2.972   7.281 -0.1678 -0.0206  0.0146
 4425SOL    HW124908   1.539   2.879   7.300  1.9515  0.1075 -0.8982
 4425SOL    HW224909   1.430   2.979   7.277 -0.1727 -1.6220 -2.6356
 4426SOL     OW24910   0.579   0.541  12.416 -0.0080  0.1216  0.4700
 4426SOL    HW124911   0.636   0.617  12.431 -0.6686  1.0822 -1.9725
 4426SOL    HW224912   0.500   0.589  12.390  0.3553  0.3268 -0.2580
 4427SOL     OW24913   3.221   3.634  15.992  0.0884  0.2612  0.1718
 4427SOL    HW124914   3.306   3.633  15.948 -0.7850 -2.5678 -1.4642
 4427SOL    HW224915   3.221   3.556  16.048  1.2889  0.3176  0.2596
 4428SOL     OW24916   3.216   0.210  16.722  0.5766  0.3143  0.4158
 4428SOL    HW124917   3.222   0.240  16.631 -0.1594  2.5756  1.0950
 4428SOL    HW224918   3.228   0.117  16.707 -1.9205 -0.2143  1.7169
 4429SOL     OW24919   2.398   0.560  12.899  0.1508 -0.3832  0.2853
 4429SOL    HW124920   2.487   0.540  12.928  0.2597  1.0267  0.9137
 4429SOL    HW224921   2.429   0.595  12.815  1.5416 -0.5266  0.7362
 4430SOL     OW24922   1.419   2.071   4.719  0.1235  0.7503 -0.3273
 4430SOL    HW124923   1.426   2.120   4.638  1.0659  1.8542  0.4346
 4430SOL    HW224924   1.421   2.140   4.785 -1.7616 -0.0062  0.5515
 4431SOL     OW24925   0.875   4.196  10.100 -0.5215  0.1989  0.3498
 4431SOL    HW124926   0.819   4.267  10.131 -0.9165 -1.0153  2.4162
 4431SOL    HW224927   0.918   4.248  10.032  1.6617 -0.0953  1.5174
 4432SOL     OW24928   4.522   0.268   3.743 -1.0121 -0.1139 -0.2323
 4432SOL    HW124929   4.441   0.273   3.793 -0.5617 -1.8532  0.6722
 4432SOL    HW224930   4.536   0.360   3.719  1.4623 -0.5898 -0.6428
 4433SOL     OW24931   4.544   4.274   3.765 -0.1079  0.0768 -0.4753
 4433SOL    HW124932   4.520   4.188   3.731 -2.6406  1.0535 -1.1955
 4433SOL    HW224933   4.463   4.285   3.815  0.6141  0.8057  0.5449
 4434SOL     OW24934   3.977   0.985   4.792  0.4400 -0.4223  0.3468
 4434SOL    HW124935   3.922   1.063   4.801 -0.2204 -0.6279 -1.9838
 4434SOL    HW224936   3.922   0.911   4.816 -0.4711  0.6631  1.5952
 4435SOL     OW24937   2.383   3.622   6.578 -0.2918 -0.2197  0.6989
 4435SOL    HW124938   2.322   3.572   6.633 -2.1722  0.4108 -0.8011
 4435SOL    HW224939   2.330   3.669   6.513  0.6846 -0.5045 -0.3022
 4436SOL     OW24940   1.891   0.847   5.185  0.6796 -0.3722 -0.2213
 4436SOL    HW124941   1.920   0.933   5.215  1.2211 -0.5790 -0.1475
 4436SOL    HW224942   1.847   0.817   5.264  3.5159  1.8233  2.1877
 4437SOL     OW24943   0.023   0.151  10.239 -0.1822 -0.0420  0.1681
 4437SOL    HW124944   0.061   0.174  10.323 -1.0427 -1.4189  0.9382
 4437SOL    HW224945   0.056   0.226  10.189 -2.7395 -0.6737 -2.5065
 4438SOL     OW24946   2.619   0.617   3.771  0.7715  0.6207  0.1162
 4438SOL    HW124947   2.670   0.689   3.734 -1.4110  0.4071 -3.2678
 4438SOL    HW224948   2.681   0.547   3.749 -0.6552 -0.1699 -1.4617
 4439SOL     OW24949   4.122   0.102  12.759  0.3063 -0.1108 -1.0633
 4439SOL    HW124950   4.179   0.096  12.682 -3.9501 -0.4351 -4.2436
 4439SOL    HW224951   4.121   0.013  12.794  1.5561  0.4680  0.4385
 4440SOL     OW24952   1.951   3.686   3.934 -0.6369 -0.8097  0.6075
 4440SOL    HW124953   1.957   3.711   3.841 -0.4740 -0.7477  0.6351
 4440SOL    HW224954   1.864   3.720   3.952  0.0675  1.6723 -0.6215
 4441SOL     OW24955   2.758   1.724   5.609 -0.1552 -0.3310  0.0898
 4441SOL    HW124956   2.723   1.679   5.532  0.9195 -0.5363 -0.2831
 4441SOL    HW224957   2.754   1.651   5.671  0.5936 -0.1204  0.3852
 4442SOL     OW24958   1.774   1.376   9.280  0.0326 -0.3761 -0.2253
 4442SOL    HW124959   1.785   1.471   9.283  0.7926 -0.4379 -1.0198
 4442SOL    HW224960   1.695   1.367   9.333 -0.5169  0.0915 -0.9701
 4443SOL     OW24961   3.722   1.286   2.637 -0.3449 -0.1882  0.7422
 4443SOL    HW124962   3.714   1.316   2.546 -0.2453  2.1530  1.5120
 4443SOL    HW224963   3.795   1.344   2.658  0.6921 -1.4529  0.6239
 4444SOL     OW24964   3.676   2.378   4.184 -0.0420  0.4960  0.0495
 4444SOL    HW124965   3.631   2.374   4.268 -0.8850  1.1401 -0.3695
 4444SOL    HW224966   3.760   2.337   4.204 -0.7958 -0.9091  0.3654
 4445SOL     OW24967   1.678   0.528   5.790 -0.0757  0.0323 -0.0425
 4445SOL    HW124968   1.617   0.565   5.855 -1.1366 -1.8223 -0.0091
 4445SOL    HW224969   1.751   0.517   5.851  0.2767  2.2812 -0.0580
 4446SOL     OW24970   4.254   0.972  17.468  0.9198  0.1198  0.1115
 4446SOL    HW124971   4.253   0.950  17.561 -1.5619  0.5922  0.2197
 4446SOL    HW224972   4.262   1.067  17.475  1.7505 -0.1187  2.2738
 4447SOL     OW24973   1.122   1.427   3.166 -0.1296 -0.2105  0.3597
 4447SOL    HW124974   1.074   1.351   3.198  1.1406 -0.6306  1.2577
 4447SOL    HW224975   1.058   1.498   3.165  0.4455  0.3023 -0.3462
 4448SOL     OW24976   1.778   1.640   3.851  0.2331 -0.5988  0.1861
 4448SOL    HW124977   1.860   1.680   3.878  0.5032  0.0196 -1.6071
 4448SOL    HW224978   1.724   1.713   3.881  2.8606  0.9405  1.1373
 4449SOL     OW24979   4.693   2.674   7.860  0.1552 -0.1780 -0.4817
 4449SOL    HW124980   0.021   2.740   7.835  0.1647 -0.0861 -0.2034
 4449SOL    HW224981   4.631   2.734   7.899  2.0668  1.9040 -0.6601
 4450SOL     OW24982   2.761   3.997  10.444 -0.0322  0.8778  0.0302
 4450SOL    HW124983   2.738   3.942  10.369  1.3522 -0.2133  0.4145
 4450SOL    HW224984   2.717   3.955  10.518 -0.5703 -1.2818 -1.5250
 4451SOL     OW24985   4.062   3.360   3.155  0.1015  0.3090  0.0271
 4451SOL    HW124986   4.010   3.287   3.189 -2.7514  1.2843 -2.1972
 4451SOL    HW224987   3.987   3.412   3.124 -0.4318 -0.7153 -0.3853
 4452SOL     OW24988   2.236   3.835   5.660 -0.4042 -0.1593 -0.5075
 4452SOL    HW124989   2.207   3.898   5.595  3.1424  1.5264 -0.4615
 4452SOL    HW224990   2.175   3.765   5.635  0.9203 -1.2774 -0.6364
 4453SOL     OW24991   3.163   3.256   2.582 -0.3949 -0.2361  0.0123
 4453SOL    HW124992   3.243   3.285   2.627 -0.7585 -0.5763  0.8737
 4453SOL    HW224993   3.163   3.318   2.509  2.0252  1.7004  1.6484
 4454SOL     OW24994   0.208   0.947   3.118 -0.3425  0.2048  0.3831
 4454SOL    HW124995   0.177   0.983   3.035  1.9655  0.5459 -0.3314
 4454SOL    HW224996   0.135   0.955   3.179 -0.7078  0.0425 -0.0374
 4455SOL     OW24997   3.594   1.144   7.674  0.7485  0.4344  0.3845
 4455SOL    HW124998   3.675   1.188   7.650  1.3503 -0.4959  0.7154
 4455SOL    HW224999   3.630   1.095   7.748 -0.5516 -2.5672 -0.9725
 4456SOL     OW25000   2.313   0.175  13.738  0.2644 -0.1832 -0.3967
 4456SOL    HW125001   2.228   0.150  13.703 -0.8510  1.4315  1.1580
 4456SOL    HW225002   2.281   0.241  13.799  2.7636 -1.4622  2.2851
 4457SOL     OW25003   0.768   0.399   6.887  0.2805  0.5182 -0.8582
 4457SOL    HW125004   0.719   0.338   6.832  2.8109 -1.3662 -1.0134
 4457SOL    HW225005   0.705   0.427   6.953  1.1828  1.6050 -0.4549
 4458SOL     OW25006   0.587   3.965   7.465 -0.4178 -0.2184  0.8570
 4458SOL    HW125007   0.516   3.989   7.524  0.5888  0.2075  1.9077
 4458SOL    HW225008   0.652   4.028   7.496 -3.9127  3.1281  1.3882
 4459SOL     OW25009   0.401   4.581  11.318 -0.5214  0.0482  0.0376
 4459SOL    HW125010   0.323   4.614  11.361 -0.6385  3.2347 -2.5971
 4459SOL    HW225011   0.399   4.639  11.242  0.6938  2.0698  1.5377
 4460SOL     OW25012   0.845   1.714   4.598 -0.1849  0.3760  0.1217
 4460SOL    HW125013   0.860   1.794   4.547  1.1300  0.1734  0.1941
 4460SOL    HW225014   0.887   1.654   4.537  0.3909  0.6149  0.2894
 4461SOL     OW25015   4.317   1.349  17.288 -0.1976  0.6863 -0.0401
 4461SOL    HW125016   4.386   1.282  17.291  1.0707  1.9836 -0.4211
 4461SOL    HW225017   4.345   1.376  17.201 -3.0801  1.3442 -0.7738
 4462SOL     OW25018   4.500   0.847   3.648  0.5890 -0.2865 -0.2414
 4462SOL    HW125019   4.525   0.767   3.694 -1.9580 -0.2273  1.2458
 4462SOL    HW225020   4.410   0.844   3.681  0.6352  0.2587 -0.0654
 4463SOL     OW25021   0.785   3.959  17.526 -0.2683  0.1727  0.4987
 4463SOL    HW125022   0.873   3.948  17.491 -0.8434 -1.5003 -0.3895
 4463SOL    HW225023   0.732   3.949  17.447 -1.3075  0.5767  1.1320
 4464SOL     OW25024   3.520   0.701   0.747 -0.4145  0.3915 -0.5073
 4464SOL    HW125025   3.461   0.768   0.782 -0.2862  0.0518  0.3623
 4464SOL    HW225026   3.597   0.757   0.747 -1.1974  1.4745 -1.3464
 4465SOL     OW25027   3.035   3.083   3.872 -0.3312  0.1444 -0.7970
 4465SOL    HW125028   2.978   3.092   3.948 -0.3267 -2.8913 -0.4360
 4465SOL    HW225029   2.985   3.127   3.803  1.5919 -0.1187 -2.3825
 4466SOL     OW25030   2.424   4.585   2.158 -0.2740  0.1850 -0.2080
 4466SOL    HW125031   2.514   4.612   2.175 -1.4868  2.3300  2.9017
 4466SOL    HW225032   2.395   4.631   2.079  1.8110 -0.4097 -1.2923
 4467SOL     OW25033   3.009   2.894   4.878 -0.0179 -0.2219  0.0084
 4467SOL    HW125034   3.001   2.924   4.788 -0.8566 -2.3108 -0.6015
 4467SOL    HW225035   3.104   2.898   4.892 -0.4338  3.8269  1.7880
 4468SOL     OW25036   1.421   0.338   6.714 -0.1868  0.1048  0.0130
 4468SOL    HW125037   1.359   0.410   6.725 -2.0800 -1.1632 -2.4266
 4468SOL    HW225038   1.374   0.287   6.649  1.7140 -0.2263 -1.1017
 4469SOL     OW25039   1.489   4.044   5.516 -0.1909  1.0588  0.0875
 4469SOL    HW125040   1.565   4.077   5.469  0.3386  0.3153  0.4257
 4469SOL    HW225041   1.496   4.086   5.601 -0.0453  1.7016 -0.2395
 4470SOL     OW25042   0.101   4.136   3.597  0.5660  0.2756 -0.5264
 4470SOL    HW125043   0.093   4.226   3.628 -3.1802  0.4710 -1.9711
 4470SOL    HW225044   0.109   4.082   3.676  0.6429 -1.3168 -1.6165
 4471SOL     OW25045   1.870   0.946   9.422 -0.1513  0.1449 -0.1183
 4471SOL    HW125046   1.892   0.984   9.507  1.5165  0.6271 -0.7708
 4471SOL    HW225047   1.775   0.962   9.422 -0.0841  0.5213 -1.0623
 4472SOL     OW25048   1.618   2.610   2.129  0.3548  0.1841 -0.0604
 4472SOL    HW125049   1.608   2.552   2.205 -0.8365  0.5830  0.0882
 4472SOL    HW225050   1.706   2.600   2.095 -0.5836  0.7457 -2.6572
 4473SOL     OW25051   0.839   1.771   3.515  0.5119  0.2519  0.3716
 4473SOL    HW125052   0.768   1.800   3.572  1.1206  0.2198  1.1442
 4473SOL    HW225053   0.875   1.859   3.502  1.8799 -0.4138 -0.4203
 4474SOL     OW25054   1.722   3.559   4.940 -0.3428 -0.4656 -0.2412
 4474SOL    HW125055   1.631   3.550   4.913 -0.3489  0.7011 -0.6390
 4474SOL    HW225056   1.718   3.544   5.034  0.0590 -0.5156 -0.2302
 4475SOL     OW25057   2.138   1.331   1.717 -0.2210  0.2211 -1.0216
 4475SOL    HW125058   2.047   1.355   1.697 -0.2111 -0.2580 -1.6339
 4475SOL    HW225059   2.112   1.257   1.773  0.5289 -0.5250 -1.6619
 4476SOL     OW25060   0.312   0.450  12.523 -0.5460 -0.3710 -0.5044
 4476SOL    HW125061   0.340   0.372  12.571 -1.9214 -0.2530  0.4757
 4476SOL    HW225062   0.372   0.511  12.566 -0.1889 -0.7989 -0.3970
 4477SOL     OW25063   0.270   1.518   3.876 -0.1465  0.0423 -0.0235
 4477SOL    HW125064   0.320   1.511   3.795 -1.6130 -2.7567 -0.7049
 4477SOL    HW225065   0.285   1.608   3.903  1.5801 -0.3688  0.3336
 4478SOL     OW25066   1.341   2.403   6.955 -0.1137  0.4823  0.1772
 4478SOL    HW125067   1.265   2.350   6.929  2.2021 -2.1621 -1.1831
 4478SOL    HW225068   1.334   2.477   6.895 -0.1710  0.0874 -0.3017
 4479SOL     OW25069   1.936   2.967   7.703 -0.4068 -0.1007 -0.2361
 4479SOL    HW125070   1.851   2.961   7.747 -0.0082  0.6421  0.6266
 4479SOL    HW225071   1.904   3.010   7.623  0.7795  1.4386  0.1064
 4480SOL     OW25072   1.261   0.934  10.458  0.7751 -0.4252 -0.1669
 4480SOL    HW125073   1.333   0.871  10.454 -1.4511 -2.9904 -0.0413
 4480SOL    HW225074   1.194   0.887  10.509 -1.7061  2.0889 -1.1005
 4481SOL     OW25075   4.577   1.306  12.003  0.0727 -0.0150  0.4952
 4481SOL    HW125076   4.658   1.339  11.964 -1.1142 -0.3908 -2.2752
 4481SOL    HW225077   4.560   1.224  11.958  1.3592 -1.2547  2.2874
 4482SOL     OW25078   4.445   3.212  14.215  0.4427 -0.3538 -0.5520
 4482SOL    HW125079   4.390   3.285  14.187  0.6742  0.3975  0.9424
 4482SOL    HW225080   4.416   3.142  14.156  0.8053 -1.4050  0.5122
 4483SOL     OW25081   1.054   0.795   3.050 -0.3152  0.1788  0.1752
 4483SOL    HW125082   1.147   0.776   3.054 -0.6112 -1.1693  0.9680
 4483SOL    HW225083   1.047   0.853   2.975  0.1972  0.1070  0.0745
 4484SOL     OW25084   3.883   3.779   5.643 -0.4411  0.0238 -0.4827
 4484SOL    HW125085   3.912   3.862   5.682 -1.2597  0.4000 -0.6622
 4484SOL    HW225086   3.882   3.717   5.716  2.2491 -0.3751 -0.7938
 4485SOL     OW25087   2.493   0.284   7.130 -0.7836  0.6420 -0.1631
 4485SOL    HW125088   2.420   0.243   7.084 -0.9631  0.2581  0.4611
 4485SOL    HW225089   2.515   0.357   7.072 -0.6509 -0.6044 -1.6721
 4486SOL     OW25090   0.269   2.756   5.595 -0.2587 -0.0615 -0.3401
 4486SOL    HW125091   0.287   2.663   5.613 -1.0065  0.0259  0.8886
 4486SOL    HW225092   0.173   2.752   5.588 -0.2507  0.0133 -0.4912
 4487SOL     OW25093   0.131   3.477   0.085  0.0399  0.0601  0.2418
 4487SOL    HW125094   0.063   3.505   0.023  1.5550  1.6737 -0.6999
 4487SOL    HW225095   0.185   3.553   0.064  1.7574 -2.0846 -3.0612
 4488SOL     OW25096   3.181   4.459   6.425  0.5977  0.2408  0.0098
 4488SOL    HW125097   3.094   4.435   6.393  0.7550 -1.0211  0.5431
 4488SOL    HW225098   3.217   4.371   6.437  0.6155  0.1267 -0.8827
 4489SOL     OW25099   2.133   0.801   4.426 -0.3789 -0.9402  0.2109
 4489SOL    HW125100   2.046   0.835   4.448 -0.1464 -1.0392  1.3063
 4489SOL    HW225101   2.108   0.711   4.404 -1.4919 -0.2319 -1.4166
 4490SOL     OW25102   1.783   4.277   3.929  0.0798  0.4280 -0.1276
 4490SOL    HW125103   1.792   4.371   3.919 -0.3591  0.5346  0.4740
 4490SOL    HW225104   1.832   4.267   4.011 -1.5652  0.3887  0.8589
 4491SOL     OW25105   1.031   2.714   6.930 -0.1378 -0.1958  0.0772
 4491SOL    HW125106   0.951   2.671   6.900  0.2568  0.6275 -2.1727
 4491SOL    HW225107   1.100   2.685   6.870 -0.2815  0.8760 -0.5909
 4492SOL     OW25108   0.489   1.068   4.565  0.5314  0.0397  0.5975
 4492SOL    HW125109   0.500   1.118   4.484 -0.5653  0.0938  0.4755
 4492SOL    HW225110   0.396   1.090   4.564  1.0134  2.0394 -1.0037
 4493SOL     OW25111   2.030   4.204   4.843 -0.1764  0.2233 -0.6261
 4493SOL    HW125112   2.020   4.149   4.921 -0.1957 -0.2776 -0.9855
 4493SOL    HW225113   1.970   4.275   4.866 -0.2019 -0.6576  2.0790
 4494SOL     OW25114   1.857   3.526   2.434 -0.1403 -0.3178 -0.0773
 4494SOL    HW125115   1.884   3.614   2.459 -2.4028  1.2194 -3.0844
 4494SOL    HW225116   1.807   3.499   2.511 -0.7090  0.5249 -0.1553
 4495SOL     OW25117   4.353   2.220   5.677  0.0039  0.2040 -0.0458
 4495SOL    HW125118   4.412   2.165   5.625  2.2235 -0.4725  3.1871
 4495SOL    HW225119   4.410   2.220   5.754 -0.1629 -0.9401  0.0851
 4496SOL     OW25120   2.066   0.749   7.721  0.3511 -0.2398  0.2349
 4496SOL    HW125121   1.976   0.765   7.752  0.0267  0.4366 -1.0642
 4496SOL    HW225122   2.100   0.833   7.752  1.1711 -0.7337  0.6582
 4497SOL     OW25123   1.143   1.975  16.881 -0.0273 -0.1564 -0.1575
 4497SOL    HW125124   1.204   2.041  16.850  1.1947 -2.2693 -2.2294
 4497SOL    HW225125   1.065   2.021  16.848 -1.0549 -0.9281  1.1996
 4498SOL     OW25126   3.766   0.424   5.539  0.1044 -0.1989 -0.0166
 4498SOL    HW125127   3.765   0.336   5.503 -3.0554 -0.2411  0.2043
 4498SOL    HW225128   3.826   0.473   5.482 -0.4109  0.1425 -0.2637
 4499SOL     OW25129   0.014   3.381  16.769 -0.0172  0.6122 -0.0716
 4499SOL    HW125130   0.085   3.317  16.765 -1.3150 -0.8971  0.9046
 4499SOL    HW225131   0.058   3.448  16.717  2.4032 -0.6816  0.2958
 4500SOL     OW25132   3.087   2.972   5.712  0.1000  0.0771 -0.1368
 4500SOL    HW125133   3.065   2.880   5.700  0.3467 -0.1215  1.0162
 4500SOL    HW225134   3.082   2.981   5.807  3.0757  0.3455 -0.0088
 4501SOL     OW25135   0.634   1.833   4.732  0.0269  0.4977 -0.5872
 4501SOL    HW125136   0.637   1.800   4.642 -0.8310 -2.5392  0.5008
 4501SOL    HW225137   0.722   1.803   4.754  0.0639  1.1208  0.1387
 4502SOL     OW25138   3.084   3.307   1.899 -0.1886 -0.0291  0.9198
 4502SOL    HW125139   3.108   3.398   1.883  1.0602 -0.3928  0.6866
 4502SOL    HW225140   2.993   3.305   1.928  0.1781  1.9535  2.2064
 4503SOL     OW25141   1.120   3.238   1.403 -0.2483 -0.5155 -0.0385
 4503SOL    HW125142   1.177   3.242   1.480 -0.9823 -0.7169  0.5109
 4503SOL    HW225143   1.079   3.152   1.402 -0.2866 -0.5246  1.8670
 4504SOL     OW25144   4.681   2.786   6.136  0.0894 -0.1978 -0.3106
 4504SOL    HW125145   4.592   2.757   6.118 -0.1184  0.1789  0.1136
 4504SOL    HW225146   4.659   2.847   6.206 -1.5101 -0.7126 -0.3529
 4505SOL     OW25147   2.441   1.705   3.232 -0.4124 -0.0933  0.0957
 4505SOL    HW125148   2.473   1.657   3.308 -0.1768 -1.8796 -1.1580
 4505SOL    HW225149   2.429   1.638   3.165 -0.1120  1.0291 -1.0840
 4506SOL     OW25150   1.263   0.260   8.892  0.2491 -0.0912 -0.3692
 4506SOL    HW125151   1.241   0.190   8.954  1.3471 -1.2649 -1.3137
 4506SOL    HW225152   1.218   0.222   8.817 -1.9856  2.5813 -0.3827
 4507SOL     OW25153   0.861   1.163   2.969  0.4481  0.2737  0.0646
 4507SOL    HW125154   0.864   1.099   3.040 -0.5109 -1.6645 -1.6504
 4507SOL    HW225155   0.927   1.224   3.001  1.8304 -0.8578 -0.6481
 4508SOL     OW25156   2.422   2.016   2.240 -0.2621  0.6589 -0.4230
 4508SOL    HW125157   2.445   2.035   2.331 -1.4088 -3.1854  0.6531
 4508SOL    HW225158   2.343   2.070   2.245 -0.5186  0.5296 -3.0743
 4509SOL     OW25159   0.090   4.079  17.026  0.1386  0.5603  0.1349
 4509SOL    HW125160   0.090   3.986  17.049 -2.5778  0.7725  1.0149
 4509SOL    HW225161   0.112   4.079  16.932 -0.6586 -1.4304 -0.0556
 4510SOL     OW25162   3.709   0.846   7.194 -0.5091  0.3522 -0.2398
 4510SOL    HW125163   3.725   0.772   7.252 -0.9801 -0.1206 -0.7056
 4510SOL    HW225164   3.773   0.827   7.125  0.7356 -0.9200  1.2620
 4511SOL     OW25165   3.894   2.807   6.799 -0.1257 -0.3481  0.6586
 4511SOL    HW125166   3.886   2.886   6.853 -0.1694 -0.4976  0.8702
 4511SOL    HW225167   3.833   2.748   6.843 -0.2325 -1.8468 -1.5405
 4512SOL     OW25168   1.341   4.548  13.970  0.2816 -0.2286 -0.1525
 4512SOL    HW125169   1.392   4.475  14.003  0.4713  0.1052  0.3048
 4512SOL    HW225170   1.287   4.499  13.908  1.3464  1.8325 -2.7123
 4513SOL     OW25171   2.755   1.227   7.382  0.1904  0.1235  0.5610
 4513SOL    HW125172   2.740   1.164   7.452 -0.7957 -0.4765 -0.1759
 4513SOL    HW225173   2.850   1.231   7.377  0.2027 -1.6643 -0.6632
 4514SOL     OW25174   3.020   2.581   1.769 -0.4659  0.6102  0.2091
 4514SOL    HW125175   3.100   2.578   1.716 -0.9199 -2.3456 -0.3428
 4514SOL    HW225176   3.008   2.487   1.754  0.0755  0.5580  0.0779
 4515SOL     OW25177   2.904   3.671  15.048  0.2964 -0.4554  0.1975
 4515SOL    HW125178   2.918   3.738  14.981 -0.2519 -1.1049 -0.5639
 4515SOL    HW225179   2.926   3.590  15.002  2.1434 -0.6739  1.4537
 4516SOL     OW25180   1.466   3.418  16.308  0.4804  0.0377  0.4660
 4516SOL    HW125181   1.479   3.465  16.390 -0.0845  2.3301 -0.7542
 4516SOL    HW225182   1.392   3.362  16.332 -0.8361  1.0655 -1.1725
 4517SOL     OW25183   1.354   1.760   7.124 -0.0794  0.0628 -0.0811
 4517SOL    HW125184   1.298   1.707   7.068  0.6916 -0.3956 -0.4209
 4517SOL    HW225185   1.338   1.848   7.089  1.6968  0.7353  0.7614
 4518SOL     OW25186   1.309   0.233   7.535  0.4258 -0.1965 -0.4310
 4518SOL    HW125187   1.323   0.321   7.500  1.8448 -0.2353  0.0339
 4518SOL    HW225188   1.365   0.185   7.473 -2.2935 -1.1614 -2.1512
 4519SOL     OW25189   1.676   2.656   2.765 -0.3404  0.1325  0.7385
 4519SOL    HW125190   1.690   2.750   2.759  1.1182 -0.1850 -1.1510
 4519SOL    HW225191   1.659   2.634   2.673  0.6709 -0.0753  0.5963
 4520SOL     OW25192   0.346   2.292  10.324 -0.5426 -0.2521  0.1288
 4520SOL    HW125193   0.262   2.281  10.369  1.0951 -0.7795  3.0290
 4520SOL    HW225194   0.397   2.234  10.380  0.1075 -0.1834 -0.4022
 4521SOL     OW25195   3.333   4.206   5.160 -0.0705 -0.1406  0.6183
 4521SOL    HW125196   3.333   4.245   5.247  0.9365 -0.2698  0.6726
 4521SOL    HW225197   3.421   4.230   5.130 -0.2191  0.2592  0.5065
 4522SOL     OW25198   4.707   4.721  13.437  0.0553 -0.4108  0.1550
 4522SOL    HW125199   4.681   0.074  13.415 -0.4431 -0.0320  2.3422
 4522SOL    HW225200   4.650   4.681  13.502  0.1952 -0.2478  0.3809
 4523SOL     OW25201   2.055   4.091   8.097  0.4104  0.1600 -0.4813
 4523SOL    HW125202   2.079   4.043   8.176 -2.7496  2.2600  1.7570
 4523SOL    HW225203   1.963   4.071   8.079  0.2626  0.2305  0.1844
 4524SOL     OW25204   0.092   3.258   9.133 -0.3873  0.1990 -0.0102
 4524SOL    HW125205   0.135   3.343   9.134 -2.1745  1.1299 -1.8812
 4524SOL    HW225206   0.089   3.238   9.227 -1.3483 -3.0931 -0.7403
 4525SOL     OW25207   2.506   0.503   4.626  0.4296 -0.3717  0.2175
 4525SOL    HW125208   2.595   0.517   4.660 -0.2154  0.1101  1.6984
 4525SOL    HW225209   2.450   0.496   4.703  0.5110  1.1582  0.4074
 4526SOL     OW25210   0.496   3.238  13.669 -0.1605  0.4777 -0.4028
 4526SOL    HW125211   0.466   3.217  13.581  0.2212 -1.2944 -0.0943
 4526SOL    HW225212   0.556   3.168  13.693 -1.1360 -0.3580 -0.4234
 4527SOL     OW25213   1.909   3.770   2.527 -0.2589 -0.2048  0.5018
 4527SOL    HW125214   1.908   3.745   2.619  3.4123 -0.6581  0.4232
 4527SOL    HW225215   1.999   3.797   2.507 -0.7420 -1.0032 -2.7024
 4528SOL     OW25216   0.569   1.264  13.149 -0.0278  0.3374  0.0496
 4528SOL    HW125217   0.615   1.204  13.091 -0.6001  2.8745 -3.0333
 4528SOL    HW225218   0.607   1.249  13.235  0.8336 -0.8406 -0.5498
 4529SOL     OW25219   1.206   3.540   6.476 -0.8656 -0.4721  0.1165
 4529SOL    HW125220   1.144   3.604   6.440  1.1349  1.8046  0.6754
 4529SOL    HW225221   1.257   3.509   6.401  1.5300  0.9320  1.1851
 4530SOL     OW25222   0.483   0.255   5.090 -0.5632  0.4771  0.0790
 4530SOL    HW125223   0.391   0.271   5.111 -0.8402  0.9636 -1.4924
 4530SOL    HW225224   0.477   0.164   5.122 -1.1464  0.0652 -1.2064
 4531SOL     OW25225   2.840   3.010   4.034 -0.4868 -0.2908  0.0453
 4531SOL    HW125226   2.762   2.967   3.999 -2.3863  2.9521  0.3548
 4531SOL    HW225227   2.854   2.969   4.120 -4.1673  0.5395  1.0413
 4532SOL     OW25228   3.068   4.330  10.098  0.3029  0.1704  0.1221
 4532SOL    HW125229   2.997   4.312  10.159  0.5117  1.1315  0.6414
 4532SOL    HW225230   3.083   4.423  10.110 -1.5229  0.6418 -1.1752
 4533SOL     OW25231   1.875   3.066   7.465 -1.0290  0.3599  0.3258
 4533SOL    HW125232   1.839   3.020   7.388 -1.3976 -0.4645  0.9942
 4533SOL    HW225233   1.905   3.145   7.419 -1.0929  0.4443  0.4287
 4534SOL     OW25234   3.007   2.156   2.700  0.7655  0.3306  0.5711
 4534SOL    HW125235   2.952   2.174   2.776  0.7743  1.8429  0.2157
 4534SOL    HW225236   3.064   2.230   2.715 -0.9230  1.6307  0.5950
 4535SOL     OW25237   1.792   2.268  16.332  0.1979  0.1531 -0.2811
 4535SOL    HW125238   1.763   2.187  16.373  0.2332  0.8410  1.1051
 4535SOL    HW225239   1.766   2.258  16.240  1.2400  1.1892 -0.6939
 4536SOL     OW25240   0.991   0.218  17.129 -0.0354  0.9669  0.2775
 4536SOL    HW125241   0.984   0.182  17.217  1.0911  2.1185  0.8408
 4536SOL    HW225242   0.898   0.206  17.107  0.1441 -0.8482  0.5703
 4537SOL     OW25243   2.715   3.553  13.167 -0.3172 -0.2038  0.1466
 4537SOL    HW125244   2.746   3.570  13.078 -1.5640 -0.7761 -0.3887
 4537SOL    HW225245   2.634   3.504  13.155 -0.8319  0.4365  0.9375
 4538SOL     OW25246   1.302   3.479   6.222  0.1032 -0.2452 -0.8667
 4538SOL    HW125247   1.350   3.522   6.151  0.2897  0.4801 -0.3046
 4538SOL    HW225248   1.286   3.393   6.183  0.1644 -0.3249 -0.7159
 4539SOL     OW25249   2.513   0.797   2.291  0.2451 -0.4207 -0.4117
 4539SOL    HW125250   2.546   0.857   2.224 -0.1652  0.5711  0.2653
 4539SOL    HW225251   2.452   0.852   2.341  0.1378 -2.4899  1.7549
 4540SOL     OW25252   4.371   1.033   7.843  0.4231 -0.0104 -0.3748
 4540SOL    HW125253   4.431   1.003   7.774  1.9630  1.9041  0.1310
 4540SOL    HW225254   4.388   0.960   7.901 -0.3272  0.6600  0.6882
 4541SOL     OW25255   1.362   1.695   7.474 -0.2963  0.1732  0.4835
 4541SOL    HW125256   1.336   1.697   7.566  1.6610  1.3077  0.9965
 4541SOL    HW225257   1.456   1.687   7.489 -0.0719  0.4046 -0.8390
 4542SOL     OW25258   3.319   1.114   8.717  0.1244  0.1527  0.3600
 4542SOL    HW125259   3.238   1.145   8.756  0.5331  0.6606  0.8028
 4542SOL    HW225260   3.311   1.133   8.624  2.3839 -2.3403 -0.3572
 4543SOL     OW25261   2.881   1.643   4.689 -0.1265 -0.0681  0.6328
 4543SOL    HW125262   2.853   1.606   4.772  1.8948  0.8669  1.7259
 4543SOL    HW225263   2.945   1.576   4.663 -0.1079 -0.2034  1.0303
 4544SOL     OW25264   1.366   2.649  12.621 -0.8357 -0.4032  0.0836
 4544SOL    HW125265   1.338   2.560  12.641  0.9551 -0.8527  0.5536
 4544SOL    HW225266   1.286   2.689  12.656 -1.3883 -1.5456  0.1011
 4545SOL     OW25267   1.833   3.669   5.889  1.0034  0.1491  0.3330
 4545SOL    HW125268   1.740   3.691   5.883  0.4764 -1.8049  1.3232
 4545SOL    HW225269   1.874   3.745   5.931 -0.3774 -0.4210  2.6798
 4546SOL     OW25270   0.092   4.298   2.650 -0.5264 -0.2337 -0.2432
 4546SOL    HW125271   0.045   4.278   2.569  1.1960 -0.9066 -1.0594
 4546SOL    HW225272   0.025   4.281   2.717 -1.2633 -0.0266 -0.9280
 4547SOL     OW25273   0.148   0.895   9.749 -0.1123  0.4297  0.0431
 4547SOL    HW125274   0.172   0.900   9.841  2.1893 -0.1212 -0.5353
 4547SOL    HW225275   0.225   0.859   9.705  0.0357  0.4282  0.3021
 4548SOL     OW25276   4.263   0.532   4.470  0.1922 -0.2633  0.3470
 4548SOL    HW125277   4.249   0.464   4.405  0.6219  0.0925 -0.1178
 4548SOL    HW225278   4.304   0.480   4.540 -0.2065  0.2856  0.9916
 4549SOL     OW25279   2.351   2.866   6.902 -1.0356 -0.0966 -0.3625
 4549SOL    HW125280   2.368   2.790   6.847 -2.8829  0.1273 -1.2649
 4549SOL    HW225281   2.379   2.834   6.987 -1.6349 -0.1079 -0.1679
 4550SOL     OW25282   3.639   2.242  14.689 -0.3929  0.2339 -0.0760
 4550SOL    HW125283   3.621   2.310  14.624 -1.4750  1.2629  1.3112
 4550SOL    HW225284   3.733   2.250  14.708 -0.5368 -0.9056  1.0882
 4551SOL     OW25285   4.114   2.835  10.002 -0.6001 -0.2604 -0.0281
 4551SOL    HW125286   4.066   2.837   9.920  0.0537  1.6267 -0.3554
 4551SOL    HW225287   4.179   2.900   9.976 -0.2618 -0.1797  1.0111
 4552SOL     OW25288   0.285   2.562   3.733  0.0340 -0.4978  0.0655
 4552SOL    HW125289   0.319   2.556   3.643 -1.5108  0.1068 -0.5597
 4552SOL    HW225290   0.199   2.598   3.714 -0.0055 -0.9681 -0.6482
 4553SOL     OW25291   1.997   1.710   1.878 -0.4005  0.3066 -0.1670
 4553SOL    HW125292   1.996   1.644   1.809  2.0184  3.4424 -3.1960
 4553SOL    HW225293   2.093   1.717   1.884 -0.5755  1.3124  1.5666
 4554SOL     OW25294   3.050   3.620   5.814  0.1621 -0.4687  0.2275
 4554SOL    HW125295   3.086   3.575   5.738  1.8748 -1.5510  1.6679
 4554SOL    HW225296   3.053   3.707   5.776  0.0300 -0.1249  0.9960
 4555SOL     OW25297   4.531   2.265  15.751 -0.5335 -0.0172  0.3032
 4555SOL    HW125298   4.470   2.332  15.718  0.4156 -0.3564 -2.1656
 4555SOL    HW225299   4.555   2.214  15.674  1.4810  0.0542  0.8907
 4556SOL     OW25300   1.224   2.660   6.003  0.3059 -0.2354 -0.1343
 4556SOL    HW125301   1.216   2.682   5.910  0.7182  0.5627  0.0283
 4556SOL    HW225302   1.202   2.566   6.003 -1.9523  0.3096  0.8466
 4557SOL     OW25303   2.795   4.389   1.984  0.0073  0.3713 -0.4124
 4557SOL    HW125304   2.731   4.431   1.927  0.4716 -1.3746 -2.2168
 4557SOL    HW225305   2.848   4.464   2.010  0.9523  0.2204 -1.9168
 4558SOL     OW25306   1.098   1.032  13.962 -0.3500 -0.0966  0.1319
 4558SOL    HW125307   1.141   1.073  13.887  1.6262 -0.3353  1.1274
 4558SOL    HW225308   1.150   1.066  14.035  0.0930 -0.2766 -0.1009
 4559SOL     OW25309   4.203   0.546   9.160 -0.0461  0.2790 -0.6038
 4559SOL    HW125310   4.199   0.598   9.240  3.9333 -0.5396  0.1352
 4559SOL    HW225311   4.123   0.568   9.112  0.5800 -0.7612 -2.1222
 4560SOL     OW25312   4.363   2.069   7.362 -0.6877 -0.4731 -0.5490
 4560SOL    HW125313   4.275   2.045   7.330 -0.7047  1.8568 -2.2685
 4560SOL    HW225314   4.345   2.061   7.455 -1.0307 -1.9666 -0.7471
 4561SOL     OW25315   0.290   2.440   1.868  0.3738 -0.0883  0.2983
 4561SOL    HW125316   0.199   2.416   1.849  0.4681 -0.6724  0.6044
 4561SOL    HW225317   0.333   2.410   1.788 -0.1147 -0.5180  0.1927
 4562SOL     OW25318   4.368   4.234   4.479  0.7240 -0.7641 -0.2409
 4562SOL    HW125319   4.401   4.145   4.482  2.4597 -0.1252 -0.4715
 4562SOL    HW225320   4.311   4.234   4.556  1.6244 -0.8394  0.4258
 4563SOL     OW25321   4.020   3.382   0.753  0.0907 -0.3742 -0.1640
 4563SOL    HW125322   3.956   3.428   0.698  0.7768 -1.6035 -2.0099
 4563SOL    HW225323   3.998   3.422   0.837  3.8889  0.6331  0.3311
 4564SOL     OW25324   3.150   1.864   4.671 -0.1260  0.0284  0.2697
 4564SOL    HW125325   3.176   1.948   4.710  0.6543 -0.3329  0.5180
 4564SOL    HW225326   3.090   1.832   4.739  0.7236 -1.2069  0.4292
 4565SOL     OW25327   3.377   4.133   3.627  0.0229 -0.2559  0.2099
 4565SOL    HW125328   3.282   4.136   3.615  0.2288  0.5948 -1.3099
 4565SOL    HW225329   3.392   4.115   3.719 -0.5792 -0.3430  0.2856
 4566SOL     OW25330   2.628   1.035   3.887 -0.3031 -0.3308  0.1335
 4566SOL    HW125331   2.608   1.071   3.973  0.8648  1.6944 -0.4262
 4566SOL    HW225332   2.630   1.115   3.834  1.2932 -0.6084 -0.2320
 4567SOL     OW25333   2.502   2.268  16.806 -0.3274  0.3711  0.2475
 4567SOL    HW125334   2.568   2.304  16.746  1.7423  1.9524  3.4242
 4567SOL    HW225335   2.435   2.334  16.794 -0.3176  0.6360  1.5859
 4568SOL     OW25336   4.658   2.221   5.109  0.4166  0.1258 -0.0834
 4568SOL    HW125337   4.584   2.195   5.054  2.0284 -1.4165 -1.5190
 4568SOL    HW225338   4.604   2.217   5.188 -0.6794  0.5814 -0.7990
 4569SOL     OW25339   3.187   0.836   2.324 -0.6934 -0.5597  0.2712
 4569SOL    HW125340   3.119   0.787   2.370 -1.0350 -0.7667 -0.4583
 4569SOL    HW225341   3.175   0.921   2.368 -0.5114 -1.2864  1.7292
 4570SOL     OW25342   1.940   0.102   7.475 -0.5322  0.3466  0.2674
 4570SOL    HW125343   1.990   0.060   7.546  0.0184  1.2403  0.4120
 4570SOL    HW225344   2.009   0.098   7.409 -0.9007 -0.5285 -0.0607
 4571SOL     OW25345   0.687   3.633   6.081  0.0130 -0.1889  0.4527
 4571SOL    HW125346   0.665   3.632   6.174  0.8620  0.3050  0.6557
 4571SOL    HW225347   0.782   3.637   6.083  0.0462 -1.3019  0.8704
 4572SOL     OW25348   1.427   0.914   8.206  0.3058  0.4124 -0.0461
 4572SOL    HW125349   1.396   0.956   8.287  0.3822  0.5067 -0.0660
 4572SOL    HW225350   1.343   0.900   8.164  0.9650 -2.0329 -0.5259
 4573SOL     OW25351   2.454   1.738   9.161 -0.3834 -0.0931  0.2800
 4573SOL    HW125352   2.486   1.702   9.244 -1.0354  0.3844  0.7384
 4573SOL    HW225353   2.453   1.661   9.104 -1.5225 -0.4163  0.7354
 4574SOL     OW25354   4.575   2.885   2.826 -0.6947 -0.3475 -0.1279
 4574SOL    HW125355   4.617   2.931   2.754 -1.7437  0.6669 -0.0822
 4574SOL    HW225356   4.482   2.882   2.803 -0.5296  2.0527 -1.0278
 4575SOL     OW25357   4.307   1.097  17.118  0.3346 -0.4690  0.5347
 4575SOL    HW125358   4.363   1.096  17.196 -0.3664 -2.5359  1.0303
 4575SOL    HW225359   4.266   1.011  17.124  2.0720 -1.3778 -0.4816
 4576SOL     OW25360   3.182   1.150  12.731 -0.1164  0.7243 -0.2850
 4576SOL    HW125361   3.263   1.196  12.710  0.5737 -0.0386  0.6716
 4576SOL    HW225362   3.136   1.212  12.788  0.2614  1.6092 -0.9520
 4577SOL     OW25363   2.859   2.673   0.997  0.1973 -0.1959 -0.1201
 4577SOL    HW125364   2.835   2.759   1.030 -0.0699  0.1170 -1.1248
 4577SOL    HW225365   2.952   2.668   0.976 -0.0056 -1.8358 -0.6608
 4578SOL     OW25366   0.336   0.603   1.320 -0.1338  0.4095 -0.1509
 4578SOL    HW125367   0.391   0.541   1.368 -2.1414 -2.0277 -0.9850
 4578SOL    HW225368   0.402   0.626   1.254 -0.5859  1.3732 -0.2688
 4579SOL     OW25369   4.320   3.950   4.012  0.2989 -0.3884 -0.3700
 4579SOL    HW125370   4.412   3.976   3.998 -0.3576  0.6330 -2.8434
 4579SOL    HW225371   4.272   4.004   3.949  1.2099  0.2823 -0.4959
 4580SOL     OW25372   0.580   2.332   1.898  0.1648  0.1573 -0.2499
 4580SOL    HW125373   0.660   2.301   1.853  1.0169 -0.0994  1.4572
 4580SOL    HW225374   0.521   2.349   1.824  1.4265  1.4172 -0.9729
 4581SOL     OW25375   4.253   2.292   2.847 -0.4041  0.6569  0.9782
 4581SOL    HW125376   4.288   2.256   2.928  0.7457 -1.5729 -0.5126
 4581SOL    HW225377   4.304   2.371   2.830  1.0844 -0.8687 -1.5812
 4582SOL     OW25378   1.430   4.496   5.048 -0.1156 -0.3132 -0.1937
 4582SOL    HW125379   1.481   4.532   5.121  0.4168 -1.0073 -0.2160
 4582SOL    HW225380   1.343   4.510   5.087  0.3327  0.7146  0.4506
 4583SOL     OW25381   4.439   3.906   1.258  0.2417  0.2053 -0.5892
 4583SOL    HW125382   4.369   3.963   1.227 -2.0816 -1.2981  1.8324
 4583SOL    HW225383   4.512   3.919   1.197  0.5476  3.9964  0.6123
 4584SOL     OW25384   4.618   2.933   8.949 -0.4465 -0.4730 -0.0462
 4584SOL    HW125385   4.708   2.930   8.919 -0.3114  0.5870  0.2409
 4584SOL    HW225386   4.593   3.018   8.911  0.9837  0.7213  1.6755
 4585SOL     OW25387   0.723   1.984  11.577 -0.3516 -0.1986 -0.1143
 4585SOL    HW125388   0.797   1.935  11.542 -0.4455 -1.3413  1.2678
 4585SOL    HW225389   0.775   2.046  11.628  1.5316 -0.8516 -1.2586
 4586SOL     OW25390   3.238   2.449   5.612 -0.1743 -0.1070 -0.3178
 4586SOL    HW125391   3.238   2.523   5.673 -0.0724 -0.3425 -0.0393
 4586SOL    HW225392   3.217   2.378   5.672 -0.2781 -1.4530 -1.9290
 4587SOL     OW25393   1.392   0.573   5.062  0.7865 -0.1626  0.2082
 4587SOL    HW125394   1.452   0.625   5.116 -0.0467 -0.3451  1.3163
 4587SOL    HW225395   1.455   0.502   5.050  1.2681  0.6383 -1.8377
 4588SOL     OW25396   0.140   4.657   5.196 -0.0919  0.4646  0.0180
 4588SOL    HW125397   0.207   4.595   5.168 -1.9940 -0.2712 -2.9272
 4588SOL    HW225398   0.124   4.647   5.290  2.3994 -2.6531  0.1380
 4589SOL     OW25399   1.025   3.159   8.871  0.0965 -0.1746 -0.3834
 4589SOL    HW125400   0.933   3.162   8.847 -0.3298  0.6852  1.3749
 4589SOL    HW225401   1.025   3.065   8.886  1.0705  0.1984  1.9320
 4590SOL     OW25402   0.554   0.793   4.645 -0.0170 -0.2602  0.0237
 4590SOL    HW125403   0.562   0.777   4.551 -0.0228  0.3346 -0.0804
 4590SOL    HW225404   0.497   0.869   4.628 -0.3727 -0.2539  1.2623
 4591SOL     OW25405   3.532   0.670  10.187 -0.4770  0.2799 -0.1117
 4591SOL    HW125406   3.482   0.594  10.216  0.9846 -0.8123 -0.4435
 4591SOL    HW225407   3.457   0.721  10.155 -2.5498 -3.5651 -1.4025
 4592SOL     OW25408   1.373   2.900   2.770 -0.4484  0.5760  0.0453
 4592SOL    HW125409   1.447   2.956   2.796  1.3592 -1.7449 -0.0931
 4592SOL    HW225410   1.356   2.945   2.687  1.2719 -2.3957 -1.9234
 4593SOL     OW25411   3.664   0.482  14.064 -0.1851 -0.3914  0.5958
 4593SOL    HW125412   3.672   0.576  14.050 -0.4245 -0.5297 -0.4037
 4593SOL    HW225413   3.582   0.471  14.016 -1.2216 -0.0566  2.2500
 4594SOL     OW25414   0.186   2.087   9.397 -0.5042  0.5601  0.5249
 4594SOL    HW125415   0.160   2.087   9.305  0.3968  1.1027  0.2711
 4594SOL    HW225416   0.240   2.165   9.404 -0.2622  0.4239  0.1640
 4595SOL     OW25417   3.556   1.351  13.668  0.1418 -0.4106  0.0585
 4595SOL    HW125418   3.616   1.321  13.736 -0.2334 -1.3902 -0.0403
 4595SOL    HW225419   3.504   1.417  13.714 -1.8328 -2.4901  0.8297
 4596SOL     OW25420   2.911   2.990   6.424  0.6062 -0.4664 -0.5872
 4596SOL    HW125421   2.904   2.923   6.491 -2.0388  1.1374  0.7482
 4596SOL    HW225422   2.983   3.046   6.454  1.4801 -0.1191 -3.3153
 4597SOL     OW25423   4.436   1.998  17.103 -0.5413 -0.1530 -0.0245
 4597SOL    HW125424   4.506   1.999  17.168  0.4908  0.6411 -1.1585
 4597SOL    HW225425   4.445   1.905  17.085 -0.2615 -0.0378 -0.4655
 4598SOL     OW25426   3.073   3.589   8.697  0.1409 -0.0714  0.3044
 4598SOL    HW125427   3.108   3.678   8.698  1.1365 -0.4278 -1.6306
 4598SOL    HW225428   3.007   3.602   8.765  2.4441  3.1171  1.8878
 4599SOL     OW25429   4.045   2.074   3.158 -0.3532  0.1651  0.1085
 4599SOL    HW125430   4.115   2.082   3.094 -0.6857 -1.2803 -0.4423
 4599SOL    HW225431   3.966   2.069   3.103 -0.9117 -2.1482  1.0914
 4600SOL     OW25432   0.499   3.085   5.222 -0.4294 -0.0196  0.6017
 4600SOL    HW125433   0.533   3.092   5.133  0.8806 -0.4697  1.0668
 4600SOL    HW225434   0.414   3.128   5.211 -0.3049  0.4070  1.3040
 4601SOL     OW25435   1.654   3.735   4.683 -0.1521  0.0349 -0.4071
 4601SOL    HW125436   1.597   3.714   4.609 -0.2360  3.6577 -1.4073
 4601SOL    HW225437   1.665   3.642   4.703 -1.0447 -0.0696 -0.4341
 4602SOL     OW25438   3.895   2.152   3.914  0.5900  1.1127  0.2670
 4602SOL    HW125439   3.875   2.244   3.935 -2.8937  0.3604  0.1654
 4602SOL    HW225440   3.872   2.144   3.822 -0.6110  2.3259  0.4519
 4603SOL     OW25441   2.761   1.412  10.588  0.8604 -0.6900 -0.2299
 4603SOL    HW125442   2.758   1.477  10.518  1.1065  1.4347  1.7018
 4603SOL    HW225443   2.753   1.335  10.531 -1.6849 -0.1288 -0.6220
 4604SOL     OW25444   0.482   1.660   4.932 -0.2931 -0.3781 -0.2068
 4604SOL    HW125445   0.557   1.692   4.884  0.4091  0.9238  1.7655
 4604SOL    HW225446   0.459   1.740   4.979 -0.3988 -0.2817 -0.4246
 4605SOL     OW25447   0.584   0.596   2.601  0.6889 -0.3768 -0.0740
 4605SOL    HW125448   0.570   0.524   2.662 -0.8241  0.7027  0.8613
 4605SOL    HW225449   0.504   0.575   2.552 -0.3410  1.5838  0.7565
 4606SOL     OW25450   1.500   0.605   3.500 -0.5773 -0.5152 -0.0743
 4606SOL    HW125451   1.545   0.675   3.547 -0.1897 -0.4910 -0.4780
 4606SOL    HW225452   1.530   0.531   3.554 -1.2377 -0.8877 -0.2128
 4607SOL     OW25453   2.861   3.565   1.724  0.1555 -0.1253 -0.1948
 4607SOL    HW125454   2.867   3.512   1.645 -1.3716 -0.1917 -0.2507
 4607SOL    HW225455   2.849   3.655   1.694 -1.6642 -0.1498  0.4489
 4608SOL     OW25456   3.880   4.698  10.523 -0.4074 -0.3230 -0.5929
 4608SOL    HW125457   3.939   0.031  10.552  1.1156 -1.2925 -1.3935
 4608SOL    HW225458   3.799   0.012  10.523  0.0534  0.4032  0.2459
 4609SOL     OW25459   0.870   1.914   6.876 -0.2681 -0.0156 -0.0898
 4609SOL    HW125460   0.931   1.923   6.949 -0.4679 -0.2863  0.1125
 4609SOL    HW225461   0.914   1.846   6.826 -0.8526  0.4845 -1.2656
 4610SOL     OW25462   1.882   0.900   3.161  0.1243 -0.0349 -0.2197
 4610SOL    HW125463   1.846   0.968   3.104 -1.5020 -0.4207  0.3358
 4610SOL    HW225464   1.824   0.904   3.237 -0.8186  1.5017 -1.0080
 4611SOL     OW25465   3.473   2.682   1.615  0.0285 -0.3620 -0.4919
 4611SOL    HW125466   3.444   2.591   1.610  0.0208 -0.3371 -0.9461
 4611SOL    HW225467   3.390   2.723   1.639 -0.5401  0.4788 -3.8336
 4612SOL     OW25468   4.195   4.572   2.791  0.3529  0.1936 -0.1516
 4612SOL    HW125469   4.239   4.618   2.863 -0.5124  1.1258 -0.2266
 4612SOL    HW225470   4.195   4.636   2.720  1.2666 -0.6117 -0.8690
 4613SOL     OW25471   1.005   0.440   9.507 -0.6443  0.2164 -0.1816
 4613SOL    HW125472   1.048   0.504   9.563  1.1131 -2.7474  1.8434
 4613SOL    HW225473   1.077   0.390   9.468 -0.3112 -0.8219  1.8056
 4614SOL     OW25474   2.796   1.269  15.110  0.3107  0.0621 -0.1465
 4614SOL    HW125475   2.729   1.207  15.142 -0.5457  0.0430 -1.9922
 4614SOL    HW225476   2.835   1.215  15.042 -1.4963 -2.3558  0.7450
 4615SOL     OW25477   2.655   1.284   4.675 -0.3249 -0.2609 -0.3715
 4615SOL    HW125478   2.746   1.306   4.654 -0.2251 -0.6666 -0.3492
 4615SOL    HW225479   2.670   1.216   4.740 -0.9173  0.4458  0.5108
 4616SOL     OW25480   3.748   2.126   1.957  0.1393  0.0879  0.6594
 4616SOL    HW125481   3.754   2.040   1.916  0.0095 -0.2445  1.3289
 4616SOL    HW225482   3.769   2.184   1.884 -1.6413  1.0116  0.8899
 4617SOL     OW25483   3.715   1.440   8.870  0.6801  0.2708  1.0213
 4617SOL    HW125484   3.663   1.478   8.941  1.5657  1.0474  1.2511
 4617SOL    HW225485   3.754   1.363   8.913  1.8961  1.1012  1.3959
 4618SOL     OW25486   1.588   0.960   7.880 -0.1718 -0.0891  0.3971
 4618SOL    HW125487   1.579   0.981   7.973 -2.2543  0.5462  0.0564
 4618SOL    HW225488   1.498   0.932   7.867 -0.1209  0.6948 -1.6943
 4619SOL     OW25489   0.852   1.642  10.198  0.0893  0.1180  0.3624
 4619SOL    HW125490   0.810   1.678  10.276  3.2190  2.2443  1.0650
 4619SOL    HW225491   0.912   1.711  10.171  2.2727 -1.4684  1.2016
 4620SOL     OW25492   1.339   2.981   4.388 -0.1693 -0.1297  0.3188
 4620SOL    HW125493   1.373   3.062   4.350 -0.1984 -1.9257 -3.5194
 4620SOL    HW225494   1.256   3.019   4.416 -0.1598  0.3417 -0.2862
 4621SOL     OW25495   3.528   4.663   3.861 -0.4577 -0.2072 -0.3440
 4621SOL    HW125496   3.617   4.666   3.894 -0.1162 -2.7576 -1.0274
 4621SOL    HW225497   3.479   4.709   3.929  1.2160 -0.1111  0.7831
 4622SOL     OW25498   4.596   2.137   1.048 -0.5861 -0.2771 -0.1592
 4622SOL    HW125499   4.587   2.063   0.987 -2.8427  0.3685 -0.6048
 4622SOL    HW225500   4.512   2.182   1.041 -0.8665 -0.8094 -0.2385
 4623SOL     OW25501   0.170   2.975   3.280 -0.2560 -0.0558 -0.3290
 4623SOL    HW125502   0.181   2.951   3.372 -1.2570  1.7303  0.2497
 4623SOL    HW225503   0.235   2.920   3.236  2.3102  1.6436  1.3448
 4624SOL     OW25504   3.876   1.852  16.750  0.0654  0.0541  0.0124
 4624SOL    HW125505   3.881   1.859  16.845  0.9695  0.0665 -0.0374
 4624SOL    HW225506   3.812   1.922  16.734 -0.0368  0.3487  1.7690
 4625SOL     OW25507   2.148   0.083   1.808  0.4477  0.0293  0.0826
 4625SOL    HW125508   2.064   0.069   1.853  0.5641 -0.3336  0.1868
 4625SOL    HW225509   2.127   0.061   1.718  1.2509 -2.4832  0.5051
 4626SOL     OW25510   1.526   1.012   6.400 -0.3529 -0.4101 -0.2333
 4626SOL    HW125511   1.612   0.972   6.388 -0.5732 -1.3970  1.4397
 4626SOL    HW225512   1.494   0.967   6.478 -0.8950 -2.8156 -1.8552
 4627SOL     OW25513   1.249   2.459   9.278  0.0197 -0.0102 -0.4653
 4627SOL    HW125514   1.167   2.507   9.279 -0.2044 -0.4080  0.0632
 4627SOL    HW225515   1.231   2.393   9.211  0.9929 -0.3488 -0.4034
 4628SOL     OW25516   2.460   1.293   8.578 -0.2486 -0.2078 -0.2138
 4628SOL    HW125517   2.502   1.216   8.539  1.0561 -0.0108  0.8096
 4628SOL    HW225518   2.426   1.257   8.660 -0.1154 -3.4063 -1.5407
 4629SOL     OW25519   1.154   1.210   8.578 -0.1045  0.1472 -0.6159
 4629SOL    HW125520   1.173   1.122   8.545  1.0435 -0.8542  2.7301
 4629SOL    HW225521   1.097   1.245   8.510 -0.6320  0.6840  0.0989
 4630SOL     OW25522   0.459   1.317   4.780 -0.0602 -0.1929  0.0511
 4630SOL    HW125523   0.521   1.346   4.847 -0.4271  1.9656 -0.5174
 4630SOL    HW225524   0.405   1.251   4.823  1.7361 -0.7415  1.4649
 4631SOL     OW25525   3.570   2.899   3.216 -0.1624 -0.1180 -0.0812
 4631SOL    HW125526   3.529   2.968   3.267 -1.6422  0.2109 -1.7072
 4631SOL    HW225527   3.570   2.831   3.284 -0.7741  1.1531  1.1800
 4632SOL     OW25528   2.784   2.364  11.631  0.1323 -0.4402 -0.1053
 4632SOL    HW125529   2.846   2.406  11.571  1.8099 -1.4372  0.9306
 4632SOL    HW225530   2.757   2.442  11.679 -0.4365  0.0010 -1.1418
 4633SOL     OW25531   4.699   0.877   5.332  0.1553  0.5263  0.1384
 4633SOL    HW125532   4.648   0.817   5.278  0.2056  2.9191 -2.5504
 4633SOL    HW225533   4.723   0.949   5.274  1.8007  0.3041  0.5438
 4634SOL     OW25534   3.446   1.529   7.683  0.0665  0.2220 -0.7310
 4634SOL    HW125535   3.521   1.473   7.703  0.2761  0.4197 -0.9743
 4634SOL    HW225536   3.493   1.597   7.636 -0.0150  0.5775 -0.3005
 4635SOL     OW25537   2.604   4.141  13.777  0.3347 -0.6209 -0.6855
 4635SOL    HW125538   2.599   4.224  13.729  0.7395 -1.2311 -1.7793
 4635SOL    HW225539   2.524   4.092  13.758 -0.6529  0.8613 -0.3985
 4636SOL     OW25540   3.801   3.224   7.816  0.3868 -0.0497 -0.0874
 4636SOL    HW125541   3.754   3.226   7.734  0.9619 -1.7818 -0.4658
 4636SOL    HW225542   3.822   3.130   7.822  0.3161  0.0058  1.1279
 4637SOL     OW25543   1.476   1.607   0.913 -0.4671  0.6062  0.0566
 4637SOL    HW125544   1.543   1.617   0.981 -0.3819  0.3334  0.0130
 4637SOL    HW225545   1.505   1.677   0.854  1.6646  0.4388  0.8949
 4638SOL     OW25546   1.500   3.207   7.398 -0.1053 -0.0830 -0.2926
 4638SOL    HW125547   1.505   3.194   7.492 -1.5780  0.6632 -0.1160
 4638SOL    HW225548   1.512   3.118   7.365 -1.3663 -0.0259 -0.9204
 4639SOL     OW25549   3.376   3.584   6.443  0.0374  0.2598  0.0649
 4639SOL    HW125550   3.290   3.587   6.484 -0.2571 -0.2779 -0.4945
 4639SOL    HW225551   3.430   3.632   6.505 -1.7035  1.1597  0.8835
 4640SOL     OW25552   0.091   1.110   7.498  0.1721  0.0126  0.1935
 4640SOL    HW125553   0.010   1.059   7.493  0.5196 -0.5957  0.8254
 4640SOL    HW225554   0.128   1.079   7.415 -2.7693 -2.1002 -0.3770
 4641SOL     OW25555   4.016   4.481   4.083 -0.1997 -0.1088 -0.2395
 4641SOL    HW125556   3.935   4.434   4.061  0.0281  0.0164 -1.3124
 4641SOL    HW225557   4.021   4.525   3.999  2.3052 -0.3651 -0.2185
 4642SOL     OW25558   3.121   2.219   8.735  0.5986  0.0483 -0.0906
 4642SOL    HW125559   3.213   2.239   8.753  0.2556  1.5394  0.0589
 4642SOL    HW225560   3.098   2.312   8.745 -0.5228 -0.4136  1.6331
 4643SOL     OW25561   2.363   1.974   8.814 -0.1600 -0.9934 -0.2550
 4643SOL    HW125562   2.355   2.064   8.844  1.0651 -0.1737 -2.4215
 4643SOL    HW225563   2.440   1.948   8.864  0.2388 -1.2135 -0.9956
 4644SOL     OW25564   2.645   2.922   8.156  0.0956  0.1624 -0.0061
 4644SOL    HW125565   2.608   2.882   8.077 -1.6323  0.4737  0.6435
 4644SOL    HW225566   2.590   2.895   8.229  2.6988 -2.6510  0.9184
 4645SOL     OW25567   0.741   0.479   3.330 -0.7337 -0.1376 -0.4935
 4645SOL    HW125568   0.657   0.457   3.371  0.0221 -1.1461  0.5021
 4645SOL    HW225569   0.703   0.509   3.247  1.4629  1.8934 -0.7433
 4646SOL     OW25570   0.365   4.506   5.879 -0.4688 -0.1737 -0.4364
 4646SOL    HW125571   0.399   4.595   5.873 -4.1219  1.3127  1.6068
 4646SOL    HW225572   0.287   4.521   5.931 -0.3488 -1.9206  0.2632
 4647SOL     OW25573   3.786   2.458   3.647  0.4061  0.0361  0.0437
 4647SOL    HW125574   3.690   2.457   3.649  0.3991 -0.1090 -0.5580
 4647SOL    HW225575   3.795   2.382   3.590  0.8983  1.2937 -1.5564
 4648SOL     OW25576   2.647   1.631  15.350  0.2592  0.3385  0.1486
 4648SOL    HW125577   2.675   1.650  15.260  0.6022  0.6897  0.3265
 4648SOL    HW225578   2.567   1.581  15.332  0.5676 -0.0879 -0.0391
 4649SOL     OW25579   2.352   4.004  13.852 -0.5442  0.0082  0.2182
 4649SOL    HW125580   2.407   3.926  13.847 -0.8835 -0.3476  2.1105
 4649SOL    HW225581   2.326   3.994  13.943  2.4721 -1.2779  0.9534
 4650SOL     OW25582   4.367   4.403   4.261 -0.5969  0.3477 -0.2722
 4650SOL    HW125583   4.383   4.493   4.290 -1.4632  1.0439 -1.9340
 4650SOL    HW225584   4.358   4.357   4.345 -0.2657 -0.9666 -0.9612
 4651SOL     OW25585   1.316   0.976  16.006 -0.1511 -0.2648  0.3480
 4651SOL    HW125586   1.355   0.967  16.093 -0.1288 -2.3784  0.1187
 4651SOL    HW225587   1.392   0.966  15.948 -0.2507  2.1916 -0.1938
 4652SOL     OW25588   0.968   2.159   2.475  0.7236 -0.3801 -0.2104
 4652SOL    HW125589   1.043   2.199   2.432 -0.3242  0.3425 -1.3470
 4652SOL    HW225590   0.895   2.195   2.425  0.7619  0.4899  0.3673
 4653SOL     OW25591   3.299   4.082   2.134  0.3268 -0.0150  0.4577
 4653SOL    HW125592   3.298   3.986   2.126 -0.3472  0.0266  0.1247
 4653SOL    HW225593   3.229   4.097   2.197  0.2357 -0.4275  0.4592
 4654SOL     OW25594   4.258   0.943   7.265  0.1769 -1.1323 -0.1237
 4654SOL    HW125595   4.288   0.946   7.175  2.3623  3.0737  0.7566
 4654SOL    HW225596   4.327   0.963   7.328 -0.7949  1.4321  0.1355
 4655SOL     OW25597   1.301   2.499  13.677 -0.3051 -0.0317  0.3012
 4655SOL    HW125598   1.355   2.499  13.598  1.3331  2.3890  1.4373
 4655SOL    HW225599   1.279   2.407  13.693 -1.0506 -0.0155 -0.5589
 4656SOL     OW25600   3.834   2.449   2.102  0.3278  0.5067 -0.5677
 4656SOL    HW125601   3.824   2.430   2.196 -0.1637 -2.0855 -1.1440
 4656SOL    HW225602   3.909   2.509   2.109 -0.1345  1.0203  0.0226
 4657SOL     OW25603   2.887   3.602   8.895 -0.5103 -0.1416  0.1808
 4657SOL    HW125604   2.908   3.626   8.985 -2.8371  1.3767  0.3330
 4657SOL    HW225605   2.828   3.532   8.923 -0.3379 -0.7872 -1.0656
 4658SOL     OW25606   1.506   4.539   2.081 -0.4159  0.6426  0.8352
 4658SOL    HW125607   1.447   4.488   2.136  2.7342 -1.0090  2.6159
 4658SOL    HW225608   1.444   4.607   2.053  1.2474  2.3124  1.2459
 4659SOL     OW25609   3.189   1.916   3.848  0.3731 -0.6747 -0.0635
 4659SOL    HW125610   3.188   2.000   3.803  4.4097 -0.6520 -0.1060
 4659SOL    HW225611   3.157   1.863   3.775 -1.1066  0.1059  0.0167
 4660SOL     OW25612   3.192   0.402   4.040 -0.0307 -0.1130  0.2533
 4660SOL    HW125613   3.141   0.472   4.082  0.0933 -0.7124  1.3997
 4660SOL    HW225614   3.260   0.447   3.989 -0.2611 -2.5472 -2.1888
 4661SOL     OW25615   1.316   4.106   4.362  0.0284 -0.2842 -0.0133
 4661SOL    HW125616   1.223   4.086   4.373  0.3742 -1.2404  1.1687
 4661SOL    HW225617   1.328   4.057   4.280  0.7291 -1.6659  0.9101
 4662SOL     OW25618   2.442   3.564   4.691  0.5768  0.0239 -0.1759
 4662SOL    HW125619   2.363   3.524   4.727 -0.7990  1.2047 -1.9329
 4662SOL    HW225620   2.514   3.515   4.731  2.3299  2.7468 -0.0149
 4663SOL     OW25621   3.368   0.285   6.202 -0.1267  0.6717 -0.3511
 4663SOL    HW125622   3.420   0.244   6.134  2.8106  0.7614  1.8303
 4663SOL    HW225623   3.395   0.235   6.279  2.8755 -0.3137 -2.0501
 4664SOL     OW25624   1.049   1.343  16.948 -0.1071  0.3678  0.6904
 4664SOL    HW125625   0.985   1.293  16.897  2.6768  2.5474 -4.9701
 4664SOL    HW225626   1.014   1.431  16.933 -2.5347 -0.7251  0.0283
 4665SOL     OW25627   1.860   0.604   2.331  0.0865 -0.1673  0.0566
 4665SOL    HW125628   1.864   0.670   2.400  0.2298 -1.6298  1.4346
 4665SOL    HW225629   1.926   0.543   2.363  1.8183  3.0824  2.6120
 4666SOL     OW25630   3.465   1.682   0.963 -0.2837 -0.6694  0.1858
 4666SOL    HW125631   3.557   1.695   0.941 -0.0449  0.7869  2.0855
 4666SOL    HW225632   3.459   1.747   1.032 -0.8393  0.3904 -0.8624
 4667SOL     OW25633   1.999   2.210   8.836 -0.9193 -0.2014 -0.5209
 4667SOL    HW125634   2.011   2.197   8.930 -1.0524 -0.3029 -0.5178
 4667SOL    HW225635   1.940   2.136   8.820  0.4590 -1.2203 -0.9168
 4668SOL     OW25636   0.269   0.235  11.649  0.0703  0.4030  0.1837
 4668SOL    HW125637   0.198   0.289  11.684  0.4162  0.4532  0.8047
 4668SOL    HW225638   0.347   0.290  11.663  0.4630  0.3250 -1.6734
 4669SOL     OW25639   1.609   2.174   6.595 -0.4821 -0.2841 -0.2720
 4669SOL    HW125640   1.629   2.080   6.598  0.3945 -0.0009  2.5285
 4669SOL    HW225641   1.567   2.189   6.680  1.6460 -2.1578  1.0957
 4670SOL     OW25642   2.535   1.513   8.464 -0.5666  0.0309 -0.0655
 4670SOL    HW125643   2.517   1.474   8.378  0.1486  0.4812 -0.4232
 4670SOL    HW225644   2.497   1.441   8.515 -1.3135  0.7462  0.3774
 4671SOL     OW25645   3.554   2.018  15.804  0.5792  0.5052  0.2223
 4671SOL    HW125646   3.488   2.069  15.851 -0.9678  0.2016 -1.6261
 4671SOL    HW225647   3.631   2.057  15.845 -1.0436  3.0380  0.8811
 4672SOL     OW25648   4.689   0.047   4.300 -0.3569 -1.0552  0.6247
 4672SOL    HW125649   4.697   0.032   4.394  1.0136 -1.6130  0.4210
 4672SOL    HW225650   4.602   0.009   4.286  0.1832 -1.7876 -0.6891
 4673SOL     OW25651   2.976   4.389   1.411 -0.3494 -0.2478 -0.0409
 4673SOL    HW125652   2.954   4.298   1.394  1.4890 -0.7307  0.1179
 4673SOL    HW225653   2.892   4.420   1.377  0.1514  1.8618  0.6323
 4674SOL     OW25654   2.600   0.308   9.573  0.1786 -0.3214 -0.8806
 4674SOL    HW125655   2.626   0.275   9.659  1.3379 -1.9496 -1.8421
 4674SOL    HW225656   2.680   0.353   9.548  1.1444 -0.7252  1.4910
 4675SOL     OW25657   0.149   2.882   6.004  0.3587 -0.5793 -0.1254
 4675SOL    HW125658   0.180   2.812   5.947  1.6861 -1.1300  1.2883
 4675SOL    HW225659   0.097   2.830   6.065 -1.2001 -0.0835 -1.0247
 4676SOL     OW25660   2.659   2.569   6.545  0.0021  0.3278  0.5173
 4676SOL    HW125661   2.604   2.616   6.482  0.5181  0.5737  0.2548
 4676SOL    HW225662   2.692   2.497   6.491 -0.3759  0.8327 -0.3949
 4677SOL     OW25663   3.504   2.654   5.196  0.7646  0.1841  0.1760
 4677SOL    HW125664   3.545   2.641   5.110 -0.0901  3.1880 -0.6930
 4677SOL    HW225665   3.486   2.568   5.234 -0.2223  0.1031 -0.4882
 4678SOL     OW25666   0.514   2.070   0.179 -0.0248 -0.2963 -0.0099
 4678SOL    HW125667   0.450   2.100   0.244  0.5253  0.1730  0.3197
 4678SOL    HW225668   0.459   2.024   0.116 -1.4891 -0.2588  1.2261
 4679SOL     OW25669   1.578   1.195  11.201  0.3344  0.1328  0.0616
 4679SOL    HW125670   1.520   1.153  11.138  0.4171  2.3923 -1.5353
 4679SOL    HW225671   1.547   1.286  11.205  2.4170  0.8499 -0.4678
 4680SOL     OW25672   0.472   4.554   4.469  0.3384  0.1528 -0.0015
 4680SOL    HW125673   0.428   4.592   4.545 -1.2672 -0.7997 -0.4625
 4680SOL    HW225674   0.395   4.542   4.413  0.4454 -1.0725  0.1195
 4681SOL     OW25675   0.524   4.093  14.596  0.2880 -0.0394 -0.2308
 4681SOL    HW125676   0.450   4.042  14.563 -1.0305  0.7030  1.5482
 4681SOL    HW225677   0.496   4.105  14.687 -1.4009  1.5874 -0.9615
 4682SOL     OW25678   0.902   4.612  11.534 -0.2081  0.1220  0.0845
 4682SOL    HW125679   0.809   4.622  11.515 -0.3990  0.1564  1.0752
 4682SOL    HW225680   0.935   4.701  11.516  1.4242 -0.4782  0.1241
 4683SOL     OW25681   4.427   1.458  12.187  0.2649 -0.7009  0.4667
 4683SOL    HW125682   4.425   1.427  12.096 -0.6191 -2.3944  1.0842
 4683SOL    HW225683   4.467   1.383  12.230  0.2565 -1.3512 -0.6641
 4684SOL     OW25684   3.952   3.397  14.592 -0.2342  0.0284  0.1985
 4684SOL    HW125685   4.048   3.395  14.596 -0.2835 -2.9174 -0.1333
 4684SOL    HW225686   3.941   3.441  14.508 -1.6338  0.0539  0.4078
 4685SOL     OW25687   4.168   2.250   5.438  0.1229  0.1631 -0.3274
 4685SOL    HW125688   4.131   2.183   5.497 -0.0883 -0.0662 -0.7143
 4685SOL    HW225689   4.096   2.283   5.383 -1.3365 -0.5302  1.1802
 4686SOL     OW25690   4.311   2.837   2.246 -0.2656  0.1400  0.4878
 4686SOL    HW125691   4.237   2.844   2.185 -0.3462  0.2711  0.5997
 4686SOL    HW225692   4.357   2.913   2.212 -1.9703  0.0862 -1.9985
 4687SOL     OW25693   4.609   0.854   6.546 -0.3322  0.9461 -0.2137
 4687SOL    HW125694   4.552   0.915   6.500 -0.5000  1.6542  0.9420
 4687SOL    HW225695   4.601   0.770   6.500  0.6832  1.1477 -0.7637
 4688SOL     OW25696   0.942   1.533   3.600 -0.3968  0.2639  0.0679
 4688SOL    HW125697   0.917   1.624   3.581 -2.9961 -0.4902 -0.1265
 4688SOL    HW225698   0.877   1.488   3.546 -0.0978  0.0501 -0.1107
 4689SOL     OW25699   0.471   2.610   2.862 -0.1342  0.4628 -0.1651
 4689SOL    HW125700   0.413   2.555   2.809  0.1909  0.8292 -0.8971
 4689SOL    HW225701   0.524   2.540   2.902 -0.8715 -0.1941 -0.3271
 4690SOL     OW25702   2.026   1.811   7.351  0.1438 -0.3626 -0.0460
 4690SOL    HW125703   1.990   1.727   7.323  3.5513 -2.3190  1.4490
 4690SOL    HW225704   2.091   1.793   7.419  1.3904  0.2167 -1.0670
 4691SOL     OW25705   3.312   3.247  10.742  0.4052 -0.4202  0.2695
 4691SOL    HW125706   3.288   3.224  10.832 -0.1712 -0.3714  0.1306
 4691SOL    HW225707   3.401   3.216  10.728  0.4970 -0.7172  1.4901
 4692SOL     OW25708   0.812   3.625   6.581  0.4451  0.2261  0.5128
 4692SOL    HW125709   0.889   3.618   6.637 -0.4135 -1.6517  1.4415
 4692SOL    HW225710   0.782   3.716   6.587 -1.5229 -0.3657 -0.3961
 4693SOL     OW25711   3.994   3.436   6.202 -0.0596  0.3860  0.2980
 4693SOL    HW125712   4.010   3.364   6.142  1.8366  1.1291 -0.0752
 4693SOL    HW225713   3.901   3.450   6.185  0.0604  1.0362  0.1522
 4694SOL     OW25714   2.604   0.223   8.374  0.4952  0.1171  0.5699
 4694SOL    HW125715   2.583   0.235   8.281  1.1955  3.1621  0.8343
 4694SOL    HW225716   2.590   0.128   8.380 -0.3768  0.1072 -1.3496
 4695SOL     OW25717   2.446   1.493   3.842 -0.1455 -0.7215 -0.2815
 4695SOL    HW125718   2.392   1.455   3.911 -1.5489  0.6496 -0.6223
 4695SOL    HW225719   2.390   1.498   3.764 -2.8452 -1.5664  1.6095
 4696SOL     OW25720   0.821   4.592   8.963  0.4224  0.0579 -0.0189
 4696SOL    HW125721   0.909   4.593   8.924  0.7791  1.6283  0.7785
 4696SOL    HW225722   0.766   4.606   8.886 -2.2821 -0.7578  1.7751
 4697SOL     OW25723   2.299   0.005  10.127  0.8619 -0.0628  0.2784
 4697SOL    HW125724   2.382   0.034  10.165 -0.3423 -0.9043  3.5445
 4697SOL    HW225725   2.304   4.649  10.150 -0.2490 -0.6494 -1.8060
 4698SOL     OW25726   1.784   3.612   8.075 -0.1182 -0.1032 -0.4408
 4698SOL    HW125727   1.736   3.665   8.011  0.1056  0.8700  0.2032
 4698SOL    HW225728   1.737   3.529   8.083  1.8732 -1.4114 -2.2635
 4699SOL     OW25729   2.218   0.140   4.852  0.1605  0.1144 -0.2505
 4699SOL    HW125730   2.282   0.070   4.868 -0.5998  0.0487  2.6135
 4699SOL    HW225731   2.209   0.157   4.758  2.3252 -1.2796 -0.6980
 4700SOL     OW25732   1.360   0.825   6.644  0.1181  0.2463 -0.2915
 4700SOL    HW125733   1.375   0.771   6.722 -2.2763  2.6313  1.8316
 4700SOL    HW225734   1.264   0.834   6.639  0.0272  0.1428  1.1229
 4701SOL     OW25735   0.694   3.614  10.499  0.3085 -0.0932 -1.2499
 4701SOL    HW125736   0.628   3.595  10.434  1.8090 -0.8186 -2.5678
 4701SOL    HW225737   0.758   3.654  10.440  1.4458  0.3627  0.2797
 4702SOL     OW25738   2.133   3.502   5.307 -0.5629  0.3799 -0.0842
 4702SOL    HW125739   2.219   3.481   5.344 -0.5574  1.4939  0.5347
 4702SOL    HW225740   2.150   3.554   5.228  0.0086  1.2069  0.5829
 4703SOL     OW25741   2.859   1.691   3.896  0.4097 -0.3403 -0.0756
 4703SOL    HW125742   2.893   1.603   3.909  0.5799  0.0482  2.0798
 4703SOL    HW225743   2.817   1.685   3.810 -0.9809 -0.3760  0.5999
 4704SOL     OW25744   2.123   3.520   1.142 -0.0617 -0.1979 -0.1224
 4704SOL    HW125745   2.155   3.571   1.216  0.6204  1.3498 -1.4840
 4704SOL    HW225746   2.198   3.479   1.099  1.2508  1.2193  0.8576
 4705SOL     OW25747   3.712   3.361   1.033  0.3557  0.3076  0.3161
 4705SOL    HW125748   3.704   3.358   0.938 -0.5251 -0.4807  0.4203
 4705SOL    HW225749   3.786   3.302   1.042  0.0551 -0.0995  0.1163
 4706SOL     OW25750   4.513   3.239   8.100  0.0057  0.7926  0.0818
 4706SOL    HW125751   4.517   3.290   8.018  0.3016 -0.0381 -0.4169
 4706SOL    HW225752   4.604   3.212   8.108 -0.8225 -2.3022 -1.1110
 4707SOL     OW25753   1.034   1.634  15.194  0.2123  0.1593  0.0031
 4707SOL    HW125754   1.061   1.709  15.247 -0.0344 -1.9797  3.1550
 4707SOL    HW225755   0.955   1.614  15.245  0.7115 -0.9702  0.3275
 4708SOL     OW25756   2.745   4.592  16.631 -0.2134  0.2268  0.5804
 4708SOL    HW125757   2.717   4.608  16.541  1.2425 -0.8250 -0.0591
 4708SOL    HW225758   2.814   4.658  16.641 -1.4312  1.3888  1.3915
 4709SOL     OW25759   1.304   2.633   0.891  0.5662 -0.0654 -0.7169
 4709SOL    HW125760   1.342   2.651   0.805  2.6636  2.5501  0.7522
 4709SOL    HW225761   1.229   2.692   0.896  0.3206 -0.2432 -2.1694
 4710SOL     OW25762   2.311   2.981   7.866  0.0604  0.5108  0.3500
 4710SOL    HW125763   2.236   3.039   7.878  0.8782  1.9563 -1.5469
 4710SOL    HW225764   2.362   3.012   7.791 -0.8130  0.1903 -0.3712
 4711SOL     OW25765   0.682   2.512   5.155 -0.1608  0.3177 -0.2519
 4711SOL    HW125766   0.663   2.455   5.230  0.3488 -0.1361 -0.4678
 4711SOL    HW225767   0.592   2.537   5.136 -0.5968  0.0135  1.3638
 4712SOL     OW25768   1.256   0.532   3.424  0.7098 -0.3840  0.0004
 4712SOL    HW125769   1.336   0.582   3.440  0.6154 -0.1530 -0.2513
 4712SOL    HW225770   1.288   0.465   3.484 -0.6466  0.0076  1.1520
 4713SOL     OW25771   0.390   1.266   6.194  0.3230  0.4842  0.1776
 4713SOL    HW125772   0.372   1.172   6.184 -1.0188  0.9189 -1.5963
 4713SOL    HW225773   0.486   1.265   6.187  0.4269  1.6685  1.3789
 4714SOL     OW25774   2.154   1.108   4.627 -0.4870 -1.0335 -0.1822
 4714SOL    HW125775   2.186   1.119   4.537  0.8308  1.1718  0.5584
 4714SOL    HW225776   2.238   1.112   4.673 -2.4522  1.2144  3.1957
 4715SOL     OW25777   3.012   2.066  14.534  0.0694  0.4188 -0.0728
 4715SOL    HW125778   2.978   2.089  14.447  1.5824  0.0685 -0.7635
 4715SOL    HW225779   2.975   2.132  14.592  2.2544  0.0288  1.7712
 4716SOL     OW25780   4.533   2.076   8.444  0.1054 -0.3542 -0.1674
 4716SOL    HW125781   4.513   2.060   8.536 -2.9928  2.3378 -0.3681
 4716SOL    HW225782   4.495   2.164   8.433 -1.5734 -1.2474 -1.4091
 4717SOL     OW25783   4.249   2.787   8.287  0.1292 -0.5176  0.6056
 4717SOL    HW125784   4.273   2.804   8.378 -0.3699 -3.4036  1.2917
 4717SOL    HW225785   4.162   2.825   8.275  1.1422  1.9725  1.2717
 4718SOL     OW25786   1.658   1.563   5.508  0.3075  0.3892  0.5684
 4718SOL    HW125787   1.645   1.535   5.417 -0.4545  1.1138  0.4557
 4718SOL    HW225788   1.574   1.608   5.514  1.3003  2.0839  1.5429
 4719SOL     OW25789   0.814   4.483   7.135  0.3466  0.3133 -1.0662
 4719SOL    HW125790   0.778   4.571   7.127 -3.4246 -1.0930 -0.0326
 4719SOL    HW225791   0.899   4.493   7.094  0.8034  2.2743  0.3656
 4720SOL     OW25792   1.974   3.359   7.403  0.3803  0.9811  0.9566
 4720SOL    HW125793   1.887   3.391   7.380  1.3251  1.3427 -2.1344
 4720SOL    HW225794   2.007   3.437   7.447  3.0210  0.9312 -0.9036
 4721SOL     OW25795   3.414   3.410   5.901 -0.3807  0.0913  0.6441
 4721SOL    HW125796   3.386   3.499   5.878 -1.9960 -0.7676 -0.6711
 4721SOL    HW225797   3.506   3.437   5.910 -0.7147  1.1086  1.0598
 4722SOL     OW25798   0.967   0.464   9.831 -0.4251  0.0799 -0.6928
 4722SOL    HW125799   0.874   0.455   9.852 -0.3829 -1.0049 -0.9645
 4722SOL    HW225800   0.984   0.389   9.774  1.2668  0.2420 -0.3943
 4723SOL     OW25801   1.035   2.394   4.126  0.6234  0.1452  0.3945
 4723SOL    HW125802   1.061   2.371   4.215  0.0870  0.0217  0.5191
 4723SOL    HW225803   1.113   2.429   4.084  0.0223  1.5731  0.4622
 4724SOL     OW25804   1.591   0.905   7.440 -0.0326  0.1795 -0.0500
 4724SOL    HW125805   1.660   0.867   7.495  0.6836  0.9953 -0.3769
 4724SOL    HW225806   1.603   0.992   7.477 -2.1261  0.1597  0.6783
 4725SOL     OW25807   1.342   0.509  11.631  0.7084 -0.0571 -0.8716
 4725SOL    HW125808   1.402   0.524  11.558 -0.0973 -2.1389 -1.9806
 4725SOL    HW225809   1.350   0.597  11.667  1.5566 -1.6081  2.7177
 4726SOL     OW25810   3.404   3.618   7.716  0.8411  0.5160 -0.0166
 4726SOL    HW125811   3.369   3.658   7.636 -0.9769  2.9876  1.9846
 4726SOL    HW225812   3.366   3.672   7.787 -1.3228  0.0096 -0.7792
 4727SOL     OW25813   2.193   2.149   4.133 -0.4022 -0.0027 -0.1737
 4727SOL    HW125814   2.223   2.153   4.223  0.6877 -1.7262 -0.4775
 4727SOL    HW225815   2.242   2.228   4.109 -2.7317  1.9210  1.4155
 4728SOL     OW25816   3.933   4.322   3.241  0.8271  0.2491 -0.0957
 4728SOL    HW125817   3.972   4.404   3.210 -1.1011  1.0606 -0.3777
 4728SOL    HW225818   4.005   4.282   3.289  0.5503  1.7880  1.6392
 4729SOL     OW25819   2.674   2.924   5.836  0.0526  0.2117 -0.1329
 4729SOL    HW125820   2.711   2.853   5.889  1.3514  0.9486 -0.0542
 4729SOL    HW225821   2.711   3.003   5.876 -0.2313 -0.6445  1.8433
 4730SOL     OW25822   1.642   2.626   4.331 -0.0197 -0.3866 -0.2665
 4730SOL    HW125823   1.672   2.536   4.323  0.2630 -0.4659  1.7789
 4730SOL    HW225824   1.603   2.654   4.248  0.8662  0.9829 -0.2181
 4731SOL     OW25825   2.676   0.766   7.847 -0.6588 -0.0533  0.3918
 4731SOL    HW125826   2.677   0.747   7.753  1.2956  0.8340  0.2475
 4731SOL    HW225827   2.628   0.849   7.850  0.3216  0.6020 -1.9467
 4732SOL     OW25828   4.468   2.628   6.055 -0.0815  0.7328  0.2891
 4732SOL    HW125829   4.407   2.568   6.098  0.8328  0.8619  1.7546
 4732SOL    HW225830   4.414   2.649   5.979  1.3812 -0.1358 -1.0105
 4733SOL     OW25831   0.528   2.164   9.200 -0.7461  0.3062 -0.1472
 4733SOL    HW125832   0.507   2.236   9.142  1.6204  1.4944  0.4577
 4733SOL    HW225833   0.617   2.156   9.165 -1.3065  0.2249 -1.5344
 4734SOL     OW25834   3.253   0.048   0.255 -0.0561  0.0411  0.0509
 4734SOL    HW125835   3.323   4.721   0.245 -1.1013 -1.2687  1.0778
 4734SOL    HW225836   3.223   0.062   0.165  0.3975  0.9685  0.0435
 4735SOL     OW25837   3.638   1.763   2.735 -0.3452  0.1387 -0.2599
 4735SOL    HW125838   3.556   1.717   2.721  1.3699 -3.0145 -0.1080
 4735SOL    HW225839   3.680   1.711   2.804  1.2544  2.0891  0.2674
 4736SOL     OW25840   1.518   2.264   5.361  0.3081 -0.0202  0.0571
 4736SOL    HW125841   1.424   2.268   5.345  0.1881 -0.6105  0.5869
 4736SOL    HW225842   1.562   2.288   5.280 -0.6465  1.7466  0.0741
 4737SOL     OW25843   1.227   2.250  17.038 -0.1148 -0.0482  0.0874
 4737SOL    HW125844   1.133   2.247  17.023  0.1392  1.4445 -1.7340
 4737SOL    HW225845   1.240   2.185  17.108 -0.5855  0.0405  0.2568
 4738SOL     OW25846   1.221   2.228   2.856  0.0473  0.3582  0.0457
 4738SOL    HW125847   1.234   2.186   2.941  0.8424 -0.4853 -0.4893
 4738SOL    HW225848   1.227   2.146   2.806  0.2239 -0.7393  1.8851
 4739SOL     OW25849   2.096   0.318   4.273 -0.5386 -0.1166 -0.1458
 4739SOL    HW125850   2.152   0.288   4.201  1.9532  2.6337  0.6290
 4739SOL    HW225851   2.071   0.235   4.313 -0.7753  0.5815  1.1548
 4740SOL     OW25852   0.580   0.709   7.234 -0.3087  0.2480 -0.0140
 4740SOL    HW125853   0.571   0.666   7.319 -2.5113 -3.3395 -2.0666
 4740SOL    HW225854   0.511   0.773   7.255  1.2473  1.1525  2.3533
 4741SOL     OW25855   2.809   0.777   8.497  0.4419  1.3318  0.1826
 4741SOL    HW125856   2.719   0.747   8.499  0.6827  0.5257 -1.0953
 4741SOL    HW225857   2.859   0.715   8.548  1.4102  1.6383 -0.3844
 4742SOL     OW25858   0.418   1.003   5.129 -0.1682 -0.5105 -0.6873
 4742SOL    HW125859   0.340   1.043   5.090  0.8799  1.8970 -0.3090
 4742SOL    HW225860   0.447   0.957   5.051 -0.5899  0.8899 -1.6746
 4743SOL     OW25861   4.229   3.368  14.631 -0.2504  0.2223  0.7335
 4743SOL    HW125862   4.310   3.323  14.605 -0.3143  1.4969 -1.6815
 4743SOL    HW225863   4.189   3.288  14.665  0.1866  0.2062  1.2080
 4744SOL     OW25864   1.185   4.269   6.439  0.1988  0.1188  0.4557
 4744SOL    HW125865   1.172   4.296   6.347  0.8463  0.4173  0.4518
 4744SOL    HW225866   1.110   4.311   6.481 -0.1872  1.9879 -2.0809
 4745SOL     OW25867   4.486   0.986  15.744  0.0424  0.1904 -0.2875
 4745SOL    HW125868   4.415   1.039  15.780  1.0702  0.2890  1.5667
 4745SOL    HW225869   4.542   0.982  15.822 -0.9599  0.3821  0.4452
 4746SOL     OW25870   0.405   1.137   6.511  0.1630 -0.5946  0.2756
 4746SOL    HW125871   0.405   1.213   6.453  1.2813 -0.1054  0.9370
 4746SOL    HW225872   0.313   1.136   6.539 -0.8610  0.9042 -2.9758
 4747SOL     OW25873   2.946   4.680   6.656  0.2680  0.3237 -0.2809
 4747SOL    HW125874   3.040   4.678   6.638  0.3052  3.6849 -0.4745
 4747SOL    HW225875   2.916   4.590   6.648 -0.9339  0.7728 -0.8334
 4748SOL     OW25876   3.435   0.683  16.396 -0.0604  0.2103  0.2107
 4748SOL    HW125877   3.410   0.748  16.330  2.9820 -0.2799 -1.4464
 4748SOL    HW225878   3.377   0.712  16.467  0.3751 -0.6012  0.8940
 4749SOL     OW25879   3.593   0.124   1.567 -0.4112  0.4808 -0.2508
 4749SOL    HW125880   3.638   0.056   1.517 -1.0086  0.5769 -0.9206
 4749SOL    HW225881   3.604   0.200   1.509  1.9134 -0.4804 -1.0467
 4750SOL     OW25882   1.361   2.514   6.425  0.1164  0.0462 -0.8008
 4750SOL    HW125883   1.326   2.581   6.483  1.3151  1.3133 -1.5442
 4750SOL    HW225884   1.370   2.556   6.339 -2.5730 -0.6440 -1.4470
 4751SOL     OW25885   4.443   1.016   6.346 -0.5496  0.0260  0.3343
 4751SOL    HW125886   4.456   1.062   6.264 -0.4550  1.0930  0.9456
 4751SOL    HW225887   4.399   0.937   6.314  1.1395 -0.3386 -1.0806
 4752SOL     OW25888   1.553   3.223   9.132  0.3697  0.7501  0.1838
 4752SOL    HW125889   1.501   3.270   9.067 -0.2371 -1.2347 -0.7759
 4752SOL    HW225890   1.628   3.190   9.081 -0.1047 -1.9578  1.2505
 4753SOL     OW25891   3.013   0.692   2.507  0.3387  0.0756  1.0561
 4753SOL    HW125892   3.012   0.659   2.597  0.0479 -4.2032 -0.5246
 4753SOL    HW225893   2.993   0.610   2.462  0.6066  0.5761  0.0134
 4754SOL     OW25894   1.989   3.940   2.133  0.2071 -0.1499  0.4165
 4754SOL    HW125895   2.069   3.966   2.178  2.1890 -1.1982 -2.4952
 4754SOL    HW225896   1.919   3.941   2.198  0.9118  1.4648  1.1442
 4755SOL     OW25897   0.806   1.261   4.227  0.0743 -0.1348 -0.2849
 4755SOL    HW125898   0.768   1.320   4.292  1.6807 -2.1154  2.4648
 4755SOL    HW225899   0.866   1.325   4.189  1.4767 -0.9665  0.5120
 4756SOL     OW25900   3.234   4.629   6.650 -0.1697  0.0862  0.0519
 4756SOL    HW125901   3.226   4.595   6.560 -1.8543 -2.1360  1.0487
 4756SOL    HW225902   3.257   4.544   6.688  0.5749 -0.1363 -0.8771
 4757SOL     OW25903   2.672   4.563   1.785 -0.2239  0.2975 -0.1857
 4757SOL    HW125904   2.657   4.590   1.694 -2.3953  0.0541  0.1000
 4757SOL    HW225905   2.600   4.607   1.830 -0.0411 -0.6126  1.0023
 4758SOL     OW25906   4.613   1.670   5.685 -0.1103  0.2778 -0.6207
 4758SOL    HW125907   4.704   1.664   5.655 -0.7369  2.5892 -2.9425
 4758SOL    HW225908   4.579   1.610   5.619  2.1972 -1.1297 -0.5334
 4759SOL     OW25909   1.253   2.077   3.785  0.0795  0.0279  0.6889
 4759SOL    HW125910   1.262   2.067   3.880 -1.6011 -1.9542  0.6408
 4759SOL    HW225911   1.344   2.069   3.755  0.3601  0.0959  1.5214
 4760SOL     OW25912   0.285   3.913   4.996 -0.5385 -0.5118 -0.1182
 4760SOL    HW125913   0.291   3.970   4.920 -0.1047  0.1167  0.3881
 4760SOL    HW225914   0.210   3.956   5.037  0.4917  1.2964 -0.1348
 4761SOL     OW25915   0.051   2.776  17.414  0.1776  0.1979 -0.3981
 4761SOL    HW125916   0.124   2.717  17.434  2.4463  2.6246 -1.4353
 4761SOL    HW225917   0.021   2.724  17.340  0.5426 -2.6507  1.4738
 4762SOL     OW25918   1.122   1.089   1.496 -0.3462 -0.1650 -0.4312
 4762SOL    HW125919   1.200   1.143   1.500 -0.5481  0.1036 -0.1124
 4762SOL    HW225920   1.110   1.081   1.591 -1.0286  0.8462 -0.4312
 4763SOL     OW25921   1.363   3.158   2.615 -0.2225  0.7275 -0.1100
 4763SOL    HW125922   1.412   3.088   2.574 -0.1478  1.9891 -2.1869
 4763SOL    HW225923   1.388   3.232   2.559  1.0187  0.2255 -0.2024
 4764SOL     OW25924   1.674   2.951   2.050 -0.1850 -0.0724  0.0733
 4764SOL    HW125925   1.763   2.921   2.066  0.0888  0.5860 -0.2636
 4764SOL    HW225926   1.676   3.035   2.005  1.2084  0.9850  2.1408
 4765SOL     OW25927   0.583   0.420   4.122 -0.6047 -0.4041 -0.3839
 4765SOL    HW125928   0.640   0.481   4.077 -1.2225  0.9287  0.6609
 4765SOL    HW225929   0.645   0.348   4.108 -0.6868 -0.2994 -1.3043
 4766SOL     OW25930   2.427   1.913   4.618 -0.1434 -0.2714 -0.2859
 4766SOL    HW125931   2.409   1.961   4.700 -2.3494 -0.9674 -0.3568
 4766SOL    HW225932   2.519   1.934   4.631  0.0831  0.2680 -2.9017
 4767SOL     OW25933   2.329   3.286   9.150  0.5235  0.1971  0.4386
 4767SOL    HW125934   2.254   3.345   9.145  0.2802 -0.3930 -2.6593
 4767SOL    HW225935   2.392   3.341   9.102  0.6470  0.9821  1.5063
 4768SOL     OW25936   3.712   3.313   6.126 -0.4046 -0.4610  0.2519
 4768SOL    HW125937   3.639   3.350   6.177  0.2865  0.0951  0.8337
 4768SOL    HW225938   3.669   3.297   6.042  1.4440 -1.6283 -0.4670
 4769SOL     OW25939   2.433   2.592  15.698  0.3444 -0.5699 -0.2659
 4769SOL    HW125940   2.441   2.625  15.609 -1.4106 -0.4772 -0.3807
 4769SOL    HW225941   2.339   2.604  15.708  0.7307  2.0218  0.2781
 4770SOL     OW25942   2.030   4.476   9.329  0.0535  0.0262 -0.4573
 4770SOL    HW125943   2.118   4.451   9.301 -0.9913 -3.2976 -0.7330
 4770SOL    HW225944   2.046   4.481   9.423  1.0848  0.3554 -0.6492
 4771SOL     OW25945   0.015   4.500   9.529 -0.1734 -0.1673 -0.1760
 4771SOL    HW125946   0.084   4.434   9.533  1.5327  1.5971 -0.4134
 4771SOL    HW225947   0.050   4.557   9.597 -1.3951 -1.4049  1.4958
 4772SOL     OW25948   0.404   1.438   4.550 -0.6156  0.3891 -0.4871
 4772SOL    HW125949   0.420   1.386   4.629 -0.3383 -0.2737 -0.9739
 4772SOL    HW225950   0.320   1.481   4.565 -0.1591  1.0150  0.2323
 4773SOL     OW25951   0.007   0.204   3.909  0.1017 -0.1025  0.1652
 4773SOL    HW125952   4.699   0.120   3.907  0.5775 -0.3465 -0.1542
 4773SOL    HW225953   4.675   0.250   3.862  0.6647  1.0380  0.4397
 4774SOL     OW25954   4.282   0.639   4.914  0.3994 -0.0043 -0.2751
 4774SOL    HW125955   4.196   0.639   4.956  0.0306  0.5995 -1.0207
 4774SOL    HW225956   4.291   0.729   4.884  0.7870  0.3921  1.0590
 4775SOL     OW25957   2.350   2.387   5.672  0.1385 -0.0730 -0.7049
 4775SOL    HW125958   2.287   2.316   5.663  0.0881 -0.3378  1.6308
 4775SOL    HW225959   2.429   2.338   5.647  0.0543 -1.8245  2.4440
 4776SOL     OW25960   2.203   2.330  12.076  0.5596  0.3406 -1.0208
 4776SOL    HW125961   2.266   2.292  12.137 -1.1560  0.2273  0.6726
 4776SOL    HW225962   2.230   2.300  11.989  0.3602  0.8838 -1.2719
 4777SOL     OW25963   0.303   2.432   2.288 -0.1048  0.2455  0.5690
 4777SOL    HW125964   0.279   2.340   2.279  0.5335  0.0414  1.0276
 4777SOL    HW225965   0.308   2.469   2.199  0.1062  2.3041  1.4443
 4778SOL     OW25966   4.372   4.127  10.587  0.1818  0.4420  0.9779
 4778SOL    HW125967   4.453   4.159  10.625  0.3829  1.6848 -0.5272
 4778SOL    HW225968   4.303   4.138  10.653  0.0394  1.0984  0.7143
 4779SOL     OW25969   3.947   3.478   7.781 -0.2118  0.3062  0.2426
 4779SOL    HW125970   3.857   3.499   7.753 -0.2387  0.1206  0.1901
 4779SOL    HW225971   3.942   3.383   7.786 -1.4169  0.2601 -1.9070
 4780SOL     OW25972   3.461   3.722  16.688  0.0864  0.9481  0.0941
 4780SOL    HW125973   3.443   3.787  16.757  0.2029  0.3377  0.6944
 4780SOL    HW225974   3.541   3.759  16.650  2.3718 -0.8749  3.1785
 4781SOL     OW25975   3.008   0.344   4.767  0.3431 -0.1747  0.8717
 4781SOL    HW125976   2.933   0.369   4.715  0.9845  2.4075  1.2154
 4781SOL    HW225977   3.083   0.379   4.720 -0.2042  0.9789  0.8743
 4782SOL     OW25978   4.079   1.860   9.757 -0.2213  1.1821 -0.1426
 4782SOL    HW125979   4.118   1.797   9.817 -1.8357  0.6372  0.3385
 4782SOL    HW225980   4.049   1.808   9.681 -0.6202 -2.5879  2.5846
 4783SOL     OW25981   3.515   1.945   5.180  0.0568 -0.0936 -0.3989
 4783SOL    HW125982   3.565   1.865   5.194 -2.6329 -1.2002  2.6110
 4783SOL    HW225983   3.496   1.975   5.269 -0.6059 -1.4736 -0.0857
 4784SOL     OW25984   4.105   2.880   3.971 -0.0982 -0.0350 -0.7531
 4784SOL    HW125985   4.077   2.962   3.931  0.1638  0.5480  0.2584
 4784SOL    HW225986   4.046   2.810   3.945 -0.2235 -0.4769  0.7111
 4785SOL     OW25987   1.004   4.696   9.709  0.1410  0.0747  0.1314
 4785SOL    HW125988   0.993   0.043   9.663  1.4549  1.5204  2.4338
 4785SOL    HW225989   0.962   4.703   9.794  1.6102 -0.3183  0.8920
 4786SOL     OW25990   1.374   4.565   6.412 -0.4251 -0.0642 -0.1139
 4786SOL    HW125991   1.349   4.481   6.450  2.3405 -1.0192 -0.4255
 4786SOL    HW225992   1.408   4.534   6.328 -0.2359 -2.1833  0.7470
 4787SOL     OW25993   3.937   0.138  11.287  0.4765  0.0903  0.4434
 4787SOL    HW125994   3.857   0.107  11.329 -0.7202  0.1236 -1.7938
 4787SOL    HW225995   4.001   0.097  11.346  1.4082 -0.3107 -0.8320
 4788SOL     OW25996   1.429   4.219   5.151 -0.4060 -0.3892 -0.2003
 4788SOL    HW125997   1.449   4.136   5.107  1.3174 -0.2142  0.2588
 4788SOL    HW225998   1.492   4.269   5.101 -1.1499 -0.5732 -1.3263
 4789SOL     OW25999   1.755   3.295   3.498 -0.5829  0.5076 -0.1804
 4789SOL    HW126000   1.815   3.370   3.498 -0.8832  0.7604  2.0142
 4789SOL    HW226001   1.675   3.339   3.466 -0.6999 -0.2883 -0.9801
 4790SOL     OW26002   3.180   1.670   9.402  0.5496 -0.3505  0.4492
 4790SOL    HW126003   3.165   1.674   9.496  2.1077  0.2650  0.6696
 4790SOL    HW226004   3.163   1.578   9.382 -2.1423  0.1398  0.4797
 4791SOL     OW26005   4.537   1.797   2.600 -0.0543  0.0858  0.0953
 4791SOL    HW126006   4.611   1.740   2.576 -1.5594 -1.4373 -0.9077
 4791SOL    HW226007   4.481   1.792   2.523  1.1462  3.0169 -0.9703
 4792SOL     OW26008   2.675   2.652  11.489  0.2642  0.0040 -0.6262
 4792SOL    HW126009   2.740   2.722  11.492 -1.3389  1.5715 -1.8903
 4792SOL    HW226010   2.718   2.579  11.444  0.3918  0.3713 -1.1054
 4793SOL     OW26011   3.749   0.833   0.593  0.2293 -0.7346  0.1922
 4793SOL    HW126012   3.806   0.788   0.656  0.5180 -1.0261 -0.2800
 4793SOL    HW226013   3.756   0.770   0.521  1.5546 -1.0703  0.6072
 4794SOL     OW26014   3.972   1.511  16.492 -0.5555  0.0523 -0.4113
 4794SOL    HW126015   4.062   1.486  16.470 -0.0855  1.4028 -0.0295
 4794SOL    HW226016   3.990   1.605  16.495  0.4637 -0.1291 -0.7848
 4795SOL     OW26017   1.116   3.395   8.295 -0.4711 -0.2425  0.0050
 4795SOL    HW126018   1.131   3.457   8.224 -2.6740 -0.8188 -0.9694
 4795SOL    HW226019   1.099   3.453   8.369 -3.7186 -0.8172 -0.2984
 4796SOL     OW26020   4.399   2.498  17.718 -0.5452  0.5039 -0.1931
 4796SOL    HW126021   4.474   2.558  17.715 -1.1772  1.1835 -2.6419
 4796SOL    HW226022   4.435   2.410  17.713  0.7481  0.9357  1.4494
 4797SOL     OW26023   1.980   1.631   6.201  0.2098 -0.2006  0.6726
 4797SOL    HW126024   1.898   1.608   6.243 -0.5792 -0.8543 -1.2057
 4797SOL    HW226025   2.032   1.653   6.278 -0.4642  0.5014  0.9252
 4798SOL     OW26026   4.573   4.020   6.146  0.1835  0.2261 -0.0589
 4798SOL    HW126027   4.524   4.064   6.215 -0.8530 -0.4511 -0.3738
 4798SOL    HW226028   4.612   4.100   6.111  0.3654  0.8627  1.5919
 4799SOL     OW26029   1.713   2.073  16.509 -0.0500  0.2070 -0.3618
 4799SOL    HW126030   1.635   2.047  16.459  0.8240 -0.6246 -1.3054
 4799SOL    HW226031   1.667   2.114  16.583  0.0007 -1.7957  0.7876
 4800SOL     OW26032   4.187   3.557   5.049 -0.0525 -0.1646 -0.0395
 4800SOL    HW126033   4.219   3.475   5.010  0.9860  0.0202  0.4460
 4800SOL    HW226034   4.107   3.569   4.998 -0.2393 -1.0579  0.0361
 4801SOL     OW26035   3.186   2.578  14.510 -0.3658 -0.0899  0.1223
 4801SOL    HW126036   3.143   2.663  14.510  1.2041  0.7222 -1.0893
 4801SOL    HW226037   3.183   2.558  14.603 -0.8313  0.6499  0.2607
 4802SOL     OW26038   2.895   4.404   4.880 -0.0959 -0.6557 -0.0069
 4802SOL    HW126039   2.924   4.351   4.954 -0.6531 -0.3151  0.4487
 4802SOL    HW226040   2.849   4.339   4.827  0.2109 -0.4156 -0.5741
 4803SOL     OW26041   0.484   0.488  16.267  0.4549 -0.1215 -0.0426
 4803SOL    HW126042   0.425   0.438  16.324  0.5896 -0.4449 -0.1859
 4803SOL    HW226043   0.502   0.428  16.194 -0.2163 -0.2479 -0.0990
 4804SOL     OW26044   2.643   3.994   2.109 -0.1853 -0.8224 -0.5629
 4804SOL    HW126045   2.612   3.951   2.189 -0.0831 -1.3470 -0.8056
 4804SOL    HW226046   2.681   4.074   2.147 -1.6476 -2.0121  3.4087
 4805SOL     OW26047   4.084   1.383   8.814 -0.0411 -0.2661  0.2770
 4805SOL    HW126048   4.151   1.450   8.832 -0.1853 -0.2988  0.9415
 4805SOL    HW226049   4.017   1.447   8.789 -1.5871 -2.7045 -1.7937
 4806SOL     OW26050   2.410   0.242   5.708 -0.3969 -0.1862  0.0617
 4806SOL    HW126051   2.375   0.293   5.782  0.0957  1.0346 -0.5403
 4806SOL    HW226052   2.366   0.162   5.734  1.8899 -1.3872  0.2415
 4807SOL     OW26053   0.800   0.344   0.447 -0.1391  0.9688 -0.1573
 4807SOL    HW126054   0.728   0.317   0.390 -0.4906  2.7933 -0.5887
 4807SOL    HW226055   0.743   0.374   0.518 -1.0125 -0.5761 -0.2122
 4808SOL     OW26056   2.178   3.979   5.419 -0.1720  0.4395  0.2067
 4808SOL    HW126057   2.191   3.960   5.326  3.1161  1.3585  0.4702
 4808SOL    HW226058   2.263   4.019   5.441 -0.2168  0.8344 -0.3312
 4809SOL     OW26059   1.461   3.579   2.350 -0.6515  0.3062 -0.4972
 4809SOL    HW126060   1.516   3.652   2.320 -2.0001  0.7085 -2.0004
 4809SOL    HW226061   1.377   3.603   2.311 -0.7166 -2.6606 -2.2819
 4810SOL     OW26062   1.550   3.344   2.435 -0.6182 -0.0650  0.5591
 4810SOL    HW126063   1.540   3.286   2.359  0.0938  0.4971  0.0375
 4810SOL    HW226064   1.506   3.418   2.394  1.7225  1.0164 -0.0087
 4811SOL     OW26065   1.476   3.509  16.579 -0.5836 -0.6094 -0.3833
 4811SOL    HW126066   1.473   3.604  16.565 -0.3818 -0.9569 -2.6580
 4811SOL    HW226067   1.407   3.503  16.646  1.7450 -0.2072  2.0773
 4812SOL     OW26068   0.896   2.258   6.070  0.0450  0.1968 -0.2355
 4812SOL    HW126069   0.895   2.240   6.164 -1.3639  1.6046  0.0128
 4812SOL    HW226070   0.985   2.289   6.053  1.0736 -2.7811 -0.2138
 4813SOL     OW26071   3.916   4.214   9.202  0.9959  0.3564 -0.2028
 4813SOL    HW126072   3.890   4.123   9.187  1.2027  0.0746  1.1042
 4813SOL    HW226073   3.873   4.225   9.287 -0.1576  0.6791 -0.8432
 4814SOL     OW26074   0.860   3.257   8.441 -0.0505  0.4429 -0.5299
 4814SOL    HW126075   0.905   3.176   8.417  1.1533  1.5259 -1.9559
 4814SOL    HW226076   0.923   3.287   8.507  0.8925 -1.6812 -0.4595
 4815SOL     OW26077   0.458   2.801   3.582  0.2729  0.1997  0.1715
 4815SOL    HW126078   0.475   2.788   3.488  0.1966  0.1321  0.1665
 4815SOL    HW226079   0.365   2.825   3.577  0.4217 -0.1808 -4.4618
 4816SOL     OW26080   3.933   2.174   5.083  0.0505  0.3926 -0.1777
 4816SOL    HW126081   3.931   2.215   4.996  1.4365  0.7785 -0.0171
 4816SOL    HW226082   4.027   2.165   5.098  0.1117 -0.3188 -0.9646
 4817SOL     OW26083   3.515   1.905   1.417  0.3034  0.5424 -0.0450
 4817SOL    HW126084   3.593   1.871   1.372 -0.6232 -0.0589 -1.1743
 4817SOL    HW226085   3.451   1.867   1.357  1.6758 -0.8016 -0.6704
 4818SOL     OW26086   4.570   2.363  10.345  0.2532  0.2755  0.1141
 4818SOL    HW126087   4.555   2.440  10.399  1.0817  2.8642 -3.3467
 4818SOL    HW226088   4.561   2.394  10.255 -2.2973 -0.3630  0.1362
 4819SOL     OW26089   4.249   1.895   5.030 -0.4152 -0.1173  0.0630
 4819SOL    HW126090   4.256   1.870   5.122 -0.1934 -0.1960  0.0248
 4819SOL    HW226091   4.243   1.990   5.042  0.7819 -0.3158  2.3255
 4820SOL     OW26092   1.903   0.506   5.157  0.0424 -0.0422  0.3908
 4820SOL    HW126093   1.926   0.438   5.093 -2.5066 -0.3930 -0.1435
 4820SOL    HW226094   1.875   0.582   5.105 -1.6384  0.4606  2.0105
 4821SOL     OW26095   3.579   4.241   7.453 -0.0601 -0.3151  0.6217
 4821SOL    HW126096   3.505   4.245   7.514  0.3889  0.0582  1.1441
 4821SOL    HW226097   3.642   4.206   7.515  0.4408 -0.1179  0.2183
 4822SOL     OW26098   3.713   4.578   8.106  0.6668 -0.7815 -0.4174
 4822SOL    HW126099   3.709   4.497   8.055  1.6020 -2.0419  1.5333
 4822SOL    HW226100   3.796   4.564   8.151  0.6013  0.1403 -0.0151
 4823SOL     OW26101   3.684   2.211   5.228 -0.0991 -0.4186 -0.2349
 4823SOL    HW126102   3.762   2.192   5.175  0.0311  1.9695 -0.9181
 4823SOL    HW226103   3.654   2.123   5.250 -0.3643  0.7856  4.1134
 4824SOL     OW26104   0.217   3.122   5.811  0.2714 -0.1108 -0.0859
 4824SOL    HW126105   0.145   3.076   5.854  0.4567 -0.0145  0.3229
 4824SOL    HW226106   0.225   3.207   5.855 -0.3241  0.5090 -1.1777
 4825SOL     OW26107   4.674   1.597   1.708  0.2266 -0.4198  0.0135
 4825SOL    HW126108   4.586   1.587   1.672  0.0822  1.2389 -0.1106
 4825SOL    HW226109   4.684   1.692   1.718 -2.1790 -0.4362  2.3865
 4826SOL     OW26110   4.661   1.836   4.431  0.1737  0.0304  0.1710
 4826SOL    HW126111   4.691   1.927   4.436  0.7783 -0.1840  0.4757
 4826SOL    HW226112   4.650   1.818   4.524  0.2758  0.4716  0.2676
 4827SOL     OW26113   1.527   2.101   3.735 -0.0679  0.1917  0.0188
 4827SOL    HW126114   1.544   2.184   3.689  1.0444 -0.0511 -0.0047
 4827SOL    HW226115   1.585   2.111   3.811 -0.0359 -0.8281  0.1204
 4828SOL     OW26116   2.456   1.273   3.448 -0.0157  0.1904  0.6675
 4828SOL    HW126117   2.380   1.245   3.397 -2.1026 -0.1043  3.8996
 4828SOL    HW226118   2.451   1.368   3.441 -0.0408  0.0618 -1.1613
 4829SOL     OW26119   0.467   3.587  13.470 -0.3701 -0.1911 -0.0890
 4829SOL    HW126120   0.429   3.568  13.556 -2.7664  3.5363 -0.3143
 4829SOL    HW226121   0.537   3.522  13.467  2.0780  2.4485 -0.7678
 4830SOL     OW26122   1.072   0.490   8.495  0.2684 -0.1186  0.6866
 4830SOL    HW126123   1.052   0.574   8.537  1.2222  0.0125  0.8733
 4830SOL    HW226124   1.030   0.428   8.555  0.3781 -0.9032 -0.0499
 4831SOL     OW26125   2.301   0.424   8.882 -0.7350 -0.3003 -0.0663
 4831SOL    HW126126   2.268   0.384   8.802  0.8688 -0.0149 -0.8766
 4831SOL    HW226127   2.289   0.350   8.941 -0.1207 -0.9960 -0.8191
 4832SOL     OW26128   4.558   2.019  14.745  0.2218  0.0897  0.0716
 4832SOL    HW126129   4.610   2.092  14.711  0.8682 -0.8422 -0.9215
 4832SOL    HW226130   4.607   1.996  14.824 -0.3241 -0.2105  0.3173
 4833SOL     OW26131   1.470   0.545   1.923  0.2404 -0.0898 -0.5315
 4833SOL    HW126132   1.447   0.617   1.982  1.1877 -0.8275  0.7317
 4833SOL    HW226133   1.559   0.521   1.952 -0.0280  0.2844  0.6014
 4834SOL     OW26134   1.989   1.940   6.446 -0.2378  0.0066 -0.3763
 4834SOL    HW126135   2.020   1.856   6.479 -0.8725  0.0742  0.3927
 4834SOL    HW226136   2.060   1.994   6.481 -1.2933  1.3419 -0.2953
 4835SOL     OW26137   0.195   0.175  10.980 -0.1931 -0.2412 -0.4932
 4835SOL    HW126138   0.243   0.098  11.010 -1.7086 -0.5172  1.1746
 4835SOL    HW226139   0.177   0.218  11.063 -1.5234  1.0271 -1.4296
 4836SOL     OW26140   1.454   0.329  12.720 -0.3767  0.0331 -0.0829
 4836SOL    HW126141   1.402   0.281  12.657  0.1161 -2.1127  1.1325
 4836SOL    HW226142   1.479   0.403  12.665 -1.5103  0.5233  0.0577
 4837SOL     OW26143   3.878   0.559   7.110  0.7648  0.7033  0.3534
 4837SOL    HW126144   3.912   0.648   7.107  1.4600  0.4810  2.1292
 4837SOL    HW226145   3.952   0.499   7.120 -0.9812 -0.9780  3.0788
 4838SOL     OW26146   1.411   2.766  12.022 -0.7723 -0.0848  0.8616
 4838SOL    HW126147   1.467   2.708  12.075  2.0379 -0.0835 -2.0445
 4838SOL    HW226148   1.400   2.842  12.079 -0.6570 -0.0429  0.8274
 4839SOL     OW26149   1.590   2.909   5.022  0.4422  0.4106  0.3553
 4839SOL    HW126150   1.545   2.980   4.977  2.6579  0.3245 -1.9782
 4839SOL    HW226151   1.523   2.876   5.082  1.8463 -1.4780  0.8850
 4840SOL     OW26152   1.744   2.846  12.254  0.4400  0.3063 -0.4252
 4840SOL    HW126153   1.680   2.775  12.252  1.6861 -0.8250 -0.2804
 4840SOL    HW226154   1.811   2.817  12.192 -2.2669 -2.2199 -2.1597
 4841SOL     OW26155   4.234   0.714   0.748  0.1036 -0.3061  0.4152
 4841SOL    HW126156   4.187   0.737   0.828  0.8562 -0.3938  0.8824
 4841SOL    HW226157   4.269   0.797   0.716 -0.9046  0.3618  1.0542
 4842SOL     OW26158   1.547   1.407  17.233 -0.3657  0.1721 -0.7608
 4842SOL    HW126159   1.586   1.453  17.307  0.1028 -0.3997 -0.6464
 4842SOL    HW226160   1.560   1.464  17.158  0.6077 -0.6411 -1.2114
 4843SOL     OW26161   3.024   3.860   6.211  0.2437  0.3322 -0.2253
 4843SOL    HW126162   2.932   3.861   6.236  0.1836  0.9662 -0.4953
 4843SOL    HW226163   3.031   3.784   6.153  1.8791 -0.7796  1.4065
 4844SOL     OW26164   1.425   2.224   3.322 -0.2412  0.4804 -0.3474
 4844SOL    HW126165   1.393   2.287   3.258 -3.3229  2.2745  2.9786
 4844SOL    HW226166   1.486   2.274   3.377  0.8283 -1.5485  0.3172
 4845SOL     OW26167   0.902   4.440   4.889 -0.3355  0.6550 -0.1813
 4845SOL    HW126168   0.824   4.494   4.900 -0.5803  0.4106 -0.7449
 4845SOL    HW226169   0.893   4.418   4.796 -1.5235  1.0253 -0.1509
 4846SOL     OW26170   1.449   3.568   4.822  0.0619 -0.1039 -0.1393
 4846SOL    HW126171   1.358   3.596   4.820  0.7510  1.9895 -2.3248
 4846SOL    HW226172   1.444   3.479   4.785  0.9569 -0.3179  0.2491
 4847SOL     OW26173   2.301   2.586  15.204 -0.0397  0.0412 -0.7472
 4847SOL    HW126174   2.387   2.545  15.190 -0.2408 -0.7291  0.2670
 4847SOL    HW226175   2.283   2.599  15.111 -0.6098  1.5434 -0.4127
 4848SOL     OW26176   2.246   1.784   2.855 -0.1387  0.0717 -0.0784
 4848SOL    HW126177   2.339   1.771   2.874 -0.0611 -1.5343 -1.5103
 4848SOL    HW226178   2.243   1.853   2.789 -0.0835 -0.9701 -1.1788
 4849SOL     OW26179   0.914   0.187   9.617 -0.1361  0.0317 -0.9775
 4849SOL    HW126180   0.913   0.274   9.579  1.0776  0.1877 -0.6519
 4849SOL    HW226181   0.826   0.172   9.651 -0.0467  1.8372  0.0116
 4850SOL     OW26182   2.838   2.177   8.261 -0.4402 -0.0753 -1.3437
 4850SOL    HW126183   2.838   2.170   8.165  1.1433  1.6898 -1.4726
 4850SOL    HW226184   2.928   2.203   8.282 -1.2337  2.4081 -1.0381
 4851SOL     OW26185   2.939   4.525  10.773 -0.2214 -0.2490  0.2565
 4851SOL    HW126186   3.031   4.529  10.750 -0.5940 -0.3019 -1.2243
 4851SOL    HW226187   2.906   4.527  10.684 -0.7729 -0.8523  0.4462
 4852SOL     OW26188   1.595   0.069   8.659  0.4439 -0.1533  0.7924
 4852SOL    HW126189   1.563   0.159   8.669 -0.1590 -0.3845  0.9332
 4852SOL    HW226190   1.545   0.024   8.727 -0.6906 -0.1310 -0.0128
 4853SOL     OW26191   1.314   1.141   6.294  0.3121 -0.1049  0.2976
 4853SOL    HW126192   1.394   1.105   6.332  0.9623  0.0382 -0.9305
 4853SOL    HW226193   1.256   1.116   6.367  0.8538  3.0105  1.8064
 4854SOL     OW26194   0.716   1.758   1.242 -0.1604  0.4761  0.8593
 4854SOL    HW126195   0.752   1.690   1.185 -0.1763 -0.6748  2.2374
 4854SOL    HW226196   0.785   1.769   1.307 -1.2184 -0.0449  2.0719
 4855SOL     OW26197   2.227   1.070   6.544  0.7563 -0.1236 -0.1983
 4855SOL    HW126198   2.299   1.015   6.514  1.2712  0.0176  0.7771
 4855SOL    HW226199   2.211   1.040   6.634 -2.0345 -2.3216 -1.4075
 4856SOL     OW26200   0.516   1.144   4.288  0.2558 -0.0249  0.2527
 4856SOL    HW126201   0.591   1.199   4.313 -0.4904  0.5073  1.2894
 4856SOL    HW226202   0.527   1.165   4.195 -2.2365  0.2635  0.0432
 4857SOL     OW26203   3.711   1.877   4.823  0.3114 -0.0165 -0.1728
 4857SOL    HW126204   3.641   1.936   4.852  0.0347  0.3416 -1.5789
 4857SOL    HW226205   3.760   1.881   4.905 -0.6687 -2.4243  0.5130
 4858SOL     OW26206   1.081   4.085   8.508  0.2583 -0.3324  0.0111
 4858SOL    HW126207   1.094   4.104   8.415 -0.3697 -0.4421 -0.0958
 4858SOL    HW226208   1.052   3.994   8.510  0.4479 -0.4191 -1.1656
 4859SOL     OW26209   2.464   1.021   2.525  0.0288  0.1619  0.0782
 4859SOL    HW126210   2.417   1.103   2.514 -3.9738 -2.2666 -0.9185
 4859SOL    HW226211   2.518   1.026   2.445  1.8674 -2.8880  1.1160
 4860SOL     OW26212   4.721   1.382   9.625  0.1526  0.2840 -0.1170
 4860SOL    HW126213   4.720   1.317   9.696  0.9701  0.0664 -0.3016
 4860SOL    HW226214   4.635   1.376   9.585  0.2208  0.8453 -0.3529
 4861SOL     OW26215   4.326   0.272   4.877 -0.5416  0.5644  0.0301
 4861SOL    HW126216   4.381   0.194   4.883 -0.6204  0.5058 -0.0105
 4861SOL    HW226217   4.368   0.329   4.942  0.6002  0.8617 -0.9703
 4862SOL     OW26218   0.625   1.090   7.334  0.3025 -0.5210  0.3066
 4862SOL    HW126219   0.539   1.081   7.292  0.9649 -1.9471 -0.7708
 4862SOL    HW226220   0.674   1.088   7.252  3.4500  1.6679  2.1694
 4863SOL     OW26221   1.965   3.314   5.196 -0.5209 -0.3529 -0.2649
 4863SOL    HW126222   1.967   3.365   5.115  2.1105 -1.0588 -0.6266
 4863SOL    HW226223   2.017   3.372   5.253 -0.8494  0.7726 -1.0990
 4864SOL     OW26224   2.684   3.093   7.756 -0.3956 -0.1538  0.2824
 4864SOL    HW126225   2.739   3.015   7.750 -0.7167 -0.5348  2.1925
 4864SOL    HW226226   2.723   3.142   7.684 -1.3310  0.8296  0.4419
 4865SOL     OW26227   0.208   0.702  15.558 -0.4514  0.0488 -0.4128
 4865SOL    HW126228   0.288   0.671  15.601 -0.5711 -0.4544 -0.5504
 4865SOL    HW226229   0.231   0.685  15.466  0.4110  2.2262 -0.5892
 4866SOL     OW26230   1.731   2.195   2.558  0.1133  0.1316 -0.1808
 4866SOL    HW126231   1.773   2.249   2.491  0.0040 -1.3589 -1.4522
 4866SOL    HW226232   1.742   2.108   2.520 -0.0460  0.6195 -1.3327
 4867SOL     OW26233   2.756   1.801  17.462  0.3068  0.4124  0.2862
 4867SOL    HW126234   2.761   1.815  17.556  0.5818  0.7138  0.2260
 4867SOL    HW226235   2.799   1.881  17.431  1.9311 -1.0014 -1.1311
 4868SOL     OW26236   0.087   1.130   1.910  0.4130  0.0322  0.4801
 4868SOL    HW126237   0.049   1.130   1.823  2.1262 -3.1607 -0.2624
 4868SOL    HW226238   0.043   1.061   1.960 -0.0571  0.1033  0.1619
 4869SOL     OW26239   4.592   1.205  13.319 -0.2317 -0.1713  0.0735
 4869SOL    HW126240   4.548   1.144  13.378 -1.3763  0.7443  0.1557
 4869SOL    HW226241   4.544   1.286  13.336 -0.2048 -0.6077  2.2721
 4870SOL     OW26242   1.648   3.932   9.883 -0.8981  0.0736 -0.3380
 4870SOL    HW126243   1.560   3.961   9.907 -0.3403  1.9383 -0.4805
 4870SOL    HW226244   1.698   3.975   9.952 -0.5433 -0.1607 -0.4468
 4871SOL     OW26245   2.293   2.067   6.241  0.1392  0.0086  0.2067
 4871SOL    HW126246   2.386   2.043   6.235 -0.7172 -2.6461 -2.3464
 4871SOL    HW226247   2.261   2.049   6.329 -1.0093 -0.6050 -0.3535
 4872SOL     OW26248   3.187   0.899   7.395  0.3197  0.0515 -0.0556
 4872SOL    HW126249   3.253   0.830   7.402  0.5558 -0.1003 -3.4376
 4872SOL    HW226250   3.145   0.869   7.314 -0.4880 -0.2845  0.4906
 4873SOL     OW26251   3.730   0.392  10.456  0.4033  0.3253  0.0203
 4873SOL    HW126252   3.697   0.481  10.448 -0.4508 -0.1290 -1.6140
 4873SOL    HW226253   3.811   0.398  10.506  1.7009 -1.3126 -1.8898
 4874SOL     OW26254   2.911   2.811  11.396 -0.2195  0.6683  0.0022
 4874SOL    HW126255   2.964   2.745  11.441 -0.7206  0.5305  0.3884
 4874SOL    HW226256   2.880   2.771  11.314 -0.9318  0.3949  0.4089
 4875SOL     OW26257   3.927   4.123   4.629  0.3056  0.6774 -0.3120
 4875SOL    HW126258   3.895   4.051   4.574  3.5177  0.6876 -2.1895
 4875SOL    HW226259   4.018   4.099   4.646  0.1391  0.6659  0.5498
 4876SOL     OW26260   4.572   2.342  15.408 -0.2659 -0.6533 -0.1283
 4876SOL    HW126261   4.603   2.282  15.477  0.3251 -1.5380 -1.1617
 4876SOL    HW226262   4.518   2.402  15.459  2.1118 -1.2114  3.0513
 4877SOL     OW26263   1.922   1.787  11.015 -0.2212 -0.4309 -0.3992
 4877SOL    HW126264   1.915   1.710  11.071  1.3388 -1.6283 -1.8397
 4877SOL    HW226265   1.830   1.801  10.993  0.0333 -0.8727 -1.7289
 4878SOL     OW26266   2.593   3.268  16.340 -0.0170 -0.1512 -0.3437
 4878SOL    HW126267   2.529   3.201  16.316  0.1823 -0.5904  0.3587
 4878SOL    HW226268   2.603   3.262  16.435  0.5722  2.0559 -0.2712
 4879SOL     OW26269   3.066   3.698   7.011 -0.2597 -0.0047  0.2418
 4879SOL    HW126270   2.982   3.719   7.051 -0.2392  0.5439 -0.0001
 4879SOL    HW226271   3.098   3.786   6.990  1.1035 -0.3299  0.9661
 4880SOL     OW26272   1.313   2.060   7.074  0.0149  0.0681  0.9174
 4880SOL    HW126273   1.309   2.117   7.151  1.4252  1.8016 -0.2767
 4880SOL    HW226274   1.248   2.098   7.015  1.5690 -0.3984 -1.0940
 4881SOL     OW26275   1.347   3.593   8.834  0.7357  0.3677  0.4519
 4881SOL    HW126276   1.379   3.669   8.883  0.4232 -0.8946  2.6222
 4881SOL    HW226277   1.254   3.613   8.841  0.4885  0.1249 -2.4039
 4882SOL     OW26278   4.256   0.759   8.444  0.5175 -0.5023  0.2841
 4882SOL    HW126279   4.202   0.832   8.413  1.8022  0.9069  1.4104
 4882SOL    HW226280   4.185   0.696   8.456  0.3317 -0.3200  0.1467
 4883SOL     OW26281   4.457   0.016   8.826  0.3622 -0.1233  0.0846
 4883SOL    HW126282   4.550   4.734   8.835 -0.1221 -3.0256 -0.9079
 4883SOL    HW226283   4.468   0.111   8.830  4.7467 -0.5227 -3.6864
 4884SOL     OW26284   4.203   3.900  15.028  0.0732 -0.2795  0.1491
 4884SOL    HW126285   4.122   3.850  15.020  1.6281 -2.4783 -2.0432
 4884SOL    HW226286   4.181   3.987  14.994 -0.1939 -0.5788 -0.4456
 4885SOL     OW26287   2.747   0.985   8.867 -0.1498  0.5293  0.0711
 4885SOL    HW126288   2.821   0.973   8.926 -0.3335 -1.0184 -0.0297
 4885SOL    HW226289   2.745   1.079   8.846 -1.5135  0.6470  0.6678
 4886SOL     OW26290   2.474   1.982  10.145 -0.9194 -0.0740 -0.4847
 4886SOL    HW126291   2.528   2.023  10.077 -0.7819  1.7727  0.7320
 4886SOL    HW226292   2.497   1.889  10.152 -1.1531 -0.2726 -2.6025
 4887SOL     OW26293   2.197   4.662   8.340 -0.2907 -0.1176  0.5117
 4887SOL    HW126294   2.258   4.722   8.298 -1.0012  0.6594  0.5754
 4887SOL    HW226295   2.211   4.676   8.434  0.7926  0.5341  0.2470
 4888SOL     OW26296   1.875   1.095  16.637 -0.1496 -0.8229 -0.0293
 4888SOL    HW126297   1.926   1.063  16.712  0.9019  1.5571  0.2852
 4888SOL    HW226298   1.942   1.131  16.578  0.4681  0.1484  1.2365
 4889SOL     OW26299   1.577   0.640   4.012 -0.0379  0.4616 -0.3165
 4889SOL    HW126300   1.508   0.657   4.077 -1.5104 -0.1599 -1.7084
 4889SOL    HW226301   1.613   0.727   3.996 -0.6239  1.3118  3.0596
 4890SOL     OW26302   2.618   0.761   4.768 -0.5860  0.1209 -0.4850
 4890SOL    HW126303   2.540   0.755   4.823  1.4048 -0.8919  2.2319
 4890SOL    HW226304   2.578   0.778   4.683  0.5732 -0.7313 -1.2138
 4891SOL     OW26305   0.884   0.799  14.241 -0.7798 -0.1137 -0.3272
 4891SOL    HW126306   0.933   0.872  14.279 -1.1775  0.4989 -0.9785
 4891SOL    HW226307   0.882   0.738  14.315 -0.7113  2.0905  1.5103
 4892SOL     OW26308   2.027   4.001   0.961 -0.1609  0.3548  0.3807
 4892SOL    HW126309   2.044   4.090   0.990 -0.7976  0.7988 -0.5991
 4892SOL    HW226310   1.980   3.975   1.040 -1.4597  1.3771 -0.0501
 4893SOL     OW26311   2.562   3.920   8.546 -0.1033  0.0052  0.7700
 4893SOL    HW126312   2.557   3.873   8.629 -0.0028  0.3260  0.9563
 4893SOL    HW226313   2.545   3.845   8.488  2.1201  0.1186 -0.0437
 4894SOL     OW26314   1.732   0.367  11.497  0.0021 -0.0981  0.4984
 4894SOL    HW126315   1.649   0.393  11.457  0.5507 -0.5422 -0.8990
 4894SOL    HW226316   1.797   0.357  11.428 -0.6650 -0.4025 -0.0852
 4895SOL     OW26317   2.236   4.178   3.769 -0.2813 -0.5174  0.5841
 4895SOL    HW126318   2.252   4.133   3.852  1.0731  1.5735  1.4752
 4895SOL    HW226319   2.329   4.183   3.746  0.1590 -1.8475  2.0380
 4896SOL     OW26320   2.761   1.250   4.350 -0.1042  0.0036  0.3748
 4896SOL    HW126321   2.752   1.325   4.408  0.9035  0.0659  0.4418
 4896SOL    HW226322   2.829   1.204   4.399  0.6387 -0.4656 -1.0864
 4897SOL     OW26323   1.213   2.909   8.806 -0.2561  0.0168 -0.2251
 4897SOL    HW126324   1.257   2.919   8.891  1.7467 -0.6584 -1.1875
 4897SOL    HW226325   1.259   2.981   8.762  1.5886 -0.4812  0.8700
 4898SOL     OW26326   4.226   3.786  15.793  0.5089 -0.2112 -0.3200
 4898SOL    HW126327   4.209   3.714  15.732 -0.0736 -2.1814  2.1593
 4898SOL    HW226328   4.276   3.842  15.735 -1.5232  0.2385 -1.6407
 4899SOL     OW26329   1.416   3.470  10.033 -0.0985  0.1469  0.0751
 4899SOL    HW126330   1.467   3.398  10.070  0.6858  0.3560 -0.5746
 4899SOL    HW226331   1.445   3.480   9.942  0.8912  0.2428  0.4014
 4900SOL     OW26332   0.912   1.366  12.150 -0.1964  0.0770  0.0682
 4900SOL    HW126333   0.848   1.426  12.110  2.2051  1.8866 -1.1026
 4900SOL    HW226334   0.861   1.340  12.226  0.2560 -0.3805  0.2120
 4901SOL     OW26335   2.454   2.783   8.009  0.3522  0.0934 -0.3460
 4901SOL    HW126336   2.437   2.844   7.937 -1.4080 -0.0695 -0.0890
 4901SOL    HW226337   2.501   2.720   7.954 -0.1989 -2.2678  1.9124
 4902SOL     OW26338   1.080   0.471  11.678 -0.3104 -0.3017  0.0609
 4902SOL    HW126339   1.175   0.474  11.665 -0.2821  0.8534  0.5015
 4902SOL    HW226340   1.087   0.470  11.774  1.1628 -1.1893 -0.0470
 4903SOL     OW26341   3.865   4.626   5.789 -0.0947  0.2656  0.2851
 4903SOL    HW126342   3.785   4.652   5.834 -0.2731  0.1312  0.0449
 4903SOL    HW226343   3.836   4.567   5.720  2.0277 -1.6226  1.0319
 4904SOL     OW26344   1.566   0.344   5.078  0.3106  0.3560  0.7756
 4904SOL    HW126345   1.568   0.276   5.011 -0.0990  0.0430  1.0763
 4904SOL    HW226346   1.648   0.391   5.064  0.7602 -1.5762 -2.9749
 4905SOL     OW26347   4.273   2.249   6.750  0.2163 -0.1962 -0.1470
 4905SOL    HW126348   4.343   2.238   6.814  0.2532  0.7218 -0.0226
 4905SOL    HW226349   4.309   2.324   6.703  1.6811  0.8982  2.7150
 4906SOL     OW26350   3.213   3.491   2.415 -0.3659  0.3088  0.3275
 4906SOL    HW126351   3.299   3.526   2.440  0.1620  0.0058 -1.0710
 4906SOL    HW226352   3.215   3.511   2.321  1.1956  1.4223  0.5886
 4907SOL     OW26353   3.794   0.836   7.846  0.5830  0.0485 -0.6241
 4907SOL    HW126354   3.806   0.800   7.934 -0.6787  0.9338 -0.0949
 4907SOL    HW226355   3.765   0.754   7.806 -1.5981  0.8546 -0.6622
 4908SOL     OW26356   2.511   1.175   0.365 -0.3909  0.0142  0.0623
 4908SOL    HW126357   2.550   1.120   0.297 -1.6480  0.3295 -0.9182
 4908SOL    HW226358   2.474   1.249   0.317 -1.2455 -1.4791 -1.6081
 4909SOL     OW26359   4.015   4.213   5.481 -0.1134 -0.3339 -0.1051
 4909SOL    HW126360   4.094   4.164   5.456  0.4265  1.3316 -1.6660
 4909SOL    HW226361   4.033   4.226   5.574 -1.4153 -1.1856  0.2579
 4910SOL     OW26362   0.537   1.958   5.335  0.2751 -0.2504  0.3265
 4910SOL    HW126363   0.593   2.007   5.275 -1.4020  1.0604 -0.1741
 4910SOL    HW226364   0.587   1.877   5.346 -0.6827 -0.7973  0.7230
 4911SOL     OW26365   2.180   0.122   7.299  0.2086 -0.0270  0.0862
 4911SOL    HW126366   2.201   0.124   7.206 -0.7946 -1.3271 -0.1748
 4911SOL    HW226367   2.256   0.165   7.338  0.1304 -1.9713  2.4041
 4912SOL     OW26368   2.784   0.546   1.272 -0.2211 -0.2142  0.2742
 4912SOL    HW126369   2.755   0.618   1.216  1.0152 -0.6384 -0.9055
 4912SOL    HW226370   2.722   0.562   1.344 -0.2565 -2.2469  0.6719
 4913SOL     OW26371   1.246   3.501   7.666  0.5223 -0.3113 -0.1111
 4913SOL    HW126372   1.318   3.473   7.610  0.0187  0.0724 -0.9582
 4913SOL    HW226373   1.206   3.416   7.685 -0.9712  0.1317 -1.2535
 4914SOL     OW26374   4.663   3.773   1.891  0.4010 -0.0668  0.2089
 4914SOL    HW126375   4.667   3.749   1.798  2.2047  0.6237  0.1010
 4914SOL    HW226376   4.716   3.853   1.890 -1.3643  1.0872 -0.0056
 4915SOL     OW26377   3.625   3.577   9.000 -0.0833 -0.2319 -0.1843
 4915SOL    HW126378   3.584   3.491   9.005  0.3065 -0.3388  1.1511
 4915SOL    HW226379   3.560   3.634   8.959 -0.0896 -1.3985 -1.8209
 4916SOL     OW26380   1.329   1.410   6.319  0.2968 -0.1174 -0.4649
 4916SOL    HW126381   1.306   1.319   6.299  1.0988 -0.4811  0.2739
 4916SOL    HW226382   1.410   1.394   6.368  0.6428 -1.5773 -1.5299
 4917SOL     OW26383   1.859   4.157   8.849  0.4071  0.0533 -0.1602
 4917SOL    HW126384   1.870   4.062   8.844 -1.6326 -0.3270  2.5605
 4917SOL    HW226385   1.920   4.181   8.919 -0.6184  0.5018  0.5825
 4918SOL     OW26386   3.304   3.215   5.696 -0.7705 -0.0898  0.2043
 4918SOL    HW126387   3.286   3.122   5.712 -2.2683  0.7172  3.0976
 4918SOL    HW226388   3.323   3.247   5.784 -1.3737 -1.9022  0.9887
 4919SOL     OW26389   2.784   3.410   9.729  0.2870  0.1003 -0.1433
 4919SOL    HW126390   2.767   3.320   9.700  0.3202 -0.0959  0.4434
 4919SOL    HW226391   2.715   3.419   9.795  1.4365 -0.6249  1.1904
 4920SOL     OW26392   2.125   3.058   9.578 -0.1929 -0.9372  0.0502
 4920SOL    HW126393   2.148   2.975   9.618 -1.8858 -0.2384  2.4950
 4920SOL    HW226394   2.139   3.032   9.487  2.7702  1.7311 -0.2647
 4921SOL     OW26395   1.163   0.484   7.229  0.1724 -0.1232  0.1784
 4921SOL    HW126396   1.256   0.462   7.228  0.6032  1.7609 -1.0374
 4921SOL    HW226397   1.150   0.535   7.149 -0.2628  0.0833  0.3763
 4922SOL     OW26398   1.595   2.011  17.695  0.0855 -0.4504 -0.3114
 4922SOL    HW126399   1.576   1.939  17.634 -0.3900 -0.7206  0.1559
 4922SOL    HW226400   1.581   2.089  17.642  0.9431  1.7989  2.7806
 4923SOL     OW26401   3.369   3.380   3.793 -0.3037  0.1867 -0.1733
 4923SOL    HW126402   3.441   3.384   3.730  1.2644  3.3452  1.8243
 4923SOL    HW226403   3.341   3.471   3.799  0.6454  0.3266  2.2758
 4924SOL     OW26404   0.278   0.224   3.755  0.2406  0.2952 -0.2757
 4924SOL    HW126405   0.189   0.210   3.786  0.6698 -0.2920  0.6957
 4924SOL    HW226406   0.295   0.152   3.694  0.9482 -2.3195  3.0170
 4925SOL     OW26407   2.350   3.786   1.892 -0.9068 -0.0756  0.7909
 4925SOL    HW126408   2.311   3.699   1.887  1.1253 -0.8297 -2.4718
 4925SOL    HW226409   2.366   3.778   1.986  0.6440 -0.1799  0.5155
 4926SOL     OW26410   2.601   2.738  11.070 -0.3986  0.2649 -0.7095
 4926SOL    HW126411   2.624   2.648  11.045  0.4607  0.3606 -0.2823
 4926SOL    HW226412   2.685   2.783  11.066 -1.1164  1.7279  0.4286
 4927SOL     OW26413   2.335   0.083   8.547 -0.3636  0.4018  0.4332
 4927SOL    HW126414   2.311   0.162   8.595 -1.5573 -0.2283  0.8715
 4927SOL    HW226415   2.334   0.116   8.457  1.0599 -0.0743  0.2540
 4928SOL     OW26416   1.272   3.032   7.189 -0.1630  0.2940  0.2245
 4928SOL    HW126417   1.296   3.089   7.116  2.0095 -0.8116  0.0733
 4928SOL    HW226418   1.189   2.998   7.156  0.2924 -0.2998 -0.3140
 4929SOL     OW26419   4.156   1.753   4.507  0.0902  0.1096 -0.3191
 4929SOL    HW126420   4.062   1.768   4.513  0.3222  1.1657  0.7437
 4929SOL    HW226421   4.182   1.794   4.590  0.7306 -0.8302 -0.0463
 4930SOL     OW26422   2.118   2.116   3.872 -0.3386  0.3164 -0.3526
 4930SOL    HW126423   2.112   2.211   3.862  0.8581  0.3730 -0.6109
 4930SOL    HW226424   2.139   2.125   3.965 -0.4508  0.7092 -0.3663
 4931SOL     OW26425   2.307   3.951  12.194  0.0069 -0.0629  0.6393
 4931SOL    HW126426   2.293   3.900  12.274 -1.3616  0.8202  0.9655
 4931SOL    HW226427   2.386   4.003  12.211  0.1536 -0.6539  1.7828
 4932SOL     OW26428   2.143   0.135   5.255 -0.4419  0.1128  0.6619
 4932SOL    HW126429   2.133   0.194   5.330 -1.4131 -1.0956  1.4716
 4932SOL    HW226430   2.072   0.165   5.197 -0.1676  0.6721  0.6117
 4933SOL     OW26431   2.930   1.753   8.637 -0.3572  0.3318  0.3417
 4933SOL    HW126432   3.002   1.751   8.574  0.7267  2.8170  1.5177
 4933SOL    HW226433   2.901   1.844   8.646  2.6140  1.2623  0.2946
 4934SOL     OW26434   0.336   1.657   5.354 -0.8980  0.3398  0.3548
 4934SOL    HW126435   0.320   1.691   5.266 -0.0548 -0.8891 -0.2819
 4934SOL    HW226436   0.406   1.594   5.335  0.1673  1.3760  0.8531
 4935SOL     OW26437   3.467   4.058   3.884 -0.0100  0.7395 -0.4474
 4935SOL    HW126438   3.406   3.993   3.918  0.3298  0.6292 -0.0472
 4935SOL    HW226439   3.554   4.027   3.908 -0.2728 -0.5909 -1.1971
 4936SOL     OW26440   1.831   3.126   5.956 -0.1192  0.2601 -0.3146
 4936SOL    HW126441   1.852   3.211   5.995  1.0853 -0.3798  0.4387
 4936SOL    HW226442   1.912   3.095   5.915  0.7345  1.9543  0.0828
 4937SOL     OW26443   1.273   4.462   3.811  0.4754 -0.5376  0.3451
 4937SOL    HW126444   1.363   4.489   3.831 -0.0670  1.3716  0.1728
 4937SOL    HW226445   1.231   4.545   3.790 -0.1225 -1.2420 -1.2411
 4938SOL     OW26446   1.682   3.346   7.926  0.3217 -0.4063  0.3909
 4938SOL    HW126447   1.607   3.403   7.939  0.8067  0.2366  0.3864
 4938SOL    HW226448   1.693   3.309   8.014 -1.8182 -0.4158  0.6566
 4939SOL     OW26449   4.323   3.048   4.836 -0.4686  0.2475 -0.5226
 4939SOL    HW126450   4.360   2.965   4.865 -0.4364  0.5228  0.2214
 4939SOL    HW226451   4.395   3.087   4.786 -2.0207  0.0002 -2.9701
 4940SOL     OW26452   4.720   0.923   3.424 -0.2588  0.4641  0.3583
 4940SOL    HW126453   0.072   0.959   3.415 -0.4618  0.8469 -0.0909
 4940SOL    HW226454   0.012   0.847   3.475 -1.5755 -0.6074 -0.4930
 4941SOL     OW26455   1.445   2.665   7.298 -0.0334  0.1765  0.1804
 4941SOL    HW126456   1.364   2.695   7.257 -0.2431  0.4250  0.7784
 4941SOL    HW226457   1.455   2.571   7.281 -1.9948  0.3399 -1.8282
 4942SOL     OW26458   0.580   4.409   6.299 -0.4776 -0.0659 -0.0261
 4942SOL    HW126459   0.595   4.501   6.320 -1.2941 -0.0499  0.4995
 4942SOL    HW226460   0.620   4.401   6.212 -1.5739  0.5381 -0.5780
 4943SOL     OW26461   1.266   2.219  13.701  0.1306  0.4155  0.2705
 4943SOL    HW126462   1.175   2.218  13.673 -0.0768  0.0398  0.9629
 4943SOL    HW226463   1.281   2.126  13.722 -0.9122 -0.1718 -1.5848
 4944SOL     OW26464   4.610   2.178   5.810 -0.0401  0.0201 -0.3704
 4944SOL    HW126465   4.690   2.231   5.806  0.3551 -0.6261 -1.0543
 4944SOL    HW226466   4.622   2.142   5.898  1.5118 -1.1685 -1.0582
 4945SOL     OW26467   4.656   1.668   6.904  0.0548  1.0303 -0.0825
 4945SOL    HW126468   4.643   1.751   6.950  0.2550  1.5342 -0.9478
 4945SOL    HW226469   4.620   1.697   6.820 -0.9268  1.8122  0.6088
 4946SOL     OW26470   3.667   3.591   7.694 -0.2103 -0.0858  0.6412
 4946SOL    HW126471   3.572   3.606   7.696 -0.1638  0.2113  0.6774
 4946SOL    HW226472   3.676   3.561   7.604  1.7916  1.1482  0.4323
 4947SOL     OW26473   0.550   2.350   5.937  0.2669  0.4985  0.1037
 4947SOL    HW126474   0.520   2.259   5.931  1.1704  0.1032  1.4667
 4947SOL    HW226475   0.628   2.351   5.882 -0.8918 -0.5470 -1.5552
 4948SOL     OW26476   3.132   2.889   7.293 -0.4797  0.3136  0.3249
 4948SOL    HW126477   3.099   2.959   7.236 -0.1077 -0.1921 -0.5255
 4948SOL    HW226478   3.080   2.911   7.370 -1.0090 -0.8939  0.3170
 4949SOL     OW26479   4.593   3.509   8.450 -0.2292  0.1825 -0.1976
 4949SOL    HW126480   4.514   3.518   8.503  0.7945 -1.4639  1.6501
 4949SOL    HW226481   4.641   3.440   8.497  1.0728  0.8035 -0.6259
 4950SOL     OW26482   1.189   2.942   4.821  0.2401 -0.4522 -0.1218
 4950SOL    HW126483   1.259   2.954   4.886  0.0429  0.1623 -0.0215
 4950SOL    HW226484   1.140   3.020   4.847  0.2083  0.1257 -1.8925
 4951SOL     OW26485   0.309   0.214   1.542  0.2035 -0.0356  0.1606
 4951SOL    HW126486   0.342   0.304   1.541  1.3098 -0.4812 -1.9022
 4951SOL    HW226487   0.319   0.202   1.637  0.1497 -0.4275  0.1151
 4952SOL     OW26488   0.567   1.805   9.029 -0.3316 -0.5073  0.1096
 4952SOL    HW126489   0.600   1.788   9.117 -0.7619 -0.3232  0.3027
 4952SOL    HW226490   0.651   1.841   8.999  0.6827 -1.1774  2.0912
 4953SOL     OW26491   0.897   3.656  16.675 -0.3554  0.0549  1.0107
 4953SOL    HW126492   0.929   3.746  16.677 -0.4061  0.0700  1.2141
 4953SOL    HW226493   0.803   3.672  16.669 -0.4352 -0.7094  0.3219
 4954SOL     OW26494   4.398   4.430   3.580 -0.1598 -0.1681  0.2923
 4954SOL    HW126495   4.432   4.435   3.669  0.1316  1.2905  0.0959
 4954SOL    HW226496   4.359   4.515   3.564  0.7271 -0.0653 -1.3097
 4955SOL     OW26497   3.857   0.009   3.588  0.0336 -0.0345 -0.1074
 4955SOL    HW126498   3.832   4.653   3.586 -0.9045  0.2032  0.5437
 4955SOL    HW226499   3.836   0.040   3.499 -0.2841 -1.7833 -0.6482
 4956SOL     OW26500   1.929   4.434  12.472  0.1230  0.8612  0.0998
 4956SOL    HW126501   1.994   4.474  12.528  1.0139  0.6035 -0.7474
 4956SOL    HW226502   1.961   4.478  12.393  3.2574  0.0915  0.9292
 4957SOL     OW26503   4.261   4.238   7.648 -0.1523  0.2351  0.2681
 4957SOL    HW126504   4.275   4.143   7.647  2.1782  0.5935 -0.6221
 4957SOL    HW226505   4.302   4.267   7.567  1.1488  0.0299  0.8567
 4958SOL     OW26506   0.480   3.721   4.912 -0.4121 -0.6197 -0.2485
 4958SOL    HW126507   0.410   3.748   4.972 -1.5375 -2.0097 -0.9251
 4958SOL    HW226508   0.446   3.732   4.823  0.5031  0.7872 -0.4268
 4959SOL     OW26509   0.647   1.269   9.720  0.6970  0.0914 -0.2163
 4959SOL    HW126510   0.575   1.213   9.691 -2.0364  2.8580  1.2950
 4959SOL    HW226511   0.723   1.213   9.703  0.4860  0.7272 -3.2625
 4960SOL     OW26512   4.624   1.021   8.392  0.4952 -0.0719 -0.2762
 4960SOL    HW126513   4.598   0.942   8.439  1.3424 -0.4067 -0.3678
 4960SOL    HW226514   4.563   1.084   8.431  0.3661 -0.3586 -0.0109
 4961SOL     OW26515   2.102   3.437   2.688 -0.0669  0.0717 -0.0002
 4961SOL    HW126516   2.147   3.353   2.681  0.1635  0.4387 -2.8380
 4961SOL    HW226517   2.149   3.486   2.621  1.2510  0.0478  0.8807
 4962SOL     OW26518   2.898   4.652   5.140  0.1046  0.0180  0.1351
 4962SOL    HW126519   2.880   4.586   5.207 -1.3592 -0.5912 -0.8531
 4962SOL    HW226520   2.972   4.606   5.099 -1.4316 -1.2855 -1.2212
 4963SOL     OW26521   2.699   0.160   4.124  0.1632  0.4152 -0.1019
 4963SOL    HW126522   2.733   0.079   4.160  1.5038  0.5702 -0.9968
 4963SOL    HW226523   2.643   0.135   4.050  0.1709 -0.3495  0.1577
 4964SOL     OW26524   2.068   4.574  12.267  0.0848 -0.0219 -0.4646
 4964SOL    HW126525   2.105   4.636  12.329 -0.9762 -1.3463  1.4915
 4964SOL    HW226526   2.093   4.617  12.185  0.5683  1.3101  0.3768
 4965SOL     OW26527   2.089   1.539   5.080 -0.0606 -0.4392  0.1030
 4965SOL    HW126528   2.128   1.513   4.997  3.0276 -1.3888  1.8201
 4965SOL    HW226529   2.079   1.634   5.071 -1.1973 -0.5857 -0.1307
 4966SOL     OW26530   2.557   1.017  17.129  0.2192 -0.0230  0.1901
 4966SOL    HW126531   2.540   1.075  17.055 -3.2111 -0.9276  0.2812
 4966SOL    HW226532   2.651   1.033  17.137  0.6906 -2.5173 -0.1409
 4967SOL     OW26533   1.105   2.089   6.593  0.4644 -0.0937  0.4998
 4967SOL    HW126534   1.178   2.136   6.553 -0.5621 -0.1076 -1.3771
 4967SOL    HW226535   1.037   2.156   6.590 -0.9316 -1.4936  0.9723
 4968SOL     OW26536   4.100   2.783   3.116 -0.0419  0.1194  0.4203
 4968SOL    HW126537   4.180   2.740   3.088  0.5358  1.2344  0.3460
 4968SOL    HW226538   4.042   2.712   3.143  0.6556  0.1238  1.9733
 4969SOL     OW26539   1.645   3.924   4.891  0.5415  0.1383  0.2216
 4969SOL    HW126540   1.612   3.862   4.826  1.4744 -1.2253  1.0386
 4969SOL    HW226541   1.645   4.000   4.832  2.2793 -0.1115 -0.1090
 4970SOL     OW26542   3.791   1.583   2.903  0.3627  0.9558 -0.8234
 4970SOL    HW126543   3.824   1.529   2.831  1.1514 -2.8721  2.4243
 4970SOL    HW226544   3.851   1.572   2.976 -0.5002  0.3526 -0.2006
 4971SOL     OW26545   2.327   0.791   2.038 -0.3539  0.2185  0.4452
 4971SOL    HW126546   2.342   0.792   1.943  0.4791 -0.1779  0.5702
 4971SOL    HW226547   2.233   0.807   2.042 -0.9334 -2.9486 -0.3768
 4972SOL     OW26548   2.754   3.470   6.892 -0.4033  0.2497 -0.0264
 4972SOL    HW126549   2.793   3.471   6.980  0.0375 -2.0766 -0.1705
 4972SOL    HW226550   2.752   3.564   6.878 -1.3429  0.2465  0.1019
 4973SOL     OW26551   1.603   1.503   6.028  0.4777 -0.0633 -0.0599
 4973SOL    HW126552   1.551   1.491   6.107  0.6005  1.5745  0.2748
 4973SOL    HW226553   1.605   1.598   6.018 -2.3802  0.0970  1.1092
 4974SOL     OW26554   4.426   3.979  15.691 -0.3733  0.0284 -1.0487
 4974SOL    HW126555   4.498   4.022  15.645  0.2666 -0.8058 -0.8200
 4974SOL    HW226556   4.460   3.989  15.780 -1.4968  0.3329 -0.6452
 4975SOL     OW26557   3.121   2.707   6.652 -0.2572  0.2004 -0.0128
 4975SOL    HW126558   3.152   2.783   6.701  0.9103 -1.9968  2.6536
 4975SOL    HW226559   3.027   2.716   6.666 -0.0465  2.2243  0.1382
 4976SOL     OW26560   3.357   0.218   4.856 -0.2498  0.5188  0.5782
 4976SOL    HW126561   3.368   0.312   4.869  1.7946  0.3451  0.1085
 4976SOL    HW226562   3.446   0.187   4.871 -0.0884  1.9718  2.6081
 4977SOL     OW26563   3.236   3.327   6.790 -0.0328 -0.2096  0.1262
 4977SOL    HW126564   3.205   3.381   6.862 -0.6904  1.6081 -1.5102
 4977SOL    HW226565   3.287   3.265   6.842 -0.6984 -0.9348 -0.0695
 4978SOL     OW26566   3.937   2.670   4.848  0.4391 -0.3079 -0.4882
 4978SOL    HW126567   3.881   2.679   4.771 -0.4140  0.4638  0.2328
 4978SOL    HW226568   3.985   2.753   4.846 -0.5774  0.1687 -4.2808
 4979SOL     OW26569   4.255   2.199  16.453  0.2767  0.1413 -0.0591
 4979SOL    HW126570   4.318   2.255  16.407 -1.5232  0.2668 -2.3852
 4979SOL    HW226571   4.310   2.132  16.493 -0.0912 -0.6426 -0.8594
 4980SOL     OW26572   0.682   0.567   6.641  0.4315 -0.3866 -0.4159
 4980SOL    HW126573   0.753   0.509   6.668 -2.1049 -2.0504  2.7292
 4980SOL    HW226574   0.717   0.648   6.678 -1.8886  0.3756  0.1286
 4981SOL     OW26575   3.001   4.108   5.692 -0.1407  0.4127 -0.0089
 4981SOL    HW126576   3.073   4.167   5.715  0.9975 -0.7971 -0.4966
 4981SOL    HW226577   2.960   4.084   5.775 -0.8215 -1.1820 -0.8173
 4982SOL     OW26578   0.497   1.914   0.734 -0.1825  0.3670  0.0641
 4982SOL    HW126579   0.571   1.939   0.680 -0.9622  1.6460 -0.4065
 4982SOL    HW226580   0.516   1.975   0.804 -3.0983  0.1532  1.0727
 4983SOL     OW26581   0.442   1.313  14.252  0.6633  0.2533  0.0031
 4983SOL    HW126582   0.468   1.393  14.206 -0.5597  0.7053  0.0872
 4983SOL    HW226583   0.372   1.271  14.202  2.3160 -1.7367 -0.6220
 4984SOL     OW26584   0.966   2.204  13.763  0.0395  0.2751  0.1168
 4984SOL    HW126585   0.986   2.111  13.753  0.3962  0.3890 -0.2741
 4984SOL    HW226586   1.029   2.227  13.831 -1.6540  0.5514  1.5893
 4985SOL     OW26587   1.333   0.384  10.915 -0.4101 -0.6461 -0.1204
 4985SOL    HW126588   1.308   0.295  10.938  3.3106 -0.7296  3.5390
 4985SOL    HW226589   1.388   0.356  10.842 -0.7505  0.6902 -0.8864
 4986SOL     OW26590   1.971   4.697   2.254  0.3982 -1.1926 -0.3728
 4986SOL    HW126591   1.914   0.000   2.319  1.1783  0.5188 -0.7346
 4986SOL    HW226592   2.056   4.686   2.298  0.3164  0.0488  0.0926
 4987SOL     OW26593   2.243   0.550   3.803 -0.2381  0.3970  0.7193
 4987SOL    HW126594   2.191   0.472   3.823 -1.5612  0.8921 -0.8629
 4987SOL    HW226595   2.175   0.615   3.820  0.0677  0.6761  0.8778
 4988SOL     OW26596   4.419   2.574   2.147  0.3926 -0.2339 -0.2852
 4988SOL    HW126597   4.334   2.572   2.103  1.0079  0.5182 -1.5151
 4988SOL    HW226598   4.412   2.656   2.196 -0.5633 -1.6569  1.9231
 4989SOL     OW26599   3.255   1.688   9.905 -0.5363 -0.4688  0.0074
 4989SOL    HW126600   3.250   1.617   9.970 -1.0663  0.5066  1.0263
 4989SOL    HW226601   3.336   1.732   9.931 -1.5972  0.0401  2.4713
 4990SOL     OW26602   1.833   0.891   4.465 -0.1087  0.4561 -0.4131
 4990SOL    HW126603   1.776   0.862   4.393  1.2327 -0.8369 -0.9472
 4990SOL    HW226604   1.785   0.969   4.492 -0.6962 -0.3668  0.9268
 4991SOL     OW26605   3.667   2.023   8.396 -0.6284 -0.7056 -0.9400
 4991SOL    HW126606   3.742   1.982   8.354 -0.6296 -1.3064 -0.3596
 4991SOL    HW226607   3.709   2.064   8.472 -0.1832 -0.3136 -1.4009
 4992SOL     OW26608   1.116   0.813   4.133 -0.2687  0.0723  0.1640
 4992SOL    HW126609   1.114   0.807   4.037  0.4018 -1.3081  0.2351
 4992SOL    HW226610   1.105   0.906   4.152  0.0410  0.2151 -0.3434
 4993SOL     OW26611   3.007   0.306   9.542 -0.2808  0.1311  0.0592
 4993SOL    HW126612   3.022   0.212   9.548  0.7007  0.3710  1.2785
 4993SOL    HW226613   2.998   0.331   9.634  0.7650  0.3856  0.0838
 4994SOL     OW26614   1.025   2.322   1.946 -0.4347  0.1131 -0.0422
 4994SOL    HW126615   0.951   2.307   1.887  0.0232 -0.5670 -0.4501
 4994SOL    HW226616   0.978   2.286   2.021  1.5534  1.4531  1.8450
 4995SOL     OW26617   3.862   1.144   4.096  0.8837 -0.5022 -0.2546
 4995SOL    HW126618   3.855   1.235   4.123  1.2631 -0.5071 -0.1421
 4995SOL    HW226619   3.785   1.105   4.139  1.4319 -0.5136  0.7091
 4996SOL     OW26620   2.861   3.780   2.922  0.1798 -0.0734  0.3476
 4996SOL    HW126621   2.880   3.833   2.845 -1.3603  1.7177  1.1803
 4996SOL    HW226622   2.949   3.742   2.926  0.1925 -0.0303  0.4970
 4997SOL     OW26623   4.702   2.773  15.960  0.2399  0.9118 -0.0253
 4997SOL    HW126624   4.628   2.715  15.978  0.1096  0.0112 -3.4917
 4997SOL    HW226625   4.726   2.807  16.046 -0.3900 -1.7729  1.2102
 4998SOL     OW26626   2.762   1.039   7.554  0.2004 -0.3616  0.0508
 4998SOL    HW126627   2.830   0.972   7.553  1.1555  0.6097 -1.8254
 4998SOL    HW226628   2.795   1.085   7.631 -0.5983  1.1516 -0.5044
 4999SOL     OW26629   0.710   4.591   2.384  0.6801  0.0206  0.0113
 4999SOL    HW126630   0.724   4.653   2.312 -0.7494  0.5878  0.2164
 4999SOL    HW226631   0.689   4.653   2.455  0.9121 -0.8863  0.8613
 5000SOL     OW26632   1.257   0.624   2.391 -0.0239  0.0414 -0.0476
 5000SOL    HW126633   1.286   0.693   2.332  0.5351  2.0397  2.5309
 5000SOL    HW226634   1.324   0.560   2.368 -0.0115  0.1345 -0.2627
 5001SOL     OW26635   2.462   1.062   7.514  0.2471 -0.0162  0.2154
 5001SOL    HW126636   2.557   1.057   7.520  0.2279  1.5327  1.7659
 5001SOL    HW226637   2.446   0.972   7.543  4.5261 -0.8171 -0.0081
 5002SOL     OW26638   3.069   0.319   8.582 -0.2465 -0.2436  0.0498
 5002SOL    HW126639   3.142   0.261   8.565 -0.9901 -0.8918 -0.9280
 5002SOL    HW226640   3.060   0.318   8.677  1.8680 -0.7860  0.2332
 5003SOL     OW26641   0.442   0.812   3.134 -0.6236 -0.6192  0.4750
 5003SOL    HW126642   0.481   0.864   3.064 -1.8153 -0.5637 -0.1444
 5003SOL    HW226643   0.352   0.845   3.139 -0.3006  0.5947 -1.8542
 5004SOL     OW26644   1.556   4.022   3.493 -0.1159 -0.5709  0.0422
 5004SOL    HW126645   1.515   3.936   3.490 -0.2886 -0.4172 -1.8592
 5004SOL    HW226646   1.518   4.067   3.568  0.6248  0.2160 -0.0524
 5005SOL     OW26647   1.109   2.155  12.584  0.3228  0.1130  0.5046
 5005SOL    HW126648   1.165   2.083  12.556  1.2393  0.8732  0.3941
 5005SOL    HW226649   1.051   2.104  12.641 -1.8769  0.8245 -1.1181
 5006SOL     OW26650   1.415   0.294   8.490 -0.0341  0.5705  0.3842
 5006SOL    HW126651   1.358   0.331   8.423 -0.7633  2.9709  2.3231
 5006SOL    HW226652   1.356   0.234   8.534  0.1208  0.6269  0.6656
 5007SOL     OW26653   2.179   1.186   5.649 -0.0482 -0.3189 -0.0490
 5007SOL    HW126654   2.199   1.182   5.555 -0.4288 -0.4278 -0.1285
 5007SOL    HW226655   2.115   1.258   5.644  0.2506 -0.1346 -1.4236
 5008SOL     OW26656   0.226   2.232   4.836  0.0381 -0.0271  0.0483
 5008SOL    HW126657   0.174   2.291   4.891  1.8585  0.2783  1.4328
 5008SOL    HW226658   0.307   2.220   4.884  0.5270  1.4171 -0.4129
 5009SOL     OW26659   2.477   2.524   7.064  0.0561  0.1367 -0.4031
 5009SOL    HW126660   2.461   2.486   6.978 -1.1550  1.3466 -0.7130
 5009SOL    HW226661   2.548   2.466   7.092 -1.5487 -2.3538 -1.4471
 5010SOL     OW26662   0.316   2.853  13.112 -0.6418 -0.6406 -0.3992
 5010SOL    HW126663   0.320   2.825  13.203  2.8172 -0.4686 -0.4988
 5010SOL    HW226664   0.398   2.901  13.101 -1.4980  0.7483 -0.6076
 5011SOL     OW26665   3.313   3.259  12.255 -0.1327 -0.3467 -0.2167
 5011SOL    HW126666   3.299   3.185  12.196  1.4864 -1.0012  0.2214
 5011SOL    HW226667   3.234   3.305  12.225 -0.7909 -0.0329  2.0336
 5012SOL     OW26668   0.036   3.424   2.515  0.4524 -0.5062 -0.1188
 5012SOL    HW126669   0.055   3.403   2.424 -0.3780  1.7718 -0.7891
 5012SOL    HW226670   4.684   3.391   2.529  0.8272 -0.4716  2.4588
 5013SOL     OW26671   3.344   4.710  11.103  0.7563 -0.4207  0.1557
 5013SOL    HW126672   3.383   4.670  11.025  3.4039 -0.5403  1.5488
 5013SOL    HW226673   3.304   0.057  11.079  0.6154 -0.8065 -0.9817
 5014SOL     OW26674   2.601   4.139   3.049 -0.4505 -0.4421  0.4369
 5014SOL    HW126675   2.685   4.156   3.005  0.9234 -1.4018  2.6762
 5014SOL    HW226676   2.587   4.048   3.023 -1.6988 -0.7084  2.0741
 5015SOL     OW26677   1.748   2.953   3.259  0.0749  0.2069 -0.3940
 5015SOL    HW126678   1.674   2.990   3.210  0.7027 -0.8730 -2.1624
 5015SOL    HW226679   1.730   2.964   3.352 -1.2913 -0.5839 -0.5665
 5016SOL     OW26680   1.847   1.664   3.416  0.2058 -0.0643  0.2143
 5016SOL    HW126681   1.885   1.745   3.451  3.0908 -1.6155  0.7473
 5016SOL    HW226682   1.812   1.703   3.336  4.2359 -1.8725 -2.4610
 5017SOL     OW26683   0.676   2.123  12.872 -0.5126  0.2463  0.8329
 5017SOL    HW126684   0.715   2.040  12.845 -0.5299  0.3432  0.5127
 5017SOL    HW226685   0.682   2.166  12.787  0.6996  0.4256  1.0061
 5018SOL     OW26686   3.009   1.865   4.073 -0.0975  0.1672 -0.2436
 5018SOL    HW126687   3.073   1.876   4.003 -0.5419 -0.8203 -0.8014
 5018SOL    HW226688   2.936   1.829   4.023  0.4711 -0.9181 -0.2816
 5019SOL     OW26689   3.645   2.992   4.074 -0.1952  0.1518  0.0679
 5019SOL    HW126690   3.594   3.015   4.152 -1.6345 -0.2400 -0.7496
 5019SOL    HW226691   3.709   2.931   4.110  0.3497  0.6665 -0.0288
 5020SOL     OW26692   1.450   1.503  15.871  0.3640  0.5731 -0.0445
 5020SOL    HW126693   1.533   1.462  15.894  1.4584  2.2685 -1.0651
 5020SOL    HW226694   1.382   1.443  15.904 -1.3806  1.7009 -1.5725
 5021SOL     OW26695   0.389   4.398   6.987 -0.3256  0.6120  0.0744
 5021SOL    HW126696   0.431   4.426   7.068  0.9851  0.2585 -0.4815
 5021SOL    HW226697   0.306   4.445   6.977  0.3983  2.2145  1.5612
 5022SOL     OW26698   0.415   1.631   5.687 -0.3755  0.4878 -0.5641
 5022SOL    HW126699   0.480   1.612   5.755  0.1814 -0.3598 -1.3429
 5022SOL    HW226700   0.465   1.651   5.608  0.8830  0.7655  0.3069
 5023SOL     OW26701   2.463   1.215   6.784 -0.6503 -0.0754  0.2067
 5023SOL    HW126702   2.511   1.276   6.841 -0.9397 -1.9211  2.4426
 5023SOL    HW226703   2.374   1.220   6.820 -1.2828  0.0522 -1.3965
 5024SOL     OW26704   1.051   4.607  14.582  0.1524 -0.3676  0.0672
 5024SOL    HW126705   1.107   4.682  14.563 -2.2634  1.4584  0.1374
 5024SOL    HW226706   0.961   4.632  14.564  0.7834  1.2780 -0.8367
 5025SOL     OW26707   4.285   0.660   4.042  0.2734  0.4444  0.0310
 5025SOL    HW126708   4.199   0.654   4.084  0.7406  4.1875  1.4556
 5025SOL    HW226709   4.268   0.607   3.964  2.6489 -0.7053  0.3125
 5026SOL     OW26710   1.249   1.292   9.243  0.1236 -0.5998  0.4977
 5026SOL    HW126711   1.290   1.316   9.160  1.0894  1.8781  1.6903
 5026SOL    HW226712   1.203   1.368   9.277  1.1037  0.0435  0.4040
 5027SOL     OW26713   3.136   4.505   4.434 -0.1189 -0.0700 -0.7991
 5027SOL    HW126714   3.053   4.473   4.399  0.0265 -0.7459 -0.5387
 5027SOL    HW226715   3.114   4.524   4.525  0.5886 -0.4501 -0.5531
 5028SOL     OW26716   4.576   2.866   8.020  0.5457  0.2759  0.0144
 5028SOL    HW126717   4.656   2.912   8.045  1.3634 -1.8118  1.2293
 5028SOL    HW226718   4.547   2.921   7.947 -0.0152  1.0264  0.8034
 5029SOL     OW26719   2.678   4.645   2.265 -0.4800 -0.0669  0.3967
 5029SOL    HW126720   2.701   4.660   2.173 -2.2761  1.8550  0.2578
 5029SOL    HW226721   2.756   4.599   2.297  1.8174  2.8067 -1.0749
 5030SOL     OW26722   2.355   1.040   1.566  0.7924  0.7798  0.1423
 5030SOL    HW126723   2.269   1.078   1.548  1.1486  1.4205 -0.1684
 5030SOL    HW226724   2.334   0.947   1.554 -1.4093  1.1865  0.8237
 5031SOL     OW26725   1.139   3.024   4.007 -0.2618 -0.5206  0.3449
 5031SOL    HW126726   1.131   3.030   3.912  0.2597 -0.6634  0.2957
 5031SOL    HW226727   1.050   3.052   4.028 -0.1539 -0.1337  0.2869
 5032SOL     OW26728   3.132   4.473   5.426 -0.4772  0.5229  0.0580
 5032SOL    HW126729   3.041   4.449   5.409 -0.6556  2.4041 -1.7063
 5032SOL    HW226730   3.120   4.565   5.450  0.8247  0.6824  0.0815
 5033SOL     OW26731   4.729   1.431   6.269 -0.0189 -0.3225  0.2161
 5033SOL    HW126732   4.675   1.506   6.245  2.2404  1.1614 -0.2639
 5033SOL    HW226733   0.007   1.456   6.360 -1.4888 -0.0094  0.3556
 5034SOL     OW26734   0.264   3.320   8.416  0.2323 -0.3291  0.5400
 5034SOL    HW126735   0.355   3.330   8.444  0.6419  0.0552 -0.9140
 5034SOL    HW226736   0.231   3.405   8.389 -1.8408 -1.6864 -1.2654
 5035SOL     OW26737   1.340   0.441   6.289 -0.3598 -0.4070  0.0592
 5035SOL    HW126738   1.392   0.494   6.349 -1.2272  1.4976 -0.8717
 5035SOL    HW226739   1.357   0.358   6.333  3.6250  2.6647  4.3171
 5036SOL     OW26740   2.990   4.723  16.665  0.1770  0.1620  0.0644
 5036SOL    HW126741   3.038   4.691  16.589  0.6992 -0.7853  0.7864
 5036SOL    HW226742   3.050   4.712  16.739 -0.8157  0.3820  0.9013
 5037SOL     OW26743   3.184   3.567   0.770 -0.3830 -0.1947 -0.4553
 5037SOL    HW126744   3.184   3.473   0.755 -0.5763 -0.0098 -1.6535
 5037SOL    HW226745   3.095   3.586   0.742 -0.1516 -0.8696 -1.6642
 5038SOL     OW26746   2.330   0.615   5.462 -0.4842  0.1698 -0.2925
 5038SOL    HW126747   2.277   0.580   5.391 -0.8369 -0.0083  0.0615
 5038SOL    HW226748   2.257   0.649   5.513 -0.4434  0.7207 -0.5941
 5039SOL     OW26749   3.283   3.710  12.152 -0.7445 -0.3568  0.2093
 5039SOL    HW126750   3.229   3.739  12.079 -1.1050 -0.4879  0.4219
 5039SOL    HW226751   3.222   3.745  12.217 -0.8748  2.4794 -1.4694
 5040SOL     OW26752   0.454   2.501   6.729 -0.2301  0.0642  0.2723
 5040SOL    HW126753   0.410   2.578   6.765 -1.7848 -1.4992  1.6790
 5040SOL    HW226754   0.423   2.494   6.639 -0.6610 -0.3797  0.4541
 5041SOL     OW26755   3.876   0.751  16.145 -0.6433  0.4012 -0.2932
 5041SOL    HW126756   3.860   0.663  16.110 -0.0889  0.2156 -0.0750
 5041SOL    HW226757   3.934   0.741  16.220  1.6672 -0.9014 -2.2573
 5042SOL     OW26758   2.152   2.661   3.707  0.1946 -0.2597  0.1374
 5042SOL    HW126759   2.242   2.628   3.700  0.6928  0.8172  1.4917
 5042SOL    HW226760   2.169   2.755   3.716 -1.9583  0.2150 -0.6478
 5043SOL     OW26761   0.294   0.962  16.872  0.3332  0.3899  0.3029
 5043SOL    HW126762   0.279   0.868  16.858 -0.8402  0.3112  2.0827
 5043SOL    HW226763   0.362   0.980  16.807  0.1643 -1.5254 -0.4299
 5044SOL     OW26764   0.862   4.504  11.789  0.1481 -0.0486 -0.3365
 5044SOL    HW126765   0.863   4.540  11.700  0.4695  0.2646 -0.2086
 5044SOL    HW226766   0.943   4.538  11.829  0.9455  0.7455 -2.6203
 5045SOL     OW26767   1.729   3.345  13.967 -0.3011  0.7605 -0.1098
 5045SOL    HW126768   1.740   3.262  14.014 -0.9177 -1.1925 -3.3608
 5045SOL    HW226769   1.634   3.347  13.960 -0.4539 -1.9477  1.1100
 5046SOL     OW26770   2.304   2.832   7.598  0.3682 -0.4957  0.3204
 5046SOL    HW126771   2.250   2.753   7.600  1.2172 -1.0245  2.5418
 5046SOL    HW226772   2.342   2.825   7.685  0.9157 -1.8206 -0.0224
 5047SOL     OW26773   0.435   2.230   8.558 -0.8664  0.7333  0.3595
 5047SOL    HW126774   0.393   2.300   8.607 -0.3110  0.9531  0.5241
 5047SOL    HW226775   0.368   2.210   8.493 -1.4082 -0.2570  1.2134
 5048SOL     OW26776   0.264   2.805   5.100  0.0229 -0.2935  0.3092
 5048SOL    HW126777   0.270   2.861   5.023 -0.6703  1.2726  1.4166
 5048SOL    HW226778   0.221   2.864   5.161 -1.9167  0.5024 -1.8167
 5049SOL     OW26779   2.456   2.423  10.806  0.1782  0.7847  0.3824
 5049SOL    HW126780   2.363   2.401  10.800  1.2920 -3.4888 -1.7969
 5049SOL    HW226781   2.460   2.512  10.840  0.1314  1.3463 -1.0880
 5050SOL     OW26782   2.578   2.189   0.969 -0.3822  0.7312 -0.3250
 5050SOL    HW126783   2.529   2.110   0.943 -0.5749  0.0494  2.1218
 5050SOL    HW226784   2.647   2.156   1.027 -0.2109  3.1151  0.7997
 5051SOL     OW26785   3.071   4.533   8.483 -0.4716  0.3023  0.4752
 5051SOL    HW126786   3.010   4.587   8.433 -0.3824  0.1686  0.2224
 5051SOL    HW226787   3.060   4.450   8.436  2.3495 -0.5915  1.3676
 5052SOL     OW26788   2.678   1.860   8.413  0.2766  0.0457  0.1432
 5052SOL    HW126789   2.700   1.775   8.452 -0.6936  0.2981  1.2566
 5052SOL    HW226790   2.738   1.865   8.339  1.6882 -0.3983  1.2480
 5053SOL     OW26791   0.240   0.115   2.982  0.2098  0.3951 -0.5238
 5053SOL    HW126792   0.321   0.138   3.028 -1.0541 -0.5082  2.1690
 5053SOL    HW226793   0.247   0.022   3.002  1.5592  0.8028  1.0075
 5054SOL     OW26794   4.634   1.411   7.959 -0.2997 -0.3699 -0.2855
 5054SOL    HW126795   4.606   1.429   8.049  0.1942  0.2254 -0.2497
 5054SOL    HW226796   4.679   1.327   7.957  0.6053  0.1217 -0.5125
 5055SOL     OW26797   2.511   4.091  11.956 -0.4847  0.2029  0.4874
 5055SOL    HW126798   2.434   4.122  11.909 -1.1855 -1.2657  0.6859
 5055SOL    HW226799   2.478   4.002  11.969  0.5596 -0.1652  0.6264
 5056SOL     OW26800   1.456   2.736   1.120  0.2250  0.1014  0.2120
 5056SOL    HW126801   1.513   2.791   1.067 -0.7469  0.5228 -0.3979
 5056SOL    HW226802   1.389   2.717   1.054 -1.0387  0.5342  1.3772
 5057SOL     OW26803   4.258   3.093   6.343  0.0372 -0.3974 -0.4225
 5057SOL    HW126804   4.196   3.077   6.273 -0.7103  0.5851  0.0097
 5057SOL    HW226805   4.206   3.134   6.412  2.5755  2.2755 -0.0898
 5058SOL     OW26806   0.766   2.979   6.660 -0.5240 -0.8161  0.9347
 5058SOL    HW126807   0.714   2.899   6.668 -2.9860  0.4537 -2.4351
 5058SOL    HW226808   0.759   3.025   6.744 -0.7898  1.9135 -0.5940
 5059SOL     OW26809   3.285   1.075   4.561 -0.3739  0.1757 -0.1737
 5059SOL    HW126810   3.325   1.090   4.647  0.8150 -3.0330 -0.1816
 5059SOL    HW226811   3.283   1.168   4.538 -0.6970  0.4347  0.8670
 5060SOL     OW26812   3.143   3.155   8.479 -0.0220  0.1491  0.5751
 5060SOL    HW126813   3.083   3.197   8.541  0.4867 -0.4786  1.5046
 5060SOL    HW226814   3.090   3.079   8.454  1.7359 -1.3274  1.3109
 5061SOL     OW26815   1.598   3.061  11.941 -0.0956  0.5575  0.1201
 5061SOL    HW126816   1.607   3.143  11.990 -0.7347  0.4397  0.4389
 5061SOL    HW226817   1.531   3.010  11.986  1.5383 -1.0773  0.7043
 5062SOL     OW26818   3.565   3.368   8.634 -0.3412 -0.5916  0.2668
 5062SOL    HW126819   3.619   3.429   8.583 -0.3907 -3.6045 -3.3724
 5062SOL    HW226820   3.494   3.352   8.572 -0.9122 -0.6660  0.9409
 5063SOL     OW26821   4.605   4.495   3.380  0.2176  0.2973  0.6513
 5063SOL    HW126822   4.698   4.483   3.396 -0.1191 -1.2389  1.4354
 5063SOL    HW226823   4.568   4.491   3.468 -1.7748  1.1960 -0.1365
 5064SOL     OW26824   1.231   3.281  12.292  0.3865 -0.0710 -0.1746
 5064SOL    HW126825   1.160   3.229  12.255 -0.1021 -0.9257  1.9748
 5064SOL    HW226826   1.202   3.290  12.383 -1.2811  1.4228 -0.8417
 5065SOL     OW26827   4.413   0.633   2.155  0.2920 -0.5090  0.6037
 5065SOL    HW126828   4.343   0.569   2.166  0.0481  0.0559  2.3171
 5065SOL    HW226829   4.486   0.582   2.121 -0.0818 -1.4003  1.1459
 5066SOL     OW26830   3.268   4.209   6.497  0.0639 -0.3750  0.4631
 5066SOL    HW126831   3.206   4.231   6.567 -1.4784  2.6573 -1.9007
 5066SOL    HW226832   3.231   4.122   6.479 -0.9081  0.2587 -0.5659
 5067SOL     OW26833   2.692   0.038   1.317  0.0420 -0.9947  0.3932
 5067SOL    HW126834   2.625   0.059   1.381 -0.8595  1.0156 -1.2270
 5067SOL    HW226835   2.757   0.005   1.380  0.0207  0.0022  0.9418
 5068SOL     OW26836   2.414   1.881  13.698 -0.0218  0.2880 -0.4109
 5068SOL    HW126837   2.471   1.935  13.753 -0.5827 -0.3178  0.7669
 5068SOL    HW226838   2.488   1.840  13.652 -0.2336 -0.6371  0.0762
 5069SOL     OW26839   2.166   1.222   2.988  0.0417  0.2346 -0.7345
 5069SOL    HW126840   2.195   1.310   3.012 -1.1135  0.6913 -1.0214
 5069SOL    HW226841   2.129   1.202   3.074  1.2809 -1.7353 -0.6566
 5070SOL     OW26842   4.656   1.326   4.406  0.3352 -0.0246 -0.3035
 5070SOL    HW126843   4.676   1.416   4.379 -1.6602 -0.1419 -2.2167
 5070SOL    HW226844   4.568   1.314   4.369 -1.0579  2.3905  2.2489
 5071SOL     OW26845   1.451   4.242  17.440 -0.5128  0.6915 -0.1940
 5071SOL    HW126846   1.503   4.218  17.516 -0.4580 -0.8365 -0.7104
 5071SOL    HW226847   1.508   4.297  17.386 -0.5856 -0.4343 -1.4092
 5072SOL     OW26848   3.387   2.746   3.116 -0.1736  0.0634 -0.2671
 5072SOL    HW126849   3.407   2.727   3.025  1.7868  1.0616 -0.0436
 5072SOL    HW226850   3.454   2.811   3.139 -0.0387 -0.1931  0.0742
 5073SOL     OW26851   4.059   2.116   5.641 -0.1360  0.1876 -0.3704
 5073SOL    HW126852   4.116   2.040   5.630  0.5905  0.9866 -2.1949
 5073SOL    HW226853   3.978   2.079   5.675 -0.2672 -0.4265 -1.3621
 5074SOL     OW26854   0.523   0.848   7.938 -0.1937 -0.2183  0.1778
 5074SOL    HW126855   0.565   0.778   7.989 -0.1413  1.0194  1.8395
 5074SOL    HW226856   0.495   0.803   7.858 -0.1760  1.3020 -0.6788
 5075SOL     OW26857   3.149   2.753  12.349 -0.2056  0.7702 -0.3031
 5075SOL    HW126858   3.239   2.721  12.346 -0.8539 -0.9711 -1.3896
 5075SOL    HW226859   3.170   2.828  12.404 -3.0020  0.2615  1.4644
 5076SOL     OW26860   1.395   1.913   7.657 -0.5650  0.1972 -0.5333
 5076SOL    HW126861   1.490   1.924   7.657 -0.7677  2.0300  0.2153
 5076SOL    HW226862   1.377   1.946   7.568 -0.3717  1.6484 -0.0439
 5077SOL     OW26863   0.666   0.949   9.834 -0.0567  0.8155 -0.5408
 5077SOL    HW126864   0.633   0.879   9.777 -0.2084  1.6101 -1.4264
 5077SOL    HW226865   0.738   0.977   9.778 -0.8332  2.0902 -0.9156
 5078SOL     OW26866   0.113   2.521   2.704 -0.0541 -0.0418 -0.3297
 5078SOL    HW126867   0.017   2.518   2.707  0.0584 -0.6650  2.5453
 5078SOL    HW226868   0.127   2.608   2.666 -0.0139 -1.2032 -2.9777
 5079SOL     OW26869   4.692   0.997  11.726  0.2055 -0.1345 -0.3399
 5079SOL    HW126870   0.030   1.056  11.715 -0.5942  0.8473 -0.4261
 5079SOL    HW226871   4.687   0.952  11.642 -2.1935  0.7687 -0.6618
 5080SOL     OW26872   1.338   0.000   1.971  0.3034  0.5035  0.0917
 5080SOL    HW126873   1.354   0.052   1.893  1.4287 -0.5072 -0.3466
 5080SOL    HW226874   1.243   0.010   1.982  0.4672  0.4112  1.6522
 5081SOL     OW26875   0.159   0.256  11.228  0.4020  0.0774 -0.7930
 5081SOL    HW126876   0.203   0.331  11.270 -0.5335  0.5146 -0.5958
 5081SOL    HW226877   0.065   0.268  11.243  0.5910  0.4352  0.1165
 5082SOL     OW26878   2.989   0.293   9.846 -0.2543 -0.3063  0.8469
 5082SOL    HW126879   3.069   0.243   9.862  0.2015  0.1231 -0.1255
 5082SOL    HW226880   3.004   0.367   9.905 -4.0219  1.9748 -1.0720
 5083SOL     OW26881   1.604   2.490   1.514 -0.1406  0.0637 -0.6038
 5083SOL    HW126882   1.671   2.552   1.483  0.7417 -0.4162  0.3684
 5083SOL    HW226883   1.578   2.454   1.429  1.7945  0.4307 -1.3523
 5084SOL     OW26884   2.445   1.211   0.024 -0.4164  0.3223 -0.7063
 5084SOL    HW126885   2.362   1.258   0.025 -0.7004 -0.2058  0.4347
 5084SOL    HW226886   2.504   1.284   0.044 -0.1261 -0.1605  0.1788
 5085SOL     OW26887   4.061   4.383  16.518  0.3892 -0.5349 -0.3048
 5085SOL    HW126888   4.056   4.388  16.423  1.1382  2.0016 -0.1962
 5085SOL    HW226889   4.156   4.373  16.518  0.4530  0.1422 -1.6872
 5086SOL     OW26890   3.971   1.628   1.443  0.5851  0.4942  0.7060
 5086SOL    HW126891   3.999   1.687   1.514 -0.2872  2.3782 -0.5098
 5086SOL    HW226892   3.923   1.558   1.488 -1.6864  1.1279 -0.7443
 5087SOL     OW26893   2.274   0.193   6.985 -0.4833  0.2041 -0.1633
 5087SOL    HW126894   2.269   0.122   6.921  1.2516  0.2989 -0.3948
 5087SOL    HW226895   2.182   0.218   6.980 -1.0109 -1.4424  1.3737
 5088SOL     OW26896   4.039   1.271  16.760  0.0541  0.8939 -0.5041
 5088SOL    HW126897   3.947   1.275  16.734  0.0906 -1.2582 -0.9522
 5088SOL    HW226898   4.019   1.244  16.849 -0.7833  1.2984 -0.5733
 5089SOL     OW26899   3.615   0.953   4.731  0.0597  0.0263  0.0996
 5089SOL    HW126900   3.596   0.915   4.817  1.7092 -0.2242  0.3427
 5089SOL    HW226901   3.676   1.023   4.754 -0.0286  1.0967 -3.0026
 5090SOL     OW26902   0.469   2.391   1.653  0.4071  0.5658  0.2897
 5090SOL    HW126903   0.502   2.310   1.616 -0.8435  1.0209 -1.8350
 5090SOL    HW226904   0.539   2.449   1.625 -0.4972  1.3797 -0.2971
 5091SOL     OW26905   1.141   1.089   4.386  0.5568 -0.6122 -0.0704
 5091SOL    HW126906   1.171   1.121   4.301  0.1098 -1.9114 -0.7295
 5091SOL    HW226907   1.220   1.089   4.440  0.6708  1.6645 -0.2514
 5092SOL     OW26908   3.595   3.021   7.836 -0.2610 -0.2503  0.0159
 5092SOL    HW126909   3.520   3.080   7.825  1.7372  2.2283 -0.2094
 5092SOL    HW226910   3.574   2.986   7.923  1.3216  1.9770  1.2727
 5093SOL     OW26911   1.874   2.936   6.434 -0.0671  0.1793 -0.5349
 5093SOL    HW126912   1.806   2.974   6.378 -0.8498 -0.6945 -0.1774
 5093SOL    HW226913   1.853   2.844   6.417  0.2677  0.0477 -0.2390
 5094SOL     OW26914   2.874   3.939   7.946  0.1539 -0.2571  0.5373
 5094SOL    HW126915   2.968   3.955   7.940  0.1669 -1.0094 -1.0727
 5094SOL    HW226916   2.844   4.011   8.001 -0.0893 -1.4430  1.9689
 5095SOL     OW26917   0.485   3.657  17.550  0.1934 -0.1751  0.4256
 5095SOL    HW126918   0.551   3.623  17.489  0.0977  1.9745 -0.8885
 5095SOL    HW226919   0.413   3.676  17.489  0.0989  0.7139  0.8196
 5096SOL     OW26920   0.301   0.817   6.379 -0.8382 -0.3450 -0.4292
 5096SOL    HW126921   0.334   0.730   6.357  0.2459  0.2023 -0.9694
 5096SOL    HW226922   0.267   0.805   6.467 -1.2853  2.3718 -0.2336
 5097SOL     OW26923   3.603   3.937   1.736 -0.3220  0.3092 -0.3942
 5097SOL    HW126924   3.631   3.992   1.663  0.1562 -1.0778 -1.2596
 5097SOL    HW226925   3.530   3.886   1.700 -1.7053  0.6564  1.9213
 5098SOL     OW26926   4.723   3.417   4.396  0.1692  0.2916  0.1182
 5098SOL    HW126927   4.674   3.489   4.357  0.3661  0.9592  1.1075
 5098SOL    HW226928   0.005   3.368   4.316  0.3804 -0.7990  0.8244
 5099SOL     OW26929   0.667   1.015  11.784 -0.3844 -0.5056  0.8669
 5099SOL    HW126930   0.730   0.991  11.852 -2.5815  0.6061  3.2791
 5099SOL    HW226931   0.719   1.021  11.703 -1.2056  0.0674  0.3779
 5100SOL     OW26932   3.986   4.338   8.546 -0.1043 -0.0785 -0.4948
 5100SOL    HW126933   3.978   4.270   8.479  2.2863 -2.3943  1.5290
 5100SOL    HW226934   4.029   4.306   8.626 -1.4376  0.5210  0.4614
 5101SOL     OW26935   4.160   4.444   9.671  0.1672 -0.4361 -0.5376
 5101SOL    HW126936   4.143   4.405   9.757  2.5065 -0.7458 -0.2174
 5101SOL    HW226937   4.255   4.454   9.672  0.1604 -0.4219  0.2391
 5102SOL     OW26938   2.227   1.834   9.032 -0.2794 -0.3585  0.6347
 5102SOL    HW126939   2.305   1.818   9.083 -0.2082  0.2594  0.7274
 5102SOL    HW226940   2.266   1.911   8.990  2.2515 -0.9212  2.0212
 5103SOL     OW26941   1.033   1.236   6.233 -0.3974 -0.2679  0.1047
 5103SOL    HW126942   1.063   1.201   6.317  0.0064 -3.1723 -1.2626
 5103SOL    HW226943   1.035   1.159   6.176  0.5443 -0.5275  0.4971
 5104SOL     OW26944   2.834   2.689   9.061 -0.4304  0.0403 -0.2577
 5104SOL    HW126945   2.891   2.757   9.024 -0.2259 -0.8418 -1.5707
 5104SOL    HW226946   2.898   2.618   9.059 -1.9152 -1.3212  1.1657
 5105SOL     OW26947   1.922   1.694   0.527  0.2578  0.3896 -0.1145
 5105SOL    HW126948   1.934   1.756   0.599  2.8163 -0.2437  0.0237
 5105SOL    HW226949   1.868   1.758   0.480 -0.4211  1.9971  2.8572
 5106SOL     OW26950   2.733   1.823   3.463  0.4949 -0.1676  0.5310
 5106SOL    HW126951   2.738   1.811   3.368  0.2732 -1.0465  0.6274
 5106SOL    HW226952   2.777   1.907   3.470 -1.2895  0.8581 -0.4558
 5107SOL     OW26953   0.262   1.102   7.737  0.5045  0.1740  0.9784
 5107SOL    HW126954   0.204   1.088   7.662 -1.3746  0.1219  2.4374
 5107SOL    HW226955   0.347   1.070   7.706 -0.1062 -0.3388 -0.1639
 5108SOL     OW26956   4.364   2.361   8.907  0.7032  0.2066  0.0227
 5108SOL    HW126957   4.372   2.280   8.957  0.6529  0.7701  0.9482
 5108SOL    HW226958   4.389   2.337   8.818 -2.0597 -0.1838 -0.6469
 5109SOL     OW26959   0.518   0.711   1.159  0.0523 -0.2048  0.0992
 5109SOL    HW126960   0.598   0.762   1.147  0.6004 -1.0913 -0.0136
 5109SOL    HW226961   0.496   0.709   1.065  0.4304 -0.9735  0.0278
 5110SOL     OW26962   1.708   0.219   7.531 -0.5209  0.0952  0.2408
 5110SOL    HW126963   1.795   0.178   7.533 -0.4262  0.3312  0.9853
 5110SOL    HW226964   1.735   0.311   7.525 -0.0612 -0.0561  0.0011
 5111SOL     OW26965   1.597   2.753  10.673 -0.3425 -0.3809  0.4229
 5111SOL    HW126966   1.621   2.697  10.747  1.6387  1.3966  1.1258
 5111SOL    HW226967   1.619   2.840  10.707 -1.5652 -0.5854  1.7240
 5112SOL     OW26968   0.944   2.058  12.842 -0.0014 -0.5207 -0.3337
 5112SOL    HW126969   0.890   1.979  12.845  1.1547 -1.2411  1.5338
 5112SOL    HW226970   1.023   2.022  12.883  0.5459  1.0136 -0.0149
 5113SOL     OW26971   0.015   4.528   2.174 -0.4209 -0.0252  0.1417
 5113SOL    HW126972   0.031   4.622   2.170 -2.6684  0.3381  0.0971
 5113SOL    HW226973   4.701   4.531   2.255  1.5999  0.4742  1.4006
 5114SOL     OW26974   1.948   0.941   8.721 -0.0910 -0.3991  0.2538
 5114SOL    HW126975   1.985   1.019   8.680 -2.7995  0.3631 -0.7800
 5114SOL    HW226976   1.914   0.975   8.804 -0.6172  0.9373 -0.5058
 5115SOL     OW26977   0.385   1.956  17.729 -0.4311  0.5756  0.2805
 5115SOL    HW126978   0.365   1.863  17.744 -1.0820  0.9229  1.5825
 5115SOL    HW226979   0.425   1.941  17.644  0.7450  0.2506  0.8894
 5116SOL     OW26980   0.322   0.406   9.391 -0.5080 -0.5392  0.3678
 5116SOL    HW126981   0.251   0.376   9.334  0.1776  2.2424 -1.9499
 5116SOL    HW226982   0.264   0.435   9.461  0.8445 -0.5654  1.5115
 5117SOL     OW26983   0.926   4.336   6.538 -0.4839 -0.0457 -0.6195
 5117SOL    HW126984   0.892   4.251   6.568 -1.6774  1.1724  1.4629
 5117SOL    HW226985   0.886   4.405   6.591 -0.2505 -0.1068 -0.3657
 5118SOL     OW26986   3.670   0.593   3.321 -0.0665  0.3523 -0.0905
 5118SOL    HW126987   3.607   0.582   3.250 -0.9070 -1.8751  1.0006
 5118SOL    HW226988   3.662   0.687   3.337  2.3072  0.4659  0.3837
 5119SOL     OW26989   2.885   0.312   8.012 -0.2057 -0.3430 -0.7027
 5119SOL    HW126990   2.816   0.378   8.000 -0.4883 -0.1966  1.8981
 5119SOL    HW226991   2.942   0.371   8.063 -0.0243 -1.3164  0.2045
 5120SOL     OW26992   1.964   3.444   4.949  0.7108  0.8051  0.1997
 5120SOL    HW126993   1.876   3.483   4.949 -0.5287 -1.9861 -1.0549
 5120SOL    HW226994   1.941   3.363   4.904 -4.2805  1.4020  1.6568
 5121SOL     OW26995   3.708   1.766   0.540 -0.6463 -0.0836 -0.6312
 5121SOL    HW126996   3.722   1.671   0.536 -1.1722 -0.1802 -0.2446
 5121SOL    HW226997   3.618   1.777   0.509 -0.7776  0.4190 -0.0705
 5122SOL     OW26998   0.702   2.491  17.017 -0.1151  0.2122 -0.0360
 5122SOL    HW126999   0.629   2.551  17.005 -0.8134 -0.6482 -0.0735
 5122SOL    HW227000   0.728   2.500  17.109 -0.5303  0.4779  0.0538
 5123SOL     OW27001   2.702   1.391   9.466  0.6542 -0.1321  0.6011
 5123SOL    HW127002   2.759   1.357   9.535  1.2622  1.7644  1.0465
 5123SOL    HW227003   2.644   1.315   9.465  0.8334 -0.2516 -2.2502
 5124SOL     OW27004   3.178   1.675  10.196 -0.0396  0.3095 -0.7014
 5124SOL    HW127005   3.246   1.731  10.157  0.7086  0.9546  1.5718
 5124SOL    HW227006   3.103   1.694  10.139  0.9823 -0.0465 -2.1616
 5125SOL     OW27007   1.205   1.595   4.643 -0.1037 -0.1152  0.2145
 5125SOL    HW127008   1.211   1.669   4.702  0.5595 -0.9739  1.2263
 5125SOL    HW227009   1.192   1.524   4.706  0.8516 -0.5561 -0.0916
 5126SOL     OW27010   1.176   0.096  14.546  0.1803 -0.5755 -0.2427
 5126SOL    HW127011   1.170   0.176  14.495  1.8234 -0.6529 -0.5792
 5126SOL    HW227012   1.228   0.043  14.485  1.2027 -0.5185  0.5730
 5127SOL     OW27013   3.808   3.127   4.911 -0.1128 -0.2417 -0.0134
 5127SOL    HW127014   3.846   3.100   4.827  1.5616  3.5035 -0.4932
 5127SOL    HW227015   3.882   3.104   4.967 -1.3360 -0.4030  1.5258
 5128SOL     OW27016   0.825   2.935   5.335 -0.6493  0.3053 -0.4855
 5128SOL    HW127017   0.737   2.969   5.350 -0.3835  0.5245  0.6178
 5128SOL    HW227018   0.866   2.966   5.416  0.5742  1.3460 -1.5008
 5129SOL     OW27019   4.097   0.324  10.954  0.2239  0.3611  0.4335
 5129SOL    HW127020   4.117   0.347  11.044  0.9500 -0.3492  0.4567
 5129SOL    HW227021   4.156   0.378  10.901 -0.3234 -1.0205 -1.5815
 5130SOL     OW27022   3.583   0.060   5.193 -0.4809 -0.1815 -0.2072
 5130SOL    HW127023   3.563   0.022   5.278 -2.4442  1.0897 -0.1038
 5130SOL    HW227024   3.612   0.147   5.220  1.4940 -1.0292  0.4168
 5131SOL     OW27025   0.475   3.868   3.705  0.2370  0.5288 -0.3837
 5131SOL    HW127026   0.529   3.939   3.740  0.9424  0.9888 -2.3992
 5131SOL    HW227027   0.515   3.847   3.621 -0.0046 -2.4341  0.2396
 5132SOL     OW27028   3.670   1.626   6.694  0.3287  0.6201  0.1026
 5132SOL    HW127029   3.663   1.721   6.701  0.5175  0.5647  1.0319
 5132SOL    HW227030   3.757   1.609   6.728  1.1695 -0.2269 -2.4881
 5133SOL     OW27031   4.606   3.954  12.895 -0.2728 -0.5804  0.1809
 5133SOL    HW127032   4.661   4.000  12.832  1.5645 -1.4034  1.1747
 5133SOL    HW227033   4.544   4.023  12.917 -1.1461 -1.3621  0.2084
 5134SOL     OW27034   4.688   2.218  14.966  0.4273 -0.2025  0.3996
 5134SOL    HW127035   4.616   2.228  15.029  0.2821 -0.1501  0.2259
 5134SOL    HW227036   4.717   2.128  14.978  1.4049  0.0405 -0.1617
 5135SOL     OW27037   4.480   4.431   7.062  0.0972  0.2450 -0.1561
 5135SOL    HW127038   4.479   4.336   7.063  0.8493  0.2579  2.1076
 5135SOL    HW227039   4.407   4.451   7.121 -0.1213 -0.9227 -0.0458
 5136SOL     OW27040   0.925   4.301   2.876 -0.1318  0.0053 -0.6484
 5136SOL    HW127041   0.884   4.310   2.961 -0.1156 -0.8964 -0.5499
 5136SOL    HW227042   0.932   4.206   2.868 -0.9180 -0.2367  1.7099
 5137SOL     OW27043   3.112   3.311   9.092 -0.2052 -0.0162  0.4745
 5137SOL    HW127044   3.077   3.261   9.017  0.7517  2.8666 -1.8851
 5137SOL    HW227045   3.104   3.242   9.158  1.6010 -0.9229 -0.2643
 5138SOL     OW27046   1.196   2.836  16.455  0.2865 -0.5311 -0.3386
 5138SOL    HW127047   1.266   2.901  16.459  1.1045 -1.3171 -2.2207
 5138SOL    HW227048   1.126   2.881  16.407 -0.6724 -0.6021  0.9845
 5139SOL     OW27049   1.835   0.101   3.037  0.1836 -0.6773  0.5537
 5139SOL    HW127050   1.910   0.160   3.030 -0.5676  0.1053 -0.9664
 5139SOL    HW227051   1.844   0.062   2.950 -1.2297  0.5931 -0.1536
 5140SOL     OW27052   0.025   1.582   0.466 -0.4346  0.3785 -0.2780
 5140SOL    HW127053   0.002   1.511   0.407 -0.8129  0.1454  0.1538
 5140SOL    HW227054   4.687   1.641   0.461 -1.4253 -0.9395 -0.7318
 5141SOL     OW27055   4.537   4.197   9.197  0.1071  0.3783 -0.3097
 5141SOL    HW127056   4.491   4.281   9.190 -0.0671  0.3554  0.6160
 5141SOL    HW227057   4.469   4.132   9.209 -0.6174  1.0801 -0.5923
 5142SOL     OW27058   4.688   0.569   5.004 -0.0503  0.1817  0.1048
 5142SOL    HW127059   0.022   0.632   5.017  2.0885 -2.2998  0.4453
 5142SOL    HW227060   4.651   0.612   4.926  0.4113  1.7348  0.7321
 5143SOL     OW27061   0.952   2.460   9.997 -0.2029  0.1367 -0.1063
 5143SOL    HW127062   0.914   2.489  10.080  1.1052  0.4918  0.3601
 5143SOL    HW227063   0.926   2.528   9.935  1.0156 -0.1974 -0.9776
 5144SOL     OW27064   1.525   2.457   2.367  0.4711 -0.2654  0.2221
 5144SOL    HW127065   1.466   2.399   2.417 -0.6790  1.3058  0.6920
 5144SOL    HW227066   1.591   2.461   2.436  1.3656  1.2774 -0.7350
 5145SOL     OW27067   2.146   2.211   5.654 -0.4502 -0.1931 -0.2228
 5145SOL    HW127068   2.120   2.162   5.733 -0.3865 -0.0403 -0.1081
 5145SOL    HW227069   2.118   2.148   5.588 -0.7444 -0.7862  0.4651
 5146SOL     OW27070   0.921   2.566   2.564 -0.1219 -0.0397  0.7321
 5146SOL    HW127071   0.844   2.509   2.567  0.1416 -0.4063  0.5134
 5146SOL    HW227072   0.960   2.547   2.649 -2.4983  0.0894  1.8578
 5147SOL     OW27073   3.368   0.253   6.505  0.2471 -0.1045 -0.4582
 5147SOL    HW127074   3.419   0.213   6.574 -0.6096  0.9032  0.7605
 5147SOL    HW227075   3.428   0.323   6.479  0.3601 -0.8291 -2.1353
 5148SOL     OW27076   4.652   1.544   2.933 -0.3118  0.4233 -0.6113
 5148SOL    HW127077   0.007   1.569   2.922 -0.2222  0.8339  1.0472
 5148SOL    HW227078   4.635   1.524   2.841  2.7865  0.1572 -1.1042
 5149SOL     OW27079   4.165   3.295  11.880  0.6150 -0.5467  0.0171
 5149SOL    HW127080   4.215   3.216  11.904 -0.1119 -1.5371 -1.7115
 5149SOL    HW227081   4.108   3.260  11.812 -0.4887  0.3127  0.5099
 5150SOL     OW27082   0.727   1.389  11.235  0.2002  0.1101 -0.0202
 5150SOL    HW127083   0.647   1.435  11.260  0.8142  2.1278 -1.6633
 5150SOL    HW227084   0.718   1.378  11.140  0.2490  1.3553 -0.1689
 5151SOL     OW27085   4.092   2.360   1.846 -0.1888 -0.9474 -0.6439
 5151SOL    HW127086   3.999   2.341   1.831 -0.1344 -1.5084 -0.2599
 5151SOL    HW227087   4.141   2.280   1.833 -1.1742 -1.4091 -1.5454
 5152SOL     OW27088   0.400   1.977  11.230  0.3750 -0.0716  0.0641
 5152SOL    HW127089   0.369   1.980  11.321 -0.9394  0.4883 -0.4039
 5152SOL    HW227090   0.476   1.920  11.242  2.4233  2.6211 -0.1916
 5153SOL     OW27091   0.127   3.618  11.561 -0.3903  0.0831 -0.2911
 5153SOL    HW127092   0.113   3.529  11.528 -3.0598  0.3404  0.1226
 5153SOL    HW227093   0.049   3.665  11.531 -2.1789 -1.9302  1.2603
 5154SOL     OW27094   0.711   0.102  15.318 -0.1046 -0.1655 -0.0247
 5154SOL    HW127095   0.804   0.105  15.341  0.1593 -1.6604 -0.9117
 5154SOL    HW227096   0.707   0.055  15.235 -0.8031  1.5148 -0.9516
 5155SOL     OW27097   2.712   4.278   8.718 -0.1643  0.1590  0.2078
 5155SOL    HW127098   2.711   4.246   8.809 -1.1840  0.5112  0.3180
 5155SOL    HW227099   2.772   4.219   8.672 -3.0633 -1.2233 -1.7470
 5156SOL     OW27100   2.439   1.518   8.969  0.3067 -0.1881  0.2992
 5156SOL    HW127101   2.475   1.554   8.888  0.9345  0.4989  0.8933
 5156SOL    HW227102   2.351   1.494   8.939  1.0146  0.0089 -1.9377
 5157SOL     OW27103   2.276   1.725   1.899  0.1219 -0.6435 -0.0676
 5157SOL    HW127104   2.320   1.798   1.856 -0.3288  0.8235  1.9299
 5157SOL    HW227105   2.340   1.657   1.876 -0.3122 -0.2327 -2.4881
 5158SOL     OW27106   0.706   4.731   7.114 -0.2080  0.1883  0.1913
 5158SOL    HW127107   0.651   0.071   7.098  0.6840  1.1306  1.7077
 5158SOL    HW227108   0.748   0.011   7.198  1.4321 -1.4634 -0.3211
 5159SOL     OW27109   4.145   4.554  11.716 -0.3555  0.2184 -0.1709
 5159SOL    HW127110   4.087   4.528  11.788 -0.1586  1.0962  0.3023
 5159SOL    HW227111   4.219   4.593  11.761 -0.5120  0.4540 -0.1179
 5160SOL     OW27112   4.405   2.498   2.827  0.3687 -0.4483 -0.4638
 5160SOL    HW127113   4.380   2.574   2.775  0.4349  1.0013  1.6058
 5160SOL    HW227114   4.499   2.511   2.841  0.1602  0.7508 -0.2029
 5161SOL     OW27115   1.011   2.563   9.323 -0.0547  0.3688  0.3182
 5161SOL    HW127116   0.999   2.574   9.417  0.3040 -1.2044  0.5453
 5161SOL    HW227117   0.956   2.488   9.301 -1.5492  2.0625 -1.7564
 5162SOL     OW27118   0.544   3.553   9.404 -0.0007 -0.0305 -0.1601
 5162SOL    HW127119   0.633   3.530   9.431  0.5377  0.9796 -1.0682
 5162SOL    HW227120   0.542   3.649   9.414  1.9779 -0.3718  3.5201
 5163SOL     OW27121   2.085   1.626   9.091  0.1672 -0.1527 -0.5056
 5163SOL    HW127122   2.128   1.711   9.080  1.2175 -0.5071  0.7430
 5163SOL    HW227123   2.112   1.573   9.016 -0.6852 -1.5388  0.1686
 5164SOL     OW27124   2.486   1.466   5.398 -0.2011 -0.0345  0.2860
 5164SOL    HW127125   2.435   1.511   5.466  0.3230 -1.8860  1.9306
 5164SOL    HW227126   2.440   1.493   5.319 -1.3269 -1.8829  0.3015
 5165SOL     OW27127   4.382   0.581  12.070 -0.2926 -0.3399 -0.1945
 5165SOL    HW127128   4.420   0.575  12.157 -1.5298 -0.0194  0.3691
 5165SOL    HW227129   4.452   0.559  12.009  1.1064 -1.5828  1.8688
 5166SOL     OW27130   2.093   2.948   2.530 -0.0185  0.1840 -0.0803
 5166SOL    HW127131   2.136   2.863   2.520  1.0930  0.5548  1.5009
 5166SOL    HW227132   2.132   3.010   2.469 -1.4736  0.0913 -1.0944
 5167SOL     OW27133   2.875   1.626   9.568  0.2711  0.5692 -0.2656
 5167SOL    HW127134   2.868   1.536   9.537 -0.2088  0.5289 -0.0417
 5167SOL    HW227135   2.963   1.631   9.603  0.2861  2.4877 -0.5665
 5168SOL     OW27136   3.089   0.576   7.076  0.0733  0.3125  0.0593
 5168SOL    HW127137   3.127   0.663   7.089 -1.3977  1.1365 -1.0543
 5168SOL    HW227138   3.140   0.519   7.133 -0.9731 -0.0796  0.6192
 5169SOL     OW27139   3.322   4.335  16.573  0.4628  0.5211 -0.3077
 5169SOL    HW127140   3.255   4.375  16.629  2.5161  1.0796  1.7167
 5169SOL    HW227141   3.381   4.303  16.641 -1.7768 -0.4220  1.1934
 5170SOL     OW27142   1.014   1.130   8.127  0.0641 -0.1163 -0.3740
 5170SOL    HW127143   0.938   1.167   8.084  1.0691  1.0561 -1.1239
 5170SOL    HW227144   1.023   1.198   8.194  3.4639 -0.0721 -0.8906
 5171SOL     OW27145   2.958   1.528  10.330  0.1022 -0.6066 -0.0698
 5171SOL    HW127146   2.979   1.435  10.315  1.5552 -0.0969 -1.2246
 5171SOL    HW227147   3.032   1.569  10.285  1.0422 -2.9759 -0.6828
 5172SOL     OW27148   2.098   1.070   4.109 -0.1075 -0.0689 -0.0502
 5172SOL    HW127149   2.013   1.030   4.093 -0.4399  0.5596  0.1282
 5172SOL    HW227150   2.161   0.998   4.102  2.6180  2.2603  0.2099
 5173SOL     OW27151   1.184   1.618  13.510 -0.0092  0.1314 -0.0910
 5173SOL    HW127152   1.129   1.694  13.490  0.7136  0.8110  0.5092
 5173SOL    HW227153   1.211   1.637  13.600 -0.7667  2.1757 -0.3008
 5174SOL     OW27154   2.286   0.877  13.290  0.1182  0.8047  0.0401
 5174SOL    HW127155   2.363   0.924  13.257  0.0099 -1.2715 -3.2053
 5174SOL    HW227156   2.268   0.826  13.211  2.5888 -1.4761  0.9927
 5175SOL     OW27157   1.557   0.807  14.886 -0.1223 -0.5649  0.6811
 5175SOL    HW127158   1.549   0.719  14.922 -1.1847  0.1474  2.2155
 5175SOL    HW227159   1.621   0.848  14.945  0.6117 -0.3083 -0.2886
 5176SOL     OW27160   2.116   3.348   6.486 -0.0624 -0.2451 -0.5898
 5176SOL    HW127161   2.051   3.298   6.437  0.3140 -0.1392 -1.1991
 5176SOL    HW227162   2.134   3.404   6.411  1.3459  1.1119  0.7429
 5177SOL     OW27163   2.731   1.989   0.249 -0.0631  0.2137 -0.0478
 5177SOL    HW127164   2.657   1.998   0.309  0.6306  1.4307  0.6290
 5177SOL    HW227165   2.702   1.915   0.196 -2.0857  0.5549  0.5851
 5178SOL     OW27166   4.345   0.771   6.181  0.1479  0.2938  0.5980
 5178SOL    HW127167   4.265   0.718   6.176  0.6959 -0.5613  0.9910
 5178SOL    HW227168   4.363   0.794   6.090  0.5821  2.0268  1.1337
 5179SOL     OW27169   4.177   3.231   9.758 -0.2100  0.1488 -0.3964
 5179SOL    HW127170   4.135   3.259   9.839  0.4185  1.4141 -0.5044
 5179SOL    HW227171   4.231   3.153   9.769 -0.0816  0.3920  0.7195
 5180SOL     OW27172   0.131   4.527   7.075  0.7883 -0.1416 -0.0536
 5180SOL    HW127173   0.119   4.474   7.154  1.4776 -1.6830 -0.9883
 5180SOL    HW227174   0.122   4.613   7.116  0.9991  0.0958 -0.5063
 5181SOL     OW27175   0.072   4.243   2.987  0.3222  0.3625 -0.1052
 5181SOL    HW127176   0.003   4.195   3.032  0.8340  0.9458  1.3043
 5181SOL    HW227177   0.124   4.172   2.950 -0.3799 -0.7898  1.1219
 5182SOL     OW27178   2.426   4.588   1.626  0.0086  0.2497  0.1875
 5182SOL    HW127179   2.374   4.569   1.548  1.0413  1.4759 -0.8086
 5182SOL    HW227180   2.356   4.607   1.689 -0.0921  0.4450  0.0179
 5183SOL     OW27181   2.222   1.717  10.187  0.2614 -0.6539  0.5071
 5183SOL    HW127182   2.156   1.779  10.155  2.0500 -0.2996 -2.4809
 5183SOL    HW227183   2.229   1.754  10.275  0.4935  1.2904 -0.3220
 5184SOL     OW27184   1.292   0.133  10.968  0.5042 -0.0047  0.3645
 5184SOL    HW127185   1.275   0.070  11.037 -0.0173  1.3395  1.4668
 5184SOL    HW227186   1.353   0.088  10.909  1.5551  2.5031 -0.4843
 5185SOL     OW27187   1.248   2.642   8.083  0.0077 -0.0038 -0.2330
 5185SOL    HW127188   1.241   2.573   8.149  0.8145 -1.8564 -2.1283
 5185SOL    HW227189   1.174   2.702   8.100  0.4543  0.2798  0.7274
 5186SOL     OW27190   0.062   4.029  16.221  0.2802 -0.4844  0.7749
 5186SOL    HW127191   0.091   3.945  16.185 -0.8413 -0.7676  0.5033
 5186SOL    HW227192   0.137   4.061  16.270  0.1614  0.1256  0.5541
 5187SOL     OW27193   4.527   3.698   7.446 -0.5114  0.3523  0.4071
 5187SOL    HW127194   4.477   3.632   7.399  2.3534  0.8120 -3.3317
 5187SOL    HW227195   4.505   3.681   7.537  3.1971 -3.9455  0.5150
 5188SOL     OW27196   2.188   2.139   2.135  0.3293 -0.1661 -0.0054
 5188SOL    HW127197   2.187   2.125   2.040 -4.2401 -0.6776  0.1384
 5188SOL    HW227198   2.161   2.229   2.150  0.5097 -0.2059  0.5497
 5189SOL     OW27199   0.272   1.393   0.564 -0.1346 -0.3768 -0.0910
 5189SOL    HW127200   0.242   1.403   0.473  1.2176 -2.7071 -0.7940
 5189SOL    HW227201   0.250   1.481   0.595 -0.6720 -1.4385  2.5649
 5190SOL     OW27202   3.651   4.007   6.753 -0.7976  0.1675 -0.2356
 5190SOL    HW127203   3.617   4.089   6.717  1.1792  0.4924 -1.3358
 5190SOL    HW227204   3.572   3.972   6.795 -0.4205 -0.1686  0.1855
 5191SOL     OW27205   3.265   0.549   6.840  0.4767 -0.0662 -0.0991
 5191SOL    HW127206   3.322   0.483   6.880  0.5006  0.0492  0.0578
 5191SOL    HW227207   3.202   0.565   6.910  0.5594 -2.8250  0.6108
 5192SOL     OW27208   1.228   1.666   3.359 -0.0409 -0.1821 -0.7366
 5192SOL    HW127209   1.227   1.603   3.431  0.3530 -0.8191 -1.2832
 5192SOL    HW227210   1.155   1.626   3.312 -1.1117  0.5086  0.3504
 5193SOL     OW27211   0.806   1.569   5.650 -0.0241  0.3522 -0.0558
 5193SOL    HW127212   0.823   1.476   5.661 -2.9174  0.0680  2.0593
 5193SOL    HW227213   0.756   1.580   5.731 -0.5369  0.5200 -0.3977
 5194SOL     OW27214   0.575   3.941  17.309  0.7012 -0.1133  0.3761
 5194SOL    HW127215   0.490   3.904  17.330  0.2735  2.3605  3.0010
 5194SOL    HW227216   0.551   4.031  17.329  0.1573 -0.5192  1.5075
 5195SOL     OW27217   2.082   4.654   4.538  0.1959 -0.4559  0.6546
 5195SOL    HW127218   2.126   4.736   4.559  2.4628 -1.4614 -0.1321
 5195SOL    HW227219   2.129   4.590   4.591  1.5095 -0.0791 -0.0665
 5196SOL     OW27220   0.401   1.856   2.528  0.2757  0.6427 -0.7927
 5196SOL    HW127221   0.398   1.821   2.617  1.4716  0.0274 -0.9982
 5196SOL    HW227222   0.313   1.886   2.508  0.1832 -0.9903 -2.8592
 5197SOL     OW27223   2.067   0.316   8.115  0.3851  0.6994  0.1050
 5197SOL    HW127224   2.071   0.348   8.025  0.3792  0.3662 -0.0118
 5197SOL    HW227225   2.027   0.389   8.163  0.4171  0.8263 -0.0605
 5198SOL     OW27226   2.583   2.147  17.195  1.2533 -0.1470 -0.0573
 5198SOL    HW127227   2.508   2.162  17.253  1.7199  1.4828  0.1191
 5198SOL    HW227228   2.643   2.214  17.228  0.7638 -1.0587  2.7441
 5199SOL     OW27229   2.322   2.511   4.923 -0.8010  0.8774  0.0005
 5199SOL    HW127230   2.290   2.499   5.012 -1.2139 -1.8469 -0.5095
 5199SOL    HW227231   2.292   2.601   4.914  0.7253  1.3549 -0.3424
 5200SOL     OW27232   3.457   2.884   6.316  0.3408 -0.8816  0.3346
 5200SOL    HW127233   3.386   2.943   6.291  0.0114 -1.8589 -1.0255
 5200SOL    HW227234   3.527   2.915   6.259  0.7242 -4.1414 -0.9381
 5201SOL     OW27235   4.290   1.850   8.173  0.2069  0.2374 -0.0710
 5201SOL    HW127236   4.256   1.766   8.143 -0.7910  1.1932 -1.6168
 5201SOL    HW227237   4.376   1.813   8.191  0.8598  2.0952  0.6274
 5202SOL     OW27238   0.115   4.335   4.113 -0.0997 -0.1878 -0.1747
 5202SOL    HW127239   0.020   4.332   4.126 -0.1766  1.7903 -0.3359
 5202SOL    HW227240   0.120   4.428   4.094 -2.1327  0.2026  1.1838
 5203SOL     OW27241   1.848   0.022   5.136 -0.1441  0.1307 -0.0179
 5203SOL    HW127242   1.890   4.701   5.073 -0.0905 -0.1217  0.2492
 5203SOL    HW227243   1.882   0.108   5.110 -1.7335  0.2111 -1.8663
 5204SOL     OW27244   3.268   3.891   7.281 -0.2897 -1.1229  0.1914
 5204SOL    HW127245   3.325   3.967   7.273 -1.4978 -0.0334  1.9388
 5204SOL    HW227246   3.192   3.933   7.239  0.2672 -0.6275 -0.3183
 5205SOL     OW27247   4.673   2.262  14.703 -0.1489  0.0533 -0.1368
 5205SOL    HW127248   4.704   2.348  14.675  1.7410 -0.3253  0.8112
 5205SOL    HW227249   4.670   2.256  14.798  1.6856  2.1222  0.0460
 5206SOL     OW27250   0.093   2.180   0.212  0.4692 -0.4694  0.9343
 5206SOL    HW127251   0.042   2.259   0.231  0.7214  0.1010 -0.7598
 5206SOL    HW227252   0.093   2.167   0.117  0.4491 -1.3558  1.0504
 5207SOL     OW27253   1.413   3.672   8.153 -0.3964  0.3403  0.1040
 5207SOL    HW127254   1.412   3.597   8.094 -2.6463 -1.1045  1.9804
 5207SOL    HW227255   1.475   3.734   8.114 -0.2279 -0.8403 -1.5281
 5208SOL     OW27256   1.198   0.450   3.933  0.1612  0.0195  0.0902
 5208SOL    HW127257   1.181   0.543   3.940 -0.9889 -0.0528 -1.7964
 5208SOL    HW227258   1.111   0.413   3.916 -0.2027  1.6116 -1.4814
 5209SOL     OW27259   2.164   3.870  10.442  0.3015 -0.8299 -0.2354
 5209SOL    HW127260   2.082   3.839  10.404 -0.8177 -0.5603  1.9061
 5209SOL    HW227261   2.149   3.851  10.535 -2.2904 -2.1177 -0.9077
 5210SOL     OW27262   4.309   2.614   3.042  0.4407  0.0076  0.1659
 5210SOL    HW127263   4.388   2.570   3.073  0.9012 -0.1402 -1.2231
 5210SOL    HW227264   4.304   2.571   2.957 -2.0573  0.8602 -0.1163
 5211SOL     OW27265   4.567   3.077   7.450 -0.6365  0.4610 -0.1149
 5211SOL    HW127266   4.510   3.032   7.389  0.2805 -0.6561 -0.1481
 5211SOL    HW227267   4.554   3.168   7.424 -2.4161  0.3460  0.3986
 5212SOL     OW27268   1.288   0.982   7.061 -0.6791 -0.2422  0.7559
 5212SOL    HW127269   1.372   0.965   7.019 -1.0959  0.3536 -0.3146
 5212SOL    HW227270   1.232   0.950   6.991 -1.8202  1.9427  0.6616
 5213SOL     OW27271   0.703   1.316   8.646  0.0624 -0.1397 -0.5062
 5213SOL    HW127272   0.636   1.359   8.594 -1.4696  0.0969  1.6656
 5213SOL    HW227273   0.672   1.318   8.736  2.0357  0.6868  0.1585
 5214SOL     OW27274   0.132   2.622  13.328 -0.4495 -0.0079 -0.2273
 5214SOL    HW127275   0.226   2.608  13.335 -0.1724  2.4609  1.1920
 5214SOL    HW227276   0.103   2.534  13.304 -0.6285 -0.3233  1.1568
 5215SOL     OW27277   2.492   3.851   7.851  0.2748 -0.6170 -0.0389
 5215SOL    HW127278   2.472   3.800   7.930  0.2984  0.6380  0.7790
 5215SOL    HW227279   2.518   3.935   7.889 -1.2132  0.2794 -1.0052
 5216SOL     OW27280   1.303   2.169   8.912  0.4956 -0.1065 -0.3149
 5216SOL    HW127281   1.255   2.246   8.945 -1.4455 -1.4718  0.0743
 5216SOL    HW227282   1.233   2.107   8.933 -0.6479  1.4283  0.4265
 5217SOL     OW27283   0.748   0.770  12.431 -0.5024 -0.8947  0.1978
 5217SOL    HW127284   0.810   0.830  12.473 -0.3072 -1.8759  1.3417
 5217SOL    HW227285   0.713   0.831  12.367 -2.5333 -2.7455 -0.4515
 5218SOL     OW27286   2.559   3.314   7.306  0.1759  0.7010  0.3895
 5218SOL    HW127287   2.517   3.396   7.281 -1.1885 -0.4951 -1.2195
 5218SOL    HW227288   2.577   3.280   7.218  0.0556  3.2741 -0.6193
 5219SOL     OW27289   4.323   4.309  12.113  0.4042  0.7329 -0.3202
 5219SOL    HW127290   4.374   4.228  12.103  2.8038  2.3852 -1.6318
 5219SOL    HW227291   4.235   4.272  12.119  0.6376  0.1310 -0.5017
 5220SOL     OW27292   2.504   1.779  17.574  0.2876 -0.4684 -0.5268
 5220SOL    HW127293   2.583   1.768  17.522 -0.4093 -0.6526 -1.5450
 5220SOL    HW227294   2.470   1.867  17.556  2.8972  0.7776  0.6790
 5221SOL     OW27295   0.134   0.236   6.864  0.0513  0.2678 -0.5176
 5221SOL    HW127296   0.111   0.294   6.791  0.8150  1.7233  0.4148
 5221SOL    HW227297   0.227   0.227   6.844 -0.1185  0.1829 -1.2796
 5222SOL     OW27298   4.216   3.086   3.730  0.6069  0.2298 -0.1637
 5222SOL    HW127299   4.243   3.171   3.695 -0.7763  1.3357  1.4650
 5222SOL    HW227300   4.278   3.078   3.802  0.6704  2.4392  0.0267
 5223SOL     OW27301   0.999   3.925   7.645 -0.6413 -0.0220  0.8656
 5223SOL    HW127302   0.911   3.914   7.680 -0.4464 -0.4713  1.2232
 5223SOL    HW227303   1.030   3.834   7.656  0.0283  0.2975  1.6311
 5224SOL     OW27304   2.709   2.488  11.048  0.3159 -0.3000 -0.3941
 5224SOL    HW127305   2.764   2.434  10.991  0.2970 -1.3595  0.5809
 5224SOL    HW227306   2.666   2.416  11.094  0.0414 -1.2906 -2.1713
 5225SOL     OW27307   3.567   0.246   6.023 -0.3788 -0.2869  0.1650
 5225SOL    HW127308   3.635   0.312   6.006 -1.1911 -0.5089 -3.7623
 5225SOL    HW227309   3.618   0.177   6.066 -0.2839  1.0564  2.2363
 5226SOL     OW27310   2.730   2.851   8.758  0.4895  0.1459  0.0332
 5226SOL    HW127311   2.638   2.827   8.765  0.4436  0.7127  1.3790
 5226SOL    HW227312   2.760   2.882   8.843 -0.5487 -0.1781  0.5154
 5227SOL     OW27313   2.505   0.354   7.626  0.2173  0.4287  0.6103
 5227SOL    HW127314   2.456   0.328   7.548  2.3685 -1.7560  0.0003
 5227SOL    HW227315   2.590   0.332   7.588  0.5689  2.2325  0.3696
 5228SOL     OW27316   1.595   3.850  10.781  0.1139  0.2156  0.2567
 5228SOL    HW127317   1.670   3.792  10.783 -0.4074 -0.5505 -2.4236
 5228SOL    HW227318   1.538   3.799  10.724 -0.2867  0.5143  0.3833
 5229SOL     OW27319   0.958   1.315   6.654 -0.2433  0.5491  0.0797
 5229SOL    HW127320   1.038   1.350   6.693  1.0714  0.4790 -2.5519
 5229SOL    HW227321   0.892   1.379   6.681 -1.0642  0.0355 -0.7255
 5230SOL     OW27322   1.859   4.376   0.044  0.2146  0.0941 -0.0891
 5230SOL    HW127323   1.861   4.453  17.732 -1.4366 -0.0465 -0.3372
 5230SOL    HW227324   1.841   4.305  17.727 -1.1146  0.2723  0.1033
 5231SOL     OW27325   2.272   1.427   9.575  0.7560 -0.0558 -0.0985
 5231SOL    HW127326   2.199   1.431   9.514  2.3542  0.4865 -1.9821
 5231SOL    HW227327   2.287   1.511   9.618  1.1755 -1.6174  2.8215
 5232SOL     OW27328   0.455   0.655  16.553  0.7766 -0.2834 -0.5026
 5232SOL    HW127329   0.482   0.650  16.644 -0.7478 -2.1385 -0.1586
 5232SOL    HW227330   0.485   0.566  16.533 -0.0905 -0.5174 -0.7266
 5233SOL     OW27331   0.415   3.948   2.062  0.3066 -0.1830 -0.7334
 5233SOL    HW127332   0.361   3.887   2.012 -1.1629  0.1990  0.3869
 5233SOL    HW227333   0.467   3.877   2.100 -0.2617  0.6822  1.6645
 5234SOL     OW27334   4.504   2.303   6.900 -0.0115 -0.8557  0.1076
 5234SOL    HW127335   4.541   2.392   6.902  1.1849 -1.2919 -2.8185
 5234SOL    HW227336   4.513   2.280   6.993 -0.2389  2.1082  0.8702
 5235SOL     OW27337   2.139   4.211   6.290 -0.2013  0.3102 -0.1768
 5235SOL    HW127338   2.185   4.289   6.260 -0.8943  0.9256  0.3358
 5235SOL    HW227339   2.121   4.229   6.383 -1.4371 -1.1591 -0.1265
 5236SOL     OW27340   2.956   4.696   6.061  0.1168  0.1882 -0.0821
 5236SOL    HW127341   3.008   0.033   6.029 -0.7949  1.5669  1.6124
 5236SOL    HW227342   2.957   4.712   6.155  0.1189 -0.2969  0.0023
 5237SOL     OW27343   0.639   3.902  11.748  0.2511  0.0627  0.2073
 5237SOL    HW127344   0.643   3.989  11.788 -0.7666  1.1037 -1.9574
 5237SOL    HW227345   0.602   3.845  11.816  0.9053 -2.3772 -1.4894
 5238SOL     OW27346   3.910   3.536   9.699  0.5530 -0.0268 -0.0064
 5238SOL    HW127347   3.859   3.479   9.640 -0.2555  2.1161 -1.4122
 5238SOL    HW227348   3.843   3.554   9.765  0.7492  1.8284 -0.3160
 5239SOL     OW27349   0.455   1.345   2.673 -0.1288  0.3225  0.0700
 5239SOL    HW127350   0.533   1.383   2.632 -0.9038  0.0150 -1.6448
 5239SOL    HW227351   0.407   1.425   2.694  1.0113  1.2717 -0.9357
 5240SOL     OW27352   1.265   2.971  12.831 -0.2650 -0.2879 -0.4291
 5240SOL    HW127353   1.222   2.934  12.908 -1.3144 -0.2850 -1.0045
 5240SOL    HW227354   1.201   2.942  12.765  2.6692 -0.2435 -3.3074
 5241SOL     OW27355   0.797   2.763   8.994  0.4688 -0.4856  0.3866
 5241SOL    HW127356   0.702   2.765   8.988  0.6100  0.2864 -1.6993
 5241SOL    HW227357   0.827   2.815   8.919 -1.5491 -0.7370 -0.5906
 5242SOL     OW27358   2.838   3.181   1.685 -0.3856 -0.5143 -0.0874
 5242SOL    HW127359   2.861   3.192   1.777  2.0269 -0.7263 -0.6613
 5242SOL    HW227360   2.743   3.174   1.695 -0.7795  2.6164 -1.6194
 5243SOL     OW27361   4.630   1.044   9.496 -0.5043  0.0755 -0.2383
 5243SOL    HW127362   4.718   1.075   9.519  0.1160 -1.2027 -0.8966
 5243SOL    HW227363   4.625   1.070   9.405  0.1250 -0.4661 -0.4295
 5244SOL     OW27364   3.989   4.642   8.845 -0.2712  0.3208  0.1972
 5244SOL    HW127365   3.957   4.622   8.757  1.6427  0.3869 -0.5079
 5244SOL    HW227366   4.053   4.706   8.814  1.9052 -1.1522  1.7254
 5245SOL     OW27367   3.799   3.049   9.153  0.2725 -0.6577 -0.0449
 5245SOL    HW127368   3.723   3.069   9.097  1.0355 -2.5823 -1.7807
 5245SOL    HW227369   3.860   3.073   9.083 -0.6222  1.4497 -0.1120
 5246SOL     OW27370   4.210   2.219   7.674  0.1351 -0.1614 -0.1826
 5246SOL    HW127371   4.238   2.128   7.666 -1.5069 -0.5763 -1.2891
 5246SOL    HW227372   4.290   2.271   7.673 -0.3495  0.6437  2.9765
 5247SOL     OW27373   1.753   0.977   6.771 -1.0997  0.2355 -0.4840
 5247SOL    HW127374   1.789   0.888   6.772 -0.7965  0.3591 -0.2990
 5247SOL    HW227375   1.773   1.001   6.681 -1.6818 -1.0790 -0.9653
 5248SOL     OW27376   0.497   1.617   7.505 -0.4633 -0.7032 -0.3094
 5248SOL    HW127377   0.433   1.663   7.450 -1.6039  1.0526  2.4453
 5248SOL    HW227378   0.504   1.528   7.470 -2.5494 -0.1526 -2.1086
 5249SOL     OW27379   0.749   0.935   3.786 -0.1294  0.8377  0.6047
 5249SOL    HW127380   0.659   0.917   3.815 -0.4298  2.0405  0.3979
 5249SOL    HW227381   0.749   0.865   3.720  1.0035  1.8832 -0.4983
 5250SOL     OW27382   2.383   3.182   3.112 -0.1324 -0.4370 -0.5007
 5250SOL    HW127383   2.327   3.114   3.074 -1.1104  0.5608 -0.8659
 5250SOL    HW227384   2.415   3.140   3.192 -2.8030  0.9108  1.2824
 5251SOL     OW27385   1.664   0.410  16.436 -0.1093  0.0452  0.0914
 5251SOL    HW127386   1.659   0.344  16.505 -1.4655 -0.5464 -0.5700
 5251SOL    HW227387   1.694   0.358  16.362  0.2890 -0.1038  0.3577
 5252SOL     OW27388   3.555   2.038   3.448 -0.1651  0.0232 -0.2694
 5252SOL    HW127389   3.492   1.983   3.495 -1.3940  2.2629  0.7134
 5252SOL    HW227390   3.605   1.976   3.394  0.0147 -0.1453  0.0840
 5253SOL     OW27391   1.728   1.697   4.949 -0.6802 -0.3268 -0.4337
 5253SOL    HW127392   1.693   1.608   4.949 -0.9133 -0.2320  1.2985
 5253SOL    HW227393   1.769   1.710   5.034  0.4251 -1.2675 -0.8363
 5254SOL     OW27394   2.233   2.728   9.374  0.2552 -0.2483 -0.6209
 5254SOL    HW127395   2.185   2.804   9.342 -0.7448  0.2127  1.9632
 5254SOL    HW227396   2.222   2.726   9.469 -0.1943 -1.5525 -0.6994
 5255SOL     OW27397   3.997   0.048   2.975  0.6220 -0.4053 -0.2199
 5255SOL    HW127398   3.939   0.124   2.971  1.1429  0.0683  1.4089
 5255SOL    HW227399   4.073   0.069   2.921  0.8635 -0.1220  0.2352
 5256SOL     OW27400   3.937   3.011   5.858  0.7592 -0.0827 -0.0242
 5256SOL    HW127401   3.859   3.040   5.809 -0.4994  1.1316  2.6950
 5256SOL    HW227402   3.921   2.918   5.845 -2.3119  0.4592 -0.2315
 5257SOL     OW27403   2.658   0.694   0.142  0.2196  0.2551  0.1541
 5257SOL    HW127404   2.737   0.674   0.091 -1.4850 -0.9141 -2.0580
 5257SOL    HW227405   2.638   0.608   0.180  1.9174 -0.3746 -0.3770
 5258SOL     OW27406   2.615   0.774   6.920  0.1826 -0.0827 -0.1936
 5258SOL    HW127407   2.642   0.864   6.904 -0.4632  0.2320  0.4817
 5258SOL    HW227408   2.689   0.743   6.973 -0.3550  1.2080  1.3120
 5259SOL     OW27409   4.594   0.797   4.477  0.0407 -0.2641 -0.1147
 5259SOL    HW127410   4.577   0.758   4.391  0.6529  0.6666 -0.6605
 5259SOL    HW227411   4.655   0.867   4.454  0.0388 -0.2609 -0.1096
 5260SOL     OW27412   1.151   1.216   5.882  0.8762  0.1549  0.3685
 5260SOL    HW127413   1.144   1.281   5.952 -0.2184 -0.3294  0.7079
 5260SOL    HW227414   1.216   1.155   5.919  3.4878  2.4080 -0.4917
 5261SOL     OW27415   2.078   0.206   3.384 -0.1860  0.3784 -0.2339
 5261SOL    HW127416   2.071   0.126   3.436 -0.3606 -0.7168 -1.9563
 5261SOL    HW227417   1.991   0.244   3.393 -0.7723 -0.6472 -1.6629
 5262SOL     OW27418   3.990   4.630   4.467  0.6220 -0.2236 -0.5074
 5262SOL    HW127419   3.912   4.681   4.445  0.4047 -1.0647 -1.7337
 5262SOL    HW227420   3.957   4.540   4.475  0.1251  0.4001  3.9339
 5263SOL     OW27421   4.267   1.512   8.404  0.2165 -0.2359  0.7579
 5263SOL    HW127422   4.207   1.586   8.409 -0.4166 -0.7866  1.4375
 5263SOL    HW227423   4.204   1.440   8.393 -0.2840  0.0148  1.9628
 5264SOL     OW27424   4.460   1.778   4.209 -0.9650  0.2603  0.0319
 5264SOL    HW127425   4.486   1.827   4.287  0.9867 -1.3727  0.4110
 5264SOL    HW227426   4.534   1.795   4.151 -1.0509 -1.0186 -0.4578
 5265SOL     OW27427   0.088   2.252   3.099  0.6217  0.0851 -0.3847
 5265SOL    HW127428   0.121   2.228   3.185  3.8312  0.8993 -1.3894
 5265SOL    HW227429   0.023   2.186   3.077 -0.6797  1.4881 -0.8038
 5266SOL     OW27430   0.977   3.489   2.012 -0.2306 -0.0488 -0.2043
 5266SOL    HW127431   0.925   3.409   2.020  2.6873 -1.9291  0.1819
 5266SOL    HW227432   1.000   3.492   1.919  0.8459  3.8786  0.1999
 5267SOL     OW27433   2.284   1.477   9.261  0.0954  0.4083 -0.0932
 5267SOL    HW127434   2.350   1.533   9.302 -3.8025  3.2322  2.3840
 5267SOL    HW227435   2.305   1.482   9.168 -2.1052 -0.8363 -0.6629
 5268SOL     OW27436   2.506   4.205   1.931  0.0905  0.5037  0.1441
 5268SOL    HW127437   2.439   4.250   1.980  1.6422  2.7329  0.2216
 5268SOL    HW227438   2.497   4.120   1.973  1.3011  0.7249  0.8616
 5269SOL     OW27439   0.957   1.545   8.497  0.1819 -0.6720  0.1984
 5269SOL    HW127440   0.866   1.555   8.469  0.3248 -1.2619 -0.4785
 5269SOL    HW227441   0.947   1.465   8.548 -0.2456 -0.4939  0.3894
 5270SOL     OW27442   4.428   3.374  15.445  0.0153 -0.5267  0.0804
 5270SOL    HW127443   4.340   3.375  15.407  0.5461 -0.8567 -1.1236
 5270SOL    HW227444   4.479   3.414  15.375 -0.0488 -0.1496  0.2452
 5271SOL     OW27445   3.732   2.144   0.303  0.7486 -0.6340 -0.3407
 5271SOL    HW127446   3.638   2.154   0.295  0.7084 -0.5656  0.1692
 5271SOL    HW227447   3.764   2.168   0.216 -0.6973 -0.1064 -0.7160
 5272SOL     OW27448   3.087   4.241   8.053  0.3432  0.1201  1.1374
 5272SOL    HW127449   3.013   4.297   8.076  0.0169 -0.5035  1.6225
 5272SOL    HW227450   3.102   4.276   7.965 -1.3883  2.9976  2.0068
 5273SOL     OW27451   0.772   4.133   4.045 -0.4671 -0.0442  0.1963
 5273SOL    HW127452   0.766   4.038   4.034  3.2999 -0.3155  0.6671
 5273SOL    HW227453   0.708   4.160   3.979 -2.4005 -0.3008  1.9618
 5274SOL     OW27454   0.506   1.429   5.050 -0.3124 -0.1618 -0.7123
 5274SOL    HW127455   0.505   1.518   5.016 -0.2218 -0.6013 -1.8567
 5274SOL    HW227456   0.533   1.440   5.141 -2.6471  2.7586 -0.3747
 5275SOL     OW27457   0.135   0.773   7.693  0.2256  0.8036  0.4181
 5275SOL    HW127458   0.161   0.754   7.783  2.1341  0.6782 -0.1569
 5275SOL    HW227459   0.161   0.697   7.642  1.2311  1.0473  0.5622
 5276SOL     OW27460   3.125   2.972   6.753  1.0640  0.2348  0.0350
 5276SOL    HW127461   3.037   2.975   6.791  0.6559 -0.8526 -0.8246
 5276SOL    HW227462   3.173   3.034   6.806  2.4159  0.4239 -1.4151
 5277SOL     OW27463   3.893   3.332   2.716  0.6269 -0.4276  0.2499
 5277SOL    HW127464   3.851   3.411   2.751 -1.2404 -1.4058  0.2556
 5277SOL    HW227465   3.878   3.263   2.780  0.6422 -1.3725 -0.7711
 5278SOL     OW27466   0.107   2.355  13.262 -0.1297 -0.1110 -0.0939
 5278SOL    HW127467   0.200   2.375  13.248  0.7511 -2.7615  1.9910
 5278SOL    HW227468   0.078   2.346  13.172  1.5061 -0.3328 -0.6056
 5279SOL     OW27469   3.717   0.015  11.384  0.0325  0.0355 -0.1750
 5279SOL    HW127470   3.622   0.016  11.380  0.0234 -0.0213  0.0107
 5279SOL    HW227471   3.737   4.731  11.475  2.8145 -2.1497 -1.2431
 5280SOL     OW27472   1.182   2.803   6.226  0.7460 -0.0268 -0.2684
 5280SOL    HW127473   1.119   2.855   6.177  2.2436  2.0855  0.0330
 5280SOL    HW227474   1.202   2.745   6.153 -0.4043 -0.9046  0.1117
 5281SOL     OW27475   0.404   3.942   8.546 -0.5138  0.2282  0.1988
 5281SOL    HW127476   0.349   4.020   8.554  0.3883  0.6272  2.4267
 5281SOL    HW227477   0.446   3.963   8.462  2.0512 -1.1060  1.1447
 5282SOL     OW27478   4.205   1.227   7.485  0.1890  0.2323  0.4212
 5282SOL    HW127479   4.227   1.208   7.576  0.4597  1.6061  0.6326
 5282SOL    HW227480   4.170   1.316   7.492  0.4395  0.1991  2.0828
 5283SOL     OW27481   3.388   2.735   4.440  0.5574  0.2113 -0.5924
 5283SOL    HW127482   3.481   2.756   4.431  0.3908  0.4498 -1.7582
 5283SOL    HW227483   3.351   2.813   4.398 -0.1509 -0.3358 -0.9681
 5284SOL     OW27484   1.788   3.605   3.193 -0.1675 -0.5285  0.4018
 5284SOL    HW127485   1.863   3.549   3.211 -0.5266 -0.6986  1.3475
 5284SOL    HW227486   1.821   3.681   3.145 -1.7653 -2.8402 -4.3870
 5285SOL     OW27487   0.393   4.241   3.056  0.4078  0.1052 -0.1392
 5285SOL    HW127488   0.337   4.167   3.032  1.3075 -0.4336 -0.5808
 5285SOL    HW227489   0.345   4.282   3.128  0.6004 -1.4371  0.8592
 5286SOL     OW27490   2.349   1.158   9.254 -0.5056 -0.4732  0.4499
 5286SOL    HW127491   2.386   1.218   9.189 -0.7474 -0.5863  0.2048
 5286SOL    HW227492   2.398   1.085   9.217 -1.2890  0.0440 -1.6396
 5287SOL     OW27493   2.099   3.706  15.985  0.0371  0.2027  0.1267
 5287SOL    HW127494   2.120   3.770  16.053 -2.2622  0.1013  0.9385
 5287SOL    HW227495   2.071   3.766  15.917  1.7156  0.7075 -0.1222
 5288SOL     OW27496   0.878   1.005   5.289  0.4327 -0.1019  0.1874
 5288SOL    HW127497   0.916   1.042   5.368  0.8426  0.2549 -0.1832
 5288SOL    HW227498   0.816   1.074   5.264  1.0785  1.1757  2.0858
 5289SOL     OW27499   0.968   0.439   5.315  0.3633  0.0060 -0.0036
 5289SOL    HW127500   0.960   0.535   5.315  0.6802  0.0324  0.7159
 5289SOL    HW227501   1.049   0.430   5.264 -0.2839 -1.2135 -0.8088
 5290SOL     OW27502   1.082   2.789  17.645 -0.1950  0.0968 -0.1152
 5290SOL    HW127503   1.059   2.796  17.552  2.9526  1.1310 -0.8194
 5290SOL    HW227504   1.071   2.695  17.656  0.2445  0.1553  0.8233
 5291SOL     OW27505   0.022   3.123   7.132 -0.1138  0.1307 -0.4240
 5291SOL    HW127506   4.669   3.131   7.100 -1.3139 -0.7540  2.7329
 5291SOL    HW227507   0.058   3.199   7.087 -0.0970 -1.3820 -2.9531
 5292SOL     OW27508   4.281   2.916   2.916  0.0227 -0.2796 -0.0845
 5292SOL    HW127509   4.211   2.851   2.920 -0.4896  0.1825 -1.5712
 5292SOL    HW227510   4.311   2.926   3.006 -0.2726 -1.3755  0.1344
 5293SOL     OW27511   1.712   1.356   7.795 -0.4092  0.0367  0.2611
 5293SOL    HW127512   1.704   1.261   7.783 -2.7600 -0.0884  2.9433
 5293SOL    HW227513   1.752   1.354   7.882  0.9531  0.7395 -0.3512
 5294SOL     OW27514   2.210   1.147   5.042 -0.0053 -0.4830  0.2315
 5294SOL    HW127515   2.153   1.219   5.015 -0.0470 -0.4000  0.5411
 5294SOL    HW227516   2.191   1.083   4.973 -1.0218  0.4294 -0.3191
 5295SOL     OW27517   2.660   2.204   2.759  0.0454 -0.6108  0.4137
 5295SOL    HW127518   2.606   2.131   2.789 -0.9308  0.3464  0.9524
 5295SOL    HW227519   2.723   2.163   2.699 -0.8094 -1.3129  0.0054
 5296SOL     OW27520   4.197   0.514   3.820  0.3934  1.4755 -0.4614
 5296SOL    HW127521   4.103   0.524   3.837  0.0007 -2.3017 -0.2789
 5296SOL    HW227522   4.191   0.505   3.725 -2.3214  0.2575 -0.1988
 5297SOL     OW27523   3.871   1.912  17.446 -0.0931  0.1773 -0.6689
 5297SOL    HW127524   3.798   1.855  17.470  0.5950 -1.7872 -3.1338
 5297SOL    HW227525   3.833   1.945  17.364  0.4630 -0.6729 -1.2742
 5298SOL     OW27526   3.234   0.953   9.853 -0.0780  0.0940  0.2603
 5298SOL    HW127527   3.181   1.011   9.908 -1.0455 -1.0117  0.5058
 5298SOL    HW227528   3.166   0.902   9.810 -1.2646  1.9214 -0.0075
 5299SOL     OW27529   4.139   2.964   0.777 -0.6559  0.1673 -0.1655
 5299SOL    HW127530   4.045   2.965   0.765 -0.6630 -0.4405 -0.1465
 5299SOL    HW227531   4.166   2.928   0.693  0.5741  2.3254 -0.6990
 5300SOL     OW27532   1.153   3.753   5.598 -1.0223  0.0139  0.3999
 5300SOL    HW127533   1.076   3.734   5.544 -1.1065 -2.0793  1.2459
 5300SOL    HW227534   1.210   3.792   5.532  0.7311 -1.5955  0.9693
 5301SOL     OW27535   3.926   0.430   2.514  0.1000  0.0831  0.3627
 5301SOL    HW127536   3.857   0.486   2.477 -0.9040 -1.1367  0.3810
 5301SOL    HW227537   3.875   0.378   2.576 -0.2460 -1.4080 -1.1804
 5302SOL     OW27538   3.442   0.397   9.036 -0.2694 -0.3467  0.0672
 5302SOL    HW127539   3.503   0.458   8.995 -0.0013  0.4800  1.6956
 5302SOL    HW227540   3.361   0.429   8.996  0.6469  1.7232 -0.1339
 5303SOL     OW27541   1.055   2.297   3.763  0.0596 -0.1755 -0.1058
 5303SOL    HW127542   1.028   2.253   3.843  0.7083  0.2835  0.3610
 5303SOL    HW227543   1.107   2.224   3.729 -1.0850 -0.8233 -0.4565
 5304SOL     OW27544   0.582   2.051   1.194 -0.0184 -0.7741 -0.4925
 5304SOL    HW127545   0.621   1.969   1.164 -0.2864 -0.5221 -1.5117
 5304SOL    HW227546   0.499   2.022   1.233  0.6382  2.3804  3.2657
 5305SOL     OW27547   0.848   2.142   5.607 -0.3100 -0.3607  0.2533
 5305SOL    HW127548   0.852   2.076   5.676  1.1702  0.1544  0.6496
 5305SOL    HW227549   0.845   2.220   5.662  1.3904 -1.4970  1.9501
 5306SOL     OW27550   1.047   0.985  16.068  0.0524 -0.0854  0.0521
 5306SOL    HW127551   1.020   1.076  16.056  0.8582  0.2995  1.0783
 5306SOL    HW227552   1.142   0.994  16.059  0.0098 -1.0755 -1.3750
 5307SOL     OW27553   1.025   2.434   7.272 -0.0052  0.0341  0.1242
 5307SOL    HW127554   0.943   2.474   7.300  0.1331 -0.9983  1.9967
 5307SOL    HW227555   1.060   2.420   7.360 -0.8650 -0.4521  0.3860
 5308SOL     OW27556   3.248   4.527   2.921 -0.1323 -0.3283  0.0227
 5308SOL    HW127557   3.320   4.469   2.898  0.0019 -0.8179  1.6223
 5308SOL    HW227558   3.245   4.508   3.015  1.0596 -0.2244  0.0805
 5309SOL     OW27559   3.448   4.552   5.062 -0.1475 -0.1833 -0.0825
 5309SOL    HW127560   3.503   4.626   5.088  0.3552 -0.6423  0.1540
 5309SOL    HW227561   3.479   4.491   5.128  2.2197 -0.7476 -1.7068
 5310SOL     OW27562   4.482   2.414   6.329 -0.5986  0.8753  0.2077
 5310SOL    HW127563   4.498   2.509   6.330 -1.9068  1.0913  0.1046
 5310SOL    HW227564   4.398   2.420   6.283 -0.6228 -0.2524  0.1112
 5311SOL     OW27565   3.151   2.231  11.687 -0.4811 -0.0909  0.5568
 5311SOL    HW127566   3.183   2.194  11.769 -2.0357  2.3138  2.2648
 5311SOL    HW227567   3.107   2.305  11.730 -2.5736 -0.1146 -1.5627
 5312SOL     OW27568   3.932   0.210   5.183 -0.1410  0.0177 -0.2517
 5312SOL    HW127569   3.959   0.127   5.145  0.0555  0.7743 -1.7886
 5312SOL    HW227570   3.923   0.253   5.098 -1.3617 -1.8105 -1.0416
 5313SOL     OW27571   4.291   0.360   1.924 -0.1509 -0.0916  0.0044
 5313SOL    HW127572   4.362   0.333   1.982 -1.8246 -1.7183  1.3195
 5313SOL    HW227573   4.341   0.348   1.844  0.0380  1.2666 -0.0689
 5314SOL     OW27574   1.598   0.133   5.410 -0.1092 -0.1786  0.1624
 5314SOL    HW127575   1.682   0.170   5.439 -0.4627 -0.0596  1.0528
 5314SOL    HW227576   1.537   0.192   5.456 -2.2855 -1.4551 -1.0998
 5315SOL     OW27577   4.269   3.187   7.547 -0.2981 -0.0455  0.7442
 5315SOL    HW127578   4.243   3.112   7.493  0.9755 -0.3387  0.5152
 5315SOL    HW227579   4.206   3.255   7.526  2.4423  2.6512  1.2743
 5316SOL     OW27580   0.252   2.331  11.028  0.2730  0.3067  0.2896
 5316SOL    HW127581   0.298   2.401  11.074 -2.7284  1.6493  1.2732
 5316SOL    HW227582   0.216   2.376  10.951 -2.2201 -0.7061  0.8603
 5317SOL     OW27583   2.581   3.850  15.365 -0.0779  0.3312  0.6291
 5317SOL    HW127584   2.659   3.902  15.385  0.5667  0.3302 -1.8399
 5317SOL    HW227585   2.605   3.827  15.275  0.0978  2.2849  0.1820
 5318SOL     OW27586   4.558   0.186   3.019 -0.1829  0.1949  0.1400
 5318SOL    HW127587   4.632   0.233   3.056 -1.6359  1.6339  1.1802
 5318SOL    HW227588   4.614   0.129   2.966 -1.4024  0.3368 -1.3148
 5319SOL     OW27589   1.068   2.232   3.136 -0.2702  0.5018  0.0879
 5319SOL    HW127590   1.105   2.167   3.196 -1.3781 -1.1641 -1.0092
 5319SOL    HW227591   1.072   2.315   3.183  0.0092  0.3080  0.4102
 5320SOL     OW27592   1.340   3.264   5.990  0.3383 -0.6247  0.0141
 5320SOL    HW127593   1.272   3.294   5.930  0.2172 -1.3031 -0.1925
 5320SOL    HW227594   1.293   3.223   6.062  1.0693 -1.2782  0.1176
 5321SOL     OW27595   2.520   3.410   3.608 -0.3195 -0.0738  0.8377
 5321SOL    HW127596   2.522   3.315   3.618  1.4177 -0.3600 -2.3288
 5321SOL    HW227597   2.461   3.442   3.676 -1.2163  1.2751 -0.5960
 5322SOL     OW27598   0.319   2.063  10.978  0.0703 -0.2605 -0.0888
 5322SOL    HW127599   0.342   2.030  11.065  0.6219  1.6046  0.4593
 5322SOL    HW227600   0.305   2.154  11.005 -2.1293 -0.7198  0.3538
 5323SOL     OW27601   0.938   2.053   8.698 -0.1278  0.5272 -0.2894
 5323SOL    HW127602   0.854   2.082   8.663 -1.5300 -1.0886  1.7478
 5323SOL    HW227603   0.938   1.970   8.650  1.2719 -0.7696  1.9512
 5324SOL     OW27604   4.046   1.154   8.177 -0.0686  0.1139  0.0209
 5324SOL    HW127605   4.133   1.144   8.140 -0.1440  1.7085 -0.5887
 5324SOL    HW227606   4.060   1.144   8.271  1.2199  1.9655  0.0293
 5325SOL     OW27607   2.853   4.457   3.036  0.2792 -0.5643 -0.0117
 5325SOL    HW127608   2.880   4.406   2.960 -0.4742 -1.0270  0.0272
 5325SOL    HW227609   2.757   4.455   3.032  0.3131 -3.2607  0.5165
 5326SOL     OW27610   2.371   0.904  13.540 -0.1484 -0.0201  0.2697
 5326SOL    HW127611   2.351   0.993  13.568  3.5746  1.4029 -1.6446
 5326SOL    HW227612   2.348   0.905  13.448  2.1072 -0.3584 -0.2896
 5327SOL     OW27613   1.244   1.611   1.552  0.1667 -0.0453  0.1681
 5327SOL    HW127614   1.339   1.615   1.565  0.2887 -3.0174  0.3263
 5327SOL    HW227615   1.225   1.677   1.486 -0.0640  0.0242  0.3047
 5328SOL     OW27616   0.339   0.462   7.264 -0.9428 -0.5334 -0.3169
 5328SOL    HW127617   0.345   0.372   7.234 -1.4520 -0.5304 -0.4280
 5328SOL    HW227618   0.285   0.448   7.342 -1.8084 -2.0754 -1.1916
 5329SOL     OW27619   0.708   2.000   0.576  0.4759 -0.2917 -0.4522
 5329SOL    HW127620   0.769   2.066   0.546  1.2353 -0.0795  1.5579
 5329SOL    HW227621   0.761   1.922   0.590  1.7601  0.8214  0.9351
 5330SOL     OW27622   2.124   2.092  10.250 -0.5061 -0.2090  0.5220
 5330SOL    HW127623   2.195   2.060  10.306 -1.2321 -2.0517  0.3870
 5330SOL    HW227624   2.169   2.130  10.174  0.1836 -0.2203  0.9281
 5331SOL     OW27625   4.615   3.350   8.974 -0.1506  0.1367  0.7001
 5331SOL    HW127626   4.567   3.287   9.028  1.5443  0.3287  2.4535
 5331SOL    HW227627   4.695   3.361   9.026  0.5786  4.7955 -1.4402
 5332SOL     OW27628   3.658   1.278   4.707 -0.0354 -0.3033 -0.0459
 5332SOL    HW127629   3.712   1.270   4.786  1.4179 -0.8417 -1.0956
 5332SOL    HW227630   3.725   1.298   4.642  0.0058  0.7019  0.3031
 5333SOL     OW27631   1.841   2.845   5.069  0.2255  0.0565 -0.7343
 5333SOL    HW127632   1.751   2.878   5.061  0.0640  0.2473  1.6766
 5333SOL    HW227633   1.829   2.809   5.157  0.3948 -0.9268 -1.1129
 5334SOL     OW27634   2.304   2.962   8.209  0.3419 -0.0331 -0.5692
 5334SOL    HW127635   2.348   2.949   8.125 -0.6795 -1.6167 -0.8517
 5334SOL    HW227636   2.219   2.918   8.204  0.3898  0.1596 -3.5199
 5335SOL     OW27637   3.066   0.371   7.541  0.1003 -0.0633 -0.0340
 5335SOL    HW127638   3.152   0.370   7.585 -1.9985 -1.1067  4.0311
 5335SOL    HW227639   3.051   0.277   7.532  0.5458 -0.1732  0.3442
 5336SOL     OW27640   0.742   0.319   8.177 -0.0597  0.6988 -0.2747
 5336SOL    HW127641   0.709   0.250   8.234 -0.5275 -0.3463 -1.8147
 5336SOL    HW227642   0.788   0.262   8.116  0.9439 -0.3596  1.4605
 5337SOL     OW27643   0.003   2.153   6.052  0.6400 -0.0902  0.2869
 5337SOL    HW127644   0.089   2.117   6.029  0.5055 -0.5843  0.5636
 5337SOL    HW227645   0.026   2.212   6.124 -0.3002  2.2988 -1.3849
 5338SOL     OW27646   2.839   1.079   8.598 -0.3510 -0.0645  0.3632
 5338SOL    HW127647   2.920   1.032   8.617 -0.6901 -0.4021  0.9879
 5338SOL    HW227648   2.777   1.031   8.653 -0.9589 -1.5710 -1.6717
 5339SOL     OW27649   2.478   2.764   4.500 -0.0189  0.0995 -0.0397
 5339SOL    HW127650   2.452   2.813   4.578  1.4403  3.2782 -1.5811
 5339SOL    HW227651   2.450   2.820   4.429 -1.1847 -0.2340  0.1565
 5340SOL     OW27652   1.599   1.588   4.538  0.0978  0.3834 -0.7149
 5340SOL    HW127653   1.651   1.544   4.606 -0.1814 -0.4588 -1.0508
 5340SOL    HW227654   1.617   1.679   4.559 -1.9162  0.2227  1.8025
 5341SOL     OW27655   0.046   2.310  12.659  0.1923  0.5483 -0.6585
 5341SOL    HW127656   0.136   2.326  12.688 -0.7248  1.4280  1.6918
 5341SOL    HW227657   0.001   2.382  12.703 -0.0183 -1.5540  2.5899
 5342SOL     OW27658   2.350   1.537   6.303 -0.5609  0.1417 -0.5670
 5342SOL    HW127659   2.415   1.519   6.371 -0.9663 -0.4977 -0.3503
 5342SOL    HW227660   2.389   1.497   6.226  0.7781 -0.7098  0.5465
 5343SOL     OW27661   2.136   2.936   4.156  0.1868 -0.3421 -0.1151
 5343SOL    HW127662   2.209   2.929   4.094  0.3477  1.8193 -0.1620
 5343SOL    HW227663   2.146   3.027   4.184  0.1942 -0.6221  0.8004
 5344SOL     OW27664   4.509   1.868   4.711  0.1752 -0.0384  0.0088
 5344SOL    HW127665   4.522   1.963   4.700 -2.3568  0.4351  1.1563
 5344SOL    HW227666   4.418   1.870   4.742 -0.1280  0.2261 -0.8784
 5345SOL     OW27667   1.857   1.583  17.317 -0.3222  0.3448  0.1395
 5345SOL    HW127668   1.946   1.564  17.289 -0.5247 -3.2142  1.9957
 5345SOL    HW227669   1.808   1.597  17.236 -1.0395 -1.7052  0.2394
 5346SOL     OW27670   4.147   3.243  11.556 -0.0191  1.1997  0.4464
 5346SOL    HW127671   4.232   3.199  11.555 -0.3207  0.5978  1.6874
 5346SOL    HW227672   4.091   3.166  11.547 -0.7811  1.9061 -0.9052
 5347SOL     OW27673   4.432   1.599   1.565  0.1329  0.3579  0.3240
 5347SOL    HW127674   4.368   1.531   1.546 -2.0354  2.8159 -1.1884
 5347SOL    HW227675   4.455   1.627   1.476  0.0919  0.0553  0.2179
 5348SOL     OW27676   1.805   3.007   9.455  0.2118 -0.3520 -0.1335
 5348SOL    HW127677   1.796   3.014   9.360  2.3179 -0.4768 -0.3451
 5348SOL    HW227678   1.723   3.053   9.473 -0.3195 -1.3255 -0.0051
 5349SOL     OW27679   1.467   1.095  17.601 -0.2149 -0.7066  0.3453
 5349SOL    HW127680   1.463   1.012  17.554 -2.4116  0.1995 -1.0792
 5349SOL    HW227681   1.562   1.099  17.595 -0.2282 -1.1312 -0.1466
 5350SOL     OW27682   0.160   2.160  17.707 -0.5542 -0.3007 -0.0401
 5350SOL    HW127683   0.229   2.095  17.716  0.2410  0.3030 -1.8848
 5350SOL    HW227684   0.113   2.139  17.626  1.2502 -2.1807 -0.5874
 5351SOL     OW27685   4.476   3.361   6.765 -0.2214  0.3094  0.0610
 5351SOL    HW127686   4.399   3.395   6.718 -1.4288 -2.8979 -0.2772
 5351SOL    HW227687   4.538   3.341   6.695  0.2953  1.1348  0.2788
 5352SOL     OW27688   2.511   4.695   5.137 -0.3003  0.1378 -0.2963
 5352SOL    HW127689   2.553   4.735   5.214  0.2191 -1.8236  0.4578
 5352SOL    HW227690   2.430   4.676   5.184 -0.4552 -0.8338 -0.9502
 5353SOL     OW27691   3.947   2.466   4.473 -0.1716 -0.6239 -0.1036
 5353SOL    HW127692   3.869   2.506   4.513 -0.6689 -0.9142 -0.7855
 5353SOL    HW227693   4.011   2.465   4.544  0.3995 -0.5129 -0.6264
 5354SOL     OW27694   2.963   2.117   0.544 -0.5118  0.2011  0.3953
 5354SOL    HW127695   2.962   2.077   0.630 -1.2092  0.3362  0.4454
 5354SOL    HW227696   2.880   2.164   0.549 -1.2547 -0.6232 -3.5968
 5355SOL     OW27697   2.398   1.913   5.793  0.1754 -0.4453 -0.1881
 5355SOL    HW127698   2.472   1.968   5.817 -0.0187  0.7237 -2.2658
 5355SOL    HW227699   2.382   1.876   5.879 -1.3773 -0.3986 -0.4576
 5356SOL     OW27700   4.507   4.514   7.829  0.3261  0.2401  0.2915
 5356SOL    HW127701   4.478   4.460   7.902 -0.4982  2.7188  1.8042
 5356SOL    HW227702   4.586   4.554   7.865 -1.1860  1.2146  2.4925
 5357SOL     OW27703   3.012   0.083  10.185 -0.1178  0.1051  0.1249
 5357SOL    HW127704   3.012   0.157  10.246 -0.7271  0.1799  0.0254
 5357SOL    HW227705   2.971   0.018  10.242 -1.5319 -0.4747 -1.5722
 5358SOL     OW27706   1.426   1.745   5.576 -0.1429  0.1892  0.1886
 5358SOL    HW127707   1.461   1.818   5.627  1.4822 -0.2627 -0.2948
 5358SOL    HW227708   1.429   1.679   5.645  0.3303 -1.4527 -1.4159
 5359SOL     OW27709   2.732   0.159   7.187  0.0793 -0.3156  0.0588
 5359SOL    HW127710   2.670   0.229   7.166 -1.3879 -2.3937 -2.5200
 5359SOL    HW227711   2.818   0.200   7.184  0.1140 -0.2939  1.6101
 5360SOL     OW27712   1.906   4.089   1.537 -0.3585  0.8491  0.4986
 5360SOL    HW127713   1.959   4.108   1.614 -0.0069 -1.4833  0.8323
 5360SOL    HW227714   1.961   4.017   1.507 -0.1578  0.8160  0.9469
 5361SOL     OW27715   4.438   1.859   5.770  0.0524  0.2600  0.3123
 5361SOL    HW127716   4.494   1.901   5.836  0.5286  0.7452 -0.4029
 5361SOL    HW227717   4.492   1.785   5.744  2.0268  1.2429  1.5465
 5362SOL     OW27718   3.988   4.723   3.845 -0.3536 -0.8134 -0.0040
 5362SOL    HW127719   3.926   0.022   3.908 -1.1294 -0.7293 -0.8023
 5362SOL    HW227720   3.939   4.718   3.762 -2.8302 -0.8074  1.4444
 5363SOL     OW27721   1.458   4.588   9.888 -0.4141  0.5461 -0.5102
 5363SOL    HW127722   1.478   4.679   9.912 -4.0043  1.0957  0.3807
 5363SOL    HW227723   1.388   4.594   9.823 -1.4665 -0.0697  0.5630
 5364SOL     OW27724   3.433   0.246   4.266 -0.8429 -0.0052 -0.0676
 5364SOL    HW127725   3.383   0.323   4.293  2.3021  1.6442  0.9560
 5364SOL    HW227726   3.520   0.281   4.247 -0.1341  0.1837  3.5959
 5365SOL     OW27727   4.639   1.721   6.367 -0.4848  0.5640 -0.5706
 5365SOL    HW127728   4.609   1.732   6.458 -3.7286 -0.0127 -1.5721
 5365SOL    HW227729   4.556   1.696   6.327 -1.4696 -0.1195  1.8936
 5366SOL     OW27730   0.157   1.553   9.463  0.7077 -0.5075 -0.1399
 5366SOL    HW127731   0.193   1.630   9.509 -0.1589 -0.2995  0.1879
 5366SOL    HW227732   0.121   1.498   9.533 -1.0929  1.2798  0.3395
 5367SOL     OW27733   0.268   2.768  15.390  0.5413 -0.3440  0.0263
 5367SOL    HW127734   0.342   2.739  15.444 -1.4824 -1.9079  1.9163
 5367SOL    HW227735   0.194   2.772  15.450  1.2691 -0.3538  0.9159
 5368SOL     OW27736   3.723   1.527   1.950 -0.1913 -0.0467  1.2735
 5368SOL    HW127737   3.720   1.615   1.989 -1.9217  0.4392  0.0281
 5368SOL    HW227738   3.694   1.483   2.030 -0.2011 -0.8469  0.8332
 5369SOL     OW27739   2.064   1.102  16.442  0.0144 -0.0340 -0.2595
 5369SOL    HW127740   2.017   1.159  16.380  2.4921 -0.4830 -2.5512
 5369SOL    HW227741   2.100   1.034  16.385 -1.1488 -1.7984  1.0998
 5370SOL     OW27742   2.232   1.066   7.192  0.1773 -0.1523  0.4145
 5370SOL    HW127743   2.193   1.115   7.264 -1.6026 -0.4574 -0.3322
 5370SOL    HW227744   2.320   1.097   7.212 -0.0321 -0.6894  2.1190
 5371SOL     OW27745   3.981   2.364   2.982  0.8208 -0.3704 -0.5813
 5371SOL    HW127746   4.060   2.362   2.928  0.1983  0.7600 -1.5311
 5371SOL    HW227747   3.933   2.313   2.917 -3.2665  1.5117  0.9664
 5372SOL     OW27748   0.943   1.265  17.178 -0.7742  0.2421  0.6689
 5372SOL    HW127749   1.004   1.260  17.104  1.3220  1.1800  2.3414
 5372SOL    HW227750   0.964   1.353  17.211  0.1894 -0.1452  1.0861
 5373SOL     OW27751   0.111   1.985   6.898  0.3677 -0.0932  0.3475
 5373SOL    HW127752   0.040   2.003   6.837 -2.4144 -4.8727  2.1778
 5373SOL    HW227753   0.069   1.985   6.984  2.1297 -0.8298  1.2127
 5374SOL     OW27754   2.276   1.102   0.797 -0.2177 -0.0004  0.3631
 5374SOL    HW127755   2.271   1.125   0.705  2.4019  1.9649  0.7030
 5374SOL    HW227756   2.362   1.137   0.819 -1.3992  2.2504  1.3735
 5375SOL     OW27757   2.622   0.062   2.824 -0.0327 -0.6358 -0.0004
 5375SOL    HW127758   2.553   0.087   2.763  2.5941 -0.0560 -2.7099
 5375SOL    HW227759   2.567   0.033   2.898  0.5371  0.5217  0.8780
 5376SOL     OW27760   1.402   2.677   1.597  0.5073  0.6288  0.2102
 5376SOL    HW127761   1.476   2.623   1.569 -1.6347 -0.3496 -3.5742
 5376SOL    HW227762   1.426   2.692   1.689 -0.6087  1.3095  0.3943
 5377SOL     OW27763   0.901   2.259   5.170 -0.2374  0.5208  0.0146
 5377SOL    HW127764   0.916   2.320   5.242  1.1643 -0.4373  0.5333
 5377SOL    HW227765   0.912   2.179   5.221  1.1261  0.6079 -0.1280
 5378SOL     OW27766   3.675   1.460   3.296  0.1361 -0.9930  0.0093
 5378SOL    HW127767   3.743   1.440   3.231 -0.7057  0.2310 -1.2602
 5378SOL    HW227768   3.721   1.454   3.380  1.7515  0.2502 -0.7852
 5379SOL     OW27769   2.343   1.292   2.534  0.4577 -0.2682 -0.0417
 5379SOL    HW127770   2.349   1.373   2.585 -1.7935  0.2436 -0.5920
 5379SOL    HW227771   2.256   1.265   2.561  0.8942 -0.5673  1.0303
 5380SOL     OW27772   3.210   4.115   1.599  0.0021  0.6133 -0.0146
 5380SOL    HW127773   3.123   4.087   1.571  0.2439  0.1822 -0.3325
 5380SOL    HW227774   3.206   4.090   1.691 -0.2861  0.0242 -0.1894
 5381SOL     OW27775   2.161   3.165   2.711 -0.1544  0.3763  0.9261
 5381SOL    HW127776   2.073   3.141   2.740  0.0242  1.8494  2.6745
 5381SOL    HW227777   2.169   3.094   2.647  0.6518 -1.0090  2.5777
 5382SOL     OW27778   0.208   1.985   3.294  0.0956 -0.1679  0.4785
 5382SOL    HW127779   0.232   2.054   3.356 -0.0810  0.9722 -0.7264
 5382SOL    HW227780   0.165   1.928   3.359 -0.4735  0.1079  0.3460
 5383SOL     OW27781   3.486   3.697   4.087 -0.2507  0.3885 -0.5105
 5383SOL    HW127782   3.435   3.777   4.076  0.7916  0.9228 -1.4264
 5383SOL    HW227783   3.529   3.696   4.002  0.8803 -1.0223  0.0798
 5384SOL     OW27784   4.053   1.878   6.719 -0.1162 -0.6250  0.2062
 5384SOL    HW127785   4.066   1.927   6.800  1.4329  0.3382 -0.6302
 5384SOL    HW227786   4.089   1.932   6.649  2.4138 -2.2044  0.3005
 5385SOL     OW27787   3.837   1.021   6.493  0.0774  0.5760 -0.0468
 5385SOL    HW127788   3.878   1.055   6.573 -2.7093  0.9031  1.2490
 5385SOL    HW227789   3.809   0.932   6.514  0.1447  0.2352 -1.4009
 5386SOL     OW27790   3.250   0.795   7.102  0.0984  0.1047  0.4156
 5386SOL    HW127791   3.327   0.815   7.049  1.7348 -0.9779  2.3878
 5386SOL    HW227792   3.185   0.852   7.060  1.1449  0.6793 -0.4077
 5387SOL     OW27793   4.590   3.548  15.298 -0.1296  0.5064  0.2822
 5387SOL    HW127794   4.611   3.493  15.223  0.4969  2.0134 -0.6393
 5387SOL    HW227795   4.586   3.642  15.280  0.7099  0.9505  2.4303
 5388SOL     OW27796   1.514   4.160   7.282  0.1466 -0.4407  0.2433
 5388SOL    HW127797   1.600   4.118   7.285  0.4432  0.1120 -0.5380
 5388SOL    HW227798   1.479   4.087   7.231 -0.6097  0.2151 -0.1912
 5389SOL     OW27799   2.349   2.399   5.188 -0.0264 -0.1635  0.7835
 5389SOL    HW127800   2.364   2.312   5.150  2.4994  0.6227  0.0050
 5389SOL    HW227801   2.255   2.386   5.203 -0.3257  2.2763  0.9276
 5390SOL     OW27802   1.510   1.327   3.472 -0.3790  0.0243 -0.3527
 5390SOL    HW127803   1.511   1.358   3.381 -0.9339 -0.3473 -0.4875
 5390SOL    HW227804   1.437   1.381   3.502 -0.4918 -0.4864  0.2862
 5391SOL     OW27805   0.327   1.889   9.196  0.1833 -0.3095 -0.4257
 5391SOL    HW127806   0.318   1.971   9.246  0.3879 -0.8780  0.5454
 5391SOL    HW227807   0.420   1.902   9.177  0.1061 -0.8106 -1.1376
 5392SOL     OW27808   2.340   3.016  11.269 -0.4591 -0.0953  0.2168
 5392SOL    HW127809   2.415   3.051  11.317 -0.2666 -1.4525  0.9212
 5392SOL    HW227810   2.360   2.922  11.267 -0.6980 -0.1463  0.2175
 5393SOL     OW27811   4.364   2.836   4.999  0.4153  0.5237  0.0990
 5393SOL    HW127812   4.301   2.768   4.974  2.2009 -1.2104  0.3296
 5393SOL    HW227813   4.446   2.791   4.981  0.5079  0.3922  0.8491
 5394SOL     OW27814   1.151   2.492  16.587 -0.3843  0.3505  0.5162
 5394SOL    HW127815   1.098   2.413  16.576 -0.0911  0.1268  0.7011
 5394SOL    HW227816   1.123   2.526  16.672  0.3973  2.7659 -0.2003
 5395SOL     OW27817   0.219   4.568   3.003 -0.3344  0.7275  0.1527
 5395SOL    HW127818   0.279   4.519   2.947  1.1364  1.9289  0.6601
 5395SOL    HW227819   0.137   4.524   2.981 -0.2074 -0.0088  1.1943
 5396SOL     OW27820   1.722   3.773   3.383  0.6983 -0.3192  0.1549
 5396SOL    HW127821   1.722   3.716   3.306  0.7221  0.0241 -0.1025
 5396SOL    HW227822   1.737   3.712   3.455 -1.1070 -1.4886 -0.4524
 5397SOL     OW27823   1.586   4.688   5.201  0.3889  0.3812 -0.2328
 5397SOL    HW127824   1.570   0.017   5.269  3.1677  0.5815  0.2258
 5397SOL    HW227825   1.672   4.718   5.173  0.3739  0.4556 -0.1978
 5398SOL     OW27826   4.672   1.570  17.479  0.0879  0.3384 -0.1360
 5398SOL    HW127827   4.614   1.494  17.488 -0.5398  0.8766  0.3191
 5398SOL    HW227828   4.618   1.648  17.475 -1.9771 -1.0377  1.0247
 5399SOL     OW27829   0.277   0.635  16.837  0.0556 -0.3677 -0.5305
 5399SOL    HW127830   0.261   0.595  16.923  0.7560  0.8253  0.1643
 5399SOL    HW227831   0.357   0.685  16.852 -0.9178  0.7788  0.9396
 5400SOL     OW27832   3.092   1.628   6.633  0.4057 -0.9500 -0.0941
 5400SOL    HW127833   3.005   1.669   6.632  0.5453 -0.6526  0.0352
 5400SOL    HW227834   3.084   1.567   6.706 -1.9183 -0.3245  0.1611
 5401SOL     OW27835   4.024   4.319   2.551 -0.3236 -0.1844  0.0868
 5401SOL    HW127836   4.007   4.399   2.502  0.7569  1.3205  2.1427
 5401SOL    HW227837   3.947   4.263   2.540 -0.9211  0.4144  1.1793
 5402SOL     OW27838   2.459   4.182   8.126  0.3913  0.2839 -0.2187
 5402SOL    HW127839   2.399   4.214   8.193 -1.6162 -0.9208 -1.4526
 5402SOL    HW227840   2.458   4.087   8.138  1.0048  0.3178  0.1285
 5403SOL     OW27841   4.421   2.401   4.932  0.7661  0.0395 -0.2440
 5403SOL    HW127842   4.498   2.414   4.876  0.4844  0.4675 -0.5306
 5403SOL    HW227843   4.446   2.329   4.990 -0.6861 -0.4790 -0.2662
 5404SOL     OW27844   1.546   4.539   3.287 -0.0474 -0.2744  0.1889
 5404SOL    HW127845   1.468   4.592   3.273 -0.9301 -1.9800 -1.5083
 5404SOL    HW227846   1.564   4.571   3.375  2.8572 -1.0305 -0.1014
 5405SOL     OW27847   2.820   3.439   3.581 -1.0432 -0.1537  0.1578
 5405SOL    HW127848   2.734   3.459   3.616 -0.8435  0.8474  0.0884
 5405SOL    HW227849   2.839   3.527   3.550 -0.9435 -0.6595 -1.2102
 5406SOL     OW27850   4.411   0.464   6.890 -0.1750  0.2436  0.6822
 5406SOL    HW127851   4.495   0.508   6.875 -0.7910  0.7652 -1.2561
 5406SOL    HW227852   4.351   0.500   6.825  2.1866  0.8015 -1.1995
 5407SOL     OW27853   2.289   4.074   2.237 -0.2488 -0.1889  0.0249
 5407SOL    HW127854   2.299   4.155   2.188  1.2049 -1.0015 -1.0272
 5407SOL    HW227855   2.235   4.101   2.311 -1.1992  1.1499 -1.1692
 5408SOL     OW27856   3.947   1.221   3.469  0.0999  0.1549 -0.3570
 5408SOL    HW127857   3.911   1.309   3.460  0.1023  0.2770  0.8652
 5408SOL    HW227858   3.979   1.222   3.559 -0.2426  2.9593 -0.2797
 5409SOL     OW27859   3.034   3.074  11.935  0.3296  0.5190 -0.6278
 5409SOL    HW127860   3.016   2.983  11.956  2.0684  0.3519  0.1297
 5409SOL    HW227861   3.118   3.094  11.977 -0.0194 -1.9242  1.2411
 5410SOL     OW27862   1.915   4.476   1.005  0.0695  0.2209 -0.7051
 5410SOL    HW127863   1.857   4.424   1.062  0.5292 -1.7218 -1.9886
 5410SOL    HW227864   1.877   4.563   1.001 -2.8818 -0.9979  0.6852
 5411SOL     OW27865   3.559   0.414   4.520 -0.5835 -0.4695  0.1989
 5411SOL    HW127866   3.472   0.433   4.555 -0.4728  0.4390 -0.0246
 5411SOL    HW227867   3.572   0.324   4.551 -1.6542 -0.7395 -0.1362
 5412SOL     OW27868   2.116   1.924   6.848 -0.6054 -0.4169  0.3374
 5412SOL    HW127869   2.076   2.011   6.844 -0.3684 -0.3668 -1.0129
 5412SOL    HW227870   2.150   1.920   6.938  0.7136 -3.3771 -0.2952
 5413SOL     OW27871   4.700   4.085   8.667  0.0520  0.5194 -0.2718
 5413SOL    HW127872   4.615   4.107   8.705 -1.1705 -2.4344 -1.3071
 5413SOL    HW227873   0.020   4.064   8.742 -2.3177  0.6575  1.5337
 5414SOL     OW27874   2.208   1.205   3.876 -0.2233  1.1890 -0.0237
 5414SOL    HW127875   2.163   1.140   3.930  1.0386  2.3618  2.4513
 5414SOL    HW227876   2.250   1.262   3.940 -0.8978  0.5379  0.9982
 5415SOL     OW27877   2.638   4.713   5.835 -0.0788 -0.1620  1.0150
 5415SOL    HW127878   2.653   4.714   5.740 -0.0556 -0.0908  1.0194
 5415SOL    HW227879   2.699   0.045   5.862  0.2109 -0.1757  0.4067
 5416SOL     OW27880   3.214   1.951   7.547 -0.4494 -0.5199 -0.3200
 5416SOL    HW127881   3.188   2.005   7.621  1.6259 -1.8077  1.3705
 5416SOL    HW227882   3.169   2.000   7.479 -0.8458 -0.0039  0.3237
 5417SOL     OW27883   1.536   4.005   2.357 -0.3601 -0.6028 -0.0063
 5417SOL    HW127884   1.455   4.056   2.354 -0.3461 -0.4431  2.7346
 5417SOL    HW227885   1.550   3.979   2.448 -0.6497  1.2091  0.5601
 5418SOL     OW27886   1.749   1.234   6.828  0.2253  0.8655 -0.3302
 5418SOL    HW127887   1.742   1.141   6.805  0.3162  0.3408  1.7727
 5418SOL    HW227888   1.690   1.232   6.904 -1.1530  1.7443 -1.3802
 5419SOL     OW27889   1.481   1.020   4.132 -0.3381  0.0422  0.1191
 5419SOL    HW127890   1.417   1.090   4.134 -0.4374 -0.0133 -0.8871
 5419SOL    HW227891   1.550   1.065   4.180  0.7529 -1.4900  0.0108
 5420SOL     OW27892   4.362   4.475   8.767  0.3793  0.5898  0.5900
 5420SOL    HW127893   4.368   4.570   8.782  2.9183  0.4756  0.1573
 5420SOL    HW227894   4.456   4.457   8.769 -0.3142 -3.0701  0.3481
 5421SOL     OW27895   2.185   2.401  10.274  0.3071 -0.4383  0.3341
 5421SOL    HW127896   2.258   2.341  10.293 -0.1082 -0.5740  1.4984
 5421SOL    HW227897   2.109   2.343  10.269 -1.4843  1.8610  0.8573
 5422SOL     OW27898   1.108   3.940  15.942 -0.2759  0.5416  0.3160
 5422SOL    HW127899   1.071   3.962  16.028 -1.2096 -1.1451  0.3489
 5422SOL    HW227900   1.154   4.020  15.914 -1.5886  1.0596 -0.3825
 5423SOL     OW27901   1.692   4.307   5.140 -0.1584  0.1639  0.3537
 5423SOL    HW127902   1.708   4.229   5.193  1.0244  0.4325  0.3942
 5423SOL    HW227903   1.690   4.370   5.212 -2.1583 -0.5346  0.9007
 5424SOL     OW27904   0.091   1.701   8.951 -0.2236 -0.5603  0.2293
 5424SOL    HW127905   0.117   1.786   8.985 -2.2732  0.9578 -1.9799
 5424SOL    HW227906   0.127   1.648   9.021 -0.3963 -0.7719  0.1608
 5425SOL     OW27907   2.767   2.290   5.415  0.8682  0.1994  0.2046
 5425SOL    HW127908   2.694   2.338   5.377  0.7558  0.6557  0.9891
 5425SOL    HW227909   2.779   2.228   5.343 -0.6926  1.0258 -0.7600
 5426SOL     OW27910   1.913   3.693   6.232  0.1343  0.3093  0.4057
 5426SOL    HW127911   1.850   3.665   6.166  0.0471 -1.2715  1.1735
 5426SOL    HW227912   1.895   3.785   6.254  0.7473  0.2831  1.0032
 5427SOL     OW27913   2.336   0.890   7.848  0.0958 -0.2647 -0.7129
 5427SOL    HW127914   2.257   0.942   7.833 -0.8995 -2.1058 -1.8184
 5427SOL    HW227915   2.368   0.872   7.760 -1.7312 -0.0245 -1.4174
 5428SOL     OW27916   3.464   3.599   2.451  0.3805 -0.4857  0.0443
 5428SOL    HW127917   3.503   3.682   2.477  1.6905 -0.0021 -3.5782
 5428SOL    HW227918   3.475   3.613   2.357 -0.4965 -0.2935 -0.0371
 5429SOL     OW27919   3.791   2.163   1.500 -0.0408 -0.0483 -0.3718
 5429SOL    HW127920   3.832   2.078   1.485 -4.1681 -1.8783 -1.2126
 5429SOL    HW227921   3.791   2.203   1.414 -2.2416  0.6783 -0.0490
 5430SOL     OW27922   2.981   0.113   7.558  0.5690  0.1418 -0.0162
 5430SOL    HW127923   3.013   0.033   7.516  1.0214 -0.6382  1.8316
 5430SOL    HW227924   3.040   0.116   7.633 -0.3069 -3.0578  0.7853
 5431SOL     OW27925   1.409   1.303   9.725  0.1817  0.4753 -0.1601
 5431SOL    HW127926   1.334   1.331   9.673 -0.3934 -1.1010 -0.1956
 5431SOL    HW227927   1.410   1.207   9.722  1.3590  0.4114  2.0281
 5432SOL     OW27928   3.759   0.686   5.079  0.1596 -0.2928  0.2062
 5432SOL    HW127929   3.672   0.682   5.040  0.3207 -0.7652 -0.0987
 5432SOL    HW227930   3.764   0.782   5.077  2.4306 -0.4206 -0.1630
 5433SOL     OW27931   3.396   4.435   0.372 -0.1956 -0.1133  0.3858
 5433SOL    HW127932   3.341   4.362   0.343  1.2406 -0.9794 -0.1147
 5433SOL    HW227933   3.425   4.465   0.286 -3.7983 -0.9595 -1.1350
 5434SOL     OW27934   4.338   3.814   5.121  0.3747 -0.4832 -0.3976
 5434SOL    HW127935   4.409   3.809   5.057  0.7730  1.7268 -0.1282
 5434SOL    HW227936   4.325   3.721   5.139 -1.1002 -0.5857 -1.9870
 5435SOL     OW27937   0.782   1.028   4.521 -0.0549 -0.4604  0.3387
 5435SOL    HW127938   0.752   1.050   4.609  1.4586  1.3210  0.4165
 5435SOL    HW227939   0.703   0.989   4.484  1.2222 -2.8991  0.1912
 5436SOL     OW27940   0.514   2.478  14.421  0.4540  0.5030 -0.8889
 5436SOL    HW127941   0.453   2.534  14.374 -1.5470 -1.1366 -0.2400
 5436SOL    HW227942   0.545   2.421  14.350 -2.0928 -1.0951 -0.7165
 5437SOL     OW27943   4.408   3.278   8.386 -0.0137  0.1282 -0.2808
 5437SOL    HW127944   4.399   3.247   8.296 -1.7901 -4.9237  1.5950
 5437SOL    HW227945   4.500   3.259   8.404  0.1522  1.3210  0.1145
 5438SOL     OW27946   0.702   2.475  14.632  0.3207  0.7122 -0.3558
 5438SOL    HW127947   0.716   2.382  14.650 -1.6834 -0.0111 -2.4696
 5438SOL    HW227948   0.637   2.468  14.562 -0.8311  0.0693  0.7742
 5439SOL     OW27949   1.035   3.033   8.379  0.2403 -0.1602 -0.6488
 5439SOL    HW127950   1.096   2.975   8.424 -0.7154 -0.4275  0.3087
 5439SOL    HW227951   1.075   3.020   8.293  0.1058 -0.5386 -0.6512
 5440SOL     OW27952   1.868   0.504   5.998  0.1182 -0.9910 -0.3539
 5440SOL    HW127953   1.919   0.526   6.076 -0.0478 -1.2209 -0.1817
 5440SOL    HW227954   1.821   0.428   6.033 -0.1573 -0.3777  0.6096
 5441SOL     OW27955   4.446   0.265   7.079 -0.0157  0.6122  0.4357
 5441SOL    HW127956   4.431   0.325   7.006  0.8360 -1.2176 -1.2492
 5441SOL    HW227957   4.529   0.305   7.105  1.0006  0.4083 -2.4547
 5442SOL     OW27958   0.905   0.281  11.592 -0.1946 -0.1940 -0.2194
 5442SOL    HW127959   0.957   0.339  11.647 -1.4477  1.3838 -0.6775
 5442SOL    HW227960   0.910   0.203  11.647 -0.5039 -1.7522 -2.4359
 5443SOL     OW27961   2.164   1.719   6.665 -0.4767 -0.1711  0.0278
 5443SOL    HW127962   2.257   1.738   6.662 -0.6889  0.8535 -0.1205
 5443SOL    HW227963   2.132   1.782   6.730  3.2517  0.5106  1.1752
 5444SOL     OW27964   2.170   0.023  16.045 -0.2443 -0.2231  0.0001
 5444SOL    HW127965   2.110   0.097  16.044 -1.2453 -1.0398 -0.2775
 5444SOL    HW227966   2.131   4.700  15.982 -2.0402 -0.2304  1.1204
 5445SOL     OW27967   4.004   3.605   4.088  0.5550  0.4016 -0.7453
 5445SOL    HW127968   4.085   3.599   4.137  0.0306 -3.0945 -0.3083
 5445SOL    HW227969   3.973   3.515   4.076 -0.3773  0.3857  1.8160
 5446SOL     OW27970   3.693   3.530   6.424  0.1850 -0.6813 -0.6007
 5446SOL    HW127971   3.712   3.449   6.471 -0.4940 -1.1152 -1.0853
 5446SOL    HW227972   3.635   3.581   6.481  1.0822 -0.7305  0.3509
 5447SOL     OW27973   0.690   3.845   3.968  0.6848  0.1788 -0.2450
 5447SOL    HW127974   0.669   3.903   3.895  1.5979 -0.5756 -1.1020
 5447SOL    HW227975   0.606   3.838   4.014 -0.1105  1.6841 -1.4606
 5448SOL     OW27976   1.981   0.828   6.178  0.6641  0.0992  0.1624
 5448SOL    HW127977   2.059   0.811   6.125 -0.4259 -0.0087 -1.4246
 5448SOL    HW227978   1.956   0.904   6.126 -1.1363 -1.2579 -0.9803
 5449SOL     OW27979   2.086   4.289  17.615  0.1361 -0.4569  0.1727
 5449SOL    HW127980   2.092   4.384  17.617  1.0664 -0.5022 -0.1611
 5449SOL    HW227981   2.079   4.275  17.709 -0.8185 -0.7383  0.0579
 5450SOL     OW27982   0.417   0.109  14.475  0.0542  0.6895 -0.0360
 5450SOL    HW127983   0.377   0.138  14.392  0.1284 -3.6270 -1.5488
 5450SOL    HW227984   0.384   0.175  14.537 -0.1135 -0.1120  0.7143
 5451SOL     OW27985   0.250   4.102   2.553  0.2010 -0.0031  0.4129
 5451SOL    HW127986   0.207   4.178   2.592  1.9279  1.9613 -1.5385
 5451SOL    HW227987   0.300   4.135   2.479  1.2129  0.5614  1.3340
 5452SOL     OW27988   2.977   1.977   9.632  0.1499 -0.3062 -0.1701
 5452SOL    HW127989   2.970   1.981   9.537 -0.9690 -0.4949 -0.1028
 5452SOL    HW227990   2.916   2.046   9.657 -0.1963 -1.1031  1.2204
 5453SOL     OW27991   3.339   0.180  11.506  0.0468  0.1689  0.7219
 5453SOL    HW127992   3.378   0.248  11.452 -0.0318 -0.5648 -0.2524
 5453SOL    HW227993   3.389   0.105  11.474  1.5580  1.5118 -0.0714
 5454SOL     OW27994   1.703   0.248   4.365 -0.3898  0.1409  0.3613
 5454SOL    HW127995   1.710   0.304   4.287  0.0274 -3.0083 -1.8638
 5454SOL    HW227996   1.634   0.297   4.410 -1.6960 -0.7939 -0.6272
 5455SOL     OW27997   3.560   0.058  13.345 -0.5221  0.3350  0.3909
 5455SOL    HW127998   3.479   0.016  13.317  0.0912  0.7091 -1.8724
 5455SOL    HW227999   3.598   4.729  13.404 -1.2971  0.9091  1.5403
 5456SOL     OW28000   3.902   0.879  12.937 -0.0980 -0.3626 -0.0133
 5456SOL    HW128001   3.868   0.801  12.894  0.0763 -1.2714  1.4957
 5456SOL    HW228002   3.866   0.951  12.885 -0.6740 -0.3002  0.4735
 5457SOL     OW28003   2.490   3.020   2.121  0.6661 -0.0131 -0.0457
 5457SOL    HW128004   2.547   3.097   2.124 -0.5243  0.7918  2.0549
 5457SOL    HW228005   2.539   2.960   2.178  0.0955  0.6844  1.1983
 5458SOL     OW28006   3.344   4.670  12.967 -0.4152  0.1281 -0.1734
 5458SOL    HW128007   3.362   4.602  13.033  1.2170  1.1953  0.4815
 5458SOL    HW228008   3.431   4.693  12.934  0.9001 -2.9693  1.1491
 5459SOL     OW28009   3.991   2.484   3.833  0.1375  0.2745  0.0509
 5459SOL    HW128010   3.992   2.578   3.815  1.3078  0.6435  2.0985
 5459SOL    HW228011   3.901   2.472   3.801 -0.3815  2.6680  0.6126
 5460SOL     OW28012   1.662   4.302   8.753 -0.2499 -0.1541  0.4883
 5460SOL    HW128013   1.650   4.285   8.659 -2.7781 -1.4976  1.0554
 5460SOL    HW228014   1.749   4.268   8.772  0.7614  1.3936 -1.2822
 5461SOL     OW28015   3.410   1.711   1.587 -0.0243 -0.0827  0.1561
 5461SOL    HW128016   3.487   1.655   1.594  1.5145  2.0777  0.5701
 5461SOL    HW228017   3.440   1.801   1.573 -0.7971  0.3194  1.1219
 5462SOL     OW28018   1.653   4.340   9.949 -0.1035  0.2252  0.3990
 5462SOL    HW128019   1.668   4.325  10.043 -1.4484  0.6964  0.6897
 5462SOL    HW228020   1.573   4.393   9.955 -0.3079 -0.0628  0.2561
 5463SOL     OW28021   2.826   0.763  15.471 -0.0019 -0.5541  0.7132
 5463SOL    HW128022   2.882   0.685  15.473  0.0721 -0.5691 -2.2387
 5463SOL    HW228023   2.892   0.832  15.466  0.5728 -1.3681 -3.2858
 5464SOL     OW28024   1.498   0.571   6.495 -0.0689 -0.1016 -0.3223
 5464SOL    HW128025   1.559   0.521   6.549  0.5295  1.8519  0.8179
 5464SOL    HW228026   1.470   0.641   6.554  0.2135 -1.5804  1.5647
 5465SOL     OW28027   4.664   1.358   0.732  0.2756 -0.2536 -0.7241
 5465SOL    HW128028   4.659   1.263   0.744  0.7058 -0.4963 -2.4299
 5465SOL    HW228029   4.721   1.373   0.656 -0.5926  1.3936 -1.0469
 5466SOL     OW28030   2.428   2.800   5.848  0.1454 -0.0338  0.1950
 5466SOL    HW128031   2.489   2.873   5.860 -1.1552  0.8569  1.3118
 5466SOL    HW228032   2.376   2.823   5.771 -1.3191  0.9455  1.4758
 5467SOL     OW28033   3.542   3.335   7.249 -0.2649  0.3131 -0.1375
 5467SOL    HW128034   3.528   3.388   7.171 -2.3048 -2.3466 -1.5921
 5467SOL    HW228035   3.458   3.289   7.249 -0.4109  0.5744 -0.5308
 5468SOL     OW28036   1.843   3.410   3.883 -0.2114  0.4777 -0.1619
 5468SOL    HW128037   1.923   3.373   3.846 -0.6300  1.1354 -1.7424
 5468SOL    HW228038   1.869   3.498   3.910 -0.0395  0.8389 -1.4801
 5469SOL     OW28039   3.692   0.262  14.561 -0.2687 -0.3112 -0.1493
 5469SOL    HW128040   3.729   0.270  14.474  0.5393  3.2366  0.4971
 5469SOL    HW228041   3.736   0.186  14.599 -1.3384 -0.2502  1.2252
 5470SOL     OW28042   1.810   3.500  13.056  1.0473  0.5015  0.2058
 5470SOL    HW128043   1.860   3.432  13.102  0.6654 -0.8595 -1.3980
 5470SOL    HW228044   1.792   3.566  13.123 -0.4937 -1.6160  1.8553
 5471SOL     OW28045   4.118   2.131   8.507 -0.2232 -0.7672 -0.2902
 5471SOL    HW128046   4.143   2.184   8.432  0.3294  1.8929  1.7679
 5471SOL    HW228047   4.178   2.059   8.490 -0.4816 -0.5547 -2.0696
 5472SOL     OW28048   2.980   1.527   3.479 -0.0368  0.2441  0.0472
 5472SOL    HW128049   3.027   1.452   3.515 -0.8214 -0.6922 -0.8775
 5472SOL    HW228050   3.025   1.549   3.398 -3.1859  2.4201 -1.1182
 5473SOL     OW28051   3.286   3.900   5.522  0.7184 -0.1166 -0.9607
 5473SOL    HW128052   3.331   3.874   5.441 -0.4747 -1.1635 -1.2900
 5473SOL    HW228053   3.350   3.964   5.554  0.4990 -1.5088  2.2343
 5474SOL     OW28054   3.068   3.758  11.206  0.1675  0.5651 -0.1051
 5474SOL    HW128055   3.035   3.739  11.118  0.4867 -3.2908  0.6172
 5474SOL    HW228056   3.101   3.847  11.191 -1.0621  0.9497 -0.4622
 5475SOL     OW28057   1.687   3.222  10.988  1.0637 -0.3017 -0.3820
 5475SOL    HW128058   1.752   3.152  10.993  0.2246 -1.1840 -2.1590
 5475SOL    HW228059   1.637   3.196  11.066  0.2936  1.4896 -0.2633
 5476SOL     OW28060   2.848   4.425   7.984  0.1534 -0.5491  0.1190
 5476SOL    HW128061   2.757   4.449   8.003  0.9172  2.5453 -0.1685
 5476SOL    HW228062   2.856   4.430   7.888  1.2350 -0.5480  0.2083
 5477SOL     OW28063   2.281   0.473   3.209  0.0038 -0.3493  0.7481
 5477SOL    HW128064   2.290   0.557   3.164 -0.6885 -1.1679 -0.9157
 5477SOL    HW228065   2.371   0.441   3.217  0.0475 -0.2525  0.6431
 5478SOL     OW28066   0.652   4.439   3.751 -0.0179  0.4099  0.1088
 5478SOL    HW128067   0.675   4.365   3.695 -1.6730 -1.6256  2.1625
 5478SOL    HW228068   0.637   4.398   3.836 -1.2928  0.2887 -0.1729
 5479SOL     OW28069   4.680   0.452   8.908 -0.3364 -0.1365  0.0210
 5479SOL    HW128070   0.030   0.481   8.879 -0.2471 -0.0057  0.4227
 5479SOL    HW228071   4.684   0.477   9.000 -0.1510 -0.4584  0.1006
 5480SOL     OW28072   0.838   0.271  10.670  0.7714 -0.5945  0.0127
 5480SOL    HW128073   0.793   0.336  10.724 -0.8201 -0.7945 -1.1156
 5480SOL    HW228074   0.911   0.248  10.729 -0.1247 -1.0060  0.9633
 5481SOL     OW28075   4.021   4.553   3.122 -0.7068  0.5452  0.2382
 5481SOL    HW128076   4.002   4.633   3.072  0.8537 -0.8445 -2.5667
 5481SOL    HW228077   4.012   4.589   3.211  3.4271  1.3772  0.2975
 5482SOL     OW28078   2.637   3.889   2.406 -0.4239  0.4122  0.1321
 5482SOL    HW128079   2.558   3.929   2.443 -1.5078 -0.7138 -0.9689
 5482SOL    HW228080   2.620   3.800   2.437 -1.3908  0.4535 -0.2988
 5483SOL     OW28081   0.522   3.408   3.569  0.1934  0.1465 -0.2710
 5483SOL    HW128082   0.532   3.322   3.528  1.1521  0.4319 -0.6367
 5483SOL    HW228083   0.429   3.419   3.547  0.5803 -1.1461 -2.5610
 5484SOL     OW28084   3.762   3.619   8.733  0.3777  0.3613  0.5506
 5484SOL    HW128085   3.689   3.675   8.705  0.6437  0.4565  0.0490
 5484SOL    HW228086   3.721   3.602   8.818 -1.6205  0.4663 -0.3901
 5485SOL     OW28087   3.402   2.369  10.428  0.0870  0.7966  0.2155
 5485SOL    HW128088   3.491   2.402  10.412  0.1627  0.8373  0.7434
 5485SOL    HW228089   3.352   2.443  10.395  0.2420  1.4385  1.4440
 5486SOL     OW28090   1.726   4.195   0.633  0.4144 -0.2269  0.2046
 5486SOL    HW128091   1.750   4.103   0.635  1.6490  0.0402 -1.2908
 5486SOL    HW228092   1.657   4.185   0.698  0.5323  3.8201  0.9751
 5487SOL     OW28093   2.861   3.105   9.707 -0.4422 -0.1119  0.4484
 5487SOL    HW128094   2.889   3.016   9.727  0.6888  0.0671 -0.3225
 5487SOL    HW228095   2.779   3.113   9.757 -0.4572  1.5113  0.1845
 5488SOL     OW28096   2.588   1.583  10.985 -0.4037  0.4027  0.3455
 5488SOL    HW128097   2.567   1.542  10.901 -1.4053  1.7616 -0.0851
 5488SOL    HW228098   2.557   1.673  10.972  0.7289  0.5987 -0.9864
 5489SOL     OW28099   2.777   3.080   8.971 -0.1718 -0.0310  0.2180
 5489SOL    HW128100   2.718   3.100   8.898 -1.9850  1.2148  2.0094
 5489SOL    HW228101   2.727   3.114   9.045 -1.6531 -2.3548  0.2950
 5490SOL     OW28102   4.275   0.291  15.748  0.1504  0.4732  0.5998
 5490SOL    HW128103   4.204   0.230  15.729  0.3771  1.1348 -2.3596
 5490SOL    HW228104   4.228   0.370  15.775 -0.1085  0.9650 -1.2784
 5491SOL     OW28105   1.670   0.809   8.258 -0.6205 -0.7518  0.5425
 5491SOL    HW128106   1.706   0.897   8.271 -1.1700 -0.4131 -0.2197
 5491SOL    HW228107   1.576   0.827   8.246 -1.3709 -3.1379  2.7246
 5492SOL     OW28108   2.129   4.710  11.216  0.1097 -0.2680  0.4305
 5492SOL    HW128109   2.102   0.004  11.129  2.2105  0.4159  0.0255
 5492SOL    HW228110   2.059   4.724  11.281  0.0949 -2.7836  0.9477
 5493SOL     OW28111   1.858   1.848   1.096 -0.5994 -0.1713  0.0831
 5493SOL    HW128112   1.843   1.923   1.039  2.2124 -0.7187 -1.3734
 5493SOL    HW228113   1.949   1.869   1.118 -1.4111  1.3607  1.9648
 5494SOL     OW28114   2.424   0.903   4.179  0.4655  0.0687  0.0099
 5494SOL    HW128115   2.442   0.818   4.219 -0.7828 -0.2606 -0.1540
 5494SOL    HW228116   2.359   0.880   4.113 -0.0783 -0.3895  0.7157
 5495SOL     OW28117   0.444   0.081   5.919 -0.1841  0.3342  0.1080
 5495SOL    HW128118   0.356   0.102   5.950 -0.7695 -1.4649 -0.3918
 5495SOL    HW228119   0.432   0.120   5.832 -0.1325  0.2571  0.0662
 5496SOL     OW28120   2.665   1.110   2.688  0.0962  0.5330  0.3471
 5496SOL    HW128121   2.595   1.071   2.635  1.1065  0.2259 -0.7572
 5496SOL    HW228122   2.613   1.167   2.745 -1.5095 -0.2178 -0.3502
 5497SOL     OW28123   2.919   0.039   3.377  0.3207  0.0437 -0.1619
 5497SOL    HW128124   2.959   0.004   3.297 -1.6491  2.7085 -2.3438
 5497SOL    HW228125   2.885   0.125   3.350 -2.1070 -0.7984  0.1801
 5498SOL     OW28126   2.172   0.131   2.530 -1.1704  0.1326 -0.1029
 5498SOL    HW128127   2.136   0.067   2.592 -2.2570 -0.7110 -1.5838
 5498SOL    HW228128   2.171   0.079   2.449 -0.7655  0.5251 -0.3524
 5499SOL     OW28129   1.061   2.310   8.464 -0.3397 -0.0517 -0.1888
 5499SOL    HW128130   1.007   2.238   8.431 -0.4163 -0.2472  0.3682
 5499SOL    HW228131   1.009   2.347   8.535 -2.6427 -1.1480 -1.3028
 5500SOL     OW28132   3.310   1.423  10.306 -0.5017 -0.9352 -0.7643
 5500SOL    HW128133   3.255   1.471  10.243  1.1015  0.7590 -0.9024
 5500SOL    HW228134   3.374   1.489  10.334  0.1757 -2.2308  0.7053
 5501SOL     OW28135   1.126   2.793  12.087 -0.2350  0.4440 -0.1193
 5501SOL    HW128136   1.167   2.824  12.006  1.1605 -1.5291 -0.1458
 5501SOL    HW228137   1.094   2.870  12.134 -0.0990 -0.0037  0.6981
 5502SOL     OW28138   3.615   2.706   8.226  0.1242  0.6005 -0.3895
 5502SOL    HW128139   3.669   2.699   8.305  0.6025  0.4702 -0.7318
 5502SOL    HW228140   3.531   2.735   8.261  0.8158  0.0703  1.7228
 5503SOL     OW28141   2.847   1.218  13.453  0.1481 -0.3459  0.6967
 5503SOL    HW128142   2.884   1.160  13.387 -0.7298 -1.3325  1.0575
 5503SOL    HW228143   2.895   1.299  13.438 -2.0324  0.9090  0.4272
 5504SOL     OW28144   1.375   2.908   1.930  0.3444  0.0779  0.0746
 5504SOL    HW128145   1.356   2.815   1.946 -4.2917  0.7596 -1.2749
 5504SOL    HW228146   1.470   2.904   1.941  0.1059 -2.2230  1.3424
 5505SOL     OW28147   2.124   2.624   7.877  0.2251  0.2901  0.4097
 5505SOL    HW128148   2.192   2.602   7.813  0.2771  0.1369  0.5179
 5505SOL    HW228149   2.181   2.601   7.950  1.1829 -0.7064 -0.6563
 5506SOL     OW28150   3.147   4.492  11.111 -0.0773  0.3127 -0.3878
 5506SOL    HW128151   3.227   4.539  11.088  1.3777 -1.2140  1.5351
 5506SOL    HW228152   3.098   4.563  11.152 -1.0208  0.0779 -1.1246
 5507SOL     OW28153   0.238   0.598   7.060 -0.2851  0.1752 -0.2424
 5507SOL    HW128154   0.311   0.628   7.006  0.1658 -0.7928 -0.1723
 5507SOL    HW228155   0.278   0.549   7.132  0.9083  0.4202 -0.7319
 5508SOL     OW28156   2.859   1.503   9.275  0.5435 -0.5495  0.6962
 5508SOL    HW128157   2.939   1.472   9.319  0.5509 -0.1646  0.9516
 5508SOL    HW228158   2.787   1.455   9.317  1.3507 -3.5739 -1.3947
 5509SOL     OW28159   1.311   0.310   4.141  0.2648  0.2330 -0.5143
 5509SOL    HW128160   1.258   0.366   4.084  0.8143 -0.0693 -1.3200
 5509SOL    HW228161   1.372   0.371   4.182  1.0567  0.1720 -1.6189
 5510SOL     OW28162   2.520   4.217   6.056 -0.4306  0.1811  0.3671
 5510SOL    HW128163   2.531   4.301   6.012 -1.8307 -0.4039 -1.1007
 5510SOL    HW228164   2.431   4.190   6.033  0.2675 -1.2720 -0.6321
 5511SOL     OW28165   3.435   2.671  16.187  0.1835  0.3121 -1.0903
 5511SOL    HW128166   3.407   2.603  16.127  1.2567 -1.1902  0.1213
 5511SOL    HW228167   3.521   2.638  16.209  0.7113  2.5359  0.2281
 5512SOL     OW28168   2.281   2.457   3.430 -0.3940  0.7839  0.5908
 5512SOL    HW128169   2.343   2.395   3.391 -1.8371  0.5272 -1.2707
 5512SOL    HW228170   2.197   2.413   3.433 -1.1481  2.2301  0.4675
 5513SOL     OW28171   3.744   4.595   1.418 -0.9670 -0.4471 -0.3834
 5513SOL    HW128172   3.655   4.586   1.385 -1.5973 -0.6568  1.3783
 5513SOL    HW228173   3.794   4.625   1.342 -1.4581 -1.2463 -1.0158
 5514SOL     OW28174   0.091   0.967  10.970 -0.5716 -0.2402  0.3751
 5514SOL    HW128175   0.077   0.982  10.877  3.6320  0.9948 -0.0251
 5514SOL    HW228176   0.064   0.875  10.981 -0.1091 -0.2079  1.8201
 5515SOL     OW28177   0.343   3.292   2.428 -0.7694 -0.4597  0.4358
 5515SOL    HW128178   0.296   3.259   2.505 -2.7356  1.3314  0.0095
 5515SOL    HW228179   0.342   3.205   2.388 -1.3686 -0.1571 -0.2097
 5516SOL     OW28180   4.684   2.825  11.785 -0.5738 -0.4038  0.1183
 5516SOL    HW128181   0.004   2.764  11.833 -2.3364 -0.6775  1.8706
 5516SOL    HW228182   4.708   2.800  11.696 -1.6597 -0.4412 -0.1607
 5517SOL     OW28183   4.618   1.093   0.713 -0.3088  0.2177 -0.1153
 5517SOL    HW128184   4.631   1.078   0.806  0.8473  2.2668  0.0413
 5517SOL    HW228185   4.646   1.009   0.675 -2.7665 -0.9634  0.6853
 5518SOL     OW28186   0.289   2.606  11.157 -0.0511  0.1653 -0.0190
 5518SOL    HW128187   0.323   2.599  11.246  1.0141  3.0859 -0.2036
 5518SOL    HW228188   0.364   2.641  11.109 -1.3560  2.0393 -0.7035
 5519SOL     OW28189   3.640   0.380   5.078  0.2481  0.0320  0.3132
 5519SOL    HW128190   3.583   0.421   5.013  1.0729  0.3019 -0.2477
 5519SOL    HW228191   3.725   0.421   5.063 -0.7578  1.4634 -1.5270
 5520SOL     OW28192   2.124   3.967   8.929  0.2346 -0.0960  0.4259
 5520SOL    HW128193   2.097   4.019   9.005  0.0248  1.2454 -0.5769
 5520SOL    HW228194   2.070   3.888   8.937  2.6529 -1.7896  0.1501
 5521SOL     OW28195   1.585   0.834   7.170  0.0361 -0.1108 -0.0681
 5521SOL    HW128196   1.584   0.849   7.265  0.3495  0.0037 -0.0860
 5521SOL    HW228197   1.672   0.796   7.157 -0.9826 -1.9841 -1.5068
 5522SOL     OW28198   4.185   0.565  10.830 -0.5277 -0.5106 -0.2899
 5522SOL    HW128199   4.213   0.563  10.739  1.3596  0.9608  0.2630
 5522SOL    HW228200   4.175   0.660  10.833  0.5614 -0.4006 -0.3453
 5523SOL     OW28201   0.674   0.272   7.278 -0.3575  0.2401 -0.5552
 5523SOL    HW128202   0.769   0.259   7.277 -0.3660  0.3289 -1.8672
 5523SOL    HW228203   0.662   0.284   7.184  1.8468  2.4170 -0.5849
 5524SOL     OW28204   4.653   4.190   7.288 -0.5934  0.0535 -0.9485
 5524SOL    HW128205   4.733   4.241   7.274 -0.8658  1.3181  2.0155
 5524SOL    HW228206   4.675   4.128   7.357  0.4687  0.7910 -0.6384
 5525SOL     OW28207   0.317   2.889  12.741 -0.1389  0.3887 -0.0551
 5525SOL    HW128208   0.298   2.935  12.823 -1.4709 -0.2546 -0.0074
 5525SOL    HW228209   0.285   2.804  12.769  0.4569 -0.4693 -1.9550
 5526SOL     OW28210   4.276   4.083   8.948  0.1976 -0.1344  0.1564
 5526SOL    HW128211   4.242   4.144   8.883  1.7985 -0.4558 -0.9813
 5526SOL    HW228212   4.271   4.000   8.900 -1.5937  0.0655 -0.0153
 5527SOL     OW28213   1.625   0.155   6.715  0.8425 -0.1332  0.0159
 5527SOL    HW128214   1.562   0.226   6.724 -0.6417 -1.6423  1.5428
 5527SOL    HW228215   1.578   0.116   6.641 -0.6914 -0.5865  1.2315
 5528SOL     OW28216   0.673   2.659   5.651  0.2696  0.0752  0.5115
 5528SOL    HW128217   0.609   2.590   5.666 -1.7334  2.1121  1.2634
 5528SOL    HW228218   0.652   2.735   5.706 -0.7922 -0.0718  0.3036
 5529SOL     OW28219   0.967   2.296   9.798  0.1463 -0.5571 -0.0643
 5529SOL    HW128220   1.017   2.361   9.748 -1.5315  0.7061 -0.0774
 5529SOL    HW228221   0.967   2.341   9.882 -1.1750  0.2477 -0.5006
 5530SOL     OW28222   2.004   1.034  16.880  0.2808 -0.3607  0.4009
 5530SOL    HW128223   2.006   1.072  16.968  1.1050 -1.7902  0.9915
 5530SOL    HW228224   2.046   0.949  16.891 -0.8832 -1.0718 -0.6174
 5531SOL     OW28225   0.301   2.457  12.690  0.1859 -0.1118  0.3863
 5531SOL    HW128226   0.332   2.508  12.616  2.4725  1.2564  2.2927
 5531SOL    HW228227   0.283   2.532  12.747 -0.9870 -1.3754  1.6831
 5532SOL     OW28228   0.923   0.751  10.921 -0.2621 -0.3773  0.0767
 5532SOL    HW128229   0.997   0.700  10.888 -0.9359  0.4102 -2.6875
 5532SOL    HW228230   0.885   0.706  10.996 -0.8626 -1.2206 -0.7292
 5533SOL     OW28231   1.387   2.873  13.182  0.1823 -0.2322 -0.0268
 5533SOL    HW128232   1.302   2.914  13.197 -0.0188 -0.4206 -0.6435
 5533SOL    HW228233   1.436   2.954  13.168  2.0927 -0.9295  2.6271
 5534SOL     OW28234   4.501   3.472   5.503  0.3039  0.0320 -0.1715
 5534SOL    HW128235   4.506   3.565   5.523  3.3368 -0.0139 -0.6390
 5534SOL    HW228236   4.583   3.433   5.533  0.9208  2.7515  1.6431
 5535SOL     OW28237   2.754   3.826   1.437  0.1972  0.7972  0.9753
 5535SOL    HW128238   2.771   3.802   1.528  0.4235 -0.7732  0.5168
 5535SOL    HW228239   2.660   3.826   1.420  0.2263 -1.3858  0.8831
 5536SOL     OW28240   1.286   4.607   8.586  0.7503 -0.3528 -0.3431
 5536SOL    HW128241   1.317   4.517   8.598  1.2321  0.0159  1.1503
 5536SOL    HW228242   1.358   4.654   8.628 -0.8924 -0.6933  2.8518
 5537SOL     OW28243   2.064   2.407   4.200  0.1220  0.4569  0.3503
 5537SOL    HW128244   2.102   2.345   4.262 -0.9727  1.6577  2.2025
 5537SOL    HW228245   2.142   2.442   4.156 -0.6993 -0.2501 -1.7099
 5538SOL     OW28246   0.190   3.878  17.563  0.0752 -0.6212  0.1143
 5538SOL    HW128247   0.193   3.858  17.656 -1.3926  0.0973  0.3062
 5538SOL    HW228248   0.109   3.927  17.550  1.1236  0.4708 -2.4414
 5539SOL     OW28249   1.817   3.699   7.345 -0.2525  0.8241 -0.5312
 5539SOL    HW128250   1.783   3.610   7.338  1.9243 -0.1724  1.4493
 5539SOL    HW228251   1.893   3.699   7.287 -1.5679 -0.3993 -2.2587
 5540SOL     OW28252   3.927   0.781  11.336  0.3801  0.3549  0.0668
 5540SOL    HW128253   4.009   0.796  11.383  0.1360  3.3288 -0.4565
 5540SOL    HW228254   3.868   0.753  11.407  0.3134  0.2518 -0.0301
 5541SOL     OW28255   3.143   1.576   3.211  0.2050 -0.7661  0.2635
 5541SOL    HW128256   3.106   1.532   3.133  0.4781 -0.2037 -0.1826
 5541SOL    HW228257   3.235   1.570   3.186  0.1292 -1.1988  0.0728
 5542SOL     OW28258   2.810   1.985   6.406 -0.7014 -0.5497  0.0978
 5542SOL    HW128259   2.887   2.041   6.412 -0.9423 -0.3861  1.6893
 5542SOL    HW228260   2.790   2.001   6.313  0.0500  1.0839  0.2088
 5543SOL     OW28261   4.589   3.660   6.380  0.0739  0.0323 -0.2185
 5543SOL    HW128262   4.588   3.751   6.411  1.6710  1.1565 -3.5274
 5543SOL    HW228263   4.616   3.671   6.289  1.0439  0.7850  0.1619
 5544SOL     OW28264   4.676   1.738  10.353  0.2371 -0.3651 -0.0929
 5544SOL    HW128265   4.608   1.754  10.419  0.9208 -0.0676  0.5400
 5544SOL    HW228266   0.004   1.701  10.412  0.3016  2.8420  1.8631
 5545SOL     OW28267   4.471   0.645   4.255 -0.3569 -0.2738  0.0845
 5545SOL    HW128268   4.421   0.617   4.332 -0.3012 -2.9385 -0.8388
 5545SOL    HW228269   4.415   0.622   4.181  0.0175  1.1461 -0.6378
 5546SOL     OW28270   0.643   4.406   2.050  0.1005  0.0071 -0.4090
 5546SOL    HW128271   0.572   4.370   1.997  1.5609 -0.6010 -1.9345
 5546SOL    HW228272   0.709   4.337   2.050  0.4468  0.3375  0.5742
 5547SOL     OW28273   0.584   3.831  11.482 -0.2153 -0.1206  0.1264
 5547SOL    HW128274   0.504   3.801  11.526  0.4973 -0.4053  1.2177
 5547SOL    HW228275   0.626   3.860  11.563 -0.0282 -0.6749  0.2249
 5548SOL     OW28276   0.886   2.557   5.796  0.3841 -0.5860  0.4644
 5548SOL    HW128277   0.869   2.609   5.874  0.8141  1.1867 -0.6194
 5548SOL    HW228278   0.815   2.585   5.738  0.0787 -0.8097  0.7335
 5549SOL     OW28279   1.536   0.701   5.602 -0.2413 -0.3580  0.5339
 5549SOL    HW128280   1.459   0.645   5.610 -0.7495 -0.0140 -2.1939
 5549SOL    HW228281   1.593   0.654   5.664  0.3483 -2.4892 -1.5882
 5550SOL     OW28282   3.727   4.422   8.961 -0.3995  0.5760  0.2924
 5550SOL    HW128283   3.666   4.402   9.032 -1.0490 -1.1703 -0.7666
 5550SOL    HW228284   3.777   4.493   9.002 -2.2371  2.1713 -0.2181
 5551SOL     OW28285   3.400   4.133  16.167 -0.5752  0.0791  0.1277
 5551SOL    HW128286   3.384   4.064  16.103  1.1572  0.6321 -0.9184
 5551SOL    HW228287   3.398   4.080  16.246  0.8609  0.9055  0.7158
 5552SOL     OW28288   3.716   0.173   2.891  0.1405  0.2227 -0.0609
 5552SOL    HW128289   3.729   0.084   2.860  0.3470  1.1372 -2.5856
 5552SOL    HW228290   3.656   0.214   2.828 -0.0773  0.2707  0.1747
 5553SOL     OW28291   1.009   1.010   3.807 -0.3025  0.2353  0.3829
 5553SOL    HW128292   1.016   1.064   3.885 -1.4800 -0.5700  1.0405
 5553SOL    HW228293   0.915   0.996   3.803 -0.5497  1.9757  0.2627
 5554SOL     OW28294   2.759   3.227  17.690 -0.3457  0.2852 -0.6069
 5554SOL    HW128295   2.825   3.284  17.729 -1.4129  0.0361  1.5711
 5554SOL    HW228296   2.818   3.153  17.676 -2.1261 -1.1890 -0.3746
 5555SOL     OW28297   1.427   2.935   9.001  0.0051 -0.1134  0.1455
 5555SOL    HW128298   1.469   3.018   8.977 -2.4676  0.7663 -1.1794
 5555SOL    HW228299   1.488   2.884   9.053 -0.3325 -1.7798 -1.1057
 5556SOL     OW28300   2.737   2.019   6.167 -0.2492 -0.4544  0.2720
 5556SOL    HW128301   2.748   2.111   6.145 -1.9962 -0.2246  0.4014
 5556SOL    HW228302   2.818   1.975   6.142 -0.2293  0.6377 -1.5917
 5557SOL     OW28303   0.642   1.361   3.461  0.2527  0.4698  0.1294
 5557SOL    HW128304   0.675   1.298   3.525 -1.8220  0.1334  0.8577
 5557SOL    HW228305   0.676   1.317   3.383 -0.4297  1.8400 -0.9496
 5558SOL     OW28306   4.083   1.346   2.322 -0.2790  0.6634 -0.5773
 5558SOL    HW128307   4.136   1.302   2.389  0.7857  2.2283 -0.4200
 5558SOL    HW228308   4.006   1.291   2.337  0.4784 -0.5016 -0.9398
 5559SOL     OW28309   3.764   4.268   5.392  0.3901  0.2377  0.3853
 5559SOL    HW128310   3.858   4.260   5.407  0.5915 -0.3779 -1.2026
 5559SOL    HW228311   3.735   4.178   5.377  0.1420 -0.0337  2.4261
 5560SOL     OW28312   4.033   2.269  15.653  0.5394  0.4562  0.1750
 5560SOL    HW128313   3.971   2.203  15.622  0.0920  1.3596 -0.8871
 5560SOL    HW228314   4.003   2.344  15.601 -0.6015 -1.1664 -1.5193
 5561SOL     OW28315   4.038   2.208   5.961  0.2821 -0.3215  0.2124
 5561SOL    HW128316   4.019   2.182   5.871  0.8362  0.4878 -0.1470
 5561SOL    HW228317   4.110   2.152   5.987 -0.8597 -0.7318  2.4496
 5562SOL     OW28318   0.991   0.381   9.191  0.0956  0.3312 -0.4930
 5562SOL    HW128319   0.936   0.446   9.234 -0.2311  0.6017 -1.3185
 5562SOL    HW228320   1.041   0.356   9.268 -2.5341 -2.1203  0.4424
 5563SOL     OW28321   2.846   1.750   9.160  0.1239 -0.2639  0.3161
 5563SOL    HW128322   2.879   1.671   9.204  0.0165  1.0402  2.6876
 5563SOL    HW228323   2.785   1.791   9.221 -0.1030 -0.2709  0.0902
 5564SOL     OW28324   2.463   2.963   9.051 -0.1383 -0.0786 -0.7017
 5564SOL    HW128325   2.462   2.935   8.959 -1.0795  0.6338 -0.9031
 5564SOL    HW228326   2.556   2.948   9.063 -0.0955 -0.2864 -1.2606
 5565SOL     OW28327   1.230   1.395   6.622 -0.1495 -0.7755 -0.3055
 5565SOL    HW128328   1.241   1.483   6.584  0.6273  0.6483  3.1990
 5565SOL    HW228329   1.306   1.392   6.680  1.0579 -3.1361 -2.0376
 5566SOL     OW28330   2.471   3.629   4.072 -0.1689 -0.1073  0.1713
 5566SOL    HW128331   2.387   3.662   4.037 -0.5300  0.0436  1.1891
 5566SOL    HW228332   2.437   3.622   4.161 -1.6624 -1.0596 -0.4635
 5567SOL     OW28333   4.028   1.074   7.374 -0.1036  0.1137  0.2387
 5567SOL    HW128334   4.094   1.135   7.407 -0.0739 -0.8196  1.9241
 5567SOL    HW228335   4.080   1.007   7.331  1.3935  0.8007  0.9926
 5568SOL     OW28336   0.436   1.752  14.489 -0.0100 -0.7464 -0.3620
 5568SOL    HW128337   0.397   1.750  14.402  0.6605  0.6141 -0.6909
 5568SOL    HW228338   0.527   1.736  14.462  0.1321 -3.3354  1.6718
 5569SOL     OW28339   2.268   0.298   1.916  0.1331 -0.0096  0.7953
 5569SOL    HW128340   2.291   0.236   1.985 -0.6385  0.9227  1.8883
 5569SOL    HW228341   2.201   0.242   1.876 -0.1745  1.0956 -0.2377
 5570SOL     OW28342   4.690   0.488  14.182 -0.4786 -0.0436 -0.1153
 5570SOL    HW128343   4.606   0.519  14.217 -0.2146  2.5015 -1.7240
 5570SOL    HW228344   0.002   0.560  14.222 -1.1938  0.2492  0.2413
 5571SOL     OW28345   4.416   1.873  14.586 -0.6523  0.1982 -0.0346
 5571SOL    HW128346   4.451   1.803  14.640  0.2302 -0.9889 -2.1710
 5571SOL    HW228347   4.460   1.949  14.624 -0.9075  1.4291 -2.2009
 5572SOL     OW28348   3.391   2.698   6.091 -0.1218  0.0145  0.3078
 5572SOL    HW128349   3.442   2.736   6.162  0.0876  0.0822  0.1207
 5572SOL    HW228350   3.396   2.764   6.022 -0.7698  0.9242  1.1233
 5573SOL     OW28351   0.448   0.623   9.395 -0.7096  0.4289  0.2637
 5573SOL    HW128352   0.527   0.569   9.401 -0.5186  0.4835 -1.9410
 5573SOL    HW228353   0.378   0.562   9.375 -2.3047  2.5187 -0.4607
 5574SOL     OW28354   0.806   0.052   7.367  0.2690 -0.0385 -0.0766
 5574SOL    HW128355   0.867   0.118   7.400  0.0046  1.6298 -2.9363
 5574SOL    HW228356   0.727   0.084   7.410  0.4172  0.1519  0.0588
 5575SOL     OW28357   3.485   1.482   6.561 -0.1119  0.3278  0.2298
 5575SOL    HW128358   3.525   1.432   6.490  1.8914 -1.9312  2.9754
 5575SOL    HW228359   3.559   1.534   6.595 -1.2468  1.1183  1.4661
 5576SOL     OW28360   4.688   0.376   5.505  0.0577 -0.1311  0.2032
 5576SOL    HW128361   4.661   0.444   5.443 -0.4059  1.7265  2.4429
 5576SOL    HW228362   4.676   0.295   5.456 -0.8629  1.1607 -1.7164
 5577SOL     OW28363   3.166   1.147   7.258 -0.1849  0.0170 -0.2630
 5577SOL    HW128364   3.096   1.168   7.321 -1.9138 -0.6509 -1.9680
 5577SOL    HW228365   3.193   1.073   7.313 -1.2784 -0.8124 -0.8548
 5578SOL     OW28366   1.716   0.472   6.654  0.4752  0.4588  0.3168
 5578SOL    HW128367   1.789   0.500   6.709  0.4591  1.4618 -0.1721
 5578SOL    HW228368   1.670   0.402   6.700 -0.6366  0.4241 -0.8497
 5579SOL     OW28369   3.035   3.951   9.937  0.2788 -0.6932  0.2262
 5579SOL    HW128370   3.059   3.910  10.020  1.9556 -3.2129 -1.4933
 5579SOL    HW228371   2.955   3.904   9.911  0.7518 -1.4204  0.0735
 5580SOL     OW28372   3.287   0.129   8.766 -0.1259 -0.3188 -0.3747
 5580SOL    HW128373   3.258   0.084   8.687 -0.2975 -1.3660  0.2773
 5580SOL    HW228374   3.315   0.053   8.819  1.6440  2.0143  2.0380
 5581SOL     OW28375   4.145   0.992  14.398  0.2607 -0.5086 -0.6443
 5581SOL    HW128376   4.074   0.974  14.460 -0.6314  0.3495 -1.4168
 5581SOL    HW228377   4.227   0.984  14.446 -1.4007  0.2657  2.2721
 5582SOL     OW28378   0.049   3.286  15.183 -0.0885  0.6240 -0.1199
 5582SOL    HW128379   4.725   3.318  15.115 -2.1065  1.4707  2.0700
 5582SOL    HW228380   0.109   3.227  15.139 -0.7263 -1.1836  1.4619
 5583SOL     OW28381   3.620   4.179   4.142  0.1764  0.4731 -0.1850
 5583SOL    HW128382   3.542   4.135   4.109  0.8665  0.5270 -1.8810
 5583SOL    HW228383   3.590   4.268   4.127 -2.9001 -0.3845  0.9003
 5584SOL     OW28384   0.979   1.538   2.609  0.3632  0.1641  0.3524
 5584SOL    HW128385   1.009   1.546   2.700 -0.8867 -0.8536  0.8559
 5584SOL    HW228386   1.030   1.463   2.580 -0.6507 -0.5281  0.3447
 5585SOL     OW28387   0.586   1.324   8.226  0.5283  0.1797 -0.5571
 5585SOL    HW128388   0.610   1.276   8.147 -0.3213 -0.1752 -0.6007
 5585SOL    HW228389   0.547   1.258   8.284 -1.3154  0.6564 -1.2450
 5586SOL     OW28390   2.858   0.956   6.467 -0.9407 -0.3397 -0.4376
 5586SOL    HW128391   2.947   0.979   6.442 -0.7191  0.1315  0.7501
 5586SOL    HW228392   2.873   0.937   6.560 -1.8899  1.4198  0.0784
 5587SOL     OW28393   2.252   4.212   8.330  0.1286 -0.1570 -0.1008
 5587SOL    HW128394   2.175   4.194   8.384 -1.0977  1.3248 -1.3563
 5587SOL    HW228395   2.325   4.194   8.389 -0.7995  1.2795  1.5038
 5588SOL     OW28396   2.049   0.088   5.880 -0.2115  0.5855  0.6557
 5588SOL    HW128397   2.030   0.165   5.825  0.5946 -0.1053 -0.5940
 5588SOL    HW228398   1.961   0.051   5.885  0.8839 -2.2834 -1.6531
 5589SOL     OW28399   4.161   3.413   9.572  0.1563  0.0478  0.1781
 5589SOL    HW128400   4.102   3.476   9.613  0.9599 -0.1396  1.6102
 5589SOL    HW228401   4.148   3.339   9.631  0.2401 -0.7967 -0.8627
 5590SOL     OW28402   0.136   2.509  16.438  0.0537 -0.2625  0.0012
 5590SOL    HW128403   0.125   2.460  16.357  2.0103 -0.4973 -0.1141
 5590SOL    HW228404   0.054   2.558  16.448  0.9190  1.0039  0.9629
 5591SOL     OW28405   4.619   1.175  15.273 -0.6106  0.1660  0.4175
 5591SOL    HW128406   4.580   1.089  15.285 -1.1908  0.4746  0.7626
 5591SOL    HW228407   4.549   1.231  15.307 -1.7653 -1.4075  0.6136
 5592SOL     OW28408   4.383   0.902   9.225 -0.3757  0.0554  0.2839
 5592SOL    HW128409   4.336   0.984   9.244 -2.1215 -0.6309 -1.0753
 5592SOL    HW228410   4.349   0.848   9.296  1.4493  0.7785  1.6877
 5593SOL     OW28411   0.724   2.274   2.383  0.5759  0.1059 -0.1561
 5593SOL    HW128412   0.646   2.222   2.363  1.3928 -0.8243 -0.9131
 5593SOL    HW228413   0.698   2.336   2.451 -1.4316  0.2087 -1.0154
 5594SOL     OW28414   0.995   2.074   1.168 -0.4677 -0.1473 -0.2209
 5594SOL    HW128415   0.939   2.109   1.237  1.0375 -0.0751  0.9605
 5594SOL    HW228416   0.995   2.148   1.106 -0.2154  0.4667  0.5151
 5595SOL     OW28417   3.675   3.894  16.658  0.2610  0.4894  0.2222
 5595SOL    HW128418   3.688   3.930  16.570  0.3503 -1.2915 -0.4840
 5595SOL    HW228419   3.766   3.896  16.686 -0.3091  2.3952  2.0126
 5596SOL     OW28420   2.167   1.476   3.123 -0.0370  0.7263 -0.4513
 5596SOL    HW128421   2.104   1.535   3.081 -2.5889 -1.2372  0.5634
 5596SOL    HW228422   2.249   1.497   3.080  0.4347 -1.9023 -0.8268
 5597SOL     OW28423   1.488   3.259   0.733  0.7427  0.0720 -0.0657
 5597SOL    HW128424   1.531   3.228   0.813 -2.4721  0.0238  1.6689
 5597SOL    HW228425   1.529   3.205   0.666  1.3928 -0.3422  0.6740
 5598SOL     OW28426   3.071   0.931   8.636 -0.0350 -0.2718  0.1038
 5598SOL    HW128427   3.123   0.977   8.569 -0.4212 -1.0589 -0.7322
 5598SOL    HW228428   3.052   0.858   8.578  0.6587 -1.8513  1.8652
 5599SOL     OW28429   1.898   2.316   2.365  0.0160 -0.7726 -0.3478
 5599SOL    HW128430   1.869   2.401   2.333  2.7388 -0.0546 -0.8809
 5599SOL    HW228431   1.864   2.255   2.299  3.5049 -2.0198 -0.9901
 5600SOL     OW28432   4.240   0.106  14.802  0.0316  0.0644  0.3426
 5600SOL    HW128433   4.155   0.065  14.783  0.7981 -0.5107 -1.9556
 5600SOL    HW228434   4.303   0.040  14.771 -1.2616 -0.2801 -1.5960
 5601SOL     OW28435   3.467   3.096   8.708 -0.4763  0.6660  0.0134
 5601SOL    HW128436   3.504   3.074   8.793  0.9852 -1.7837 -1.2219
 5601SOL    HW228437   3.511   3.174   8.676 -0.4452 -0.1473 -1.9754
 5602SOL     OW28438   0.723   2.392   2.643  0.0451  0.0149 -0.1782
 5602SOL    HW128439   0.757   2.320   2.696  0.3699  0.7523  0.6165
 5602SOL    HW228440   0.639   2.426   2.675  0.7446  1.4789  0.1215
 5603SOL     OW28441   1.825   1.161  11.104 -0.7537  0.4757 -0.1094
 5603SOL    HW128442   1.869   1.184  11.185 -0.8247  2.7172 -0.7252
 5603SOL    HW228443   1.738   1.153  11.143 -0.2545 -1.4210  0.6329
 5604SOL     OW28444   0.053   1.360   2.095  0.7716  0.2977  0.1051
 5604SOL    HW128445   4.714   1.418   2.086  0.4570  0.0955  1.4771
 5604SOL    HW228446   0.042   1.297   2.023 -0.9513  1.2002 -0.4225
 5605SOL     OW28447   0.293   1.093   4.848  0.0566  0.1944  0.0206
 5605SOL    HW128448   0.257   1.009   4.821 -0.0526 -0.8525  3.4607
 5605SOL    HW228449   0.222   1.149   4.816 -1.0396 -1.0977  0.2090
 5606SOL     OW28450   0.951   3.690  10.135  0.1932  0.1254 -0.1810
 5606SOL    HW128451   0.881   3.754  10.139  1.0583  1.1555 -1.8847
 5606SOL    HW228452   0.983   3.699  10.225 -0.4128  0.8974 -0.0502
 5607SOL     OW28453   2.017   3.796   9.375  0.6390 -0.1183 -0.1460
 5607SOL    HW128454   1.954   3.741   9.423  2.2806 -1.1981  0.7469
 5607SOL    HW228455   2.087   3.780   9.438  1.5951 -1.8343 -1.6538
 5608SOL     OW28456   1.993   2.546   2.639 -0.5704 -0.0101  0.4369
 5608SOL    HW128457   2.006   2.457   2.670 -2.7466  0.1448  1.7966
 5608SOL    HW228458   2.053   2.596   2.695  1.4180 -1.0416 -0.7622
 5609SOL     OW28459   0.501   2.878   6.717 -0.0258 -0.6628 -0.0329
 5609SOL    HW128460   0.514   2.941   6.647 -3.8172  1.6136  1.3337
 5609SOL    HW228461   0.415   2.840   6.702 -1.3907  2.2905  0.3773
 5610SOL     OW28462   0.834   3.738   3.180 -0.3248 -0.3780 -0.2711
 5610SOL    HW128463   0.904   3.728   3.116 -4.7448 -0.2083 -5.1782
 5610SOL    HW228464   0.834   3.652   3.223  2.1571  0.4670  1.3941
 5611SOL     OW28465   4.268   1.781   4.771 -0.1168  0.3363 -0.3868
 5611SOL    HW128466   4.238   1.691   4.786  2.7729 -0.5480  0.1613
 5611SOL    HW228467   4.256   1.824   4.855  2.2862  0.1405  0.0760
 5612SOL     OW28468   2.320   2.045  11.179  0.5438 -0.7206 -0.3536
 5612SOL    HW128469   2.332   2.089  11.095 -1.3128  0.5792  0.0649
 5612SOL    HW228470   2.226   2.029  11.172  0.1118  1.4447  0.6912
 5613SOL     OW28471   3.104   2.983   5.252 -0.3803 -0.2007 -0.2252
 5613SOL    HW128472   3.143   3.055   5.203  0.0279  1.6630  2.8269
 5613SOL    HW228473   3.081   3.035   5.329  0.6295 -1.5295  0.9680
 5614SOL     OW28474   2.542   4.048   6.617 -0.1363 -0.2078  0.2250
 5614SOL    HW128475   2.566   4.132   6.578  0.2843 -0.6435 -0.4678
 5614SOL    HW228476   2.566   4.073   6.706  0.9771  4.4820 -1.4015
 5615SOL     OW28477   3.550   2.682  14.578 -0.0478 -0.1299  0.1298
 5615SOL    HW128478   3.597   2.760  14.608  0.1645 -0.6369  1.1107
 5615SOL    HW228479   3.460   2.714  14.577  0.2488  0.5781 -2.5508
 5616SOL     OW28480   4.161   4.129  10.801 -0.2673  0.7489 -0.9200
 5616SOL    HW128481   4.191   4.155  10.888 -0.5818  1.6435 -1.0800
 5616SOL    HW228482   4.074   4.169  10.801 -0.4005  0.4680  0.3635
 5617SOL     OW28483   0.006   4.691   0.186 -0.7285 -0.5989 -0.4308
 5617SOL    HW128484   0.091   4.648   0.195 -0.6871 -0.2802  0.7108
 5617SOL    HW228485   4.701   4.645   0.114 -0.5939  0.2045 -1.0147
 5618SOL     OW28486   2.495   2.912   2.996 -0.0512  0.2265 -0.5029
 5618SOL    HW128487   2.423   2.915   3.059 -0.0239 -1.0891 -0.4203
 5618SOL    HW228488   2.461   2.852   2.930  0.6355  0.8638 -1.4326
 5619SOL     OW28489   4.097   2.320   8.936 -0.6342 -0.0968  0.4476
 5619SOL    HW128490   4.191   2.309   8.923 -1.0669 -0.1366 -2.6469
 5619SOL    HW228491   4.084   2.413   8.914 -0.7369  0.1718  1.6508
 5620SOL     OW28492   3.243   1.522   7.874 -0.0272  0.3172 -0.1252
 5620SOL    HW128493   3.308   1.588   7.899  2.7564 -1.9138 -1.4980
 5620SOL    HW228494   3.293   1.490   7.799 -0.7528  1.2318 -0.9913
 5621SOL     OW28495   1.552   3.476   9.503 -0.0465  0.2666  0.4043
 5621SOL    HW128496   1.551   3.546   9.438  3.6861  1.0414  1.1707
 5621SOL    HW228497   1.624   3.417   9.482 -0.5742 -1.0199  2.1648
 5622SOL     OW28498   0.951   0.875   9.974  0.3540  0.0332  0.4355
 5622SOL    HW128499   1.006   0.799   9.991  1.3847  0.9541  1.1861
 5622SOL    HW228500   0.961   0.935  10.047 -4.1061 -0.8436  1.8145
 5623SOL     OW28501   2.716   1.561   6.659 -0.3384  0.3627 -0.3970
 5623SOL    HW128502   2.693   1.579   6.751 -0.2445  2.3494 -0.7578
 5623SOL    HW228503   2.765   1.641   6.638  3.3860 -1.5186  1.1032
 5624SOL     OW28504   4.318   4.211   3.443  0.5486 -0.0084 -0.3883
 5624SOL    HW128505   4.405   4.178   3.464  0.1501 -0.8658 -0.0667
 5624SOL    HW228506   4.322   4.303   3.470 -2.4478 -0.3271  1.2458
 5625SOL     OW28507   2.168   2.006   3.337 -0.0714 -0.5418  0.2649
 5625SOL    HW128508   2.173   2.080   3.398  0.8092  1.2428 -2.0049
 5625SOL    HW228509   2.130   1.935   3.390 -0.2886 -1.0216 -0.5369
 5626SOL     OW28510   4.685   0.757   2.549 -0.1668  0.1767 -0.5076
 5626SOL    HW128511   4.711   0.800   2.468 -0.8928  0.4329 -0.6091
 5626SOL    HW228512   4.637   0.684   2.508  0.8355 -0.3239 -0.7820
 5627SOL     OW28513   0.973   1.248   4.534  0.0405  0.0528  0.1262
 5627SOL    HW128514   1.037   1.180   4.514 -0.1990 -0.7654  2.1243
 5627SOL    HW228515   0.895   1.196   4.513 -0.8270  1.2273  0.4086
 5628SOL     OW28516   2.667   0.256  16.913 -0.2175 -0.1362  0.2113
 5628SOL    HW128517   2.655   0.237  17.006  2.8890  1.4977  0.9512
 5628SOL    HW228518   2.718   0.337  16.904 -1.4825  0.4986 -1.3936
 5629SOL     OW28519   3.490   0.607   6.194 -0.6510  0.0015 -0.5915
 5629SOL    HW128520   3.562   0.662   6.163 -1.1511  0.9910 -0.0073
 5629SOL    HW228521   3.446   0.582   6.113  0.6959  0.8869 -1.6092
 5630SOL     OW28522   4.315   0.997  14.621  0.3588 -0.0478  0.3404
 5630SOL    HW128523   4.270   1.007  14.705  1.1594 -5.2242  1.3320
 5630SOL    HW228524   4.405   1.012  14.649 -0.0148  0.2191  1.4261
 5631SOL     OW28525   2.396   4.610   8.069 -0.4241  0.2563 -0.3845
 5631SOL    HW128526   2.354   4.542   8.122  0.0394  1.2102  1.2124
 5631SOL    HW228527   2.335   4.620   7.996 -0.9090 -0.7713 -0.1115
 5632SOL     OW28528   3.314   0.988  13.651  0.1733  0.5145  0.3540
 5632SOL    HW128529   3.305   1.057  13.716  0.3315  0.4127  0.4852
 5632SOL    HW228530   3.227   0.950  13.662  0.3281  0.6046  1.8207
 5633SOL     OW28531   2.413   3.305  17.574  0.0068 -0.5298 -0.2583
 5633SOL    HW128532   2.383   3.396  17.573  0.8534 -0.2241  1.7812
 5633SOL    HW228533   2.427   3.287  17.481  2.1912 -1.1309  0.1818
 5634SOL     OW28534   2.284   4.487   9.763 -0.1720 -0.4397  0.1690
 5634SOL    HW128535   2.259   4.563   9.816  0.1700 -0.5941  0.5531
 5634SOL    HW228536   2.321   4.428   9.828  2.2859 -1.1459 -1.8605
 5635SOL     OW28537   3.610   3.364   2.490  0.5679 -0.2636  0.3418
 5635SOL    HW128538   3.687   3.396   2.537  0.8897  1.2487 -1.2119
 5635SOL    HW228539   3.578   3.445   2.449  1.4056  0.7500  1.6616
 5636SOL     OW28540   1.208   0.985   9.093  0.2181 -0.0226  0.3280
 5636SOL    HW128541   1.113   0.994   9.103  0.0973 -1.3126  0.2929
 5636SOL    HW228542   1.214   0.920   9.162 -0.9537  0.7625  1.1857
 5637SOL     OW28543   2.136   0.262   6.423  0.0075  0.2785 -1.0080
 5637SOL    HW128544   2.189   0.213   6.486 -0.8323  1.1967  0.4115
 5637SOL    HW228545   2.199   0.334   6.416 -0.2917  0.5517 -0.8867
 5638SOL     OW28546   1.415   3.078   4.883 -0.1283 -0.1413 -0.2029
 5638SOL    HW128547   1.427   3.167   4.916 -4.4609 -0.1649  1.3764
 5638SOL    HW228548   1.432   3.082   4.789 -1.6226  0.4653 -0.4528
 5639SOL     OW28549   3.294   3.679   6.859  0.1090 -0.6617 -0.3503
 5639SOL    HW128550   3.349   3.654   6.933 -0.4442  0.2410  0.3694
 5639SOL    HW228551   3.205   3.671   6.892 -0.8318  2.5446 -2.1579
 5640SOL     OW28552   2.383   3.734   6.099 -0.4306  0.2588 -0.2857
 5640SOL    HW128553   2.374   3.814   6.047  0.4738  0.3858 -0.2505
 5640SOL    HW228554   2.323   3.684   6.043  2.1339 -2.5940 -0.4686
 5641SOL     OW28555   4.723   2.788   5.632 -0.5157  0.0718 -0.3127
 5641SOL    HW128556   4.708   2.798   5.726  0.0638  1.6729 -0.3832
 5641SOL    HW228557   4.689   2.873   5.605 -1.4932 -0.5142 -0.9313
 5642SOL     OW28558   3.165   2.179   3.694 -0.1654 -0.1913 -0.3471
 5642SOL    HW128559   3.109   2.256   3.700 -2.3177 -1.5825 -2.4080
 5642SOL    HW228560   3.202   2.188   3.606  1.1400  1.2331  0.3415
 5643SOL     OW28561   2.971   0.491   3.014  0.0256 -0.1163 -0.3708
 5643SOL    HW128562   3.025   0.530   3.082 -0.9534 -0.0960  0.3875
 5643SOL    HW228563   2.885   0.520   3.043  0.1758  0.2821 -0.3271
 5644SOL     OW28564   1.127   3.222   3.367  0.2685 -0.2903  0.2220
 5644SOL    HW128565   1.078   3.164   3.425 -2.7615  0.4375 -1.6157
 5644SOL    HW228566   1.093   3.309   3.387  0.5334  0.3909 -2.2818
 5645SOL     OW28567   2.812   1.156  14.020  1.2190  0.1399  0.2154
 5645SOL    HW128568   2.726   1.180  14.054  1.0944 -0.9328  0.6814
 5645SOL    HW228569   2.850   1.105  14.092  0.5864  0.2793  0.6457
 5646SOL     OW28570   2.010   0.629   9.661  0.0217 -0.0332  0.2191
 5646SOL    HW128571   2.072   0.696   9.634  2.0202 -1.6947  0.6523
 5646SOL    HW228572   1.935   0.647   9.605 -1.0241 -3.2958  0.5795
 5647SOL     OW28573   4.486   0.333   2.095 -0.4401 -0.4655 -0.3101
 5647SOL    HW128574   4.577   0.317   2.071 -1.5293 -0.8282 -4.1119
 5647SOL    HW228575   4.475   0.288   2.179  1.8850 -0.5328 -0.0506
 5648SOL     OW28576   3.460   2.327   1.109 -0.1026  0.0296  0.0902
 5648SOL    HW128577   3.489   2.326   1.200  1.1351 -1.7746 -0.3351
 5648SOL    HW228578   3.541   2.307   1.063  0.9144 -0.1320  1.9616
 5649SOL     OW28579   0.684   4.636   4.851  0.0010  0.4567 -0.1156
 5649SOL    HW128580   0.679   4.730   4.832 -0.8173  0.6662  1.1703
 5649SOL    HW228581   0.616   4.646   4.917 -0.8972 -1.9933 -0.6905
 5650SOL     OW28582   4.398   3.798   0.162  0.0691 -0.3217 -0.1507
 5650SOL    HW128583   4.347   3.772   0.085 -0.7682 -0.8351  0.5823
 5650SOL    HW228584   4.484   3.779   0.125 -0.7455  0.7158 -2.5949
 5651SOL     OW28585   1.518   0.525   8.613  0.0137 -0.0083 -0.5444
 5651SOL    HW128586   1.501   0.437   8.579 -3.0240  0.1597  0.5916
 5651SOL    HW228587   1.530   0.506   8.706 -0.1995  1.8053 -0.1421
 5652SOL     OW28588   2.975   2.200   5.629  0.0557 -0.6712  0.3580
 5652SOL    HW128589   2.919   2.242   5.563 -0.3972  1.0874  1.8822
 5652SOL    HW228590   2.977   2.262   5.702 -0.2647  1.0758 -1.1105
 5653SOL     OW28591   0.446   1.569  17.503  0.0705 -0.5099  0.4434
 5653SOL    HW128592   0.422   1.585  17.594 -0.0131 -1.6794  0.6369
 5653SOL    HW228593   0.490   1.485  17.518 -1.3830 -1.4291 -0.3724
 5654SOL     OW28594   2.541   4.445   4.386 -0.0815 -0.0429  0.2266
 5654SOL    HW128595   2.446   4.455   4.395 -0.3561 -4.6831  2.4031
 5654SOL    HW228596   2.551   4.354   4.360 -0.1142  0.2839 -0.9223
 5655SOL     OW28597   3.619   2.354   7.970  0.0490 -0.0690 -0.6775
 5655SOL    HW128598   3.610   2.355   8.065 -0.5725  2.1376 -0.7680
 5655SOL    HW228599   3.532   2.321   7.945  0.6910 -1.2435 -1.3859
 5656SOL     OW28600   2.322   0.615   9.093 -0.0018 -0.0451  0.6255
 5656SOL    HW128601   2.238   0.580   9.121  0.0376  0.0049  0.8054
 5656SOL    HW228602   2.333   0.571   9.008  1.8105  1.5500  0.0246
 5657SOL     OW28603   0.473   3.021   1.353  0.0537  0.8107  0.4627
 5657SOL    HW128604   0.431   2.974   1.424  0.4598  0.5490  0.5305
 5657SOL    HW228605   0.565   3.009   1.379 -0.2596  0.1583  1.2509
 5658SOL     OW28606   2.006   4.664   9.067  0.1731 -0.1174 -0.3479
 5658SOL    HW128607   2.029   4.637   9.156  3.7993  2.0201 -0.6286
 5658SOL    HW228608   2.072   4.623   9.011  1.0684  2.6318 -1.2807
 5659SOL     OW28609   3.904   3.590   2.224  0.0633  0.1508  0.2397
 5659SOL    HW128610   3.835   3.546   2.273 -1.2643  2.5066  0.5067
 5659SOL    HW228611   3.876   3.682   2.233  1.5799  0.2482  3.7063
 5660SOL     OW28612   3.462   1.531   4.914  0.0979 -0.0040 -0.2625
 5660SOL    HW128613   3.428   1.596   4.852  2.1195  0.2847 -1.0615
 5660SOL    HW228614   3.374   1.495   4.926 -0.0294 -0.3799 -2.1896
 5661SOL     OW28615   4.129   1.212  16.486 -0.9813  0.0192 -0.4844
 5661SOL    HW128616   4.096   1.194  16.574 -0.1764 -2.7402 -0.7321
 5661SOL    HW228617   4.210   1.261  16.500 -0.4138 -1.3439  1.0782
 5662SOL     OW28618   1.797   0.754   7.552 -0.1305  0.1161  0.2568
 5662SOL    HW128619   1.832   0.763   7.640  1.2833  0.7404 -0.3708
 5662SOL    HW228620   1.862   0.799   7.498  0.7684 -0.8781  0.5165
 5663SOL     OW28621   4.730   3.100   3.042 -0.2593 -0.6155 -0.1985
 5663SOL    HW128622   4.732   3.004   3.035 -0.3445 -0.7207  1.2303
 5663SOL    HW228623   4.687   3.112   3.127 -1.4914 -1.7655 -0.6675
 5664SOL     OW28624   4.043   0.170   2.255 -0.1606  0.3442  0.7516
 5664SOL    HW128625   3.958   0.182   2.296  0.2098  1.4975  1.1925
 5664SOL    HW228626   4.043   0.228   2.179  0.8767  1.8983  1.9437
 5665SOL     OW28627   2.118   0.154  12.749  0.0322 -0.6010 -0.6395
 5665SOL    HW128628   2.157   0.226  12.699  1.7652  0.5114  2.2929
 5665SOL    HW228629   2.050   0.198  12.800  0.1286  0.4853 -1.4463
 5666SOL     OW28630   1.649   1.420   7.353  0.0090 -0.2604  0.9363
 5666SOL    HW128631   1.687   1.488   7.297 -1.3860 -0.2021  0.0637
 5666SOL    HW228632   1.620   1.479   7.423  0.1770 -0.3061  1.0435
 5667SOL     OW28633   0.220   2.771   2.641 -0.4615  0.1885 -0.4081
 5667SOL    HW128634   0.178   2.828   2.576 -1.5291 -2.0216 -1.6423
 5667SOL    HW228635   0.289   2.722   2.597  0.2009 -0.7527  1.6876
 5668SOL     OW28636   1.205   2.271  15.254  0.2358  0.2918 -0.0335
 5668SOL    HW128637   1.145   2.324  15.202  0.5759 -0.0136 -0.7338
 5668SOL    HW228638   1.157   2.273  15.337  0.6485  0.6741  0.1976
 5669SOL     OW28639   0.716   1.308   5.423 -0.1341 -0.7401  0.4189
 5669SOL    HW128640   0.662   1.251   5.479 -0.9948  0.2749  0.6224
 5669SOL    HW228641   0.709   1.258   5.341 -3.7285  0.7373 -0.1871
 5670SOL     OW28642   2.354   0.988  12.102 -0.0170  0.0399  0.4685
 5670SOL    HW128643   2.278   1.020  12.151 -0.1786 -0.1525  0.3424
 5670SOL    HW228644   2.401   1.066  12.074 -0.1758 -0.7255 -1.9096
 5671SOL     OW28645   2.890   3.444   1.494  0.4083  0.1640  0.4857
 5671SOL    HW128646   2.849   3.358   1.498 -0.7161  0.5621 -2.4391
 5671SOL    HW228647   2.878   3.458   1.400  0.9525  2.5013  0.7626
 5672SOL     OW28648   0.520   2.108   5.595  0.1062  0.6683 -0.4824
 5672SOL    HW128649   0.513   2.018   5.565 -0.6964  0.6661 -0.2784
 5672SOL    HW228650   0.603   2.107   5.644 -0.6563  0.7652  0.8133
 5673SOL     OW28651   1.087   1.793   1.165 -0.0825  0.2697 -0.4006
 5673SOL    HW128652   1.045   1.878   1.152 -0.3407  0.2510  0.3443
 5673SOL    HW228653   1.047   1.772   1.249  0.0095  1.1804 -0.1277
 5674SOL     OW28654   3.627   1.473   7.122  0.0255  0.3124  0.3217
 5674SOL    HW128655   3.547   1.425   7.145 -1.2017  2.1711 -0.0497
 5674SOL    HW228656   3.684   1.400   7.097  0.8939  0.8415  0.7624
 5675SOL     OW28657   3.210   1.060   1.348 -0.0415  0.0144 -0.0123
 5675SOL    HW128658   3.225   1.086   1.439 -2.5067  0.9413  0.1156
 5675SOL    HW228659   3.260   1.120   1.292 -0.6429  1.3285  0.8640
 5676SOL     OW28660   2.760   4.611   9.193  0.1919 -0.6589 -0.0064
 5676SOL    HW128661   2.844   4.653   9.210  0.1686 -0.7726  0.3918
 5676SOL    HW228662   2.717   4.671   9.132  1.2547  0.3469  0.2404
 5677SOL     OW28663   3.750   3.618  15.689 -0.5409  0.8434 -0.1356
 5677SOL    HW128664   3.680   3.621  15.624 -1.6296 -0.5476  0.9622
 5677SOL    HW228665   3.724   3.547  15.748 -0.6375 -0.3205 -1.5640
 5678SOL     OW28666   2.269   3.821  12.440  0.5232 -0.2653 -0.1039
 5678SOL    HW128667   2.325   3.759  12.486 -0.7730 -1.5167 -0.2275
 5678SOL    HW228668   2.215   3.849  12.514 -0.1598 -0.9787 -0.3302
 5679SOL     OW28669   3.036   2.968   1.971  0.1711 -0.9488 -0.8003
 5679SOL    HW128670   3.118   3.017   1.983 -0.0524 -0.3825 -1.6657
 5679SOL    HW228671   2.978   3.010   2.034 -0.0753 -0.4460 -1.3705
 5680SOL     OW28672   2.173   4.717   9.857 -0.3462  0.0372 -0.2294
 5680SOL    HW128673   2.237   0.024   9.913 -0.9300  0.5831  0.0086
 5680SOL    HW228674   2.169   0.050   9.792 -1.0813 -0.6261 -0.9031
 5681SOL     OW28675   3.030   1.356  12.845  0.1072 -0.2518 -0.8398
 5681SOL    HW128676   2.944   1.343  12.885  0.7164  1.4659  0.9940
 5681SOL    HW228677   3.068   1.425  12.899  0.1024 -0.2097 -0.8897
 5682SOL     OW28678   4.229   2.686   3.626  0.4193  0.2685 -0.2271
 5682SOL    HW128679   4.163   2.636   3.578 -0.4919  0.5944  0.6861
 5682SOL    HW228680   4.302   2.704   3.566  1.0576 -0.8426  0.2240
 5683SOL     OW28681   2.978   3.531  15.980  0.1401  0.4266 -0.6207
 5683SOL    HW128682   2.908   3.596  15.976  0.1592  0.4139 -1.1777
 5683SOL    HW228683   3.049   3.590  16.004  0.0513  0.6917 -1.0149
 5684SOL     OW28684   0.265   1.379   0.268  0.0450  0.2243  0.5051
 5684SOL    HW128685   0.332   1.400   0.202  0.6046  1.2380  1.3763
 5684SOL    HW228686   0.254   1.287   0.244 -0.2669  0.7018 -1.1719
 5685SOL     OW28687   0.983   4.512   2.402 -0.1004  0.1417 -0.4100
 5685SOL    HW128688   0.941   4.452   2.463  0.4241 -0.1543 -0.3392
 5685SOL    HW228689   0.904   4.528   2.352 -0.1003 -0.4440 -0.5895
 5686SOL     OW28690   0.997   1.525   3.888 -0.1863 -0.3049 -0.1703
 5686SOL    HW128691   1.067   1.588   3.869 -0.1851 -0.3123 -0.1897
 5686SOL    HW228692   0.976   1.505   3.797 -1.4680 -2.6120  0.6298
 5687SOL     OW28693   3.976   3.158   3.946  0.4057 -0.2652  0.4625
 5687SOL    HW128694   3.905   3.161   3.882 -0.0573 -1.0283  0.9447
 5687SOL    HW228695   4.028   3.226   3.904  1.7565 -0.1943  2.2286
 5688SOL     OW28696   1.893   2.780   9.166 -0.2820  0.1010 -0.0099
 5688SOL    HW128697   1.945   2.858   9.145 -0.1031  0.0961  0.4095
 5688SOL    HW228698   1.930   2.723   9.099  1.2226 -0.5250  1.3585
 5689SOL     OW28699   3.881   3.823   7.958  0.2842 -0.4262 -0.2720
 5689SOL    HW128700   3.802   3.875   7.945 -0.8885 -1.3820  2.8669
 5689SOL    HW228701   3.841   3.736   7.965  0.2242 -0.5739 -2.3848
 5690SOL     OW28702   1.986   2.464   8.199  0.5468 -0.7099  0.1778
 5690SOL    HW128703   1.936   2.409   8.139  0.4807 -0.8374  0.3497
 5690SOL    HW228704   2.066   2.413   8.197 -0.2432 -1.9594  0.6315
 5691SOL     OW28705   3.164   4.231  16.003 -0.3954  0.0370 -0.2311
 5691SOL    HW128706   3.209   4.154  15.968  1.6652  1.6491 -1.0802
 5691SOL    HW228707   3.126   4.199  16.085  0.3427  0.7139  0.3619
 5692SOL     OW28708   2.484   1.349   2.209  0.2264  0.1106 -0.2924
 5692SOL    HW128709   2.510   1.342   2.301 -0.4599 -1.0595 -0.1867
 5692SOL    HW228710   2.428   1.426   2.222  1.5610  0.7600  1.6984
 5693SOL     OW28711   1.162   0.323   3.026  0.1166 -0.2465 -0.3500
 5693SOL    HW128712   1.089   0.365   2.979  0.3180 -1.3676 -1.6739
 5693SOL    HW228713   1.196   0.275   2.950 -1.0865  0.1917 -1.1793
 5694SOL     OW28714   3.849   4.105   2.539  0.1460  0.3448 -0.5522
 5694SOL    HW128715   3.755   4.125   2.534 -0.3126 -1.7995 -0.3265
 5694SOL    HW228716   3.850   4.078   2.630 -3.1483 -1.5862 -1.0809
 5695SOL     OW28717   3.203   2.747   3.345 -0.2823  0.6060  0.0052
 5695SOL    HW128718   3.251   2.721   3.266  1.9731 -0.9762  1.9006
 5695SOL    HW228719   3.169   2.664   3.378  0.6992 -0.4815 -1.7116
 5696SOL     OW28720   3.013   2.382  11.856  0.4314 -0.0899 -0.3908
 5696SOL    HW128721   2.918   2.375  11.850  0.6429 -2.6877 -0.9210
 5696SOL    HW228722   3.033   2.344  11.941  0.7490  0.5939 -0.1637
 5697SOL     OW28723   4.047   4.382   1.931 -0.1305  0.0928 -0.1910
 5697SOL    HW128724   4.016   4.295   1.905  2.1157 -0.8523  0.2892
 5697SOL    HW228725   3.981   4.434   1.885 -1.2770  0.8448  2.3368
 5698SOL     OW28726   3.622   0.145   4.888  0.1895  0.1701 -0.0273
 5698SOL    HW128727   3.715   0.140   4.865  0.1857 -3.4198  0.8149
 5698SOL    HW228728   3.635   0.156   4.983 -1.1612 -0.7125  0.2532
 5699SOL     OW28729   1.377   2.597  14.970 -0.2651  0.7984 -0.6828
 5699SOL    HW128730   1.466   2.627  14.988 -0.3366  0.6571 -0.0733
 5699SOL    HW228731   1.390   2.521  14.913  0.9460 -0.9915  1.9937
 5700SOL     OW28732   4.254   3.147   8.617  0.2988 -0.4005  0.1330
 5700SOL    HW128733   4.249   3.230   8.570  0.6037 -1.8502 -2.4435
 5700SOL    HW228734   4.306   3.184   8.688 -1.2823  2.2283 -0.0878
 5701SOL     OW28735   2.007   4.724   7.786  0.3320 -0.2416 -0.4917
 5701SOL    HW128736   2.064   0.026   7.852  0.3133 -0.7845 -0.1556
 5701SOL    HW228737   1.922   4.723   7.831  1.5794 -1.3424  1.8014
 5702SOL     OW28738   0.410   2.165   8.227  0.3651  0.0079  0.0263
 5702SOL    HW128739   0.477   2.231   8.249  0.8715 -1.0968  1.7442
 5702SOL    HW228740   0.443   2.096   8.284 -0.9782 -1.1152 -0.5608
 5703SOL     OW28741   4.650   4.497   8.623  0.3833 -0.1443 -0.1384
 5703SOL    HW128742   4.689   4.440   8.690 -0.4091 -0.6222 -0.0824
 5703SOL    HW228743   4.693   4.580   8.642 -0.8977  0.0572  2.0209
 5704SOL     OW28744   0.550   2.128   7.457  0.3209  0.0219  0.0673
 5704SOL    HW128745   0.599   2.050   7.429  2.0462  1.4052 -0.7187
 5704SOL    HW228746   0.458   2.106   7.468 -0.0997  1.7789  0.0718
 5705SOL     OW28747   0.042   2.891   4.914  0.5435  0.1123 -0.4276
 5705SOL    HW128748   0.133   2.864   4.904 -0.1463 -1.7932 -1.5241
 5705SOL    HW228749   4.716   2.819   4.909  0.7805 -0.2155  1.3823
 5706SOL     OW28750   1.265   4.424  13.457  0.2084 -0.0957  0.4119
 5706SOL    HW128751   1.290   4.507  13.415 -1.1724  1.1882  2.1316
 5706SOL    HW228752   1.352   4.413  13.495 -0.4984 -0.2249  1.9678
 5707SOL     OW28753   2.809   1.922   4.536 -0.4437  0.0951  0.3162
 5707SOL    HW128754   2.854   1.841   4.558  1.1261  1.0646  0.6100
 5707SOL    HW228755   2.825   1.976   4.613 -1.8042 -1.3614  1.6317
 5708SOL     OW28756   2.646   1.207   0.605 -0.1914  0.1131 -0.3925
 5708SOL    HW128757   2.584   1.180   0.537  2.2321 -1.8493 -1.7841
 5708SOL    HW228758   2.593   1.277   0.643 -0.5094  0.6230 -1.7643
 5709SOL     OW28759   2.793   3.129   5.960  0.0576 -0.3064  0.1219
 5709SOL    HW128760   2.832   3.172   6.036 -2.2082  0.9955  0.5584
 5709SOL    HW228761   2.799   3.206   5.903  0.4426  0.5433  1.3128
 5710SOL     OW28762   1.917   2.835   2.103  0.6323 -0.0058  0.2063
 5710SOL    HW128763   1.927   2.783   2.023 -2.6822 -0.2190 -0.0735
 5710SOL    HW228764   2.009   2.841   2.126  0.4257  1.6554  0.6429
 5711SOL     OW28765   3.015   2.822  14.558  0.4648  0.8503 -0.4381
 5711SOL    HW128766   2.989   2.903  14.514 -0.7860  0.9806  0.5325
 5711SOL    HW228767   3.066   2.865  14.626 -0.0949  0.3582  0.2879
 5712SOL     OW28768   2.333   4.724  10.398 -0.2316 -0.0296 -0.5590
 5712SOL    HW128769   2.403   4.668  10.364  1.1153  0.8994  0.6354
 5712SOL    HW228770   2.337   4.717  10.494 -0.2267  1.7077 -0.4253
 5713SOL     OW28771   4.655   0.100   9.201  0.3426 -0.4486  0.0212
 5713SOL    HW128772   4.640   0.045   9.279  3.1784 -0.1543  0.7599
 5713SOL    HW228773   4.678   0.178   9.253 -2.2516  1.0058 -1.0272
 5714SOL     OW28774   4.233   2.448   3.262  0.4225  0.0703 -0.2139
 5714SOL    HW128775   4.212   2.522   3.205  1.8177  0.2720 -0.4656
 5714SOL    HW228776   4.142   2.428   3.285  0.3102 -0.2970 -0.9671
 5715SOL     OW28777   0.743   3.888   7.755  0.1923  0.8929  0.1296
 5715SOL    HW128778   0.708   3.838   7.829  3.1449 -2.6982 -0.8835
 5715SOL    HW228779   0.714   3.977   7.773  0.1768  0.4360  2.4063
 5716SOL     OW28780   1.683   4.216   6.314  0.3213  0.1101 -0.1390
 5716SOL    HW128781   1.681   4.140   6.255  1.0595  0.4377 -0.5843
 5716SOL    HW228782   1.589   4.220   6.332  0.4406 -0.6941  0.7025
 5717SOL     OW28783   3.290   3.209   3.981  0.6257 -0.1030 -0.1427
 5717SOL    HW128784   3.223   3.166   3.928  0.1717 -0.6082  0.8392
 5717SOL    HW228785   3.320   3.277   3.922  1.2169 -2.6731 -2.8126
 5718SOL     OW28786   0.496   2.881   1.617  0.2849  0.1382  0.0232
 5718SOL    HW128787   0.583   2.841   1.624  0.8502  1.5916  1.2145
 5718SOL    HW228788   0.437   2.812   1.646 -1.7160  1.2494 -1.3877
 5719SOL     OW28789   3.863   4.604   9.088 -0.4035 -0.1268 -0.3891
 5719SOL    HW128790   3.796   4.672   9.078  1.6116  2.1170  1.4151
 5719SOL    HW228791   3.921   4.623   9.015  0.2147  0.0393  0.1462
 5720SOL     OW28792   4.434   4.697   2.469 -0.4519 -0.1365  0.4602
 5720SOL    HW128793   4.401   4.713   2.381  0.2817  0.8804  0.3685
 5720SOL    HW228794   4.351   4.710   2.515  0.6908  1.4924  2.0645
 5721SOL     OW28795   1.410   0.617   1.425  0.4216 -0.7087  0.2419
 5721SOL    HW128796   1.328   0.640   1.380  0.9344 -0.7262 -0.7117
 5721SOL    HW228797   1.381   0.530   1.453 -1.4090 -0.9734 -2.4411
 5722SOL     OW28798   0.494   0.521  15.221  0.0167 -0.0717  0.0488
 5722SOL    HW128799   0.527   0.589  15.279 -0.2066  1.0574 -1.1483
 5722SOL    HW228800   0.417   0.576  15.205 -0.6423 -1.3700 -1.3244
 5723SOL     OW28801   0.069   0.221  14.581  0.1384  0.4184 -0.3088
 5723SOL    HW128802   0.099   0.164  14.511 -1.8009  0.1647 -0.9429
 5723SOL    HW228803   0.156   0.248  14.609  0.2056  0.4660 -0.5655
 5724SOL     OW28804   2.422   3.236  17.311 -0.4200  0.3407 -0.3593
 5724SOL    HW128805   2.485   3.186  17.260 -1.0061 -0.3392 -0.4043
 5724SOL    HW228806   2.439   3.327  17.287 -0.3987  0.4059 -0.0926
 5725SOL     OW28807   0.172   0.352   4.365  0.3706  0.1180 -0.1136
 5725SOL    HW128808   0.111   0.298   4.415  0.8395 -1.0893 -0.8520
 5725SOL    HW228809   0.109   0.378   4.298  0.9884  0.3592 -0.5991
 5726SOL     OW28810   4.331   1.404   5.877  0.4144 -0.2125  0.1971
 5726SOL    HW128811   4.237   1.405   5.893  0.4231  1.4014  0.1504
 5726SOL    HW228812   4.337   1.383   5.783  0.8937  0.3723  0.0957
 5727SOL     OW28813   1.656   4.478   2.592 -0.3397 -0.1606 -0.6231
 5727SOL    HW128814   1.567   4.449   2.615 -1.1079  1.3091 -1.7620
 5727SOL    HW228815   1.627   4.557   2.546  0.6233 -0.4690 -1.7462
 5728SOL     OW28816   2.851   1.321   2.171 -0.0693 -0.0158 -0.0054
 5728SOL    HW128817   2.801   1.289   2.096  0.2290 -1.0618  0.2396
 5728SOL    HW228818   2.875   1.242   2.220  0.8124 -0.0124 -0.4251
 5729SOL     OW28819   0.909   0.183   2.879 -0.0752 -0.0833 -0.1881
 5729SOL    HW128820   0.882   0.176   2.971 -0.1748 -1.7132 -0.3521
 5729SOL    HW228821   0.928   0.091   2.864  0.3249  0.0257 -0.3463
 5730SOL     OW28822   4.089   4.132  15.808 -0.1301  0.2685 -0.4437
 5730SOL    HW128823   4.133   4.054  15.775 -1.2101 -0.9621  1.0203
 5730SOL    HW228824   4.165   4.190  15.813  0.4745 -0.6947  1.3999
 5731SOL     OW28825   1.161   1.289  12.171 -0.4489 -0.2765  0.3954
 5731SOL    HW128826   1.076   1.331  12.167  0.5460  1.7432  0.6431
 5731SOL    HW228827   1.218   1.365  12.156 -0.8731  0.3126  1.7513
 5732SOL     OW28828   1.822   0.695   8.781 -0.0367  0.1348  0.7634
 5732SOL    HW128829   1.873   0.773   8.763  1.1350 -0.3819  1.8167
 5732SOL    HW228830   1.755   0.699   8.712  0.3098 -0.3853  0.3929
 5733SOL     OW28831   1.754   3.165   5.234 -0.1747 -0.1249  0.4972
 5733SOL    HW128832   1.809   3.100   5.280  2.2111  1.3219 -0.3528
 5733SOL    HW228833   1.818   3.231   5.211 -1.1208  0.8249  0.6015
 5734SOL     OW28834   1.094   1.829   5.739  0.1742 -0.1092  0.2456
 5734SOL    HW128835   1.117   1.743   5.773  2.6403 -0.0193 -1.1757
 5734SOL    HW228836   1.171   1.884   5.753  1.5842 -1.7270 -1.1628
 5735SOL     OW28837   3.409   3.798  16.268 -0.0696  0.3738 -0.3865
 5735SOL    HW128838   3.459   3.861  16.319  0.6081  0.9708 -1.8133
 5735SOL    HW228839   3.448   3.713  16.289  3.1887  1.3915 -2.3149
 5736SOL     OW28840   2.826   4.182   2.881 -0.2895  0.4129  0.0291
 5736SOL    HW128841   2.815   4.143   2.794 -1.6669 -0.3822  0.5621
 5736SOL    HW228842   2.901   4.237   2.854  0.2381 -0.3356 -0.0150
 5737SOL     OW28843   0.132   4.288   5.020 -0.4077 -0.1429  0.3619
 5737SOL    HW128844   0.135   4.335   4.937 -2.0363 -2.2788 -0.9153
 5737SOL    HW228845   0.064   4.221   5.012 -0.2080 -0.4062  0.9035
 5738SOL     OW28846   3.203   2.546   1.577  0.2251  0.6905  0.5487
 5738SOL    HW128847   3.179   2.517   1.489  1.2703  0.3434  0.3699
 5738SOL    HW228848   3.284   2.495   1.587 -1.0829 -1.6249 -0.9858
 5739SOL     OW28849   0.411   3.474   1.588 -0.7347  0.0111  0.1527
 5739SOL    HW128850   0.333   3.419   1.590  0.7798 -2.0938  1.5073
 5739SOL    HW228851   0.422   3.492   1.494 -0.6038 -0.7580  0.0242
 5740SOL     OW28852   3.595   4.090   3.236 -0.1261  0.2419  0.5321
 5740SOL    HW128853   3.650   4.140   3.294  1.2838 -1.5948  0.7776
 5740SOL    HW228854   3.631   4.002   3.221 -0.6966 -0.1031  1.1534
 5741SOL     OW28855   2.460   1.630   7.308  0.1771 -0.2230  0.3218
 5741SOL    HW128856   2.378   1.606   7.351  0.5446 -2.3582 -0.1540
 5741SOL    HW228857   2.459   1.585   7.224  0.2953  0.2880  0.0521
 5742SOL     OW28858   2.903   3.995   3.731 -0.1294 -0.2425 -0.6070
 5742SOL    HW128859   2.930   3.939   3.804  3.8526 -0.2973 -2.1050
 5742SOL    HW228860   2.823   3.948   3.707 -0.8921  1.1760 -0.8412
 5743SOL     OW28861   0.803   4.562  14.391 -0.1190 -0.5191 -0.0601
 5743SOL    HW128862   0.816   4.471  14.365  0.1303 -0.2565 -0.8631
 5743SOL    HW228863   0.708   4.555  14.404  0.1756 -3.1077  0.6996
 5744SOL     OW28864   0.782   2.745  10.999  0.0533  0.0071  0.1622
 5744SOL    HW128865   0.815   2.784  10.918  1.9614 -2.5026 -0.2654
 5744SOL    HW228866   0.866   2.741  11.045  1.1619 -3.2406 -2.1409
 5745SOL     OW28867   3.001   2.702  10.326 -0.5671 -0.0338  0.2243
 5745SOL    HW128868   2.968   2.761  10.394 -1.5019 -2.0554  1.5126
 5745SOL    HW228869   2.942   2.725  10.254  1.2402 -4.1749 -2.5685
 5746SOL     OW28870   3.728   3.442   4.362  0.1103 -0.7131 -0.6417
 5746SOL    HW128871   3.780   3.423   4.284  2.4401 -0.3560  0.8361
 5746SOL    HW228872   3.696   3.530   4.339 -0.6733 -0.0077  3.0999
 5747SOL     OW28873   1.824   3.632  13.312 -0.4482 -0.4439  0.0525
 5747SOL    HW128874   1.842   3.685  13.390  2.7149 -0.1925 -0.8697
 5747SOL    HW228875   1.750   3.575  13.335  0.2946 -0.4618  2.4187
 5748SOL     OW28876   0.475   3.741  13.783 -0.5812  0.3943  0.1178
 5748SOL    HW128877   0.479   3.745  13.878  0.6929 -1.1914  0.1448
 5748SOL    HW228878   0.425   3.816  13.752  1.8082  1.6283 -0.7340
 5749SOL     OW28879   2.968   2.323   1.854 -0.3782 -0.0217  0.0871
 5749SOL    HW128880   2.965   2.241   1.903 -0.7855 -0.1100 -0.0858
 5749SOL    HW228881   3.053   2.318   1.811  0.2616 -2.9505  1.6872
 5750SOL     OW28882   3.837   0.720   8.105  0.0434 -0.0195  0.1824
 5750SOL    HW128883   3.775   0.710   8.177 -0.6087 -1.3895 -0.5776
 5750SOL    HW228884   3.919   0.680   8.134 -0.2542 -0.9363 -0.2279
 5751SOL     OW28885   4.080   4.358   3.556 -0.0603  0.5592  0.5280
 5751SOL    HW128886   4.113   4.397   3.637 -2.6272  1.0029  1.3903
 5751SOL    HW228887   4.127   4.276   3.568 -0.8522  0.4438  2.9529
 5752SOL     OW28888   3.351   0.241  17.441  0.0758 -0.0693 -0.2288
 5752SOL    HW128889   3.264   0.201  17.440  0.6651 -1.3675  1.1626
 5752SOL    HW228890   3.347   0.283  17.528  1.1705 -1.0575  0.2926
 5753SOL     OW28891   3.976   0.619   2.937  0.2724  0.3528  0.1269
 5753SOL    HW128892   4.017   0.622   2.851  2.3316  1.7772  1.1595
 5753SOL    HW228893   4.000   0.529   2.961  0.3472  0.7127  1.3837
 5754SOL     OW28894   4.364   4.704   1.832 -0.6126  0.0490  0.0865
 5754SOL    HW128895   4.402   4.667   1.752  0.2951  1.5083 -0.1620
 5754SOL    HW228896   4.433   0.024   1.866 -1.4457  1.2908 -0.2687
 5755SOL     OW28897   0.571   4.484   8.499 -0.0524  0.2581 -0.3430
 5755SOL    HW128898   0.479   4.511   8.499  0.8085  3.1556 -0.1988
 5755SOL    HW228899   0.599   4.497   8.409 -0.7071  0.3195 -0.5365
 5756SOL     OW28900   1.960   0.710   0.001 -0.1193  0.6995  0.3950
 5756SOL    HW128901   1.869   0.699  17.719 -0.6823 -0.9208  3.0067
 5756SOL    HW228902   1.961   0.682   0.092 -2.2125  0.5199  0.3686
 5757SOL     OW28903   1.770   2.143  10.976 -0.4895  0.2429 -0.4795
 5757SOL    HW128904   1.795   2.081  10.908  2.9798  0.4114  0.6114
 5757SOL    HW228905   1.778   2.090  11.055  1.0079 -0.1572 -0.9022
 5758SOL     OW28906   4.525   1.465   5.538  0.3748 -0.9923 -0.7652
 5758SOL    HW128907   4.557   1.386   5.493 -1.3404 -1.3561 -1.3471
 5758SOL    HW228908   4.436   1.433   5.553 -0.8289  1.7467 -2.0860
 5759SOL     OW28909   2.590   4.547   8.749 -0.1150  0.2869 -0.0985
 5759SOL    HW128910   2.591   4.451   8.750  0.7061  0.2840 -0.6438
 5759SOL    HW228911   2.673   4.561   8.702 -0.7289  0.2777 -1.1884
 5760SOL     OW28912   4.142   1.797   9.255  0.1474 -0.3046 -0.0097
 5760SOL    HW128913   4.183   1.749   9.328  0.2765  0.1298  0.2035
 5760SOL    HW228914   4.209   1.832   9.196 -1.9395  0.6917 -1.7457
 5761SOL     OW28915   0.610   1.004   2.106  0.4242  0.3432  0.2509
 5761SOL    HW128916   0.591   1.047   2.190  2.3595  1.9752 -0.1588
 5761SOL    HW228917   0.546   1.036   2.043 -1.6108 -3.0845  0.5464
 5762SOL     OW28918   3.754   0.755  11.923 -0.2814  0.6557  1.0892
 5762SOL    HW128919   3.731   0.822  11.859 -1.2959 -0.1921  0.5727
 5762SOL    HW228920   3.832   0.788  11.967  1.1408  2.7094 -2.9193
 5763SOL     OW28921   0.408   2.035  15.487  0.0978  0.0670 -0.0750
 5763SOL    HW128922   0.443   1.955  15.449 -2.8011 -0.7462 -1.0442
 5763SOL    HW228923   0.402   2.077  15.401 -0.0790 -0.6340 -0.3996
 5764SOL     OW28924   0.403   2.961   7.236 -0.5362 -0.2454 -0.0103
 5764SOL    HW128925   0.444   2.931   7.155 -0.6870 -1.4880  0.3619
 5764SOL    HW228926   0.479   2.987   7.288  0.9992  1.7257 -3.2525
 5765SOL     OW28927   3.562   4.692   6.220 -0.0486 -0.3522  0.1101
 5765SOL    HW128928   3.471   4.661   6.227 -0.7003  1.4889 -0.0918
 5765SOL    HW228929   3.599   4.659   6.301  2.3750  0.1392 -0.7999
 5766SOL     OW28930   1.483   4.420   4.161  0.1220 -0.5413  0.2783
 5766SOL    HW128931   1.571   4.456   4.162  0.0495 -0.3990  1.1497
 5766SOL    HW228932   1.430   4.497   4.181 -0.1180 -0.6736  0.1519
 5767SOL     OW28933   4.004   2.219   2.374  0.7998 -0.2535 -0.6265
 5767SOL    HW128934   3.980   2.311   2.362 -0.0360 -0.4949 -0.7611
 5767SOL    HW228935   4.051   2.221   2.457 -0.0556 -1.0711 -0.1285
 5768SOL     OW28936   2.929   1.764  15.120  0.1203  0.1068 -0.0336
 5768SOL    HW128937   2.970   1.705  15.183 -2.2219 -0.8942  0.5740
 5768SOL    HW228938   2.982   1.756  15.041 -0.1953  0.9844 -0.3431
 5769SOL     OW28939   0.125   2.606   8.854 -0.2352 -0.2410 -0.1090
 5769SOL    HW128940   0.160   2.686   8.814 -3.0769  0.4927 -1.0850
 5769SOL    HW228941   0.113   2.638   8.943 -3.3018  1.3122 -1.1047
 5770SOL     OW28942   1.929   0.759  11.879  0.2422 -0.6883 -0.1471
 5770SOL    HW128943   1.939   0.676  11.834  0.8555 -0.3857 -0.5681
 5770SOL    HW228944   2.015   0.749  11.920  0.6353  0.8087 -0.6059
 5771SOL     OW28945   3.105   3.651   1.500 -0.0596 -0.2781 -0.5132
 5771SOL    HW128946   3.141   3.593   1.433 -0.6115 -0.1636 -0.9100
 5771SOL    HW228947   3.024   3.609   1.529 -0.8701 -0.0109 -2.4207
 5772SOL     OW28948   3.609   4.725   2.571  0.1106 -0.0218 -0.0452
 5772SOL    HW128949   3.606   0.063   2.632 -1.1066 -1.5812  1.8040
 5772SOL    HW228950   3.518   4.696   2.561  0.5821 -1.9494  1.2778
 5773SOL     OW28951   3.566   2.425  14.513 -0.3253 -0.1566 -0.2346
 5773SOL    HW128952   3.566   2.517  14.539 -1.9839  0.2825 -1.7691
 5773SOL    HW228953   3.533   2.437  14.424  2.3666 -1.9583 -1.4644
 5774SOL     OW28954   0.041   0.185   5.703  0.1978 -0.0723  0.0511
 5774SOL    HW128955   0.085   0.121   5.648  1.2625 -0.7130  1.6363
 5774SOL    HW228956   0.045   0.260   5.643  0.0968  1.0915  1.4927
 5775SOL     OW28957   4.105   3.761   7.502  0.4366 -0.1494  0.4943
 5775SOL    HW128958   4.077   3.846   7.536  0.2371 -0.3041  0.7201
 5775SOL    HW228959   4.130   3.718   7.584  0.9691  0.3985  0.6131
 5776SOL     OW28960   2.938   3.614   4.249 -0.3911  0.3794  0.5368
 5776SOL    HW128961   2.847   3.612   4.279 -0.6855 -1.0659 -0.4565
 5776SOL    HW228962   2.945   3.526   4.212 -1.0231  1.3931 -2.0046
 5777SOL     OW28963   0.622   2.047   8.680 -0.3393 -0.0606  0.3744
 5777SOL    HW128964   0.630   2.067   8.773 -0.7555  0.7900  0.2385
 5777SOL    HW228965   0.544   2.097   8.652 -0.8017 -0.0073  1.7822
 5778SOL     OW28966   4.663   0.422   4.211  0.1380  0.3875  0.1012
 5778SOL    HW128967   4.725   0.444   4.141  1.0260 -1.0832  0.4313
 5778SOL    HW228968   4.608   0.499   4.218  0.5645  0.5867  1.1695
 5779SOL     OW28969   4.347   0.886   8.663  0.1329 -0.0857  0.1314
 5779SOL    HW128970   4.336   0.837   8.582 -0.3927  1.2105 -0.5749
 5779SOL    HW228971   4.255   0.911   8.669 -0.0299 -0.9408  1.2036
 5780SOL     OW28972   0.869   3.722  17.278  0.3750  0.0836 -0.4671
 5780SOL    HW128973   0.954   3.679  17.280 -0.1227 -0.7982  2.4690
 5780SOL    HW228974   0.819   3.651  17.319  1.4854  0.5416  1.6585
 5781SOL     OW28975   0.189   2.537   1.546 -0.2470  0.1234  0.0220
 5781SOL    HW128976   0.263   2.476   1.551  1.6356  2.4753  1.2665
 5781SOL    HW228977   0.183   2.555   1.452  0.0327 -2.0172 -0.4047
 5782SOL     OW28978   3.894   2.621   7.153 -0.5289 -0.5334 -0.3239
 5782SOL    HW128979   3.914   2.596   7.243  0.4831 -2.0241 -0.9724
 5782SOL    HW228980   3.879   2.716   7.160 -0.7158 -0.3703 -2.8777
 5783SOL     OW28981   1.158   0.316   5.955  0.1017  0.1296 -0.3500
 5783SOL    HW128982   1.247   0.333   5.984 -0.5248  0.2955  1.4891
 5783SOL    HW228983   1.154   0.221   5.956 -1.7513  0.2044  1.6667
 5784SOL     OW28984   0.653   3.658   7.641  0.4281 -0.1647  0.1085
 5784SOL    HW128985   0.716   3.728   7.629 -0.1823  0.7204  2.1528
 5784SOL    HW228986   0.596   3.694   7.709 -1.5135 -1.8761 -0.6015
 5785SOL     OW28987   1.835   3.926  16.633 -0.1401 -0.0040  0.3769
 5785SOL    HW128988   1.904   3.992  16.633  0.0777 -0.2328  1.9875
 5785SOL    HW228989   1.778   3.969  16.569  0.1654 -0.8689 -0.4830
 5786SOL     OW28990   0.150   1.067   6.616  0.1126 -0.5090  0.4677
 5786SOL    HW128991   0.093   1.095   6.545 -0.1675 -2.1588  0.0373
 5786SOL    HW228992   0.095   1.006   6.665 -0.4686 -0.1924  0.2080
 5787SOL     OW28993   0.120   1.310  14.817  0.4692 -0.1726 -0.2407
 5787SOL    HW128994   0.117   1.386  14.758 -0.6150 -1.3366 -1.6729
 5787SOL    HW228995   0.033   1.284  14.847 -0.3615  1.7827 -0.9281
 5788SOL     OW28996   3.266   3.733   3.029  0.4989  0.3151  0.3249
 5788SOL    HW128997   3.307   3.710   3.112 -2.4253  2.6324  2.3888
 5788SOL    HW228998   3.222   3.651   3.008 -1.9862  1.2648  1.8349
 5789SOL     OW28999   1.359   2.996  17.631  0.3280 -0.2352  0.6205
 5789SOL    HW129000   1.301   2.933  17.588  1.6060 -0.3590 -0.9126
 5789SOL    HW229001   1.343   3.067  17.569 -2.9265  0.8637  2.7633
 5790SOL     OW29002   0.906   3.949  16.655 -0.1001 -0.1052  0.1041
 5790SOL    HW129003   0.986   3.938  16.706  0.0849  1.8617  0.2423
 5790SOL    HW229004   0.846   3.986  16.719 -0.5717  0.0837 -0.4438
 5791SOL     OW29005   0.390   3.895   0.158 -0.6258  0.5673  0.0016
 5791SOL    HW129006   0.298   3.872   0.151 -0.1684 -1.5381  1.0028
 5791SOL    HW229007   0.435   3.850   0.087  0.1522  0.5590  0.4960
 5792SOL     OW29008   3.229   4.566  10.744  0.3117  0.3077  0.3458
 5792SOL    HW129009   3.263   4.512  10.674  0.4461 -1.6859  1.9685
 5792SOL    HW229010   3.301   4.585  10.804 -0.4081  0.2721  1.2285
 5793SOL     OW29011   3.737   3.122   5.693 -0.2028 -0.1921  0.1670
 5793SOL    HW129012   3.738   3.079   5.608  0.4351  0.0742  0.0378
 5793SOL    HW229013   3.700   3.206   5.664  2.6295  0.8420 -0.4007
 5794SOL     OW29014   4.086   3.554   1.283  0.0014 -0.4801 -0.0843
 5794SOL    HW129015   4.046   3.568   1.368 -2.5309 -0.7837 -1.2261
 5794SOL    HW229016   4.180   3.567   1.301  0.1088  1.2206 -1.7680
 5795SOL     OW29017   4.265   1.699   4.060 -0.0368  0.2170 -0.0390
 5795SOL    HW129018   4.343   1.729   4.107 -0.9622  2.7058 -0.0933
 5795SOL    HW229019   4.313   1.629   4.015  0.2178 -0.4558  1.2961
 5796SOL     OW29020   0.997   1.932  10.743  0.0735  0.6387 -0.0125
 5796SOL    HW129021   1.006   2.016  10.699 -0.6560  1.1141  0.7632
 5796SOL    HW229022   1.001   1.876  10.665  0.1198  0.1095  0.3681
 5797SOL     OW29023   0.076   0.413   6.674 -0.0815 -0.4332  0.3694
 5797SOL    HW129024   4.735   0.399   6.619  0.8619  0.7553 -1.2940
 5797SOL    HW229025   0.137   0.411   6.600 -0.2449  0.3325  0.2151
 5798SOL     OW29026   3.555   3.561   1.182  0.3863 -0.5558  0.5910
 5798SOL    HW129027   3.618   3.528   1.118  1.2922 -0.8171  1.6184
 5798SOL    HW229028   3.496   3.619   1.133 -2.2608 -1.6926  2.4597
 5799SOL     OW29029   2.141   1.407   2.021 -0.8607  0.5699  0.1487
 5799SOL    HW129030   2.218   1.357   2.046 -1.5269 -0.4056  0.2650
 5799SOL    HW229031   2.162   1.421   1.929  0.7721 -0.0025  0.4313
 5800SOL     OW29032   4.570   1.919   0.888 -0.2431  0.6287  0.6885
 5800SOL    HW129033   4.544   1.939   0.798 -0.2052 -0.0077  0.5401
 5800SOL    HW229034   4.619   1.838   0.873  2.3456  2.1338  0.9377
 5801SOL     OW29035   1.073   4.012  14.504  0.4012  0.1634 -0.3815
 5801SOL    HW129036   1.074   4.106  14.524 -0.9986 -0.2386  1.6058
 5801SOL    HW229037   0.979   3.994  14.496  0.6588 -0.8356 -1.0265
 5802SOL     OW29038   4.234   1.269   8.621 -0.8382  0.0390 -0.4472
 5802SOL    HW129039   4.182   1.303   8.693 -1.4953 -1.7604 -0.0660
 5802SOL    HW229040   4.165   1.265   8.555 -0.1310  0.2066 -1.1973
 5803SOL     OW29041   1.653   0.900   3.338 -0.0437  0.3938  0.0553
 5803SOL    HW129042   1.574   0.927   3.292  0.3719 -1.6944 -1.8965
 5803SOL    HW229043   1.644   0.956   3.415  0.1004  0.4520  0.0297
 5804SOL     OW29044   4.147   2.276  14.841  0.2036  0.3066 -0.4639
 5804SOL    HW129045   4.064   2.299  14.882  0.7395  0.5106  0.5234
 5804SOL    HW229046   4.167   2.207  14.905  0.7167  0.6473 -0.2501
 5805SOL     OW29047   3.008   0.716   4.750 -0.2269 -0.0493 -0.3824
 5805SOL    HW129048   2.973   0.805   4.741 -0.0034  0.3234  2.4729
 5805SOL    HW229049   2.967   0.693   4.833 -0.1284 -1.6153 -0.7764
 5806SOL     OW29050   4.107   4.591   4.743  0.3463  0.8296  0.0466
 5806SOL    HW129051   4.086   4.596   4.650  2.7852 -1.0789 -0.6138
 5806SOL    HW229052   4.089   4.498   4.752  0.1823  0.6485 -2.3136
 5807SOL     OW29053   1.684   0.482   2.108  0.0152 -0.1606 -0.1581
 5807SOL    HW129054   1.733   0.543   2.162  2.5414 -0.7122 -1.8255
 5807SOL    HW229055   1.753   0.421   2.080  0.4833  1.2175 -2.0105
 5808SOL     OW29056   3.629   2.795  12.535  0.0813 -0.0684  0.7349
 5808SOL    HW129057   3.617   2.876  12.485 -0.8951 -0.7036 -0.0749
 5808SOL    HW229058   3.691   2.754  12.474  0.5982  0.1826  1.0939
 5809SOL     OW29059   1.781   2.766   5.845 -0.2076 -1.1913 -0.2371
 5809SOL    HW129060   1.868   2.762   5.886 -0.2208  0.5232 -0.0574
 5809SOL    HW229061   1.796   2.729   5.757  1.9329 -0.2405 -0.2671
 5810SOL     OW29062   4.510   4.090   4.911  0.1540  0.1550  0.3213
 5810SOL    HW129063   4.502   4.171   4.861  1.1114  0.5020  0.7341
 5810SOL    HW229064   4.434   4.105   4.968  1.5542  1.8402  1.7370
 5811SOL     OW29065   0.907   1.976   4.508  0.5850 -0.6125 -0.5894
 5811SOL    HW129066   0.921   1.975   4.603  1.7633 -1.1520 -0.7798
 5811SOL    HW229067   0.843   2.048   4.500  0.0035 -0.7696  2.3849
 5812SOL     OW29068   0.625   2.020  15.177  0.1589  0.0509 -0.0685
 5812SOL    HW129069   0.688   2.091  15.188 -3.1638  2.9963 -0.1583
 5812SOL    HW229070   0.584   2.047  15.094 -1.0428  1.1361  0.8869
 5813SOL     OW29071   2.356   3.785  14.965 -0.4631  0.1813  0.0315
 5813SOL    HW129072   2.408   3.844  15.019 -1.2131  0.7364  0.1415
 5813SOL    HW229073   2.422   3.718  14.948  0.3699 -0.1447  4.6335
 5814SOL     OW29074   2.057   2.968   9.090 -0.0143  0.6195  0.1902
 5814SOL    HW129075   2.094   3.002   9.008 -1.3315  2.4538  0.3338
 5814SOL    HW229076   2.137   2.966   9.141 -0.2944 -2.1556  0.5039
 5815SOL     OW29077   2.680   3.300  15.222  0.5714  0.2954  0.4144
 5815SOL    HW129078   2.743   3.260  15.282  0.9136  1.5183  0.8703
 5815SOL    HW229079   2.678   3.240  15.147  0.5202 -0.7308  1.2433
 5816SOL     OW29080   2.501   4.126  16.397  0.0447  0.6440 -0.4474
 5816SOL    HW129081   2.504   4.208  16.348 -0.0130  1.2551  0.5569
 5816SOL    HW229082   2.431   4.141  16.461  1.0816  0.9696  0.6066
 5817SOL     OW29083   2.281   0.111   6.576 -0.1987  0.4495  0.1850
 5817SOL    HW129084   2.255   0.047   6.642  1.1514 -0.2113  0.0760
 5817SOL    HW229085   2.331   0.171   6.631  1.0883 -1.8992  1.5801
 5818SOL     OW29086   0.295   1.794   6.918 -0.0700  0.5385 -0.3922
 5818SOL    HW129087   0.378   1.838   6.936 -1.7636  4.7293 -2.8932
 5818SOL    HW229088   0.229   1.862   6.903 -0.6030  0.0458 -0.3013
 5819SOL     OW29089   4.716   2.984   4.236  0.2764  0.4862  0.3320
 5819SOL    HW129090   4.668   2.930   4.173  1.7008  0.7811 -0.9980
 5819SOL    HW229091   0.069   2.951   4.235 -0.3665 -1.1052 -2.6344
 5820SOL     OW29092   2.482   4.402   8.415  0.5293 -0.2036  0.2079
 5820SOL    HW129093   2.531   4.327   8.450 -0.1495 -0.6848  0.1346
 5820SOL    HW229094   2.410   4.394   8.477  0.9019 -2.2397  0.4000
 5821SOL     OW29095   4.721   0.059  15.142 -0.1779 -0.1632  0.6751
 5821SOL    HW129096   4.714   0.041  15.049 -3.1334  1.3926  0.6167
 5821SOL    HW229097   0.079   0.067  15.152  0.1322 -0.5009 -2.1122
 5822SOL     OW29098   1.652   1.117   8.108 -0.1300 -0.3627 -0.2759
 5822SOL    HW129099   1.603   1.077   8.181  1.1239 -1.2286  0.0871
 5822SOL    HW229100   1.623   1.208   8.115 -1.5051 -0.6500 -2.2189
 5823SOL     OW29101   1.516   2.914  13.794 -0.3163  0.8794  0.0346
 5823SOL    HW129102   1.544   2.836  13.747 -0.9534 -0.4779  1.9019
 5823SOL    HW229103   1.423   2.925  13.772  0.3654  2.5981 -1.9552
 5824SOL     OW29104   1.357   1.742   6.037  0.0499 -0.2425  0.6291
 5824SOL    HW129105   1.293   1.739   6.107 -0.5755 -1.7895 -0.0202
 5824SOL    HW229106   1.385   1.833   6.048  0.4570 -0.8807  4.7719
 5825SOL     OW29107   4.675   1.928   4.927 -0.8874  0.0242  0.3642
 5825SOL    HW129108   4.646   1.842   4.897  1.9944 -0.6245 -0.5457
 5825SOL    HW229109   0.004   1.945   4.859  0.0311  1.8399  1.6951
 5826SOL     OW29110   0.757   2.380   4.307  0.3699 -0.5246 -0.2005
 5826SOL    HW129111   0.742   2.302   4.361 -0.3604 -0.8154 -0.8185
 5826SOL    HW229112   0.770   2.448   4.373 -0.6583 -1.1559  0.6652
 5827SOL     OW29113   2.406   0.747   9.493  0.1855 -0.6234 -0.0180
 5827SOL    HW129114   2.459   0.715   9.566  1.7313  1.2663 -0.3211
 5827SOL    HW229115   2.434   0.687   9.424  0.2052 -0.6749  0.0349
 5828SOL     OW29116   2.567   4.306  15.045  0.2982 -0.0417  0.0760
 5828SOL    HW129117   2.521   4.375  15.093 -1.7343 -0.9547 -0.5810
 5828SOL    HW229118   2.539   4.323  14.956 -2.5005 -2.0784  0.5798
 5829SOL     OW29119   0.584   0.259   9.415  0.2115 -0.1620 -0.0367
 5829SOL    HW129120   0.491   0.281   9.411 -0.4201 -2.3656  1.7954
 5829SOL    HW229121   0.602   0.272   9.322  1.4129  3.1865  0.6801
 5830SOL     OW29122   4.578   1.337   8.756 -0.0687  0.4873 -0.0145
 5830SOL    HW129123   4.558   1.392   8.832 -1.2051  1.2271 -0.8533
 5830SOL    HW229124   4.549   1.390   8.682 -1.8097  1.6826  1.5248
 5831SOL     OW29125   2.713   4.582   2.691 -0.2503 -0.3198 -0.5273
 5831SOL    HW129126   2.674   4.659   2.732  1.5201  0.6015 -0.5791
 5831SOL    HW229127   2.801   4.594   2.728 -0.8270  2.6179 -0.1051
 5832SOL     OW29128   1.404   3.211   6.680 -0.3751  0.1112  0.2026
 5832SOL    HW129129   1.470   3.281   6.687 -1.0087  0.7517 -0.2991
 5832SOL    HW229130   1.459   3.133   6.688 -0.5887 -0.1462 -0.8696
 5833SOL     OW29131   3.134   0.456  16.220  0.2594 -0.1359 -0.1885
 5833SOL    HW129132   3.215   0.420  16.257 -1.7954 -2.1989  2.3950
 5833SOL    HW229133   3.159   0.446  16.129 -0.1891  1.9194 -0.5391
 5834SOL     OW29134   2.151   2.716   5.514  0.6351  0.1709 -0.3549
 5834SOL    HW129135   2.124   2.630   5.547 -1.5992  1.1096  0.2333
 5834SOL    HW229136   2.220   2.689   5.452 -0.4447 -0.1654 -1.4169
 5835SOL     OW29137   2.287   3.403   2.963  0.5466  0.1176  0.1300
 5835SOL    HW129138   2.310   3.328   3.019  0.2384  0.0622  0.1862
 5835SOL    HW229139   2.195   3.384   2.942  0.6243  0.0189 -0.1196
 5836SOL     OW29140   1.106   3.171   4.444  0.4332 -0.5827  0.7932
 5836SOL    HW129141   1.114   3.237   4.375 -0.2894  0.9819  2.2071
 5836SOL    HW229142   1.137   3.224   4.518  1.1832 -1.5191  1.1470
 5837SOL     OW29143   4.367   1.883  15.147 -0.3878  0.2216 -0.2226
 5837SOL    HW129144   4.350   1.952  15.083  3.7679  0.7377 -0.7782
 5837SOL    HW229145   4.430   1.831  15.097  2.4870  1.7903  1.7438
 5838SOL     OW29146   3.959   2.559   3.193  0.2568 -0.3834  0.0087
 5838SOL    HW129147   3.977   2.492   3.127 -0.1585 -0.7057  0.2202
 5838SOL    HW229148   3.863   2.553   3.192  0.2744 -0.6799 -0.0897
 5839SOL     OW29149   1.423   4.683   8.834  0.0009 -0.3020  0.0116
 5839SOL    HW129150   1.405   4.700   8.927  2.7807 -0.0852  0.5039
 5839SOL    HW229151   1.409   4.589   8.830 -0.9920 -0.2358  1.6941
 5840SOL     OW29152   3.392   3.800  13.608 -0.0423 -0.2527  0.5232
 5840SOL    HW129153   3.307   3.795  13.562  1.5821  1.1084 -2.6372
 5840SOL    HW229154   3.417   3.708  13.611 -0.3187 -0.3419  0.1930
 5841SOL     OW29155   2.225   2.776  13.051  0.1076 -0.8159 -0.0470
 5841SOL    HW129156   2.256   2.727  13.127 -0.0752  0.0073  0.5659
 5841SOL    HW229157   2.280   2.854  13.058  0.3315 -0.7437 -2.4567
 5842SOL     OW29158   3.059   0.340   3.717  0.5457  0.0977  0.4124
 5842SOL    HW129159   2.995   0.290   3.666 -1.3223  1.7209  1.1345
 5842SOL    HW229160   3.008   0.346   3.798  1.2888  0.8996  0.8164
 5843SOL     OW29161   4.448   2.753   5.497 -0.2598  0.1940 -0.2392
 5843SOL    HW129162   4.476   2.754   5.588 -0.5599  0.1230 -0.1476
 5843SOL    HW229163   4.442   2.848   5.485 -2.4563 -0.0946 -1.4483
 5844SOL     OW29164   0.815   2.201   4.059 -0.0268  0.3590 -0.5103
 5844SOL    HW129165   0.775   2.243   4.135  2.0875 -1.2258  1.4938
 5844SOL    HW229166   0.905   2.233   4.068  0.4339 -0.9668 -0.2601
 5845SOL     OW29167   0.998   0.031  14.311  0.6122 -0.6275  0.3546
 5845SOL    HW129168   0.944   4.691  14.330 -0.6421  0.1914  0.0329
 5845SOL    HW229169   1.069   0.001  14.254 -1.5317 -1.1991 -1.9567
 5846SOL     OW29170   1.014   1.402   8.269 -0.0297  0.3355 -0.0830
 5846SOL    HW129171   0.957   1.392   8.346 -1.7861  1.7093 -1.2108
 5846SOL    HW229172   1.097   1.432   8.306 -0.6491  0.8831  0.8967
 5847SOL     OW29173   2.147   1.770   8.337 -0.0502 -0.2699 -0.2679
 5847SOL    HW129174   2.157   1.724   8.420  0.4812 -1.0281 -0.7584
 5847SOL    HW229175   2.213   1.836   8.361 -0.1687  0.2018 -1.2238
 5848SOL     OW29176   1.577   4.416   9.151  0.0332  0.5828 -0.0904
 5848SOL    HW129177   1.645   4.390   9.213 -0.4595 -0.1464  0.1384
 5848SOL    HW229178   1.514   4.438   9.218  1.4993  1.1078  1.1133
 5849SOL     OW29179   3.770   3.869   2.188  0.1953  0.0577 -0.4646
 5849SOL    HW129180   3.813   3.950   2.215 -2.8015  1.9751 -1.4560
 5849SOL    HW229181   3.780   3.882   2.093 -2.4132  0.6143 -0.6827
 5850SOL     OW29182   3.558   1.953  14.621 -0.2349 -0.5906  0.3815
 5850SOL    HW129183   3.464   1.970  14.612 -0.2795 -1.2157 -0.3141
 5850SOL    HW229184   3.584   2.036  14.661  1.0765 -0.0780 -1.5742
 5851SOL     OW29185   1.831   3.092   4.058 -0.0915  0.3326 -0.1878
 5851SOL    HW129186   1.857   3.091   4.150 -0.6479  0.5695 -0.0237
 5851SOL    HW229187   1.761   3.158   4.057  2.4136  2.9568 -1.2213
 5852SOL     OW29188   4.277   0.202   7.809 -0.6370 -0.6065  0.4272
 5852SOL    HW129189   4.212   0.184   7.878  0.2614  1.1651  1.7481
 5852SOL    HW229190   4.236   0.166   7.731  0.7743  0.7191 -0.9003
 5853SOL     OW29191   2.655   1.115   3.578  0.3328 -0.0781 -0.3509
 5853SOL    HW129192   2.570   1.127   3.535 -1.3092 -0.4267  2.7668
 5853SOL    HW229193   2.668   1.201   3.618  0.2270  0.1890 -0.8962
 5854SOL     OW29194   3.461   2.533   3.395  0.3818 -0.1745 -0.8578
 5854SOL    HW129195   3.457   2.504   3.486  1.5929 -0.1172 -0.7886
 5854SOL    HW229196   3.500   2.620   3.408  0.6573 -0.2348 -1.2913
 5855SOL     OW29197   0.472   2.720   5.390 -0.2839 -0.6114  0.4321
 5855SOL    HW129198   0.560   2.738   5.423  0.7346 -0.1543 -2.5992
 5855SOL    HW229199   0.412   2.766   5.449 -0.5206 -0.5792  0.1649
 5856SOL     OW29200   2.661   3.824  10.287  0.1381  0.5074 -0.2248
 5856SOL    HW129201   2.566   3.832  10.282 -0.0277 -1.1026  0.3659
 5856SOL    HW229202   2.677   3.731  10.303 -0.8457  0.6533  1.5262
 5857SOL     OW29203   3.087   2.643   8.454  0.1514  0.9954  0.2390
 5857SOL    HW129204   3.098   2.723   8.404 -0.5785  0.9235 -0.0464
 5857SOL    HW229205   3.030   2.657   8.530 -2.2258  1.2430 -1.5638
 5858SOL     OW29206   2.501   3.515  17.306  0.4911  0.6597 -0.0434
 5858SOL    HW129207   2.564   3.558  17.248  2.2343 -1.8566  0.0180
 5858SOL    HW229208   2.472   3.582  17.368 -1.7722  1.1138 -1.5991
 5859SOL     OW29209   3.314   3.616   9.489 -0.2791  0.2927 -0.9363
 5859SOL    HW129210   3.288   3.526   9.511  1.2082  0.3832  1.2222
 5859SOL    HW229211   3.359   3.597   9.407  0.8941 -0.4875 -0.1098
 5860SOL     OW29212   3.164   0.178  11.009  0.6478 -0.7619 -0.0002
 5860SOL    HW129213   3.167   0.165  10.915  1.2323  0.2316 -0.1183
 5860SOL    HW229214   3.165   0.274  11.012  1.3120 -0.7041 -3.0808
 5861SOL     OW29215   0.808   0.426   2.180  0.3932 -0.0218  0.3107
 5861SOL    HW129216   0.733   0.377   2.215 -0.1390 -0.5437 -1.5330
 5861SOL    HW229217   0.876   0.440   2.245  0.3893 -1.0864  0.5465
 5862SOL     OW29218   0.194   2.573   7.959  0.7482 -0.1409  0.2165
 5862SOL    HW129219   0.214   2.496   8.014  1.6454  0.0045  0.0870
 5862SOL    HW229220   0.106   2.560   7.923  1.0803 -1.1046 -0.2398
 5863SOL     OW29221   0.900   0.095  11.906  0.3685 -0.0278 -0.3808
 5863SOL    HW129222   0.810   0.064  11.908  0.5944 -0.7364 -1.0840
 5863SOL    HW229223   0.948   0.012  11.899 -1.1346 -0.5444 -4.2924
 5864SOL     OW29224   3.670   3.615   9.848 -0.0474  0.0925  0.3603
 5864SOL    HW129225   3.597   3.647   9.795 -0.9839 -0.8936  1.0618
 5864SOL    HW229226   3.622   3.570   9.918  0.8229 -1.9818 -0.3764
 5865SOL     OW29227   0.768   0.673   6.378 -0.3346  0.2048  0.2346
 5865SOL    HW129228   0.756   0.644   6.469  1.3044 -2.4560 -0.4078
 5865SOL    HW229229   0.775   0.581   6.351  1.9177  1.1039 -2.2126
 5866SOL     OW29230   3.294   3.543   4.474  0.4427  0.5514  0.1182
 5866SOL    HW129231   3.281   3.522   4.381  2.1315 -0.9052  0.2095
 5866SOL    HW229232   3.367   3.486   4.497  0.0162  0.5363  1.4740
 5867SOL     OW29233   0.193   0.641  14.749  0.4797  0.1451 -0.0248
 5867SOL    HW129234   0.251   0.708  14.713  3.1526 -1.0799  2.0281
 5867SOL    HW229235   0.123   0.630  14.684  1.4388 -0.3306 -0.9814
 5868SOL     OW29236   0.474   0.194   3.093 -0.3070  0.9132  0.5939
 5868SOL    HW129237   0.558   0.228   3.122 -0.1034  0.7147  0.2456
 5868SOL    HW229238   0.439   0.169   3.178  0.8633  0.8064  1.0313
 5869SOL     OW29239   3.528   4.318   6.513 -0.7587 -0.7955 -1.0029
 5869SOL    HW129240   3.511   4.249   6.449  0.9531 -2.3933  0.2354
 5869SOL    HW229241   3.436   4.324   6.538 -1.0290 -1.4611 -1.8189
 5870SOL     OW29242   0.733   0.648   3.957 -0.3854  0.3188 -0.0826
 5870SOL    HW129243   0.738   0.731   4.005  0.3843 -0.2374  0.8005
 5870SOL    HW229244   0.640   0.633   3.942 -0.5081 -0.0532  1.0598
 5871SOL     OW29245   0.610   1.692   9.281 -0.5049  0.3032 -0.3470
 5871SOL    HW129246   0.555   1.733   9.347  0.7218  0.2598  0.7134
 5871SOL    HW229247   0.618   1.604   9.319  2.1281  0.6787 -0.0164
 5872SOL     OW29248   1.719   3.136  14.121  0.5646 -0.4087  0.1658
 5872SOL    HW129249   1.679   3.057  14.083  1.3430 -1.7776  2.2278
 5872SOL    HW229250   1.716   3.119  14.215  1.6505 -0.6203  0.1567
 5873SOL     OW29251   0.467   3.255   0.302  0.2450  0.3969 -0.4316
 5873SOL    HW129252   0.382   3.231   0.338  0.9021 -0.7537  0.3316
 5873SOL    HW229253   0.531   3.261   0.373 -0.7255  1.1751  0.3713
 5874SOL     OW29254   3.186   0.444  11.049 -0.1734  0.6546  0.4592
 5874SOL    HW129255   3.254   0.508  11.025  0.0672 -0.5911 -2.1641
 5874SOL    HW229256   3.148   0.483  11.128 -2.4103 -0.5972 -0.0069
 5875SOL     OW29257   0.271   0.112   3.361 -0.1285  0.4249  0.3783
 5875SOL    HW129258   0.220   0.041   3.322  0.2052 -0.9958  2.5098
 5875SOL    HW229259   0.198   0.173   3.363  0.5541  1.2576 -0.2716
 5876SOL     OW29260   4.468   1.761   6.744 -0.2947 -0.2823  0.0130
 5876SOL    HW129261   4.419   1.817   6.685 -0.7169 -2.3975 -1.6114
 5876SOL    HW229262   4.438   1.791   6.830  0.1742  0.4615 -0.0828
 5877SOL     OW29263   3.766   1.902   6.389 -0.2359 -0.0665  0.4825
 5877SOL    HW129264   3.672   1.888   6.379 -0.1398 -0.9401  0.7737
 5877SOL    HW229265   3.787   1.982   6.340 -0.7831 -0.2368 -0.0237
 5878SOL     OW29266   4.157   2.257   2.589 -0.0925 -0.3197  0.1071
 5878SOL    HW129267   4.181   2.263   2.681 -2.7410 -1.0698  0.8355
 5878SOL    HW229268   4.244   2.267   2.550  0.4511  0.8160  1.6110
 5879SOL     OW29269   4.633   4.673  10.166  0.2856  0.4332  0.2807
 5879SOL    HW129270   4.545   4.707  10.182  0.0282 -1.4495  2.8252
 5879SOL    HW229271   4.678   0.013  10.201 -0.7017  0.4964  1.3880
 5880SOL     OW29272   4.276   4.091   9.200 -0.1066 -0.0618 -0.8143
 5880SOL    HW129273   4.214   4.022   9.226  0.9394 -0.5157  0.4742
 5880SOL    HW229274   4.282   4.082   9.105 -0.1713  2.7430 -1.0704
 5881SOL     OW29275   0.366   4.722   3.596 -0.5183  0.0405  0.2498
 5881SOL    HW129276   0.455   4.724   3.561 -1.9236 -0.9305 -3.3741
 5881SOL    HW229277   0.321   0.035   3.528  3.0346 -0.7039 -2.6587
 5882SOL     OW29278   3.441   1.885   7.376  0.1092 -0.3144  0.1933
 5882SOL    HW129279   3.347   1.892   7.359 -0.0104  0.5860  1.2205
 5882SOL    HW229280   3.459   1.791   7.384 -0.7301 -0.7803 -3.4813
 5883SOL     OW29281   1.696   0.092   6.972 -0.4949  0.3099 -0.3711
 5883SOL    HW129282   1.617   0.045   6.998  0.7066 -1.1503  0.6943
 5883SOL    HW229283   1.659   0.149   6.905 -0.8843  0.2755 -0.1862
 5884SOL     OW29284   0.614   4.073   3.832 -0.4207 -0.0090  0.6298
 5884SOL    HW129285   0.661   4.103   3.755  0.2544  0.3931  1.2096
 5884SOL    HW229286   0.540   4.133   3.835 -0.2855  0.1273  1.2298
 5885SOL     OW29287   1.366   1.019   9.652  0.1906 -1.0950  0.3445
 5885SOL    HW129288   1.363   1.073   9.572 -0.7491  0.9504  1.7624
 5885SOL    HW229289   1.347   0.930   9.622  0.1311 -0.6110 -1.0704
 5886SOL     OW29290   2.860   4.271   5.524 -0.5395 -0.8226  0.3504
 5886SOL    HW129291   2.863   4.339   5.591  0.1904 -0.9238  0.4155
 5886SOL    HW229292   2.908   4.203   5.571  1.3589 -0.3128 -0.8498
 5887SOL     OW29293   4.395   1.628  14.733 -0.4234 -0.2151 -0.2252
 5887SOL    HW129294   4.435   1.545  14.761 -0.2867 -0.2176 -0.4317
 5887SOL    HW229295   4.305   1.597  14.724 -0.1247 -0.5418 -2.0747
 5888SOL     OW29296   3.137   2.703   9.212  0.1440 -0.1071 -0.2321
 5888SOL    HW129297   3.227   2.670   9.212  0.1439 -0.0985  1.9368
 5888SOL    HW229298   3.128   2.724   9.119 -0.6911 -0.3374 -0.2032
 5889SOL     OW29299   2.516   4.603   9.633 -0.6178 -0.0633  0.4143
 5889SOL    HW129300   2.435   4.563   9.665 -0.1087 -0.9648  0.5626
 5889SOL    HW229301   2.565   4.614   9.714  0.5150  3.7039 -0.8006
 5890SOL     OW29302   3.045   3.629   4.545  0.0521  0.2886  0.1151
 5890SOL    HW129303   3.010   3.610   4.458  1.0026  0.7676 -0.3685
 5890SOL    HW229304   3.130   3.587   4.536 -0.2130 -0.3149  0.4236
 5891SOL     OW29305   2.949   4.663   2.807 -0.5423 -0.2906  0.1441
 5891SOL    HW129306   2.980   4.670   2.897 -1.1461 -1.0058  0.4041
 5891SOL    HW229307   2.972   0.012   2.772  2.0528 -1.6079 -1.3910
 5892SOL     OW29308   1.042   3.307   7.568  0.8328 -0.3312 -0.4021
 5892SOL    HW129309   1.002   3.226   7.537 -0.8713 -0.4334  2.0546
 5892SOL    HW229310   0.967   3.342   7.617  0.7700  1.6429 -1.8995
 5893SOL     OW29311   2.298   3.902   7.665 -0.8254 -0.2988  0.0495
 5893SOL    HW129312   2.235   3.874   7.731 -2.2045  0.1711 -1.0717
 5893SOL    HW229313   2.373   3.897   7.724  0.2666 -0.6704 -1.3731
 5894SOL     OW29314   1.054   2.690  13.716 -0.7841  0.2004  0.2291
 5894SOL    HW129315   0.969   2.651  13.697 -1.0208  1.1024 -0.5216
 5894SOL    HW229316   1.104   2.610  13.735  0.2482  0.1445 -2.6436
 5895SOL     OW29317   2.664   2.352   9.080  0.2182 -0.2360  0.1430
 5895SOL    HW129318   2.698   2.287   9.018  0.4644 -0.2042  0.2437
 5895SOL    HW229319   2.736   2.412   9.064 -0.2316 -0.0757 -1.3191
 5896SOL     OW29320   2.668   1.433   5.167  0.4317 -0.0311  0.5012
 5896SOL    HW129321   2.598   1.484   5.127  1.8733  1.4683 -0.1365
 5896SOL    HW229322   2.627   1.426   5.253 -0.3366 -2.0976 -0.0471
 5897SOL     OW29323   1.634   2.624   7.825 -0.2511 -0.1036 -0.3703
 5897SOL    HW129324   1.582   2.563   7.773 -0.5798 -2.1432  2.3904
 5897SOL    HW229325   1.621   2.586   7.911 -2.2552 -1.9743 -1.5045
 5898SOL     OW29326   1.673   0.549  13.246 -0.4485 -0.5230 -0.4832
 5898SOL    HW129327   1.669   0.565  13.152 -0.4054 -2.0044 -0.7366
 5898SOL    HW229328   1.767   0.559  13.263 -0.5808 -2.6151  1.4437
 5899SOL     OW29329   3.655   0.137  10.477  0.2010  0.1523  0.5146
 5899SOL    HW129330   3.678   0.230  10.480 -0.3921  0.2788  1.0446
 5899SOL    HW229331   3.650   0.119  10.383 -0.7056 -2.3091  1.0333
 5900SOL     OW29332   3.700   1.964   2.532  0.1765  0.2010 -0.4057
 5900SOL    HW129333   3.707   1.925   2.620 -0.9486 -0.6564 -0.6870
 5900SOL    HW229334   3.790   1.980   2.507  0.2390 -0.5904 -0.6922
 5901SOL     OW29335   2.735   4.096  15.036 -0.7071 -0.0887 -0.0366
 5901SOL    HW129336   2.822   4.135  15.042 -0.7396  0.2873 -2.0130
 5901SOL    HW229337   2.672   4.168  15.042 -1.8167 -1.2537  2.3191
 5902SOL     OW29338   0.636   0.863  12.203 -0.1120 -0.0715  0.0699
 5902SOL    HW129339   0.585   0.943  12.211 -2.6022 -1.5826 -0.6941
 5902SOL    HW229340   0.684   0.891  12.125 -0.1752  0.5177  0.2486
 5903SOL     OW29341   3.477   4.117   1.519 -0.3327  0.2127 -0.0117
 5903SOL    HW129342   3.481   4.073   1.434 -0.9640  0.6227 -0.2506
 5903SOL    HW229343   3.384   4.115   1.539 -0.0573  1.4680  1.3817
 5904SOL     OW29344   1.634   2.893   8.295 -0.1320 -0.5560 -0.2121
 5904SOL    HW129345   1.666   2.913   8.207 -0.8202 -1.2404 -0.6141
 5904SOL    HW229346   1.681   2.810   8.306 -1.1683 -1.9422 -6.1959
 5905SOL     OW29347   2.762   2.585   4.844 -0.4976  0.3927 -0.1379
 5905SOL    HW129348   2.728   2.631   4.767 -0.1939  4.1167  1.9799
 5905SOL    HW229349   2.850   2.571   4.808  0.1547  2.2913  0.7474
 5906SOL     OW29350   2.888   0.476   2.400  0.0260  0.0755  0.1869
 5906SOL    HW129351   2.846   0.519   2.326 -2.2482 -0.2560  1.2942
 5906SOL    HW229352   2.930   0.397   2.365 -1.2764  0.1944 -1.6275
 5907SOL     OW29353   2.667   0.079   6.836  0.0580  1.5673  0.8224
 5907SOL    HW129354   2.692   0.105   6.925  0.2528 -0.9391  1.5078
 5907SOL    HW229355   2.584   0.034   6.853  0.2197  0.8834 -0.2326
 5908SOL     OW29356   1.146   1.061  15.493 -0.2120 -0.0181 -0.3630
 5908SOL    HW129357   1.174   1.049  15.583  2.3839 -1.9498 -1.4230
 5908SOL    HW229358   1.226   1.028  15.452  0.5565  0.8879  0.4103
 5909SOL     OW29359   0.935   2.497  15.857  0.9019  0.4407 -0.2260
 5909SOL    HW129360   0.904   2.544  15.934 -2.6220 -0.1314 -1.2461
 5909SOL    HW229361   0.993   2.436  15.902 -0.4354  0.3903  1.4161
 5910SOL     OW29362   1.142   2.800   2.271  0.7338  0.6584  0.6636
 5910SOL    HW129363   1.179   2.716   2.242 -0.7326  0.7284 -1.4212
 5910SOL    HW229364   1.220   2.850   2.294  0.4492  2.6766 -2.7481
 5911SOL     OW29365   3.377   1.359   3.659  0.0013  0.5182  0.4641
 5911SOL    HW129366   3.342   1.298   3.723 -0.0450  0.1931  0.1320
 5911SOL    HW229367   3.372   1.308   3.578  1.7736  3.8549 -1.7580
 5912SOL     OW29368   1.522   0.452  17.154 -0.1929  0.2578  0.1556
 5912SOL    HW129369   1.559   0.516  17.094 -0.5941 -1.8711 -2.3841
 5912SOL    HW229370   1.471   0.507  17.213 -0.3222 -0.1249  0.4022
 5913SOL     OW29371   2.120   3.193   6.716  0.3208 -0.5760  0.0289
 5913SOL    HW129372   2.169   3.122   6.674 -0.4950 -0.8637 -0.4282
 5913SOL    HW229373   2.101   3.252   6.644  0.4312  0.4640  0.8477
 5914SOL     OW29374   4.529   3.740   5.588  0.0830 -0.2278 -0.1920
 5914SOL    HW129375   4.610   3.788   5.575 -0.3557  0.8946  1.1643
 5914SOL    HW229376   4.539   3.731   5.683  2.6087  3.2795 -0.1600
 5915SOL     OW29377   0.877   2.961   3.656  0.0737  0.9758 -0.2951
 5915SOL    HW129378   0.847   3.047   3.625 -1.7321  0.7228  0.7351
 5915SOL    HW229379   0.810   2.949   3.724 -0.3149  1.4563 -0.5868
 5916SOL     OW29380   2.459   1.505   7.736  0.3348  0.0233 -0.0505
 5916SOL    HW129381   2.486   1.534   7.648 -1.1455 -3.2884 -1.6076
 5916SOL    HW229382   2.385   1.563   7.754 -0.1174 -0.4278 -0.4764
 5917SOL     OW29383   4.477   2.829   0.784  0.2709  0.0690 -0.8338
 5917SOL    HW129384   4.466   2.921   0.811 -1.3421 -0.6486  0.9405
 5917SOL    HW229385   4.397   2.791   0.820  1.3662 -0.8419  0.6751
 5918SOL     OW29386   3.362   0.482   7.463  0.1904  0.6421 -0.3208
 5918SOL    HW129387   3.365   0.567   7.418  3.0853  0.4919 -0.3788
 5918SOL    HW229388   3.367   0.501   7.557  2.9037 -0.5039 -0.2412
 5919SOL     OW29389   0.348   1.314   1.766 -0.3742  0.2591  0.9480
 5919SOL    HW129390   0.344   1.223   1.796  2.0040 -0.8274 -1.9778
 5919SOL    HW229391   0.257   1.320   1.738 -0.5382  1.3996  1.7068
 5920SOL     OW29392   0.797   1.203  17.384  0.0834  0.4344 -0.2168
 5920SOL    HW129393   0.842   1.216  17.301  0.5529  1.0291  0.1312
 5920SOL    HW229394   0.784   1.108  17.376 -0.8536  0.5859 -0.4090
 5921SOL     OW29395   0.513   0.492  17.014  0.3223  0.3755  0.5332
 5921SOL    HW129396   0.500   0.582  17.046  0.2048  0.4008  0.4134
 5921SOL    HW229397   0.471   0.431  17.075 -0.3622 -0.8936 -1.2182
 5922SOL     OW29398   3.164   0.455  17.144 -0.0248  0.5989 -0.4146
 5922SOL    HW129399   3.209   0.516  17.202  1.5863 -0.8214 -0.1549
 5922SOL    HW229400   3.072   0.470  17.164 -0.0600  1.6938 -1.4060
 5923SOL     OW29401   3.214   0.485   8.057  0.4550  0.8757 -0.4088
 5923SOL    HW129402   3.157   0.556   8.026 -0.0742  1.0550  0.9774
 5923SOL    HW229403   3.149   0.465   8.124  2.9550  1.6499  2.1952
 5924SOL     OW29404   2.518   0.102  11.626  0.2080 -0.3902  0.0473
 5924SOL    HW129405   2.486   0.176  11.677  2.9877 -0.6574  2.2146
 5924SOL    HW229406   2.446   0.106  11.563  1.4705 -1.3762 -1.4718
 5925SOL     OW29407   0.530   1.958   4.380 -0.3910  0.3471 -0.7298
 5925SOL    HW129408   0.582   2.027   4.422 -1.7598  2.0693 -1.8629
 5925SOL    HW229409   0.517   1.998   4.294 -0.0476  0.3562 -0.7801
 5926SOL     OW29410   4.353   3.127  10.154 -0.2022  0.1757 -0.8134
 5926SOL    HW129411   4.294   3.071  10.204  1.3389  2.0553  3.1311
 5926SOL    HW229412   4.378   3.195  10.216 -0.3136 -0.6200  0.1045
 5927SOL     OW29413   4.174   1.204   2.529 -0.0232  0.2137  0.3941
 5927SOL    HW129414   4.112   1.163   2.590 -0.7511  1.0063  0.1804
 5927SOL    HW229415   4.238   1.133   2.521  0.3566  0.4745  1.1294
 5928SOL     OW29416   0.319   0.704   4.081 -0.3178  0.1494  0.0236
 5928SOL    HW129417   0.251   0.759   4.120 -1.0515 -0.1648 -0.8194
 5928SOL    HW229418   0.383   0.697   4.152  0.3606  0.8051 -0.5242
 5929SOL     OW29419   3.404   3.358   2.674  0.4377  0.1826  0.1283
 5929SOL    HW129420   3.462   3.338   2.601  1.1172 -1.8351  1.2147
 5929SOL    HW229421   3.433   3.441   2.711 -0.9958  1.2246 -1.0812
 5930SOL     OW29422   2.407   2.441   2.119 -0.7866 -0.2165 -0.0403
 5930SOL    HW129423   2.412   2.536   2.108  2.3879 -0.1763  1.7312
 5930SOL    HW229424   2.314   2.428   2.139 -1.6480  0.1069 -3.8356
 5931SOL     OW29425   4.130   3.790  16.061 -0.4351  0.1220 -0.1275
 5931SOL    HW129426   4.153   3.798  15.969  0.3287  0.5196  0.1087
 5931SOL    HW229427   4.202   3.731  16.084 -0.6183 -0.2231 -0.4497
 5932SOL     OW29428   3.646   3.547   7.430 -0.1306 -0.4083 -0.2469
 5932SOL    HW129429   3.608   3.498   7.357 -0.0105 -2.0780  0.8163
 5932SOL    HW229430   3.740   3.541   7.411 -0.3327  0.5296 -1.5226
 5933SOL     OW29431   1.205   1.986  12.142 -0.2224 -0.1432 -0.5883
 5933SOL    HW129432   1.182   1.901  12.179 -2.5784  0.0630 -1.5801
 5933SOL    HW229433   1.166   1.976  12.056  1.0853  0.2751 -1.2193
 5934SOL     OW29434   3.751   0.678   5.378 -0.0926 -0.1013 -0.5089
 5934SOL    HW129435   3.767   0.668   5.285  2.7344 -0.6508  0.0266
 5934SOL    HW229436   3.790   0.763   5.397 -0.7188 -0.2252  1.3231
 5935SOL     OW29437   3.109   0.773   5.781  0.3946  0.0611  0.0863
 5935SOL    HW129438   3.077   0.700   5.834  1.8554 -0.7450 -0.1499
 5935SOL    HW229439   3.182   0.732   5.736  0.3953  0.4461 -0.2627
 5936SOL     OW29440   2.676   0.538   8.999  0.8024 -0.2350 -0.4554
 5936SOL    HW129441   2.687   0.528   8.905  1.0749  0.4551 -0.4948
 5936SOL    HW229442   2.642   0.628   8.999  0.2181 -0.4566 -0.3166
 5937SOL     OW29443   0.047   3.325  12.587  0.3796  0.2115  0.2534
 5937SOL    HW129444   0.064   3.390  12.655  2.3477 -0.2739  0.2029
 5937SOL    HW229445   0.131   3.280  12.585 -0.1793 -0.8773  1.7042
 5938SOL     OW29446   1.473   2.652   9.295  0.7934  0.5883 -0.0231
 5938SOL    HW129447   1.431   2.679   9.377 -2.5574  2.0210 -2.2568
 5938SOL    HW229448   1.410   2.586   9.268  3.0618 -2.0940  1.2873
 5939SOL     OW29449   0.655   0.809   6.151 -0.2632 -0.1253 -0.0340
 5939SOL    HW129450   0.694   0.800   6.237 -0.7936 -0.5816  0.1608
 5939SOL    HW229451   0.648   0.719   6.118 -3.2256 -0.6305  1.9708
 5940SOL     OW29452   4.280   2.782   4.436 -0.8052 -0.3110 -0.1526
 5940SOL    HW129453   4.215   2.744   4.495 -0.2679 -3.2264 -1.4539
 5940SOL    HW229454   4.265   2.742   4.351  1.4279 -2.3632  0.4165
 5941SOL     OW29455   0.002   4.735   3.636  0.0326 -0.7847 -0.3935
 5941SOL    HW129456   4.682   4.720   3.711  1.8747  0.0793  1.1626
 5941SOL    HW229457   0.068   0.061   3.664  1.1802 -1.0768 -2.4700
 5942SOL     OW29458   2.308   2.111   2.946  0.6419  0.8251 -0.7380
 5942SOL    HW129459   2.367   2.106   3.022 -0.3988 -0.3365 -0.0086
 5942SOL    HW229460   2.229   2.073   2.984  3.5473 -1.9080  2.6210
 5943SOL     OW29461   2.764   4.234   2.445 -0.2603 -0.2844 -0.0195
 5943SOL    HW129462   2.755   4.189   2.361 -2.9550  0.1522  0.0454
 5943SOL    HW229463   2.822   4.308   2.428 -1.2428  0.6721  0.7966
 5944SOL     OW29464   1.962   3.299   4.604  0.4041  0.0918 -0.1653
 5944SOL    HW129465   1.891   3.313   4.542 -2.8851  0.2324  3.6232
 5944SOL    HW229466   1.930   3.235   4.668  1.1730 -0.9713 -0.8460
 5945SOL     OW29467   0.133   4.417   5.742 -0.4234  0.5494 -0.1921
 5945SOL    HW129468   0.221   4.449   5.762  1.1981 -3.5653 -0.7314
 5945SOL    HW229469   0.143   4.327   5.774 -0.3183  0.7480  0.3465
 5946SOL     OW29470   1.026   4.602   8.064 -0.1759  0.6348 -0.3039
 5946SOL    HW129471   1.072   4.686   8.069 -0.6053  0.8536 -0.0651
 5946SOL    HW229472   1.098   4.550   8.027 -0.3793 -0.4155  0.7762
 5947SOL     OW29473   0.741   0.358   9.981 -0.1352 -0.2815 -0.4965
 5947SOL    HW129474   0.782   0.301  10.046  0.7375 -0.7367 -1.4548
 5947SOL    HW229475   0.758   0.444  10.020 -3.5467  0.1206  0.1531
 5948SOL     OW29476   1.683   3.818   8.887  0.6497 -0.0968  0.3963
 5948SOL    HW129477   1.664   3.726   8.909  2.1657 -0.2343  1.1521
 5948SOL    HW229478   1.667   3.851   8.975  0.3072 -1.6626  0.9306
 5949SOL     OW29479   2.015   3.723   3.370 -0.3612  0.2877  0.6347
 5949SOL    HW129480   2.097   3.692   3.332 -0.6562 -0.6353  0.7674
 5949SOL    HW229481   2.011   3.812   3.333 -1.6732 -1.0182 -2.3214
 5950SOL     OW29482   1.917   3.498   8.356  0.3584 -0.0920 -0.0086
 5950SOL    HW129483   1.961   3.571   8.400  0.0065 -0.3245  0.7381
 5950SOL    HW229484   1.944   3.430   8.417  3.5488 -0.2071 -1.5277
 5951SOL     OW29485   2.517   0.707   2.613  0.6583 -0.1300  0.0240
 5951SOL    HW129486   2.514   0.732   2.521  0.7275 -1.1618 -0.2560
 5951SOL    HW229487   2.455   0.764   2.660  0.4436 -1.4127  1.2869
 5952SOL     OW29488   1.130   3.608   8.129  0.1004  0.2147  0.1528
 5952SOL    HW129489   1.208   3.633   8.080 -0.5899  0.4582 -0.8209
 5952SOL    HW229490   1.106   3.694   8.162 -1.9181  0.0365 -0.8763
 5953SOL     OW29491   3.503   2.215   1.391 -0.6329  0.6961  0.1318
 5953SOL    HW129492   3.591   2.211   1.353  0.0722 -2.5221  2.0861
 5953SOL    HW229493   3.484   2.121   1.397  3.4325 -0.0902  0.8800
 5954SOL     OW29494   2.808   0.261   6.655  0.0914 -0.2183 -0.5969
 5954SOL    HW129495   2.805   0.184   6.712 -1.5060  0.5376  0.3407
 5954SOL    HW229496   2.901   0.277   6.669 -0.2305  0.8316  0.3396
 5955SOL     OW29497   2.611   1.133   8.409 -0.0185  0.3849  0.1444
 5955SOL    HW129498   2.627   1.197   8.339 -1.5250  2.0251  1.2917
 5955SOL    HW229499   2.690   1.139   8.461  0.2032  2.4794 -0.4142
 5956SOL     OW29500   2.268   2.724   3.365  0.3290 -0.1774 -0.1116
 5956SOL    HW129501   2.276   2.640   3.411 -0.1970 -0.2391 -0.1238
 5956SOL    HW229502   2.212   2.697   3.293  0.7658  0.3774 -0.6547
 5957SOL     OW29503   2.266   4.503  14.077  0.2859  0.1603 -0.2913
 5957SOL    HW129504   2.357   4.475  14.084 -0.4279 -2.1351 -0.1580
 5957SOL    HW229505   2.233   4.427  14.028 -1.2130  0.8480 -0.3426
 5958SOL     OW29506   4.387   3.098   2.097  0.2734 -0.0144  0.2579
 5958SOL    HW129507   4.405   3.153   2.021 -1.7982 -2.1425 -1.7513
 5958SOL    HW229508   4.345   3.163   2.154  3.0635  0.5721  1.6612
 5959SOL     OW29509   0.498   1.575   4.151 -0.0273  0.0032 -0.6833
 5959SOL    HW129510   0.490   1.664   4.116 -2.1902  0.9547  2.2663
 5959SOL    HW229511   0.588   1.567   4.180 -0.3109 -1.9587 -0.3746
 5960SOL     OW29512   4.086   2.072  16.206  0.5340 -0.0963  0.0000
 5960SOL    HW129513   4.126   2.041  16.287  0.5087  1.3939  0.5829
 5960SOL    HW229514   4.129   2.007  16.152  1.3737 -1.5819  2.4516
 5961SOL     OW29515   3.381   1.197   4.784  0.6989  0.1380 -0.0560
 5961SOL    HW129516   3.403   1.220   4.874  0.2505 -1.1763  0.3862
 5961SOL    HW229517   3.469   1.212   4.749 -0.2224  0.3297 -2.3135
 5962SOL     OW29518   1.659   3.424  13.365 -0.2559 -0.5562  0.4278
 5962SOL    HW129519   1.729   3.361  13.344  1.3965  2.1079 -1.9545
 5962SOL    HW229520   1.610   3.376  13.432  0.5799 -1.6858  0.2255
 5963SOL     OW29521   3.611   2.003   0.840 -0.4637 -0.1508 -0.1254
 5963SOL    HW129522   3.677   1.935   0.827  0.1803 -0.0512  2.6825
 5963SOL    HW229523   3.600   2.031   0.749  2.2754 -2.4593 -1.1836
 5964SOL     OW29524   0.662   1.973   4.104  0.3611 -0.2817  0.4345
 5964SOL    HW129525   0.735   2.032   4.083  0.1733 -0.0046  0.5603
 5964SOL    HW229526   0.710   1.893   4.082 -0.2998 -0.5560  0.0055
 5965SOL     OW29527   4.668   3.726   5.870  0.1473 -0.2915 -0.5753
 5965SOL    HW129528   4.684   3.773   5.952 -0.8643 -3.1663  1.2723
 5965SOL    HW229529   0.011   3.674   5.872  0.0694 -0.3451  0.7731
 5966SOL     OW29530   3.189   2.063   8.505  0.1549 -0.0776 -0.4012
 5966SOL    HW129531   3.129   2.073   8.579 -1.8415  0.4735 -2.1052
 5966SOL    HW229532   3.189   1.968   8.494 -0.6059 -0.1659  0.3513
 5967SOL     OW29533   1.686   2.996   6.214  0.5276 -0.8164 -0.3193
 5967SOL    HW129534   1.711   3.054   6.142  3.1011 -1.1254  0.2985
 5967SOL    HW229535   1.646   2.918   6.175 -0.3197 -0.6184  0.1785
 5968SOL     OW29536   1.747   4.697   0.962  0.4024 -0.0435 -0.0235
 5968SOL    HW129537   1.671   0.004   1.001  1.8880  1.8767  0.7465
 5968SOL    HW229538   1.728   4.669   0.873  0.6747 -0.8651  0.1740
 5969SOL     OW29539   2.169   1.631   8.636 -0.4697  0.1140 -0.2065
 5969SOL    HW129540   2.158   1.724   8.655  1.8908  0.4595 -0.4326
 5969SOL    HW229541   2.254   1.611   8.675 -1.0824 -0.2885  0.9157
 5970SOL     OW29542   3.427   4.680   5.725 -0.3308  0.0999  0.3501
 5970SOL    HW129543   3.424   0.036   5.747 -0.8606 -0.0893  1.0693
 5970SOL    HW229544   3.486   4.646   5.793  0.6565 -1.0797 -1.0841
 5971SOL     OW29545   0.090   4.520   3.495 -0.2226  0.3733  1.0363
 5971SOL    HW129546   0.111   4.476   3.577  0.4804 -1.9797 -0.4021
 5971SOL    HW229547   0.062   4.596   3.546  0.0171  1.8242 -1.0192
 5972SOL     OW29548   2.480   2.285   4.820 -0.6629 -0.1000 -0.3710
 5972SOL    HW129549   2.453   2.357   4.876 -0.1408  1.7128 -2.4233
 5972SOL    HW229550   2.396   2.253   4.785 -0.0795  0.7739 -2.5664
 5973SOL     OW29551   4.183   1.959   2.767 -0.3323 -0.0687 -0.4421
 5973SOL    HW129552   4.251   2.014   2.728 -2.3375  3.2111  0.6662
 5973SOL    HW229553   4.234   1.931   2.843 -0.3901  0.0253 -0.3685
 5974SOL     OW29554   4.489   3.191  13.875 -0.7073  0.6169  0.1013
 5974SOL    HW129555   4.491   3.123  13.942 -1.1090  0.2835 -0.2244
 5974SOL    HW229556   4.399   3.179  13.846 -0.6753 -0.9411  0.6864
 5975SOL     OW29557   2.657   4.017   5.942  0.3400 -0.2083 -0.3161
 5975SOL    HW129558   2.577   3.973   5.914 -1.6412  2.6218  0.9197
 5975SOL    HW229559   2.624   4.090   5.993  0.1735 -1.1351  0.9158
 5976SOL     OW29560   2.103   0.056   8.039 -0.3418 -0.3083  0.2814
 5976SOL    HW129561   2.184   0.092   8.004 -0.2973  0.1651  0.8920
 5976SOL    HW229562   2.057   0.135   8.065  1.9239  1.7415 -1.9516
 5977SOL     OW29563   3.833   1.666  11.047  0.2098  0.4783  0.7373
 5977SOL    HW129564   3.784   1.615  10.982 -0.7471  2.3170  0.0209
 5977SOL    HW229565   3.883   1.720  10.985 -0.2079  0.4746  0.4023
 5978SOL     OW29566   2.037   0.975   4.830  0.6979  0.6836  0.6123
 5978SOL    HW129567   2.076   0.995   4.745 -0.6643  0.6835 -0.0117
 5978SOL    HW229568   1.957   1.027   4.821  1.9401  2.7570  1.6084
 5979SOL     OW29569   2.541   4.050   8.939 -0.2095  0.2854  0.4152
 5979SOL    HW129570   2.573   3.975   8.890 -2.6110 -0.1518 -0.4801
 5979SOL    HW229571   2.620   4.057   8.993  0.9430 -0.6609 -1.1462
 5980SOL     OW29572   3.030   1.213  13.215 -0.1518 -0.2169 -0.6712
 5980SOL    HW129573   3.107   1.171  13.252  0.2910  2.3561  1.3543
 5980SOL    HW229574   3.067   1.281  13.159  1.5668 -0.3479  0.3239
 5981SOL     OW29575   3.259   2.841   1.683  0.1450 -0.0507 -0.4294
 5981SOL    HW129576   3.204   2.834   1.761 -0.2150 -1.5119 -0.8198
 5981SOL    HW229577   3.285   2.934   1.685  0.5172 -0.1343 -1.2319
 5982SOL     OW29578   2.266   0.597   2.770 -0.2044  0.2462  0.0247
 5982SOL    HW129579   2.361   0.591   2.760 -0.2278  1.2967 -0.8144
 5982SOL    HW229580   2.242   0.507   2.748  3.3494 -1.3527  2.6796
 5983SOL     OW29581   0.464   4.022   7.707 -0.3251  0.3748  0.0301
 5983SOL    HW129582   0.390   4.082   7.715 -1.2487 -1.2309  3.2399
 5983SOL    HW229583   0.541   4.077   7.720  1.0305 -0.6980 -3.2912
 5984SOL     OW29584   1.174   2.351   6.021 -0.5753  0.1935 -0.0848
 5984SOL    HW129585   1.152   2.332   5.930  0.9452  1.5062 -0.7201
 5984SOL    HW229586   1.262   2.315   6.016 -0.2894  0.5883  1.8854
 5985SOL     OW29587   0.031   3.741   7.328 -0.1217 -0.4523  0.1343
 5985SOL    HW129588   0.085   3.720   7.404 -0.5652 -0.4572  0.4535
 5985SOL    HW229589   4.683   3.748   7.374 -0.1083  2.4028 -0.2882
 5986SOL     OW29590   0.641   4.046   9.099  0.1553 -0.9853 -0.2174
 5986SOL    HW129591   0.645   4.005   9.186 -3.4083  0.7736  0.7849
 5986SOL    HW229592   0.621   4.135   9.129 -2.1082 -1.1196 -1.2850
 5987SOL     OW29593   1.619   1.737   8.943  0.1932  0.0165  0.4938
 5987SOL    HW129594   1.541   1.691   8.913  0.0592  0.8875 -0.4944
 5987SOL    HW229595   1.626   1.788   8.862 -1.5240 -0.8794 -0.2190
 5988SOL     OW29596   0.367   0.088   2.510 -0.6069  0.1664  0.0644
 5988SOL    HW129597   0.327   0.011   2.471  0.5630 -0.0768 -0.6675
 5988SOL    HW229598   0.296   0.110   2.570  0.5323 -0.5281  1.6969
 5989SOL     OW29599   0.931   3.932   3.352 -0.1741 -0.1515  0.0735
 5989SOL    HW129600   1.027   3.930   3.353 -0.2141 -1.8251  1.0090
 5989SOL    HW229601   0.910   3.893   3.267  1.5418 -0.5667 -0.1649
 5990SOL     OW29602   3.379   2.020  10.909  0.2381 -0.0387  0.0913
 5990SOL    HW129603   3.443   2.090  10.892  0.8827 -0.3791  1.1065
 5990SOL    HW229604   3.420   1.974  10.982 -1.0425  0.6029  1.2151
 5991SOL     OW29605   0.590   2.341   7.959  0.3559 -0.2701 -0.8782
 5991SOL    HW129606   0.533   2.335   7.883  0.1776  0.8072 -0.8377
 5991SOL    HW229607   0.585   2.251   7.990  0.5721 -0.6920 -2.0802
 5992SOL     OW29608   2.033   1.981   3.089 -0.0652  0.3866  0.0905
 5992SOL    HW129609   1.973   1.954   3.158  0.8826 -1.9893  0.0090
 5992SOL    HW229610   2.117   1.968   3.134 -0.9711  0.2029  1.7239
 5993SOL     OW29611   2.085   2.109   9.103  0.0891 -0.1373  0.0048
 5993SOL    HW129612   2.078   2.175   9.172 -0.5856 -0.2148  0.0100
 5993SOL    HW229613   2.178   2.087   9.110 -0.4076 -2.0482  0.5113
 5994SOL     OW29614   2.933   4.399  17.037 -0.5018 -0.3873  0.2690
 5994SOL    HW129615   2.892   4.374  16.954 -1.8638  2.3598  0.1151
 5994SOL    HW229616   2.928   4.493  17.020  3.6848 -0.0257  1.1098
 5995SOL     OW29617   3.490   2.145   3.779 -0.5332 -0.1949 -0.6289
 5995SOL    HW129618   3.479   2.171   3.688 -0.8907 -1.7832 -1.0526
 5995SOL    HW229619   3.403   2.112   3.804  0.3044 -2.1201 -0.2103
 5996SOL     OW29620   1.858   2.700  12.087 -0.0185  0.1278 -0.7129
 5996SOL    HW129621   1.831   2.717  11.996 -0.6718 -0.3466 -0.6095
 5996SOL    HW229622   1.871   2.605  12.082  0.3466  0.2113 -1.3703
 5997SOL     OW29623   1.258   3.894   2.967  0.2729  0.0210 -0.0375
 5997SOL    HW129624   1.279   3.833   2.897 -0.3308  0.4296 -0.5761
 5997SOL    HW229625   1.340   3.885   3.016 -0.1024  0.7346  0.7259
 5998SOL     OW29626   2.839   2.008  12.407  0.6975 -0.0316 -0.5046
 5998SOL    HW129627   2.857   1.964  12.323  0.6115 -0.7163 -0.1611
 5998SOL    HW229628   2.857   1.938  12.470  1.0795  0.1554 -0.4084
 5999SOL     OW29629   3.744   0.084   0.365 -0.1020  0.3230 -0.2511
 5999SOL    HW129630   3.703   0.124   0.442 -0.3046 -0.5034  0.0722
 5999SOL    HW229631   3.784   0.158   0.320  0.6298 -0.4962 -0.9436
 6000SOL     OW29632   1.897   3.405   4.163 -0.0317 -0.5025 -0.2386
 6000SOL    HW129633   1.866   3.379   4.076  2.4230  0.3761 -1.3815
 6000SOL    HW229634   1.834   3.474   4.182  0.4003 -0.4299  0.9220
 6001SOL     OW29635   4.502   0.979  14.955  0.5982 -0.4892  0.5478
 6001SOL    HW129636   4.430   0.916  14.962 -0.4285  0.8557  2.0099
 6001SOL    HW229637   4.564   0.922  15.000 -0.1943 -2.5550 -0.9389
 6002SOL     OW29638   0.048   1.083  12.063  0.1296 -0.5725  0.5718
 6002SOL    HW129639   0.013   1.162  12.020 -0.0446 -2.4739 -2.7887
 6002SOL    HW229640   4.705   1.044  12.099 -0.7538 -1.3883 -2.2666
 6003SOL     OW29641   1.525   4.393   1.722 -0.7254 -0.2476 -0.2271
 6003SOL    HW129642   1.558   4.319   1.673  2.3165 -0.8040  2.6992
 6003SOL    HW229643   1.600   4.405   1.779 -0.9343  0.4144 -0.0833
 6004SOL     OW29644   1.777   4.364   8.107  0.0803  0.6199 -0.2495
 6004SOL    HW129645   1.772   4.302   8.180  0.3139  2.3541  1.2269
 6004SOL    HW229646   1.848   4.426   8.124  0.2425  0.4363 -0.2504
 6005SOL     OW29647   0.733   3.901   4.883 -0.2765 -0.0378  0.4971
 6005SOL    HW129648   0.661   3.839   4.871 -0.8041  0.0857  3.1225
 6005SOL    HW229649   0.803   3.846   4.918 -0.6289 -0.9955 -0.2940
 6006SOL     OW29650   2.339   3.869  11.260  0.7022  0.1357  0.0892
 6006SOL    HW129651   2.250   3.885  11.230  1.8410 -1.0629 -3.9910
 6006SOL    HW229652   2.328   3.778  11.287 -0.9884  0.0031 -1.0605
 6007SOL     OW29653   1.525   4.398   7.436 -0.0688  0.1888 -0.1030
 6007SOL    HW129654   1.436   4.420   7.460  0.3203  2.4543 -0.7892
 6007SOL    HW229655   1.513   4.318   7.385 -2.2990 -0.2594  1.1329
 6008SOL     OW29656   0.899   3.743  11.352 -0.9013 -1.2635 -0.1370
 6008SOL    HW129657   0.963   3.690  11.304  2.3592  2.6998 -0.1210
 6008SOL    HW229658   0.900   3.706  11.440  0.3264  1.4776  0.9903
 6009SOL     OW29659   2.900   2.055   2.989  0.6524  0.4705  0.3996
 6009SOL    HW129660   2.978   2.018   3.029  0.0094 -2.3298 -0.9183
 6009SOL    HW229661   2.900   2.148   3.013 -0.0762  0.2736  1.1670
 6010SOL     OW29662   3.118   3.432   5.598 -0.2630 -0.9939 -0.1618
 6010SOL    HW129663   3.150   3.365   5.659 -2.3126 -0.9453  1.0050
 6010SOL    HW229664   3.204   3.463   5.572 -1.2949 -0.3205 -2.6644
 6011SOL     OW29665   3.478   1.992   4.899 -0.0731 -0.0544  0.7221
 6011SOL    HW129666   3.386   2.017   4.895  0.3154  0.8120 -2.4286
 6011SOL    HW229667   3.504   1.999   4.991  0.1592 -0.1075  0.6613
 6012SOL     OW29668   1.650   3.020  12.595  0.0949  0.2686 -0.1007
 6012SOL    HW129669   1.646   2.987  12.684 -0.1738  1.7264  0.4264
 6012SOL    HW229670   1.740   3.052  12.593  0.4794 -0.9241 -2.2356
 6013SOL     OW29671   2.211   3.990   2.637 -0.1051  0.1174 -0.6336
 6013SOL    HW129672   2.300   4.021   2.656  0.5153 -2.0263 -0.0226
 6013SOL    HW229673   2.229   3.898   2.658 -2.9232 -0.2546  0.0955
 6014SOL     OW29674   4.051   0.458   7.984 -0.4030  0.4521 -0.1992
 6014SOL    HW129675   4.043   0.472   8.078  0.1363 -3.0263  0.3349
 6014SOL    HW229676   4.028   0.366   7.970  0.4730  0.4478 -1.6020
 6015SOL     OW29677   1.355   1.381  13.472 -0.1213 -1.0353  0.3143
 6015SOL    HW129678   1.410   1.441  13.522 -3.5050  2.8276 -0.6505
 6015SOL    HW229679   1.281   1.440  13.462  0.9655  0.2600  0.0202
 6016SOL     OW29680   2.739   3.660   3.151 -0.2672  0.4382 -0.0340
 6016SOL    HW129681   2.666   3.632   3.096  1.3397  0.1304 -2.0059
 6016SOL    HW229682   2.789   3.711   3.087  1.0231 -2.6403 -1.5297
 6017SOL     OW29683   3.015   3.081   2.265 -0.2533  0.2382  0.0165
 6017SOL    HW129684   3.089   3.022   2.276 -1.4169 -0.9620  1.4440
 6017SOL    HW229685   2.963   3.076   2.345  2.1215  1.8228  1.6353
 6018SOL     OW29686   2.133   3.502   9.207  0.1668  0.2527 -0.4131
 6018SOL    HW129687   2.063   3.513   9.142 -0.1352  0.0978 -0.1132
 6018SOL    HW229688   2.079   3.493   9.286  1.4316  1.9059  0.6452
 6019SOL     OW29689   2.464   0.125   9.448 -0.3352  0.0690  0.3444
 6019SOL    HW129690   2.503   0.053   9.498  0.7008  0.5230  0.2000
 6019SOL    HW229691   2.532   0.193   9.449  1.5874 -1.8150 -1.4416
 6020SOL     OW29692   4.269   1.071  15.893  0.0981  0.1992 -0.5823
 6020SOL    HW129693   4.197   1.056  15.953  0.7683  0.9677  0.4247
 6020SOL    HW229694   4.235   1.130  15.825 -1.4712 -0.4731 -0.3699
 6021SOL     OW29695   0.485   1.181   2.898  0.3840 -0.0295 -0.1721
 6021SOL    HW129696   0.475   1.229   2.815 -2.2696  0.3575  0.3607
 6021SOL    HW229697   0.395   1.158   2.924  0.7317 -1.4032 -0.1680
 6022SOL     OW29698   2.167   1.912   6.040  0.3228 -0.6790  0.4699
 6022SOL    HW129699   2.080   1.887   6.070 -0.4096 -0.4505 -1.4540
 6022SOL    HW229700   2.201   1.960   6.115 -1.3048 -1.0143  1.4307
 6023SOL     OW29701   0.262   2.074   2.273 -0.4586  0.3755 -0.2519
 6023SOL    HW129702   0.205   2.116   2.208  0.1331  1.9938  0.2778
 6023SOL    HW229703   0.216   2.106   2.350  1.1921  0.8275  0.5316
 6024SOL     OW29704   1.231   0.089   6.233 -0.0635  0.2632 -0.0394
 6024SOL    HW129705   1.188   0.077   6.148 -0.4218 -3.2527  0.6325
 6024SOL    HW229706   1.320   0.065   6.208 -0.1793  0.6825 -0.8513
 6025SOL     OW29707   3.629   4.525   9.394  0.1396  0.2674 -0.8546
 6025SOL    HW129708   3.704   4.497   9.447 -1.4457  1.4318  1.9899
 6025SOL    HW229709   3.649   4.615   9.369 -0.2624  0.7506  0.5987
 6026SOL     OW29710   2.907   0.239  16.662 -0.5791 -0.4582 -0.0536
 6026SOL    HW129711   2.919   0.145  16.674 -0.1085 -0.3200  0.5535
 6026SOL    HW229712   2.976   0.267  16.601 -0.5758 -3.3147 -1.3610
 6027SOL     OW29713   1.886   4.266   7.331 -0.0591  0.4149  0.0990
 6027SOL    HW129714   1.847   4.180   7.341  0.3449  0.4043  1.4926
 6027SOL    HW229715   1.904   4.265   7.237 -1.2916  2.4984 -0.1764
 6028SOL     OW29716   1.334   0.445   2.185  0.1982  0.3588  0.0795
 6028SOL    HW129717   1.279   0.507   2.137  1.2229  2.4961  1.7248
 6028SOL    HW229718   1.398   0.416   2.120 -2.0759 -2.3278 -0.9816
 6029SOL     OW29719   0.654   3.969   0.276  0.5094 -0.2840  0.3586
 6029SOL    HW129720   0.649   4.031   0.204 -3.2965 -1.6090 -0.5207
 6029SOL    HW229721   0.575   3.922   0.250 -1.2595  1.1379  3.1136
 6030SOL     OW29722   4.677   2.414   5.567  0.4390 -0.2539  0.3630
 6030SOL    HW129723   0.012   2.475   5.552  0.3539 -0.5380 -1.1927
 6030SOL    HW229724   4.639   2.452   5.646 -1.1810  0.7712 -0.9067
 6031SOL     OW29725   3.516   3.137   2.834  0.2295  0.3047 -0.0160
 6031SOL    HW129726   3.459   3.131   2.911  0.7452  1.4784  0.4553
 6031SOL    HW229727   3.485   3.217   2.791 -1.2115 -1.2904 -1.9684
 6032SOL     OW29728   0.004   2.509   7.631 -0.1599 -0.3366  0.3010
 6032SOL    HW129729   0.066   2.436   7.637  0.6176  0.0643 -2.5195
 6032SOL    HW229730   0.025   2.564   7.706  1.4075 -2.8077  1.6885
 6033SOL     OW29731   0.937   4.128   6.166 -0.3028  0.3659  0.6290
 6033SOL    HW129732   0.854   4.143   6.119  1.5800  0.4758 -2.6202
 6033SOL    HW229733   0.903   4.122   6.255 -0.4600  1.8516  0.6717
 6034SOL     OW29734   4.093   1.961   7.812  0.7894  0.0485 -0.5635
 6034SOL    HW129735   4.159   1.985   7.748  1.5310 -0.4243  0.0223
 6034SOL    HW229736   4.073   1.871   7.787 -1.3733  0.7178 -1.2715
 6035SOL     OW29737   3.802   3.497   3.125 -0.7492  0.0337 -0.1131
 6035SOL    HW129738   3.766   3.426   3.179 -0.3886  0.0176  0.1067
 6035SOL    HW229739   3.727   3.542   3.086  0.7244  2.0737 -0.5649
 6036SOL     OW29740   2.192   1.842   2.128  0.4851  0.2424 -0.1742
 6036SOL    HW129741   2.248   1.920   2.136  0.8439  0.1335 -1.6128
 6036SOL    HW229742   2.226   1.796   2.052 -1.7599 -1.5410 -0.0853
 6037SOL     OW29743   0.407   1.361  13.617 -0.1389 -0.0306  0.2467
 6037SOL    HW129744   0.350   1.290  13.588  1.6344 -1.2748 -0.2412
 6037SOL    HW229745   0.338   1.423  13.640  0.9263  0.8271  1.1662
 6038SOL     OW29746   2.976   0.456  14.674  0.3135  0.1249 -0.1172
 6038SOL    HW129747   2.890   0.414  14.677 -0.2695  1.2275 -1.4604
 6038SOL    HW229748   2.955   0.549  14.670 -0.8178 -0.2013 -1.9621
 6039SOL     OW29749   3.542   2.297   2.368  0.6038  0.2808 -0.0124
 6039SOL    HW129750   3.623   2.260   2.333  0.2745  0.2118 -0.6923
 6039SOL    HW229751   3.562   2.380   2.411  1.1674 -0.5798  1.3913
 6040SOL     OW29752   0.378   3.046   6.178 -0.9408  0.4417  0.1187
 6040SOL    HW129753   0.393   3.141   6.180  1.5123  0.0779 -0.6063
 6040SOL    HW229754   0.290   3.029   6.146 -0.7200 -0.9344  0.2332
 6041SOL     OW29755   3.490   2.050   5.434 -0.7724  0.2832 -0.1539
 6041SOL    HW129756   3.408   2.096   5.453 -1.2945 -0.6002 -0.2575
 6041SOL    HW229757   3.454   1.961   5.434  0.6080 -0.2764  0.9396
 6042SOL     OW29758   0.437   0.641   4.332  0.1645  0.2456  0.1317
 6042SOL    HW129759   0.522   0.684   4.328  0.0892  0.3094 -0.8923
 6042SOL    HW229760   0.461   0.551   4.354 -0.3535  0.6055  2.1494
 6043SOL     OW29761   0.212   0.471   8.482  0.0280  0.2834  0.0445
 6043SOL    HW129762   0.286   0.501   8.536  1.1651 -2.4545 -0.0124
 6043SOL    HW229763   0.190   0.557   8.447  0.5925  0.1159 -0.7282
 6044SOL     OW29764   1.986   2.257   6.368 -0.4338  0.0904  0.5395
 6044SOL    HW129765   2.027   2.214   6.443 -2.0593 -1.4103  0.5760
 6044SOL    HW229766   1.967   2.348   6.392  0.5089  1.0322 -2.2774
 6045SOL     OW29767   2.284   3.504   8.499 -0.1572  0.0721  0.2426
 6045SOL    HW129768   2.321   3.539   8.419 -0.7698 -1.2242 -0.6048
 6045SOL    HW229769   2.217   3.573   8.508 -0.4471 -0.3176  1.1387
 6046SOL     OW29770   3.999   2.963   7.787  0.8335 -0.6667 -0.0652
 6046SOL    HW129771   3.960   2.958   7.700 -0.4846  0.0770  0.4766
 6046SOL    HW229772   4.083   2.921   7.774  2.5510  2.4481  0.9817
 6047SOL     OW29773   2.748   1.313  16.105 -0.0129 -0.0608  0.2427
 6047SOL    HW129774   2.660   1.276  16.113 -0.3092  0.4502 -0.5918
 6047SOL    HW229775   2.740   1.364  16.024  1.2177  0.6529  0.5818
 6048SOL     OW29776   0.844   1.101   9.653 -0.4857 -0.5032  0.2628
 6048SOL    HW129777   0.931   1.118   9.688 -1.3457  2.3841  0.9586
 6048SOL    HW229778   0.876   1.108   9.563 -0.9663  0.7125  0.1910
 6049SOL     OW29779   3.529   2.505   3.699 -0.4681  0.5532  0.4298
 6049SOL    HW129780   3.574   2.584   3.728  1.2633  0.2848 -1.4901
 6049SOL    HW229781   3.448   2.502   3.749 -0.7507  1.9501  0.0586
 6050SOL     OW29782   3.478   2.567   5.512  0.2576 -0.0700  0.2686
 6050SOL    HW129783   3.501   2.529   5.428 -0.4136 -1.0438  0.5220
 6050SOL    HW229784   3.421   2.501   5.552 -2.6806  0.3231 -3.2855
 6051SOL     OW29785   2.937   0.995   5.202  0.3678 -0.2631 -0.2160
 6051SOL    HW129786   2.855   0.967   5.160  0.7968  0.7000 -1.6823
 6051SOL    HW229787   2.975   0.909   5.183  1.1153 -0.0853  0.4792
 6052SOL     OW29788   2.204   3.990   9.942 -0.4385  0.7776  0.7080
 6052SOL    HW129789   2.172   4.077   9.919  0.0950  0.5849 -0.7540
 6052SOL    HW229790   2.144   3.983  10.016  0.9320 -3.9941  1.3696
 6053SOL     OW29791   3.196   4.003   4.690 -0.4103  0.1400 -0.0487
 6053SOL    HW129792   3.275   3.957   4.720 -0.6841 -0.5351 -0.3522
 6053SOL    HW229793   3.193   4.061   4.765 -1.2461  1.1032 -0.8261
 6054SOL     OW29794   0.803   4.091   2.479 -0.2129 -0.1687  0.3512
 6054SOL    HW129795   0.765   4.053   2.558  2.0566 -0.5156  1.2858
 6054SOL    HW229796   0.741   4.050   2.420  1.9535  1.2362 -2.9137
 6055SOL     OW29797   0.191   3.876   1.661  0.4024 -0.0766  0.3587
 6055SOL    HW129798   0.261   3.818   1.690 -1.2934 -1.8506  0.8795
 6055SOL    HW229799   0.230   3.962   1.679  0.0949 -0.3664  2.4079
 6056SOL     OW29800   0.108   3.361  15.429 -0.5139 -0.3072  0.1329
 6056SOL    HW129801   0.071   3.317  15.352  2.2984 -2.1288 -0.1869
 6056SOL    HW229802   0.173   3.290  15.432 -1.3646 -1.0533  0.7166
 6057SOL     OW29803   2.318   2.456  13.821 -0.0835 -0.0604 -0.5468
 6057SOL    HW129804   2.309   2.469  13.915  1.8011 -0.1724 -0.3545
 6057SOL    HW229805   2.280   2.369  13.810 -2.0447  0.5462  1.6029
 6058SOL     OW29806   2.558   2.526   0.676 -0.2190 -0.4937  0.0406
 6058SOL    HW129807   2.491   2.458   0.673 -0.8141 -0.0795  3.3546
 6058SOL    HW229808   2.615   2.517   0.600 -2.4014  1.2811 -1.8410
 6059SOL     OW29809   3.490   0.920   8.590 -0.2588 -0.6008 -0.2043
 6059SOL    HW129810   3.431   0.967   8.649 -1.0291  0.3211 -1.7110
 6059SOL    HW229811   3.432   0.863   8.540 -2.1823  1.4728 -0.3350
 6060SOL     OW29812   1.641   1.099   7.647 -0.0776  0.2708 -0.3111
 6060SOL    HW129813   1.562   1.152   7.657 -0.3220 -0.3649  1.0106
 6060SOL    HW229814   1.634   1.047   7.726  1.3133  1.8635  0.8524
 6061SOL     OW29815   2.306   1.922  10.412  0.2868  0.1275  0.2652
 6061SOL    HW129816   2.290   1.962  10.497 -1.2330 -0.5106  0.2767
 6061SOL    HW229817   2.389   1.875  10.418  0.3004  0.2172  0.7968
 6062SOL     OW29818   3.363   4.349   8.187 -1.0787  0.0588  0.1081
 6062SOL    HW129819   3.333   4.439   8.198 -1.1395 -0.0425  0.7492
 6062SOL    HW229820   3.294   4.308   8.135 -1.5640  0.1155  0.7063
 6063SOL     OW29821   1.576   3.819   3.024 -0.2301 -0.1730  0.0637
 6063SOL    HW129822   1.671   3.814   3.012 -0.2127  0.3236 -0.0364
 6063SOL    HW229823   1.537   3.782   2.944  2.6969  0.0959 -1.4813
 6064SOL     OW29824   3.375   3.641   3.729 -0.2290  0.7622  0.1524
 6064SOL    HW129825   3.311   3.701   3.767 -1.9326 -0.6031 -0.5516
 6064SOL    HW229826   3.457   3.678   3.761  0.4413  0.7593 -1.5582
 6065SOL     OW29827   1.837   3.176   4.826  0.3078  0.6785  0.2407
 6065SOL    HW129828   1.794   3.100   4.786 -0.2198  1.9545 -1.6007
 6065SOL    HW229829   1.769   3.214   4.881 -0.3402  1.2236 -0.9433
 6066SOL     OW29830   1.649   4.184  12.403 -0.2712  0.5061 -0.7911
 6066SOL    HW129831   1.735   4.144  12.417  0.0865  2.1475  1.6105
 6066SOL    HW229832   1.647   4.255  12.466  2.2726  0.5631 -0.7818
 6067SOL     OW29833   3.354   2.159   3.029  0.7739 -0.5027 -0.1921
 6067SOL    HW129834   3.429   2.138   3.084  0.7790  2.2381  0.7907
 6067SOL    HW229835   3.333   2.244   3.067 -1.3775 -0.7923 -0.7315
 6068SOL     OW29836   0.977   2.736   8.130  0.3408  0.3121  0.2795
 6068SOL    HW129837   0.907   2.710   8.190 -1.3125  1.3270 -1.2070
 6068SOL    HW229838   0.925   2.735   8.049  1.1671  1.0211 -0.2712
 6069SOL     OW29839   3.752   0.822   2.583  0.3578 -0.2517  0.3843
 6069SOL    HW129840   3.692   0.812   2.657 -1.4314 -1.1834 -1.2135
 6069SOL    HW229841   3.714   0.897   2.537  0.9609 -0.7172 -0.8878
 6070SOL     OW29842   0.238   2.767   7.370 -0.1357 -0.0373 -0.1893
 6070SOL    HW129843   0.291   2.807   7.302  0.6839 -0.0011  0.4696
 6070SOL    HW229844   0.155   2.811   7.352 -0.7571 -0.5530  1.3616
 6071SOL     OW29845   0.118   2.110  15.502  0.0168 -0.6965 -0.5668
 6071SOL    HW129846   0.145   2.201  15.513  1.4684 -0.9534 -2.0625
 6071SOL    HW229847   0.203   2.079  15.470 -0.4719 -2.9475  0.2963
 6072SOL     OW29848   3.786   1.332   1.250  0.5314 -0.6633 -0.0389
 6072SOL    HW129849   3.731   1.398   1.207  0.7444 -0.7385 -0.4283
 6072SOL    HW229850   3.803   1.375   1.334  0.8884  0.5108 -0.7083
 6073SOL     OW29851   3.198   1.436   4.968 -0.2645 -0.3842  0.2513
 6073SOL    HW129852   3.137   1.396   4.906  1.2711  0.1244 -1.6033
 6073SOL    HW229853   3.190   1.374   5.041 -0.9791 -0.1016  0.4133
 6074SOL     OW29854   1.166   3.619  12.734  0.4895  0.6096  0.0544
 6074SOL    HW129855   1.092   3.673  12.707  1.1819  0.4520 -2.1881
 6074SOL    HW229856   1.224   3.650  12.664  2.4086 -0.8253  1.0150
 6075SOL     OW29857   1.161   1.942   3.567  0.8561  0.3694 -0.1991
 6075SOL    HW129858   1.188   1.855   3.539 -3.0422 -0.1110 -2.3975
 6075SOL    HW229859   1.220   1.960   3.640  0.5343 -2.9675  0.8802
 6076SOL     OW29860   0.445   1.790   1.222 -0.0143 -0.1968  0.1440
 6076SOL    HW129861   0.433   1.771   1.315 -2.5431 -1.3628 -0.4100
 6076SOL    HW229862   0.540   1.792   1.217 -0.0841 -2.8649 -1.8080
 6077SOL     OW29863   3.440   4.015   6.049  0.3821 -0.2871 -0.2618
 6077SOL    HW129864   3.428   4.005   5.954 -0.4225  2.1993 -0.4338
 6077SOL    HW229865   3.520   3.964   6.060  0.9144  0.3996 -0.8811
 6078SOL     OW29866   0.049   1.781  13.949 -0.2821 -0.1568  0.0635
 6078SOL    HW129867   0.023   1.690  13.966  1.8732 -1.2601 -2.6194
 6078SOL    HW229868   0.030   1.820  14.035  2.6072 -2.5808  1.8080
 6079SOL     OW29869   0.282   2.311   7.103 -0.6929 -0.3679  0.6560
 6079SOL    HW129870   0.297   2.356   7.186  0.7787 -0.8260  0.6314
 6079SOL    HW229871   0.237   2.380   7.053 -1.3597 -1.3896 -0.1483
 6080SOL     OW29872   2.651   3.680   7.364  0.3578  0.0396 -0.0185
 6080SOL    HW129873   2.571   3.644   7.326 -0.0509  0.0405  0.8364
 6080SOL    HW229874   2.626   3.747   7.428 -1.9432 -0.4252 -0.4326
 6081SOL     OW29875   0.035   3.874   2.807  0.6901  0.2319  0.2071
 6081SOL    HW129876   4.679   3.852   2.813  1.1862 -1.4265  2.0433
 6081SOL    HW229877   0.062   3.818   2.734  0.1969  1.7498 -1.1177
 6082SOL     OW29878   1.971   0.636   3.002 -0.0930 -0.2237  0.0884
 6082SOL    HW129879   1.966   0.701   3.073  3.4985 -0.4861  0.5515
 6082SOL    HW229880   1.996   0.689   2.926  0.4538 -0.7276 -0.0839
 6083SOL     OW29881   0.334   4.039  15.032  0.6058 -0.5020 -0.1047
 6083SOL    HW129882   0.318   4.065  14.942 -0.8836  0.3407  0.3997
 6083SOL    HW229883   0.245   4.024  15.062  0.2482 -0.0995 -0.9586
 6084SOL     OW29884   2.234   3.344   8.844 -0.1981 -0.6101 -0.2656
 6084SOL    HW129885   2.294   3.399   8.896 -0.3973  0.5643 -1.2658
 6084SOL    HW229886   2.147   3.343   8.883  0.8945  0.4634  2.2370
 6085SOL     OW29887   1.175   0.348  15.271 -0.8080 -0.1186  0.6625
 6085SOL    HW129888   1.237   0.294  15.222  1.9638  3.9495 -0.3789
 6085SOL    HW229889   1.156   0.416  15.206 -1.8646  0.0019  1.1028
 6086SOL     OW29890   4.452   2.745  16.208  0.7477 -0.1317  0.5388
 6086SOL    HW129891   4.380   2.740  16.272 -0.2059 -0.6303 -0.5802
 6086SOL    HW229892   4.519   2.700  16.260  1.3709  3.5507  2.9554
 6087SOL     OW29893   1.758   2.367  14.701 -0.4983  0.5298  0.2024
 6087SOL    HW129894   1.829   2.428  14.684 -1.9561  1.8005 -1.3367
 6087SOL    HW229895   1.780   2.326  14.785  1.0745 -2.8676 -1.8746
 6088SOL     OW29896   4.335   2.216  14.605  0.1495 -0.1507 -0.2969
 6088SOL    HW129897   4.306   2.245  14.691  1.8146  2.8328 -0.7439
 6088SOL    HW229898   4.419   2.171  14.618  0.0889 -0.2178 -0.1430
 6089SOL     OW29899   4.289   2.120   4.144 -0.0426  0.3357 -0.7196
 6089SOL    HW129900   4.273   2.054   4.076  1.5042  1.1676 -1.8789
 6089SOL    HW229901   4.384   2.122   4.135  0.3610  0.1781  3.6627
 6090SOL     OW29902   1.218   3.193   0.057 -0.3910  0.3079  0.1100
 6090SOL    HW129903   1.296   3.152   0.096  1.5958  2.5849 -1.5089
 6090SOL    HW229904   1.223   3.151  17.716  0.5926  1.6679 -0.4952
 6091SOL     OW29905   0.140   0.492   9.572 -0.1097 -0.2142  0.2835
 6091SOL    HW129906   0.117   0.520   9.661 -0.1229 -0.9985  0.5334
 6091SOL    HW229907   0.051   0.481   9.537 -0.1704  0.0431  0.3556
 6092SOL     OW29908   3.040   1.868   1.784  0.3915  0.0271  0.1752
 6092SOL    HW129909   3.019   1.934   1.850 -2.6747 -0.9436  0.1608
 6092SOL    HW229910   3.135   1.876   1.774  0.0235  0.9900 -2.5001
 6093SOL     OW29911   1.517   3.960   8.704 -0.4894  0.3964  0.2048
 6093SOL    HW129912   1.590   3.979   8.645 -0.7315 -0.1100 -0.2539
 6093SOL    HW229913   1.570   3.898   8.755 -2.1981  0.5610  2.1925
 6094SOL     OW29914   2.019   2.518   6.598  0.9674 -0.0514 -0.5974
 6094SOL    HW129915   1.924   2.523   6.612  0.9214 -2.3117 -0.0842
 6094SOL    HW229916   2.042   2.599   6.554 -1.8733 -0.6753 -3.2176
 6095SOL     OW29917   0.605   4.598  11.552 -0.1489 -0.0139  0.2743
 6095SOL    HW129918   0.588   4.630  11.464  2.8644 -0.7242 -0.5597
 6095SOL    HW229919   0.577   4.678  11.597 -0.0817  0.2117 -0.0864
 6096SOL     OW29920   4.655   3.554   8.029  0.4485  0.2622 -0.0205
 6096SOL    HW129921   0.005   3.566   7.988  1.6952 -0.3793  2.4601
 6096SOL    HW229922   4.615   3.491   7.969  0.3330  0.1380  0.1881
 6097SOL     OW29923   1.531   1.020   2.846 -0.0885 -0.2612  0.1577
 6097SOL    HW129924   1.597   1.014   2.915 -0.8526 -1.0748  0.8098
 6097SOL    HW229925   1.464   0.959   2.876 -0.4347  0.5132  0.9610
 6098SOL     OW29926   1.088   1.607   6.360 -0.5611  0.1147  0.1926
 6098SOL    HW129927   1.089   1.625   6.454  0.8555 -0.2164  0.2431
 6098SOL    HW229928   1.174   1.568   6.347 -0.3176  0.3029  1.2623
 6099SOL     OW29929   2.376   1.708   5.983 -0.3576  0.4907 -0.2812
 6099SOL    HW129930   2.418   1.749   6.058 -1.3553  0.9656  0.0082
 6099SOL    HW229931   2.286   1.708   6.013 -0.8918 -0.5394 -1.8618
 6100SOL     OW29932   2.467   1.732   0.388 -0.2873 -0.2292  0.3474
 6100SOL    HW129933   2.386   1.707   0.432 -0.0966  1.2373  1.5299
 6100SOL    HW229934   2.504   1.646   0.370  0.3072  0.1470 -0.2807
 6101SOL     OW29935   3.018   3.180   7.167  0.0782 -0.0041  0.0714
 6101SOL    HW129936   2.959   3.197   7.240  0.0512 -1.5299  0.4020
 6101SOL    HW229937   2.988   3.242   7.100  0.1233  0.5193  0.5345
 6102SOL     OW29938   0.219   3.009   9.084 -0.3627  0.8058  0.3044
 6102SOL    HW129939   0.224   2.989   9.177 -0.5364 -1.4424 -0.1841
 6102SOL    HW229940   0.178   3.096   9.087 -0.4985  0.8102 -1.8463
 6103SOL     OW29941   4.544   0.460  12.288 -0.3639 -0.0168 -0.1940
 6103SOL    HW129942   4.517   0.462  12.380  2.2895  1.6152  0.5722
 6103SOL    HW229943   4.636   0.476  12.309 -0.6119  0.2104  0.7466
 6104SOL     OW29944   1.143   2.395   0.790 -0.4854 -0.4523 -0.2977
 6104SOL    HW129945   1.217   2.365   0.737 -0.4105  1.2210 -1.1509
 6104SOL    HW229946   1.169   2.482   0.822 -0.0455 -0.1446 -1.4891
 6105SOL     OW29947   1.366   0.796  12.364  0.7081  0.0189  0.3521
 6105SOL    HW129948   1.275   0.770  12.378  0.9740 -0.4422  1.1897
 6105SOL    HW229949   1.353   0.855  12.290  1.7356  1.1347  1.0550
 6106SOL     OW29950   2.025   2.410   3.033  0.5956 -0.3550  0.1958
 6106SOL    HW129951   1.933   2.389   3.015  0.1848  0.2777  1.5928
 6106SOL    HW229952   2.066   2.366   2.959 -0.2556  1.5546 -1.4143
 6107SOL     OW29953   3.006   3.574   2.615  0.2243  0.7996 -0.2855
 6107SOL    HW129954   3.076   3.550   2.554  0.5293  0.5840  0.1452
 6107SOL    HW229955   2.951   3.495   2.612  0.4409  0.6190  0.3423
 6108SOL     OW29956   4.051   2.129   3.595 -0.5100 -0.3840  0.3007
 6108SOL    HW129957   3.962   2.093   3.601 -0.2168 -1.5445 -2.5140
 6108SOL    HW229958   4.087   2.064   3.656  2.5909  0.5089 -0.5694
 6109SOL     OW29959   3.321   3.807   2.073  0.2577  0.2953 -0.1737
 6109SOL    HW129960   3.371   3.752   2.134  0.5972  0.8905  0.0761
 6109SOL    HW229961   3.373   3.788   1.994  0.6635 -1.0889  0.4080
 6110SOL     OW29962   4.024   3.935   8.752 -0.1432 -0.0211  0.4957
 6110SOL    HW129963   4.091   4.003   8.754  0.7118 -0.8390 -0.0405
 6110SOL    HW229964   3.954   3.978   8.800 -0.9809  0.5908 -1.2757
 6111SOL     OW29965   3.430   3.940   3.446  0.0132  0.0048 -0.0601
 6111SOL    HW129966   3.517   3.980   3.444  0.2140 -0.4242  0.3409
 6111SOL    HW229967   3.391   3.991   3.517  0.9311 -1.0628  1.2110
 6112SOL     OW29968   1.976   2.728   4.762 -0.1717  0.7502 -0.1315
 6112SOL    HW129969   1.941   2.681   4.686 -0.9508  0.4871  0.3882
 6112SOL    HW229970   2.059   2.759   4.724 -0.3149  0.4146 -0.7202
 6113SOL     OW29971   0.080   3.525  17.548 -0.0562  0.0958 -0.2873
 6113SOL    HW129972   0.170   3.497  17.563 -0.1434  0.4675  0.9249
 6113SOL    HW229973   0.045   3.453  17.495  2.4270 -0.5430 -1.0594
 6114SOL     OW29974   1.038   2.650   9.061  0.3845  0.5491  0.2811
 6114SOL    HW129975   0.959   2.683   9.017  0.4171  0.8308  0.4332
 6114SOL    HW229976   1.006   2.660   9.151  0.3718 -1.1417  0.4655
 6115SOL     OW29977   1.585   2.262   9.177 -0.2339 -0.2501 -0.1988
 6115SOL    HW129978   1.631   2.261   9.261 -0.6505  0.5660  0.0452
 6115SOL    HW229979   1.631   2.336   9.137 -0.7943  1.0882  1.5998
 6116SOL     OW29980   2.288   3.725   2.704 -0.6411 -0.4144 -0.1883
 6116SOL    HW129981   2.216   3.681   2.751 -0.3752  1.2962  1.8245
 6116SOL    HW229982   2.349   3.652   2.719 -0.1588  0.0220 -0.0389
 6117SOL     OW29983   4.064   2.043   6.294  0.1298  0.0813 -0.1335
 6117SOL    HW129984   4.144   1.992   6.287 -1.0000 -1.8962  1.3769
 6117SOL    HW229985   4.075   2.082   6.381  1.2466 -0.3495 -0.0831
 6118SOL     OW29986   3.562   0.891   6.339 -0.5148 -0.0176  0.0979
 6118SOL    HW129987   3.594   0.856   6.422  0.9437 -1.6237 -1.1375
 6118SOL    HW229988   3.630   0.854   6.281  1.3555  0.2378  2.1391
 6119SOL     OW29989   2.661   0.950   0.241  0.4101 -0.1418 -0.4752
 6119SOL    HW129990   2.628   0.879   0.187  0.4994  0.0781 -0.8211
 6119SOL    HW229991   2.624   0.936   0.328 -1.5431 -2.2953 -1.6791
 6120SOL     OW29992   4.157   2.803  13.457  0.1071 -1.0033 -0.2060
 6120SOL    HW129993   4.190   2.878  13.407  2.3517 -2.6227 -1.1226
 6120SOL    HW229994   4.200   2.798  13.542 -1.5893 -0.7846  0.6609
 6121SOL     OW29995   3.643   4.546   6.439  0.9473  0.0863  0.1005
 6121SOL    HW129996   3.585   4.470   6.440  1.1072 -0.0365  0.2996
 6121SOL    HW229997   3.721   4.501   6.405 -0.5942 -2.1131 -0.5124
 6122SOL     OW29998   1.542   0.961   5.502  0.1785  0.1140  0.8193
 6122SOL    HW129999   1.509   0.879   5.538 -0.0502 -0.2369 -0.1945
 6122SOL    HW230000   1.567   1.002   5.584  0.9520  0.1396  0.5774
 6123SOL     OW30001   2.728   2.168   9.335  0.0327  0.6653 -0.0972
 6123SOL    HW130002   2.768   2.178   9.248 -0.2816  0.6125 -0.2471
 6123SOL    HW230003   2.803   2.205   9.382  0.8833 -0.7545 -0.3163
 6124SOL     OW30004   1.266   4.254   3.649 -0.0215 -0.0645  0.1396
 6124SOL    HW130005   1.285   4.323   3.712  2.6064 -1.7526  1.1819
 6124SOL    HW230006   1.350   4.212   3.629 -0.2539 -0.3481 -0.2660
 6125SOL     OW30007   2.895   3.109   4.456  0.6545  0.4716  0.1372
 6125SOL    HW130008   2.828   3.177   4.464 -0.3340 -0.7568  2.2203
 6125SOL    HW230009   2.844   3.051   4.400  0.2297 -1.1455  2.2077
 6126SOL     OW30010   0.656   4.084   2.716 -0.0622 -0.0025 -0.2690
 6126SOL    HW130011   0.591   4.020   2.744 -0.5491  0.5251 -0.1784
 6126SOL    HW230012   0.718   4.080   2.789 -1.7464 -1.0379  1.1030
 6127SOL     OW30013   1.886   1.429   7.037  0.4748  0.6487  0.4093
 6127SOL    HW130014   1.838   1.377   6.972 -0.5349  1.9678  0.0837
 6127SOL    HW230015   1.936   1.357   7.075 -1.3000 -0.0266  1.4085
 6128SOL     OW30016   1.781   3.078   0.762 -0.6038 -0.2136  0.0165
 6128SOL    HW130017   1.786   3.130   0.843 -0.2986 -0.9850  0.4866
 6128SOL    HW230018   1.807   3.138   0.692  0.7974 -1.1086 -0.2349
 6129SOL     OW30019   3.251   1.095   8.443 -0.3252 -0.3273  0.6115
 6129SOL    HW130020   3.228   1.074   8.353  1.3981  1.8788 -0.3226
 6129SOL    HW230021   3.331   1.145   8.427 -0.9339  0.4401 -0.0272
 6130SOL     OW30022   1.321   1.477   8.293 -0.4280 -0.2604 -0.5610
 6130SOL    HW130023   1.370   1.430   8.361  0.7114  0.6415 -0.7577
 6130SOL    HW230024   1.395   1.496   8.236  0.2504 -0.8458  0.1287
 6131SOL     OW30025   2.910   3.424  13.944  0.3965 -0.3792  0.0959
 6131SOL    HW130026   2.993   3.424  13.991  1.0166  0.6266 -0.9984
 6131SOL    HW230027   2.932   3.403  13.854 -1.2189  2.8031 -1.0416
 6132SOL     OW30028   1.203   2.509   4.815 -0.1210 -0.1343 -0.4374
 6132SOL    HW130029   1.286   2.552   4.799 -0.3938 -0.3778 -2.5747
 6132SOL    HW230030   1.155   2.578   4.861  0.6776 -0.6966  1.2215
 6133SOL     OW30031   3.408   0.763   2.159  0.5868  0.2975  0.0569
 6133SOL    HW130032   3.335   0.799   2.210  0.3145 -1.5339  0.9611
 6133SOL    HW230033   3.462   0.727   2.229 -0.4608 -0.9877  0.2055
 6134SOL     OW30034   4.662   1.558  12.012  0.4661  0.0414 -0.0394
 6134SOL    HW130035   4.583   1.508  12.031  1.0214 -0.9667 -0.3740
 6134SOL    HW230036   4.702   1.555  12.099  0.7715 -0.2644 -0.1913
 6135SOL     OW30037   2.360   4.294   5.242 -0.0946  0.1856  0.2288
 6135SOL    HW130038   2.372   4.247   5.325  3.5614  1.5837  0.4854
 6135SOL    HW230039   2.361   4.387   5.267 -1.0172  0.0283  0.8386
 6136SOL     OW30040   4.731   2.363   7.306 -0.0478  0.2588 -0.0418
 6136SOL    HW130041   4.686   2.445   7.323 -0.5588  0.0946 -0.6055
 6136SOL    HW230042   0.085   2.386   7.327 -0.1854  0.1134  0.7039
 6137SOL     OW30043   1.164   4.094  13.688  0.7211 -0.0401 -0.2032
 6137SOL    HW130044   1.201   4.151  13.756  1.6441  0.0190 -0.7590
 6137SOL    HW230045   1.172   4.010  13.733 -2.3161  0.2975  0.9638
 6138SOL     OW30046   0.315   1.401   9.100  0.1410  0.3302  0.2984
 6138SOL    HW130047   0.294   1.483   9.144  1.1717  0.9825 -0.4272
 6138SOL    HW230048   0.277   1.417   9.013  0.2494 -0.2132  0.1504
 6139SOL     OW30049   3.550   3.758   8.632  0.0476  0.0225 -0.0773
 6139SOL    HW130050   3.503   3.799   8.704  0.2828  1.5286 -0.7778
 6139SOL    HW230051   3.551   3.831   8.570  2.0420 -0.2065 -0.3247
 6140SOL     OW30052   1.708   2.128   3.963 -0.2934 -0.5966 -0.0992
 6140SOL    HW130053   1.755   2.205   3.996 -1.5116 -0.7270  2.0138
 6140SOL    HW230054   1.623   2.132   4.009  0.1466 -1.5267  0.8029
 6141SOL     OW30055   4.174   3.569   7.702 -0.0505 -0.2885 -0.2749
 6141SOL    HW130056   4.211   3.486   7.732  1.9183  0.4483 -0.6659
 6141SOL    HW230057   4.084   3.552   7.729 -0.7176  2.8515 -0.5182
 6142SOL     OW30058   2.279   4.379   4.080  0.1634  0.7706  0.2943
 6142SOL    HW130059   2.225   4.374   4.001  1.3290  0.7764 -0.4890
 6142SOL    HW230060   2.359   4.330   4.062  0.1213  0.7226  0.2383
 6143SOL     OW30061   2.451   1.776   2.405  0.2650 -0.5052 -0.0322
 6143SOL    HW130062   2.493   1.851   2.362 -0.4414 -0.1667 -0.1475
 6143SOL    HW230063   2.523   1.772   2.467  1.1939  1.0149 -1.0068
 6144SOL     OW30064   0.499   3.659   6.897 -0.3854  0.7271  0.7549
 6144SOL    HW130065   0.589   3.689   6.888 -0.6457  0.2289 -3.7954
 6144SOL    HW230066   0.481   3.682   6.988 -1.5385 -0.8822  0.9407
 6145SOL     OW30067   2.125   2.836   7.343  0.2424  0.2305 -0.4435
 6145SOL    HW130068   2.174   2.764   7.302  1.8820  0.3558  1.3202
 6145SOL    HW230069   2.127   2.812   7.436  0.2123  0.7115 -0.3223
 6146SOL     OW30070   1.719   4.548   4.151 -0.3073 -0.6195  0.0830
 6146SOL    HW130071   1.781   4.609   4.112 -2.2553 -0.5628 -2.9148
 6146SOL    HW230072   1.704   4.592   4.235  2.5654  0.2753  0.1215
 6147SOL     OW30073   2.190   4.143   4.634 -0.4380 -0.3189  0.1908
 6147SOL    HW130074   2.139   4.140   4.715  0.0874  1.1390  0.5737
 6147SOL    HW230075   2.194   4.237   4.616 -1.3633 -0.1025  1.1467
 6148SOL     OW30076   4.202   3.123   2.740  0.0007 -0.4797  0.4324
 6148SOL    HW130077   4.257   3.119   2.662  0.1735  0.2077  0.5178
 6148SOL    HW230078   4.237   3.046   2.786 -0.3813 -1.9979 -1.8469
 6149SOL     OW30079   1.905   3.065   4.334 -0.0523 -0.6778  0.1009
 6149SOL    HW130080   1.996   3.037   4.331 -0.3732 -1.7132 -0.1329
 6149SOL    HW230081   1.858   2.983   4.349 -1.1249 -0.0898  0.0155
 6150SOL     OW30082   0.334   3.407  16.320 -0.4060 -0.3715 -0.4174
 6150SOL    HW130083   0.392   3.366  16.256  0.0759 -0.0237 -0.2054
 6150SOL    HW230084   0.268   3.441  16.260 -0.3011  0.1088 -0.2641
 6151SOL     OW30085   4.056   1.650   2.315 -0.2180  0.2604 -0.2872
 6151SOL    HW130086   4.061   1.679   2.224  1.1904 -2.0320 -0.9451
 6151SOL    HW230087   4.087   1.562   2.293  0.4538  0.6282 -0.8137
 6152SOL     OW30088   2.500   2.791   7.093 -0.1608  0.5135 -0.4259
 6152SOL    HW130089   2.457   2.769   7.175  1.9502 -2.0150  0.0094
 6152SOL    HW230090   2.493   2.700   7.063  2.1325 -0.1733  1.1157
 6153SOL     OW30091   2.329   4.004  14.137  0.8419  0.2680 -0.0160
 6153SOL    HW130092   2.391   4.000  14.211 -0.0368 -1.1775  0.6509
 6153SOL    HW230093   2.254   3.963  14.181  0.0951 -0.1291 -1.6775
 6154SOL     OW30094   2.670   2.097   7.157  0.2085 -0.3380 -0.7087
 6154SOL    HW130095   2.661   2.178   7.108  0.3909 -0.2325 -0.5662
 6154SOL    HW230096   2.765   2.089   7.158  0.3170  0.9626 -0.6229
 6155SOL     OW30097   2.969   3.927   6.765 -0.2864  0.0742 -0.1913
 6155SOL    HW130098   2.882   3.890   6.750  0.2208 -0.9755 -0.5696
 6155SOL    HW230099   3.006   3.946   6.679  2.4699 -1.4623  0.6414
 6156SOL     OW30100   3.387   3.125  15.481 -0.2388 -0.0132 -0.4167
 6156SOL    HW130101   3.458   3.146  15.542 -0.2792  1.0589 -0.7309
 6156SOL    HW230102   3.396   3.031  15.468  1.5615 -0.1794  1.9853
 6157SOL     OW30103   0.569   0.851   5.312  0.0042  0.0838  0.4637
 6157SOL    HW130104   0.632   0.806   5.256  1.5897  1.4636  1.1480
 6157SOL    HW230105   0.526   0.911   5.252 -2.0799  0.7006  2.5539
 6158SOL     OW30106   3.414   1.192   2.286 -0.0907 -0.5874 -0.1480
 6158SOL    HW130107   3.452   1.167   2.202 -0.6714  0.9669 -0.8831
 6158SOL    HW230108   3.353   1.260   2.256  0.6859  0.0707 -0.2187
 6159SOL     OW30109   0.568   0.120   7.529 -0.2234  0.0653  0.4381
 6159SOL    HW130110   0.580   0.195   7.472 -2.1867  0.1831  0.1711
 6159SOL    HW230111   0.521   0.163   7.601 -0.8878  0.1319 -0.0345
 6160SOL     OW30112   3.713   1.536   7.692  0.2079 -0.0388  0.6571
 6160SOL    HW130113   3.689   1.589   7.768 -0.2326  0.5363  0.1141
 6160SOL    HW230114   3.779   1.479   7.732 -0.2067  0.6561  2.3021
 6161SOL     OW30115   2.303   3.113  14.793 -0.4961 -0.8548 -0.8892
 6161SOL    HW130116   2.389   3.151  14.814 -1.7426  1.1253  0.6176
 6161SOL    HW230117   2.240   3.153  14.853 -0.3180  1.6331 -2.3784
 6162SOL     OW30118   2.142   0.846   9.517  0.2449 -0.6302  0.3966
 6162SOL    HW130119   2.237   0.842   9.510  0.2621  0.2972  0.0953
 6162SOL    HW230120   2.133   0.941   9.510 -0.4467 -0.7405 -0.1972
 6163SOL     OW30121   3.974   4.366  10.624  0.4807 -0.2557 -0.2860
 6163SOL    HW130122   4.060   4.389  10.659 -0.2458  0.3995  1.0861
 6163SOL    HW230123   3.939   4.307  10.691  1.9235  1.6936  2.1710
 6164SOL     OW30124   2.282   1.989  13.106 -0.5954  0.2601  0.0647
 6164SOL    HW130125   2.293   1.909  13.055 -3.7018 -1.3542  1.9393
 6164SOL    HW230126   2.196   2.018  13.074 -1.1890 -1.6603 -0.0789
 6165SOL     OW30127   1.705   4.096   1.150 -0.0434 -0.2054  0.1204
 6165SOL    HW130128   1.762   4.021   1.167 -0.1757  0.1593  2.1962
 6165SOL    HW230129   1.754   4.174   1.179 -0.8370  1.1479 -2.2329
 6166SOL     OW30130   2.245   3.392  15.126  0.1671  0.2311 -0.1282
 6166SOL    HW130131   2.219   3.477  15.162 -1.8314  0.9495 -3.3088
 6166SOL    HW230132   2.185   3.383  15.052  0.7182  1.4983 -0.7333
 6167SOL     OW30133   2.050   2.394  12.301  0.3439 -0.1834 -0.5948
 6167SOL    HW130134   2.095   2.462  12.352 -0.5622  1.3472 -1.8579
 6167SOL    HW230135   2.101   2.393  12.220  1.9384  2.2174  0.3691
 6168SOL     OW30136   2.210   2.909   1.547 -0.3502  0.0277  0.1445
 6168SOL    HW130137   2.295   2.866   1.541 -0.8706 -0.9681 -0.2839
 6168SOL    HW230138   2.233   2.980   1.607  1.6394 -1.2858  0.9308
 6169SOL     OW30139   0.127   4.494  16.607  0.0920 -0.2786 -0.2676
 6169SOL    HW130140   0.048   4.439  16.610 -0.1298 -0.0741 -2.6581
 6169SOL    HW230141   0.094   4.556  16.542 -1.8723 -1.0124  0.0079
 6170SOL     OW30142   0.524   4.193  17.382  0.2683 -0.5865  0.2044
 6170SOL    HW130143   0.502   4.276  17.422  2.0127  2.0014 -4.2345
 6170SOL    HW230144   0.495   4.216  17.293 -1.5503 -2.3142  0.3326
 6171SOL     OW30145   3.779   4.719   2.345 -0.1563  0.4677  0.0067
 6171SOL    HW130146   3.718   4.707   2.419  0.4177  2.3330  0.7731
 6171SOL    HW230147   3.715   4.734   2.275  0.1312 -1.3026 -0.6346
 6172SOL     OW30148   3.790   0.120   3.337 -0.0995  0.2180  0.0498
 6172SOL    HW130149   3.762   0.054   3.273 -0.2811  2.1111 -1.8115
 6172SOL    HW230150   3.858   0.169   3.291  2.4077  0.1959  3.7253
 6173SOL     OW30151   1.294   3.171   2.088 -0.0980  0.1672 -0.4029
 6173SOL    HW130152   1.277   3.104   2.022  0.7251 -0.7474  0.3226
 6173SOL    HW230153   1.265   3.251   2.043  2.3196  2.1500  1.5760
 6174SOL     OW30154   2.243   2.698   4.235  0.2296  0.3419 -0.0303
 6174SOL    HW130155   2.228   2.793   4.228  1.6367  0.5398 -0.4363
 6174SOL    HW230156   2.199   2.673   4.155 -1.3364 -0.5532  1.1161
 6175SOL     OW30157   0.695   3.832  17.071  0.0784  0.8807  0.3820
 6175SOL    HW130158   0.668   3.869  17.155 -1.1500 -2.8203  1.6133
 6175SOL    HW230159   0.751   3.760  17.097  1.3426  0.9175 -2.2535
 6176SOL     OW30160   0.664   1.197   5.178  0.1196 -0.5214  0.0078
 6176SOL    HW130161   0.588   1.139   5.177 -0.2549 -0.0394  0.4797
 6176SOL    HW230162   0.649   1.250   5.099  0.0598 -2.6026 -1.3837
 6177SOL     OW30163   2.140   2.136  14.147 -0.3410  0.5614 -0.0150
 6177SOL    HW130164   2.074   2.075  14.115  1.7398 -0.4315 -2.4688
 6177SOL    HW230165   2.184   2.165  14.067  2.6112 -0.0955  1.3363
 6178SOL     OW30166   4.308   2.200   4.499 -0.2019 -0.1764  0.4874
 6178SOL    HW130167   4.251   2.140   4.450  3.4280 -2.2502 -1.2354
 6178SOL    HW230168   4.313   2.276   4.442  2.2080 -1.5989 -1.2361
 6179SOL     OW30169   1.042   0.315   4.311 -0.3152 -0.4268  0.4530
 6179SOL    HW130170   1.099   0.253   4.267 -1.0977 -1.8143  1.3637
 6179SOL    HW230171   1.080   0.399   4.289  1.0471 -0.2506  3.3915
 6180SOL     OW30172   3.506   2.117   7.003  0.1419  0.3114 -0.0023
 6180SOL    HW130173   3.596   2.090   6.986  0.7993  1.4797  1.5821
 6180SOL    HW230174   3.461   2.086   6.924  3.3735 -1.0170 -1.3156
 6181SOL     OW30175   3.836   4.079   8.883 -0.4374 -0.6124 -0.1064
 6181SOL    HW130176   3.884   4.146   8.932 -0.7011 -1.3475  1.1368
 6181SOL    HW230177   3.770   4.131   8.835 -0.6159 -0.1023  0.6874
 6182SOL     OW30178   0.390   2.629   4.269  0.2506  0.3927 -0.0727
 6182SOL    HW130179   0.415   2.647   4.178  1.0575  1.5858  0.3781
 6182SOL    HW230180   0.413   2.536   4.269  0.8412  0.5262 -1.8000
 6183SOL     OW30181   0.210   1.530   4.976  0.1071  0.3465  0.6021
 6183SOL    HW130182   0.300   1.557   4.992  0.4323 -0.7186  0.5764
 6183SOL    HW230183   0.205   1.519   4.881  0.3418  0.1433  0.6123
 6184SOL     OW30184   2.967   0.970   9.038 -0.4436 -0.4789  0.0622
 6184SOL    HW130185   2.958   0.875   9.047  0.1194 -0.3428  2.1884
 6184SOL    HW230186   3.056   0.978   9.005 -1.8731  2.8210 -2.9680
 6185SOL     OW30187   1.812   0.332   6.218  0.4018  0.0004 -0.3911
 6185SOL    HW130188   1.784   0.259   6.274  0.5569 -1.6088 -2.4302
 6185SOL    HW230189   1.899   0.346   6.257  0.8653 -1.1432 -0.9966
 6186SOL     OW30190   3.682   2.266  16.105 -0.0522  0.8014 -0.0705
 6186SOL    HW130191   3.730   2.194  16.065  0.5270 -0.0622  2.1917
 6186SOL    HW230192   3.693   2.326  16.030 -1.6250  0.9145 -0.2249
 6187SOL     OW30193   1.029   1.928   2.817 -0.0767 -0.0505  0.4793
 6187SOL    HW130194   0.957   1.898   2.761  0.2590 -1.6287  0.8948
 6187SOL    HW230195   0.981   1.959   2.894 -1.0673 -1.9528  0.6267
 6188SOL     OW30196   4.187   2.098  10.637 -0.2354 -0.4438 -0.0757
 6188SOL    HW130197   4.183   2.185  10.598  0.8206  0.2707  1.4111
 6188SOL    HW230198   4.167   2.128  10.726 -1.9824  0.0405 -0.6365
 6189SOL     OW30199   0.005   4.695   6.779 -0.1738 -0.0653  0.1974
 6189SOL    HW130200   0.018   4.723   6.870  1.9663  3.1883 -1.1192
 6189SOL    HW230201   0.009   0.045   6.739 -2.5511  0.6607  1.5374
 6190SOL     OW30202   1.921   3.749   3.673  0.6252  0.2987  1.0122
 6190SOL    HW130203   1.892   3.838   3.694 -1.0290  0.7245 -3.2409
 6190SOL    HW230204   1.951   3.758   3.583 -3.0678 -3.2205 -0.5672
 6191SOL     OW30205   4.445   3.177  14.499  0.0312 -0.3010 -0.5600
 6191SOL    HW130206   4.489   3.203  14.418 -1.5172  1.8656 -0.6819
 6191SOL    HW230207   4.366   3.129  14.474 -1.0192  0.9987  0.2597
 6192SOL     OW30208   2.021   3.013  10.832 -0.8169 -0.3152 -0.2623
 6192SOL    HW130209   2.034   2.939  10.892 -1.0314 -0.5214 -0.4698
 6192SOL    HW230210   2.105   3.006  10.787 -0.4502  1.5097  0.1527
 6193SOL     OW30211   4.001   1.848   3.317  0.0569  0.2875 -0.1282
 6193SOL    HW130212   4.088   1.811   3.334  0.0565 -0.4071 -1.6420
 6193SOL    HW230213   4.008   1.934   3.277  1.4845 -0.9829 -2.6032
 6194SOL     OW30214   0.929   2.051   9.686 -0.3253  0.5085 -0.2492
 6194SOL    HW130215   1.007   2.021   9.640  0.4282 -0.2979  1.5769
 6194SOL    HW230216   0.957   2.133   9.727 -1.1388  0.7959 -0.2525
 6195SOL     OW30217   1.435   3.626   7.220 -0.5604 -0.6079 -0.5923
 6195SOL    HW130218   1.389   3.544   7.236 -1.4811  0.1940  0.8766
 6195SOL    HW230219   1.485   3.608   7.140  0.8169 -1.2718  0.4234
 6196SOL     OW30220   2.505   2.024  16.980 -0.3953  0.2303  0.0917
 6196SOL    HW130221   2.554   2.070  17.048  1.8374 -2.6610  0.4530
 6196SOL    HW230222   2.488   2.104  16.930 -1.3717  0.2360  0.4389
 6197SOL     OW30223   2.500   0.403   1.803 -0.2489  0.0226  0.6992
 6197SOL    HW130224   2.554   0.445   1.870 -0.8254  1.0310  0.5339
 6197SOL    HW230225   2.421   0.395   1.856 -0.2081 -1.0917  0.5823
 6198SOL     OW30226   3.335   0.482   1.584 -0.2488 -0.2539 -0.0139
 6198SOL    HW130227   3.402   0.479   1.517  1.2486  0.8524  1.4330
 6198SOL    HW230228   3.381   0.465   1.666 -1.3897 -0.2155  0.6417
 6199SOL     OW30229   4.072   0.997   6.059  0.3481  0.4818 -0.6665
 6199SOL    HW130230   4.084   1.028   6.148  1.3635  1.3855 -1.1247
 6199SOL    HW230231   4.156   1.027   6.024  0.1898  1.1583 -0.4665
 6200SOL     OW30232   1.204   0.592   9.293 -0.1409  0.4475  0.4837
 6200SOL    HW130233   1.238   0.527   9.355 -0.3032  0.2209  0.3343
 6200SOL    HW230234   1.160   0.539   9.226  1.2207 -0.5971  0.4021
 6201SOL     OW30235   4.181   2.933   5.920  0.5465  0.4636 -0.2807
 6201SOL    HW130236   4.155   2.976   6.002  1.4280  2.4696 -1.0752
 6201SOL    HW230237   4.104   2.963   5.871  1.1904 -1.8584 -2.7052
 6202SOL     OW30238   3.195   3.444   7.054  0.2975 -0.8147  0.2909
 6202SOL    HW130239   3.136   3.517   7.075  2.4784  0.7291  1.1263
 6202SOL    HW230240   3.272   3.463   7.109 -1.5858  2.6916  1.7435
 6203SOL     OW30241   3.132   3.354  10.960  0.2198  0.0548 -0.2334
 6203SOL    HW130242   3.098   3.391  11.042 -0.2536  2.2967 -1.4395
 6203SOL    HW230243   3.222   3.338  10.987  1.0649  3.7423 -0.9825
 6204SOL     OW30244   3.365   2.712   2.844 -0.2842  0.0389  0.1959
 6204SOL    HW130245   3.312   2.783   2.810  0.5450  0.3704 -0.4126
 6204SOL    HW230246   3.293   2.655   2.872  0.4124 -0.0604  1.8383
 6205SOL     OW30247   1.864   1.050   6.066 -0.0326  0.0951  0.2788
 6205SOL    HW130248   1.928   1.118   6.048  0.8880 -0.6315  0.8395
 6205SOL    HW230249   1.804   1.088   6.131 -1.6533 -2.6011  0.3617
 6206SOL     OW30250   4.622   4.295   7.667  0.5622 -0.3234  0.0361
 6206SOL    HW130251   4.706   4.331   7.696  0.4108 -0.9746  1.2328
 6206SOL    HW230252   4.565   4.365   7.700  1.3609  0.8024 -0.9282
 6207SOL     OW30253   2.675   2.553   7.947  0.0185 -0.3865  0.2046
 6207SOL    HW130254   2.642   2.471   7.910 -0.3019 -0.0565 -0.2392
 6207SOL    HW230255   2.699   2.532   8.037 -1.0070  0.2896  0.6368
 6208SOL     OW30256   4.646   2.533  12.833  0.2401 -0.1850 -0.2201
 6208SOL    HW130257   4.658   2.619  12.872  1.2484  0.1253 -1.2265
 6208SOL    HW230258   4.616   2.567  12.749  1.6233 -0.8829 -0.9944
 6209SOL     OW30259   4.161   3.049  15.301  0.5334 -0.2328 -0.0368
 6209SOL    HW130260   4.176   3.139  15.271 -0.3837  0.2724  1.0282
 6209SOL    HW230261   4.134   3.071  15.390  1.0101 -3.3706  0.8854
 6210SOL     OW30262   3.298   2.998  12.467  0.0366 -0.0120 -0.2788
 6210SOL    HW130263   3.293   3.094  12.475 -0.7179 -0.1094  0.4858
 6210SOL    HW230264   3.330   2.998  12.377  0.1923 -0.5810 -0.2228
 6211SOL     OW30265   1.059   3.981   2.259  0.2626 -0.0706 -0.2070
 6211SOL    HW130266   1.112   4.054   2.227  1.3840 -0.9078 -0.2781
 6211SOL    HW230267   0.995   3.976   2.189 -1.6914 -0.9684  1.6340
 6212SOL     OW30268   3.617   3.007  12.367  0.3754 -0.1552 -0.1130
 6212SOL    HW130269   3.620   3.103  12.358 -0.5114 -0.3105 -2.0885
 6212SOL    HW230270   3.539   2.993  12.313  0.8920 -0.4328 -0.7854
 6213SOL     OW30271   0.382   1.451   9.668  0.1450  0.0865  0.4019
 6213SOL    HW130272   0.337   1.462   9.752  0.9992  1.4195  0.6829
 6213SOL    HW230273   0.449   1.518   9.673  1.0049 -0.9364  2.8055
 6214SOL     OW30274   3.165   0.571   9.796  0.2398  0.6900 -0.1324
 6214SOL    HW130275   3.120   0.551   9.878  1.1825 -0.8272  0.0128
 6214SOL    HW230276   3.098   0.610   9.740 -1.0902 -3.9274 -1.7685
 6215SOL     OW30277   2.220   2.652   8.312 -0.3123  1.0924 -0.3339
 6215SOL    HW130278   2.165   2.583   8.347 -0.5707  0.9816 -0.9581
 6215SOL    HW230279   2.174   2.731   8.340 -0.5947  0.0371  2.1601
 6216SOL     OW30280   3.459   3.623   5.587  0.1776 -0.0231 -0.2008
 6216SOL    HW130281   3.429   3.663   5.668  1.9048 -0.4979  0.6622
 6216SOL    HW230282   3.521   3.692   5.565 -0.7128  0.2891 -1.7146
 6217SOL     OW30283   2.524   2.316   8.639 -0.3347 -0.6164 -0.0798
 6217SOL    HW130284   2.429   2.323   8.626 -0.2496 -0.3193 -0.5442
 6217SOL    HW230285   2.549   2.254   8.571  0.1655 -0.5005 -0.0011
 6218SOL     OW30286   1.549   0.308   8.839 -0.0419  0.7213 -0.0945
 6218SOL    HW130287   1.464   0.270   8.862 -0.8995  2.6022 -0.1079
 6218SOL    HW230288   1.585   0.319   8.927  0.7457 -2.4242 -0.0445
 6219SOL     OW30289   0.767   0.060   2.196 -0.3953 -0.2788 -0.1184
 6219SOL    HW130290   0.737   0.144   2.232 -1.2119 -0.6215  0.0047
 6219SOL    HW230291   0.856   0.053   2.232 -1.4555  0.9456  2.7795
 6220SOL     OW30292   1.365   1.230   8.958 -0.2343  0.2002  0.3500
 6220SOL    HW130293   1.291   1.182   8.994 -0.5130  1.7821  1.8749
 6220SOL    HW230294   1.324   1.288   8.894  0.4021  0.3567  0.0846
 6221SOL     OW30295   1.338   3.828   7.607 -0.0493  0.2561  0.5041
 6221SOL    HW130296   1.416   3.779   7.582 -1.1763 -0.1742 -2.1309
 6221SOL    HW230297   1.296   3.822   7.522 -1.4490  0.1450  1.2027
 6222SOL     OW30298   3.230   1.956   5.724 -0.0024 -0.4540  0.1391
 6222SOL    HW130299   3.189   1.963   5.638 -0.4045  0.2511  0.3784
 6222SOL    HW230300   3.207   1.865   5.741 -1.6674 -0.1451 -0.4417
 6223SOL     OW30301   4.164   0.311   4.352  0.2617  0.8815 -0.2312
 6223SOL    HW130302   4.101   0.304   4.280  1.9050 -1.0591 -1.5223
 6223SOL    HW230303   4.241   0.287   4.301 -2.3762 -2.1943 -2.8046
 6224SOL     OW30304   1.948   1.714   7.992 -0.3795 -0.5853  0.2360
 6224SOL    HW130305   2.032   1.668   7.994 -0.2695 -0.3552  0.9529
 6224SOL    HW230306   1.971   1.793   8.040 -4.2650 -0.3388  1.7372
 6225SOL     OW30307   2.283   2.308   0.656  0.6630 -0.3812 -0.1981
 6225SOL    HW130308   2.246   2.315   0.568 -0.7654 -0.4823  0.3936
 6225SOL    HW230309   2.244   2.229   0.694 -1.5773  1.4905  1.4277
 6226SOL     OW30310   2.655   4.254  12.377  0.8462  0.0708 -0.1246
 6226SOL    HW130311   2.692   4.328  12.329 -0.4846  0.9660  0.2315
 6226SOL    HW230312   2.679   4.268  12.469  1.2084  1.3501 -0.4202
 6227SOL     OW30313   3.539   0.825   2.739 -0.6042  0.4173 -0.0441
 6227SOL    HW130314   3.570   0.783   2.819 -0.0748 -1.8171 -1.4007
 6227SOL    HW230315   3.472   0.759   2.719 -0.5741  0.2817  0.3002
 6228SOL     OW30316   4.522   0.347  14.515  0.2453  0.5103 -0.2318
 6228SOL    HW130317   4.501   0.267  14.466  1.4412 -0.0378  0.1414
 6228SOL    HW230318   4.431   0.358  14.542 -0.5456 -0.1553 -2.5633
 6229SOL     OW30319   0.436   1.307   3.204 -0.0192  0.3002 -0.0113
 6229SOL    HW130320   0.523   1.333   3.233  0.5061  1.3254 -2.4933
 6229SOL    HW230321   0.436   1.326   3.110 -1.4922 -1.5070 -0.3851
 6230SOL     OW30322   0.701   2.623  17.530  0.1167  0.2172  0.1772
 6230SOL    HW130323   0.722   2.589  17.617 -0.1552  0.2153  0.2432
 6230SOL    HW230324   0.668   2.712  17.547  1.4553  0.5244  1.2064
 6231SOL     OW30325   0.122   1.950   2.507 -0.3919 -0.2124 -0.0931
 6231SOL    HW130326   0.104   1.938   2.600  0.0873 -2.4169 -0.2677
 6231SOL    HW230327   0.051   2.001   2.468 -0.2967 -0.2241 -0.2834
 6232SOL     OW30328   0.505   2.120   2.353  0.0881 -0.2234 -0.2539
 6232SOL    HW130329   0.451   2.117   2.274  1.9861 -1.7406 -1.4865
 6232SOL    HW230330   0.458   2.059   2.410 -0.9157 -0.0926 -0.9277
 6233SOL     OW30331   3.052   0.802   3.977 -0.1437 -0.3201 -0.2852
 6233SOL    HW130332   3.136   0.759   3.995 -0.5019 -1.2506 -0.8529
 6233SOL    HW230333   3.018   0.729   3.926  2.7470 -1.6510 -0.3069
 6234SOL     OW30334   3.667   3.762   3.408 -0.0877  0.4466 -0.0694
 6234SOL    HW130335   3.575   3.743   3.429  0.3425  0.9457  2.2193
 6234SOL    HW230336   3.703   3.706   3.477 -0.5404 -0.5396 -0.6205
 6235SOL     OW30337   3.202   3.496   2.158 -0.4201  0.6047  0.1317
 6235SOL    HW130338   3.236   3.416   2.119  2.9701  3.2424 -2.4386
 6235SOL    HW230339   3.182   3.540   2.075  0.1657 -0.6092 -0.6552
 6236SOL     OW30340   1.838   4.615  10.264  0.1073  0.0691 -0.4669
 6236SOL    HW130341   1.923   4.631  10.304 -0.2969 -2.1038  1.2530
 6236SOL    HW230342   1.859   4.635  10.172  0.4750 -0.0639 -0.4118
 6237SOL     OW30343   0.470   2.460  10.177  0.2519  0.0349  0.2140
 6237SOL    HW130344   0.418   2.397  10.226  1.4991 -1.4692 -0.3743
 6237SOL    HW230345   0.406   2.492  10.114  1.3631  0.0086 -0.9323
 6238SOL     OW30346   4.647   3.067   2.640 -0.1888  0.2316 -0.0126
 6238SOL    HW130347   4.719   3.028   2.590  0.5127  0.8028  0.5609
 6238SOL    HW230348   4.587   3.089   2.568  2.6207 -4.0279 -3.6777
 6239SOL     OW30349   2.792   3.190   3.746 -0.2087 -0.1666 -0.1187
 6239SOL    HW130350   2.716   3.132   3.748  0.0195 -0.4354  1.2295
 6239SOL    HW230351   2.801   3.220   3.656  1.0972 -2.6360 -0.8083
 6240SOL     OW30352   0.100   1.373   5.633  0.5191 -0.2541  0.7576
 6240SOL    HW130353   0.076   1.280   5.639 -1.2142  0.1646  0.4135
 6240SOL    HW230354   0.050   1.399   5.710 -0.3510  1.9312 -0.5579
 6241SOL     OW30355   3.948   2.377   5.292 -0.9522  0.5873  0.4308
 6241SOL    HW130356   3.905   2.451   5.250 -0.4861 -0.3923 -1.7757
 6241SOL    HW230357   3.900   2.302   5.257 -0.7787  0.8987 -0.4599
 6242SOL     OW30358   2.428   1.064   1.953  0.2552  0.2911 -0.0520
 6242SOL    HW130359   2.334   1.048   1.943  0.9180 -1.9016 -2.9503
 6242SOL    HW230360   2.444   1.007   1.877  0.9298  0.4426 -0.0234
 6243SOL     OW30361   3.800   3.934  11.373 -0.3136 -0.0971 -0.1979
 6243SOL    HW130362   3.780   3.906  11.284  2.8373 -2.4270 -0.1793
 6243SOL    HW230363   3.867   3.867  11.386  0.2922  0.2380 -1.5049
 6244SOL     OW30364   3.584   4.465   2.052  0.5643 -0.7371  0.0269
 6244SOL    HW130365   3.510   4.445   1.996 -0.5481  0.0595  1.2205
 6244SOL    HW230366   3.572   4.413   2.132 -2.4008  1.3694  0.9582
 6245SOL     OW30367   2.489   2.386   2.436 -0.1040 -0.2004  0.0131
 6245SOL    HW130368   2.456   2.307   2.478  0.9145 -0.3245  0.5900
 6245SOL    HW230369   2.483   2.367   2.343  0.9192  0.3890 -0.1715
 6246SOL     OW30370   3.337   0.722   5.231  0.2109  0.0936 -0.1131
 6246SOL    HW130371   3.392   0.670   5.289 -2.8319 -3.0398 -0.0517
 6246SOL    HW230372   3.247   0.689   5.240  0.2327  0.1894  0.4642
 6247SOL     OW30373   2.343   2.366   4.086  0.1182 -0.1383  1.3542
 6247SOL    HW130374   2.414   2.306   4.109 -0.4479 -0.8079  1.3614
 6247SOL    HW230375   2.379   2.451   4.109  1.5346  0.8831 -4.5158
 6248SOL     OW30376   2.656   3.674   2.684 -0.1262 -0.5150 -0.6657
 6248SOL    HW130377   2.639   3.641   2.595 -0.6333 -1.0316 -0.3830
 6248SOL    HW230378   2.739   3.635   2.710  0.5803 -0.1325 -2.3416
 6249SOL     OW30379   0.394   4.398   5.425  0.0284 -0.2694 -0.1395
 6249SOL    HW130380   0.330   4.466   5.444 -1.5131 -1.8960  0.5116
 6249SOL    HW230381   0.337   4.323   5.407  0.4501 -0.4437 -0.7283
 6250SOL     OW30382   1.303   1.973   5.797 -0.1350  0.1987  0.4618
 6250SOL    HW130383   1.297   1.980   5.893 -0.2724  2.5952  0.2871
 6250SOL    HW230384   1.398   1.959   5.792 -0.0657  1.0775 -0.6009
 6251SOL     OW30385   0.681   3.343  14.887  0.7502 -0.2754 -0.4146
 6251SOL    HW130386   0.773   3.368  14.882  0.6560  0.3671  1.1019
 6251SOL    HW230387   0.647   3.432  14.885 -0.8997 -0.8364  2.0247
 6252SOL     OW30388   4.283   0.311  16.544 -0.0693  0.5954  0.0042
 6252SOL    HW130389   4.374   0.296  16.570 -0.0830  1.8844  0.8111
 6252SOL    HW230390   4.226   0.283  16.616 -0.9480  0.3122 -0.7983
 6253SOL     OW30391   4.239   3.596   2.569  0.4732 -0.2367 -0.3655
 6253SOL    HW130392   4.260   3.662   2.636  3.1243  0.0305 -1.4745
 6253SOL    HW230393   4.251   3.662   2.500  0.8619 -0.8814 -0.9084
 6254SOL     OW30394   0.106   3.807  17.093 -0.2265 -0.0876  0.1227
 6254SOL    HW130395   0.171   3.757  17.043 -1.5377 -2.3785  0.7199
 6254SOL    HW230396   0.103   3.761  17.177  2.7429  2.2922  1.5484
 6255SOL     OW30397   1.847   0.734   9.135  0.2027  0.3060  0.6745
 6255SOL    HW130398   1.835   0.662   9.074 -0.2093  1.5787 -0.7405
 6255SOL    HW230399   1.833   0.802   9.070  0.5465 -0.5461 -0.2868
 6256SOL     OW30400   4.466   2.097   9.756 -1.1338  0.5891  0.5479
 6256SOL    HW130401   4.492   2.091   9.665  2.7462 -0.7520  1.7468
 6256SOL    HW230402   4.501   2.014   9.789 -2.4535 -0.3901 -0.5412
 6257SOL     OW30403   0.293   1.150   0.685 -0.1351 -0.1500 -0.3851
 6257SOL    HW130404   0.253   1.190   0.762 -0.4537  0.9625 -1.1393
 6257SOL    HW230405   0.317   1.222   0.627  1.7672  0.6665  1.4130
 6258SOL     OW30406   3.434   2.030  13.854  0.0486  0.6679  0.4719
 6258SOL    HW130407   3.343   2.050  13.834 -0.3383 -0.0881  1.4423
 6258SOL    HW230408   3.427   2.015  13.948  1.5832 -0.0503  0.4730
 6259SOL     OW30409   0.541   4.348   6.689 -0.6073 -0.0755 -0.3865
 6259SOL    HW130410   0.451   4.378   6.702 -0.2956  0.5699  0.3280
 6259SOL    HW230411   0.591   4.392   6.758 -0.8673 -1.5007  0.6941
 6260SOL     OW30412   2.303   2.808   4.998  0.2915 -0.7124  0.3557
 6260SOL    HW130413   2.221   2.856   5.012  0.1961 -0.8847  0.3793
 6260SOL    HW230414   2.348   2.820   5.082  0.3472  0.9474  0.0987
 6261SOL     OW30415   1.754   2.628  13.892 -1.1535  0.5526 -0.0144
 6261SOL    HW130416   1.845   2.603  13.905 -1.1106 -0.3510 -2.0023
 6261SOL    HW230417   1.764   2.723  13.901 -1.0986  0.3643  1.7574
 6262SOL     OW30418   3.449   3.182   7.534 -0.5738 -0.1365  0.6572
 6262SOL    HW130419   3.379   3.206   7.595 -0.8977  0.5744 -0.0066
 6262SOL    HW230420   3.416   3.225   7.456 -2.9185 -0.2348  1.6099
 6263SOL     OW30421   3.572   4.115  13.125  0.2434 -0.0026  0.0079
 6263SOL    HW130422   3.559   4.073  13.210  0.3275  0.3954  0.2161
 6263SOL    HW230423   3.551   4.037  13.075  1.2358  1.3326 -2.4818
 6264SOL     OW30424   4.170   1.371   3.178 -0.0877  0.0095  0.3702
 6264SOL    HW130425   4.258   1.399   3.155 -0.4309  0.9382  0.1929
 6264SOL    HW230426   4.173   1.284   3.139 -1.9549  0.4842 -0.8156
 6265SOL     OW30427   2.803   0.270   5.101 -0.1452 -0.7210 -0.2160
 6265SOL    HW130428   2.877   0.329   5.112 -0.6111 -0.0492 -0.7275
 6265SOL    HW230429   2.729   0.329   5.112 -0.4202 -0.9575 -0.8015
 6266SOL     OW30430   3.899   1.295  16.254  0.3502 -0.5521  0.3857
 6266SOL    HW130431   3.891   1.208  16.292  0.0002 -0.2760  0.9376
 6266SOL    HW230432   3.913   1.357  16.326  2.1114 -0.1704 -0.2900
 6267SOL     OW30433   1.059   2.339   7.895 -0.0689 -0.5184  0.1718
 6267SOL    HW130434   1.059   2.425   7.853  0.3454 -0.4246  0.3651
 6267SOL    HW230435   1.093   2.282   7.826 -1.4451 -2.4518  1.0865
 6268SOL     OW30436   3.026   1.830   7.337  0.6240 -0.3461  0.1363
 6268SOL    HW130437   3.085   1.875   7.276  1.4411 -0.3529  0.9291
 6268SOL    HW230438   3.084   1.816   7.412 -0.8216 -0.3477  1.2586
 6269SOL     OW30439   3.116   0.172  11.358 -0.4279  0.1293 -0.1732
 6269SOL    HW130440   3.208   0.172  11.386 -0.0873  0.6283 -1.2791
 6269SOL    HW230441   3.079   0.111  11.422 -0.8471  0.8026  0.2198
 6270SOL     OW30442   0.574   2.955   6.375 -0.2518 -0.0146  0.7110
 6270SOL    HW130443   0.601   3.046   6.381 -0.2394  0.0348 -0.0589
 6270SOL    HW230444   0.503   2.960   6.312  1.0044  1.0675 -0.6309
 6271SOL     OW30445   0.588   0.239   3.517 -0.5160  0.0478  0.3372
 6271SOL    HW130446   0.546   0.234   3.603  1.8736 -2.1739  1.3514
 6271SOL    HW230447   0.552   0.324   3.492 -1.0083 -0.1012  0.5227
 6272SOL     OW30448   4.545   3.412   7.838  0.1501  0.2773 -0.8159
 6272SOL    HW130449   4.580   3.393   7.751  4.0832 -0.8011  0.9906
 6272SOL    HW230450   4.462   3.366   7.828 -1.5028  2.7971  1.4700
 6273SOL     OW30451   0.476   3.984   5.186 -0.3944 -0.1598 -0.0139
 6273SOL    HW130452   0.487   4.034   5.105 -0.6935  0.1280  0.1202
 6273SOL    HW230453   0.381   3.981   5.201 -0.2300 -0.5281  0.9492
 6274SOL     OW30454   2.905   1.621   2.778  0.0792 -0.6389 -0.2532
 6274SOL    HW130455   2.978   1.576   2.820  0.0714  0.3129  0.7804
 6274SOL    HW230456   2.932   1.713   2.779 -0.2876 -0.5434  0.6819
 6275SOL     OW30457   1.330   2.520  13.129  0.3431  0.0485 -0.3522
 6275SOL    HW130458   1.251   2.551  13.084 -0.6065 -1.4659  0.3004
 6275SOL    HW230459   1.405   2.569  13.095  0.3234  1.4936  1.6797
 6276SOL     OW30460   4.184   0.377   1.007  0.7431 -0.3493 -0.6661
 6276SOL    HW130461   4.209   0.286   0.994  1.3582 -0.4750  1.4187
 6276SOL    HW230462   4.272   0.415   1.014  0.8827 -0.7036 -0.5108
 6277SOL     OW30463   3.447   3.888   4.744  0.4146  0.2659  0.5325
 6277SOL    HW130464   3.473   3.981   4.743  0.7700  0.1468 -0.5616
 6277SOL    HW230465   3.500   3.855   4.672  0.4845 -1.2752  1.2988
 6278SOL     OW30466   2.812   0.441  10.919 -0.2372  0.4734  0.6702
 6278SOL    HW130467   2.897   0.486  10.921  1.0439 -1.8865 -0.5096
 6278SOL    HW230468   2.753   0.508  10.884  0.3008 -0.3985 -1.8749
 6279SOL     OW30469   4.584   2.620   5.319 -0.0992 -0.5044 -1.1170
 6279SOL    HW130470   4.534   2.538   5.318 -2.8472  1.1931 -0.1232
 6279SOL    HW230471   4.532   2.669   5.382  0.1612  0.5240 -1.6958
 6280SOL     OW30472   2.131   2.595  13.661  0.1901 -0.2011  1.0697
 6280SOL    HW130473   2.070   2.541  13.711  0.0946 -1.0269  0.0580
 6280SOL    HW230474   2.217   2.568  13.694 -0.0662  0.8199  2.5567
 6281SOL     OW30475   4.602   3.187  16.640 -0.3523  0.5582  0.2872
 6281SOL    HW130476   4.520   3.231  16.617  0.4945  2.3816  0.6936
 6281SOL    HW230477   4.650   3.263  16.674 -0.8860  1.5798 -1.2086
 6282SOL     OW30478   2.389   2.067   1.519 -0.2891 -0.1928  0.3477
 6282SOL    HW130479   2.467   2.082   1.571 -0.8567  0.6588  0.9540
 6282SOL    HW230480   2.370   1.974   1.533 -0.8644 -0.3479 -1.4247
 6283SOL     OW30481   1.358   2.399   3.117 -0.0762  0.1033  0.0616
 6283SOL    HW130482   1.356   2.446   3.034 -1.2978 -0.4486 -0.2238
 6283SOL    HW230483   1.303   2.321   3.102  1.0655 -0.6973  0.0206
 6284SOL     OW30484   3.372   0.230   7.593 -0.1667 -0.0228 -0.1099
 6284SOL    HW130485   3.400   0.216   7.503  1.5047  0.9508  0.2681
 6284SOL    HW230486   3.428   0.306   7.606 -0.2716  0.2189 -1.1158
 6285SOL     OW30487   4.335   1.680   2.103 -0.3286 -0.5415 -0.1168
 6285SOL    HW130488   4.272   1.608   2.101 -1.5690  0.5689 -0.8801
 6285SOL    HW230489   4.382   1.656   2.023 -1.2545 -1.5069 -0.3741
 6286SOL     OW30490   0.029   1.606   2.564  0.0412 -0.4698 -0.6682
 6286SOL    HW130491   4.699   1.544   2.532  0.3313 -0.2639 -1.6639
 6286SOL    HW230492   0.075   1.554   2.629 -1.1855 -0.0600  0.5382
 6287SOL     OW30493   2.155   3.930   8.582 -0.1625  0.4454 -0.2237
 6287SOL    HW130494   2.213   3.989   8.630 -1.0370 -0.1152  1.5293
 6287SOL    HW230495   2.089   3.909   8.649  1.8239 -1.0219  1.3075
 6288SOL     OW30496   2.283   2.999   9.243 -0.4987 -0.1567 -0.0796
 6288SOL    HW130497   2.244   3.081   9.214  0.0209  0.6795  1.5550
 6288SOL    HW230498   2.349   2.981   9.176  0.6494  0.0058  0.9888
 6289SOL     OW30499   1.666   2.389   1.794 -0.1503 -0.5838 -0.2759
 6289SOL    HW130500   1.587   2.336   1.803 -0.1670 -0.3643  0.8586
 6289SOL    HW230501   1.689   2.380   1.702 -3.4895  1.1356 -1.2852
 6290SOL     OW30502   3.040   4.326  10.942  0.3120 -0.6257 -0.3865
 6290SOL    HW130503   2.989   4.384  10.886 -0.2160 -1.3589 -0.6723
 6290SOL    HW230504   3.084   4.382  11.006  1.8994  0.8415 -2.7560
 6291SOL     OW30505   1.908   3.070   2.802 -0.1467  0.0234  0.1785
 6291SOL    HW130506   1.883   3.098   2.714  1.3561  1.2580  0.1609
 6291SOL    HW230507   1.831   3.022   2.834  1.9019 -1.8332  2.3446
 6292SOL     OW30508   4.355   0.152   5.619 -0.0641  1.1259 -0.6924
 6292SOL    HW130509   4.329   0.060   5.616  1.2026  0.7634 -0.6477
 6292SOL    HW230510   4.284   0.197   5.573 -1.6531 -0.0972  0.5982
 6293SOL     OW30511   1.974   4.560   8.151 -0.3080  0.2117 -0.4573
 6293SOL    HW130512   2.034   4.628   8.120  0.6337 -0.9436 -1.1714
 6293SOL    HW230513   1.959   4.592   8.240 -0.1616 -1.5138  0.1823
 6294SOL     OW30514   2.085   4.247   6.565 -0.2019 -0.7123 -0.2325
 6294SOL    HW130515   2.101   4.336   6.596  0.3338 -2.6727  5.1074
 6294SOL    HW230516   2.080   4.208   6.653  1.2185 -0.3264  0.0139
 6295SOL     OW30517   1.621   1.247   6.108  0.4582  0.2453 -0.1667
 6295SOL    HW130518   1.626   1.330   6.062  0.8702  0.4301  0.2127
 6295SOL    HW230519   1.526   1.236   6.110  0.5761 -0.5566  1.8694
 6296SOL     OW30520   1.263   3.230  11.294 -0.2005  0.3320  0.0314
 6296SOL    HW130521   1.199   3.286  11.250 -0.2486 -0.3536 -0.7541
 6296SOL    HW230522   1.207   3.154  11.314  1.3656 -1.1972 -1.4212
 6297SOL     OW30523   2.903   1.199   8.012 -0.2630  0.4043 -0.0998
 6297SOL    HW130524   2.971   1.230   8.072 -0.8547  0.4170  0.5648
 6297SOL    HW230525   2.831   1.257   8.037  0.5790  0.6120  1.8341
 6298SOL     OW30526   3.915   2.587   5.134 -0.2197  0.1855  0.1992
 6298SOL    HW130527   4.006   2.562   5.123  0.1335  0.9427  1.4623
 6298SOL    HW230528   3.892   2.598   5.041 -1.2691 -0.9862  0.3110
 6299SOL     OW30529   1.630   1.242   0.980  0.1033  0.4129  0.0669
 6299SOL    HW130530   1.673   1.171   0.932  2.7000  2.8700 -1.2051
 6299SOL    HW230531   1.577   1.284   0.913  0.7861  1.6038  0.2757
 6300SOL     OW30532   1.082   3.804   6.497 -0.8992 -0.2037  0.2536
 6300SOL    HW130533   1.058   3.881   6.549 -1.0593 -0.4270  0.5070
 6300SOL    HW230534   1.083   3.735   6.563  0.1591 -1.1709 -0.7719
 6301SOL     OW30535   3.639   2.300   4.831  0.1216 -0.3408 -0.1958
 6301SOL    HW130536   3.576   2.231   4.813  1.5351 -1.5408 -0.5250
 6301SOL    HW230537   3.722   2.264   4.800 -1.2815 -0.9443 -3.2383
 6302SOL     OW30538   2.078   3.163   0.952 -0.4583 -0.0305 -0.3647
 6302SOL    HW130539   2.125   3.241   0.922 -1.5392  0.3871 -0.9863
 6302SOL    HW230540   2.107   3.105   0.882  0.8024 -0.3213  0.3849
 6303SOL     OW30541   2.581   2.922  15.849 -0.4841 -0.2494 -0.0784
 6303SOL    HW130542   2.571   2.873  15.768 -0.5946 -0.4543  0.0596
 6303SOL    HW230543   2.623   3.000  15.813 -0.7329 -0.0204  0.1218
 6304SOL     OW30544   2.079   3.002  16.769 -0.5096 -0.5031 -0.3328
 6304SOL    HW130545   2.005   3.026  16.825  0.4567  1.9610 -0.1272
 6304SOL    HW230546   2.120   3.088  16.757 -0.2840 -0.6748 -0.7769
 6305SOL     OW30547   0.999   1.265  16.122 -0.0082  0.1242 -0.7381
 6305SOL    HW130548   1.054   1.308  16.188 -1.7276  0.3351  0.5641
 6305SOL    HW230549   0.919   1.245  16.171 -0.7781 -0.1057 -2.0909
 6306SOL     OW30550   2.816   3.248   1.959  0.4588  0.5366  0.0182
 6306SOL    HW130551   2.771   3.223   2.040 -0.8612 -2.5416 -1.6721
 6306SOL    HW230552   2.743   3.297   1.921 -0.2719  0.2163  0.9996
 6307SOL     OW30553   3.009   3.164   8.885 -0.4737  0.0107  0.0185
 6307SOL    HW130554   2.926   3.133   8.923  0.5571 -1.7763  0.8264
 6307SOL    HW230555   2.982   3.205   8.803 -0.9607 -1.7138 -0.6825
 6308SOL     OW30556   2.410   2.683  11.575 -0.1557 -0.0207 -0.3215
 6308SOL    HW130557   2.412   2.744  11.502  1.2360 -0.4078 -0.6083
 6308SOL    HW230558   2.497   2.646  11.560  0.0141  0.1981  0.1228
 6309SOL     OW30559   3.500   2.607   8.618  0.0743  0.3109  0.1946
 6309SOL    HW130560   3.587   2.567   8.612  0.5138  1.4155 -0.8438
 6309SOL    HW230561   3.445   2.532   8.595  0.5114  1.0095 -3.1184
 6310SOL     OW30562   3.198   0.539   3.622 -0.4510 -0.3919 -0.6955
 6310SOL    HW130563   3.138   0.608   3.595  0.7995  1.2119  0.6284
 6310SOL    HW230564   3.141   0.466   3.646 -0.7053 -0.2837 -0.9681
 6311SOL     OW30565   2.599   0.691  11.110 -0.3464  0.2991  0.0295
 6311SOL    HW130566   2.586   0.753  11.039  0.2197  0.7296  0.3027
 6311SOL    HW230567   2.695   0.691  11.118 -0.3768 -3.1519  0.3997
 6312SOL     OW30568   2.331   4.044  10.703  0.1948 -0.1408 -0.1838
 6312SOL    HW130569   2.385   4.093  10.640  0.7408  1.3124  1.4089
 6312SOL    HW230570   2.349   4.096  10.781  1.1302 -1.4934  0.5039
 6313SOL     OW30571   0.298   3.178   6.997  0.0967 -0.5909 -0.6158
 6313SOL    HW130572   0.317   3.208   7.086 -0.4016 -1.9424 -0.0570
 6313SOL    HW230573   0.346   3.096   6.998 -0.9212 -1.1839 -2.1307
 6314SOL     OW30574   0.203   1.961  12.712  0.2587  0.3759 -0.4206
 6314SOL    HW130575   0.258   2.012  12.653  2.0034 -1.2375 -0.1976
 6314SOL    HW230576   0.177   2.023  12.780  0.0941  1.1226 -1.1698
 6315SOL     OW30577   0.641   1.880   2.143  0.2970 -0.8506 -0.3758
 6315SOL    HW130578   0.587   1.958   2.130  3.2426  1.3019  0.3431
 6315SOL    HW230579   0.710   1.894   2.078 -0.3995 -1.8210 -1.3142
 6316SOL     OW30580   3.751   4.610   4.663 -0.5352 -0.0892  0.0049
 6316SOL    HW130581   3.754   4.518   4.688  1.8496 -0.3424 -1.2476
 6316SOL    HW230582   3.693   4.606   4.587 -0.6993  2.1068  0.0067
 6317SOL     OW30583   3.945   3.344   1.969 -0.1995 -0.0794 -0.4355
 6317SOL    HW130584   3.996   3.264   1.977  0.6014  0.6887  2.0112
 6317SOL    HW230585   3.953   3.352   1.874  3.2368  2.9171  0.1042
 6318SOL     OW30586   0.485   0.571   3.866  0.3791 -0.0420 -0.7258
 6318SOL    HW130587   0.419   0.621   3.914  1.4455 -1.8402  2.6080
 6318SOL    HW230588   0.438   0.515   3.804  1.6717 -0.2488 -1.5076
 6319SOL     OW30589   2.898   2.724   8.155  0.3271  0.2082 -0.3873
 6319SOL    HW130590   2.885   2.633   8.181  1.9552  0.4299  1.2294
 6319SOL    HW230591   2.827   2.738   8.093 -0.9645 -0.6138  0.9131
 6320SOL     OW30592   2.723   2.966   7.098  0.3583  0.5824 -0.1178
 6320SOL    HW130593   2.639   2.921   7.090  0.2669  0.9442 -1.2122
 6320SOL    HW230594   2.781   2.905   7.144 -1.5749 -0.6202  0.7077
 6321SOL     OW30595   0.086   0.947   6.255  0.0216  0.2077 -0.4816
 6321SOL    HW130596   0.079   0.861   6.296 -1.8967  0.5506 -0.0786
 6321SOL    HW230597   0.166   0.942   6.203  0.6763  1.5499  0.4077
 6322SOL     OW30598   0.125   1.990   4.733 -0.1891  0.0861 -0.1327
 6322SOL    HW130599   0.220   2.004   4.725 -0.2538  0.1757 -0.7295
 6322SOL    HW230600   0.096   2.068   4.779  3.7541 -0.0926  2.6890
 6323SOL     OW30601   1.754   2.549   2.505 -0.1521 -0.4814  0.5068
 6323SOL    HW130602   1.776   2.642   2.503  1.5344 -0.8270  3.3442
 6323SOL    HW230603   1.831   2.525   2.557 -0.8045  2.6810  2.8553
 6324SOL     OW30604   1.701   1.404  11.677  0.3465  0.4423  0.1474
 6324SOL    HW130605   1.657   1.406  11.592  0.2576  0.9161  0.2016
 6324SOL    HW230606   1.647   1.331  11.707  1.2971  0.8043  2.7313
 6325SOL     OW30607   2.146   0.691   7.476 -0.2297 -0.0852 -0.3430
 6325SOL    HW130608   2.234   0.659   7.498  0.0286  1.1397  0.4311
 6325SOL    HW230609   2.129   0.724   7.564  0.5735  0.1572 -0.2758
 6326SOL     OW30610   3.008   3.295  10.704  0.3162  0.2362 -1.1418
 6326SOL    HW130611   3.091   3.282  10.751 -1.2462 -2.6224  0.8872
 6326SOL    HW230612   2.949   3.322  10.775  1.6711 -0.3113  0.2075
 6327SOL     OW30613   1.100   2.447  16.101 -0.0846 -0.4974 -0.0138
 6327SOL    HW130614   1.064   2.378  16.157  1.5249 -1.6344 -0.4053
 6327SOL    HW230615   1.102   2.523  16.160  0.3871 -1.2548  0.9395
 6328SOL     OW30616   3.841   3.554   1.609  0.4260 -0.1134  0.2063
 6328SOL    HW130617   3.831   3.622   1.675  0.6471 -0.9677  1.1303
 6328SOL    HW230618   3.780   3.578   1.539 -0.0722 -1.4074  0.1810
 6329SOL     OW30619   3.237   1.007   7.646 -0.6224 -0.1704  0.2240
 6329SOL    HW130620   3.219   0.987   7.553  0.3519 -0.0741  0.0216
 6329SOL    HW230621   3.325   1.037   7.626  0.5215 -2.4187  1.9677
 6330SOL     OW30622   3.350   3.217   5.115  0.3566 -0.3325  0.1303
 6330SOL    HW130623   3.345   3.204   5.020 -0.7835  1.1455 -0.0187
 6330SOL    HW230624   3.332   3.311   5.122 -0.1052 -0.5864  2.2181
 6331SOL     OW30625   0.837   0.642   2.975  0.2890 -0.2420 -0.2375
 6331SOL    HW130626   0.928   0.655   3.004  0.5847  0.3530 -1.4289
 6331SOL    HW230627   0.832   0.716   2.914  0.0967  1.9660  2.4050
 6332SOL     OW30628   1.785   2.807   5.372  0.1485 -0.3763  0.2123
 6332SOL    HW130629   1.693   2.791   5.350 -0.2182  2.2414 -0.2240
 6332SOL    HW230630   1.789   2.771   5.460  0.6792 -1.1656 -0.1340
 6333SOL     OW30631   3.880   0.748   0.807 -0.1688 -0.8534 -0.5645
 6333SOL    HW130632   3.915   0.798   0.881 -3.2826  1.3540 -0.5382
 6333SOL    HW230633   3.948   0.681   0.808  0.7757  0.0811 -1.9402
 6334SOL     OW30634   0.633   3.065   5.469 -0.2199 -0.4291 -0.0700
 6334SOL    HW130635   0.595   3.098   5.387  2.8267 -1.1585 -1.7928
 6334SOL    HW230636   0.551   3.045   5.513 -0.5114 -2.0184 -1.3239
 6335SOL     OW30637   0.042   0.783   4.177 -0.4444 -0.3093 -0.4000
 6335SOL    HW130638   0.003   0.867   4.201 -1.3351 -0.1918 -2.3137
 6335SOL    HW230639   0.058   0.749   4.266  2.3092  1.2387 -0.3182
 6336SOL     OW30640   2.093   3.320   8.437  0.0757  0.1060 -0.5892
 6336SOL    HW130641   2.143   3.249   8.398 -0.5278 -0.1461 -0.9141
 6336SOL    HW230642   2.161   3.366   8.485 -0.1002  0.6452 -0.8517
 6337SOL     OW30643   0.317   1.910  11.653 -1.1387  0.4614  0.0267
 6337SOL    HW130644   0.379   1.973  11.616  0.3720  0.2893  2.1892
 6337SOL    HW230645   0.244   1.968  11.675 -0.4428  1.6993 -0.9693
 6338SOL     OW30646   2.045   1.410   3.789  0.0892 -0.1315  0.2072
 6338SOL    HW130647   2.076   1.478   3.849  1.7252 -1.3688  0.7503
 6338SOL    HW230648   2.089   1.336   3.829  1.2964  1.5234  1.9242
 6339SOL     OW30649   0.803   1.885  13.806 -0.2097 -0.4373  0.5275
 6339SOL    HW130650   0.829   1.798  13.777 -0.7908  0.2125 -1.9932
 6339SOL    HW230651   0.829   1.929  13.725  1.3230 -0.8834  0.7759
 6340SOL     OW30652   2.645   0.526  13.019  0.6208  0.6150 -0.1940
 6340SOL    HW130653   2.733   0.563  13.007  0.2371  0.5778 -3.1741
 6340SOL    HW230654   2.666   0.459  13.084 -2.5797  0.9788  1.1955
 6341SOL     OW30655   1.955   0.494  13.834  0.3629 -1.2792 -0.2804
 6341SOL    HW130656   1.920   0.411  13.802 -0.0509 -2.5647  3.5436
 6341SOL    HW230657   1.890   0.516  13.900  0.4591 -1.3775 -0.1505
 6342SOL     OW30658   2.166   3.630   5.907  0.2857  0.0253  0.2656
 6342SOL    HW130659   2.090   3.585   5.869 -1.1764  1.4472  1.5292
 6342SOL    HW230660   2.238   3.602   5.850  0.5976 -2.0859  1.6875
 6343SOL     OW30661   1.176   3.171   0.655  0.5664  0.0624 -0.0915
 6343SOL    HW130662   1.210   3.237   0.594  0.3059  0.6164  0.3624
 6343SOL    HW230663   1.100   3.137   0.608  0.9711 -1.4733  0.3914
 6344SOL     OW30664   4.015   4.474   6.736  0.0233 -0.0647  0.4055
 6344SOL    HW130665   4.106   4.503   6.748  0.4237 -1.0287 -0.3317
 6344SOL    HW230666   4.010   4.422   6.817  1.1932  0.4231  0.7943
 6345SOL     OW30667   3.233   2.247   1.845  0.0599 -0.4019 -0.2951
 6345SOL    HW130668   3.299   2.199   1.894 -0.8162 -0.0782  1.2235
 6345SOL    HW230669   3.243   2.198   1.763  1.4106 -0.0015 -0.3655
 6346SOL     OW30670   0.040   2.985  15.312  0.0730 -0.2980  0.0955
 6346SOL    HW130671   4.703   3.047  15.315 -0.2434 -0.5076 -3.8385
 6346SOL    HW230672   0.044   2.938  15.396  2.6118 -1.3918 -0.6511
 6347SOL     OW30673   1.749   4.489   6.336  0.0586  0.3884 -0.8982
 6347SOL    HW130674   1.741   4.393   6.340 -0.9670  0.5589  1.3950
 6347SOL    HW230675   1.840   4.506   6.359 -0.2049 -0.3489  0.7497
 6348SOL     OW30676   1.389   2.809   7.890 -0.2628 -0.0752 -0.0470
 6348SOL    HW130677   1.482   2.832   7.901 -0.4386  1.2070 -1.3670
 6348SOL    HW230678   1.371   2.751   7.964  2.1457  0.1146  0.7143
 6349SOL     OW30679   0.764   2.661  15.373  0.1021  0.1347 -0.5669
 6349SOL    HW130680   0.859   2.651  15.384  0.1383  0.8220 -0.2381
 6349SOL    HW230681   0.764   2.649  15.278 -0.2842  0.6228 -0.6325
 6350SOL     OW30682   0.308   1.945   8.873 -0.3432 -0.1387 -1.2634
 6350SOL    HW130683   0.342   1.929   8.961 -0.0763  1.4140 -1.0842
 6350SOL    HW230684   0.299   2.041   8.878 -1.6390 -0.1663 -3.2253
 6351SOL     OW30685   3.376   3.789   7.973  0.2738 -0.4134  0.2258
 6351SOL    HW130686   3.453   3.805   8.027  0.3034  1.2203 -0.2753
 6351SOL    HW230687   3.319   3.862   7.999  1.0601 -1.1431  4.0333
 6352SOL     OW30688   2.000   0.024   9.348 -0.1169 -0.2482  0.2511
 6352SOL    HW130689   2.084   0.054   9.383 -0.7597  0.6595  0.9992
 6352SOL    HW230690   1.998   4.665   9.353 -0.4715 -0.2334  0.3447
 6353SOL     OW30691   3.031   0.690   7.981  0.0416  0.6041  0.3080
 6353SOL    HW130692   3.008   0.677   7.889 -0.2620  0.7758  0.3600
 6353SOL    HW230693   2.965   0.756   8.000  1.5614  2.1210  0.3050
 6354SOL     OW30694   1.889   3.100   5.588  0.2602  1.0091  0.0163
 6354SOL    HW130695   1.965   3.064   5.543  0.4696  2.2731 -0.6402
 6354SOL    HW230696   1.838   3.025   5.618 -2.3903  2.8830  0.2075
 6355SOL     OW30697   3.914   4.041   6.563 -0.1875 -0.1336  0.2651
 6355SOL    HW130698   3.861   3.978   6.513  0.5684 -1.5971  1.3032
 6355SOL    HW230699   3.856   4.116   6.577 -0.4914 -0.3344  0.0820
 6356SOL     OW30700   4.140   2.524  17.661  0.5438 -0.4740  0.4708
 6356SOL    HW130701   4.166   2.492  17.575  0.6716 -1.7285  0.9810
 6356SOL    HW230702   4.222   2.541  17.707  1.1719 -1.4279 -0.3163
 6357SOL     OW30703   0.081   2.284   1.835  0.1056 -0.4341 -0.0791
 6357SOL    HW130704   0.046   2.243   1.914 -0.9409 -0.2083 -0.4118
 6357SOL    HW230705   0.015   2.353   1.826  1.1433  0.5077 -0.3237
 6358SOL     OW30706   3.586   1.028   1.684 -0.4371 -0.2063  1.0680
 6358SOL    HW130707   3.571   1.012   1.777  1.6464 -0.6611  1.3177
 6358SOL    HW230708   3.649   0.959   1.662  0.9334  1.6557 -0.9106
 6359SOL     OW30709   4.199   1.606   6.426  0.4700 -0.4200  0.1480
 6359SOL    HW130710   4.107   1.634   6.422  0.9718  1.0926 -0.8545
 6359SOL    HW230711   4.224   1.663   6.499  1.9440 -0.4726 -0.3131
 6360SOL     OW30712   0.791   0.135   3.130 -0.3385  1.0932  0.0333
 6360SOL    HW130713   0.755   0.050   3.152 -1.4777  1.2968 -1.0372
 6360SOL    HW230714   0.815   0.161   3.219 -0.6167  2.9422 -0.4421
 6361SOL     OW30715   2.644   4.294   3.740 -0.2714  0.5432  0.3586
 6361SOL    HW130716   2.660   4.284   3.646 -0.0173  0.0099  0.4571
 6361SOL    HW230717   2.590   4.214   3.737  0.5296  0.0624 -1.4336
 6362SOL     OW30718   2.939   0.518   4.958  0.1315 -0.2457 -0.1362
 6362SOL    HW130719   2.844   0.524   4.967  0.1165  1.5528 -1.5604
 6362SOL    HW230720   2.962   0.474   4.877  0.8702 -0.0598 -0.0330
 6363SOL     OW30721   1.037   2.925   6.629  0.5974  0.6044 -0.0231
 6363SOL    HW130722   0.942   2.936   6.633  0.2827 -2.1721  0.1509
 6363SOL    HW230723   1.046   2.859   6.560 -1.8832 -1.3527  1.5593
 6364SOL     OW30724   2.345   3.112  15.925  0.1346 -1.0538  0.7301
 6364SOL    HW130725   2.397   3.126  16.004 -0.5185  0.9718  0.7969
 6364SOL    HW230726   2.263   3.078  15.961 -0.3144  0.0708  0.7464
 6365SOL     OW30727   0.329   3.449  17.613  0.1594  0.1520  0.1624
 6365SOL    HW130728   0.396   3.517  17.615 -1.6485  1.8888  2.3900
 6365SOL    HW230729   0.369   3.377  17.663 -0.5234 -0.5587 -0.3000
 6366SOL     OW30730   1.110   4.203  13.459 -0.0048 -0.4220 -0.2417
 6366SOL    HW130731   1.169   4.278  13.457 -0.2270 -0.3056 -1.8119
 6366SOL    HW230732   1.109   4.180  13.552  1.4801  1.1173  0.1538
 6367SOL     OW30733   2.706   2.220   0.639 -0.5107  0.7548 -0.1640
 6367SOL    HW130734   2.651   2.169   0.698 -1.8612 -2.2164 -3.9982
 6367SOL    HW230735   2.735   2.295   0.690  3.6590  0.6027 -2.3322
 6368SOL     OW30736   2.048   1.307   4.302  0.1536 -0.0319 -0.2109
 6368SOL    HW130737   1.999   1.357   4.236  0.0016  0.1145  0.0125
 6368SOL    HW230738   2.079   1.230   4.254  0.6190  1.3838 -2.1915
 6369SOL     OW30739   2.067   0.466   7.870  0.1275 -0.6107  0.3319
 6369SOL    HW130740   2.058   0.558   7.848 -0.0960 -0.7189 -0.0361
 6369SOL    HW230741   2.060   0.432   7.781  3.0751  1.0960 -0.5470
 6370SOL     OW30742   1.195   4.346   6.819 -0.0481  0.4562  0.4314
 6370SOL    HW130743   1.159   4.270   6.773 -0.4046  1.0930 -0.3430
 6370SOL    HW230744   1.287   4.319   6.825 -0.1989  0.2002  1.4846
 6371SOL     OW30745   1.385   4.379   7.737  0.2255 -0.5802  0.2074
 6371SOL    HW130746   1.465   4.432   7.743  0.9463 -1.6675  0.2551
 6371SOL    HW230747   1.422   4.291   7.734  1.9917  0.2380 -1.9706
 6372SOL     OW30748   3.011   1.060  10.062  0.1050 -0.1555  0.2903
 6372SOL    HW130749   2.922   1.081  10.034 -0.3368 -1.0782  0.9930
 6372SOL    HW230750   3.001   0.971  10.095  0.1610 -0.1422  0.3449
 6373SOL     OW30751   0.849   1.466   7.742 -0.3487 -0.4185  0.0597
 6373SOL    HW130752   0.841   1.428   7.655 -0.4939 -2.0296  0.7823
 6373SOL    HW230753   0.764   1.450   7.784  0.3855 -1.2516  1.2427
 6374SOL     OW30754   1.893   3.442   7.760  0.2330 -0.0559 -0.4022
 6374SOL    HW130755   1.965   3.384   7.734  1.8417  0.5400  2.7743
 6374SOL    HW230756   1.833   3.382   7.805 -0.7318 -0.0151 -1.6270
 6375SOL     OW30757   2.973   1.376   5.686 -0.6232  0.5305 -1.0831
 6375SOL    HW130758   2.890   1.392   5.641 -0.8730  0.0828 -0.7857
 6375SOL    HW230759   2.952   1.291   5.724  1.7579  0.6755  0.5264
 6376SOL     OW30760   3.453   3.143   3.352  0.2763 -0.2948 -0.2666
 6376SOL    HW130761   3.432   3.111   3.440 -0.8305 -0.0884 -0.4602
 6376SOL    HW230762   3.372   3.184   3.322  0.5580  0.5682  0.1346
 6377SOL     OW30763   4.201   3.317   4.898  0.2371  0.3266  0.6984
 6377SOL    HW130764   4.236   3.237   4.938  1.5533  1.4132  1.7509
 6377SOL    HW230765   4.133   3.278   4.844  1.9090 -2.1217  0.3606
 6378SOL     OW30766   3.274   4.136   9.182  0.4030  0.1460  0.0042
 6378SOL    HW130767   3.214   4.209   9.196 -0.4748 -0.6719  0.4806
 6378SOL    HW230768   3.261   4.079   9.257 -2.2660  2.4358  1.3066
 6379SOL     OW30769   2.879   4.472   7.723  0.3179 -0.7827 -0.1410
 6379SOL    HW130770   2.816   4.543   7.707  2.8887  1.8438  1.5151
 6379SOL    HW230771   2.906   4.454   7.633 -0.1342  0.1089 -0.4616
 6380SOL     OW30772   3.611   2.757   7.718 -0.0020 -0.0520  0.0878
 6380SOL    HW130773   3.653   2.719   7.795  0.4598  1.4722  0.5927
 6380SOL    HW230774   3.618   2.849   7.745 -0.3907  0.3676 -1.2356
 6381SOL     OW30775   4.523   3.701  16.609  0.1715  0.6756  0.1623
 6381SOL    HW130776   4.561   3.756  16.678  1.8772  1.2015 -1.1988
 6381SOL    HW230777   4.431   3.689  16.633  0.2367  1.4696  0.8027
 6382SOL     OW30778   4.440   3.217   5.725  0.2194  0.3503 -0.2569
 6382SOL    HW130779   4.480   3.180   5.804  3.6570  1.9058 -1.2845
 6382SOL    HW230780   4.445   3.311   5.738 -1.8630  0.3001  0.9333
 6383SOL     OW30781   0.143   3.595   2.675  0.2288 -0.1301  0.3325
 6383SOL    HW130782   0.121   3.537   2.602 -3.4075  0.7258  0.7371
 6383SOL    HW230783   0.187   3.664   2.625  2.2865 -2.2522 -0.7703
 6384SOL     OW30784   4.482   1.429  17.080  0.2528 -0.0555  0.0065
 6384SOL    HW130785   4.433   1.396  17.005  1.3954 -0.8988 -0.3582
 6384SOL    HW230786   4.563   1.379  17.077  0.6406  0.5043  0.8724
 6385SOL     OW30787   1.122   0.895   6.576 -0.0294 -0.1175  0.1549
 6385SOL    HW130788   1.032   0.893   6.541 -0.3401 -0.6071  0.9882
 6385SOL    HW230789   1.138   0.984   6.542  1.5188  0.2184  1.7814
 6386SOL     OW30790   2.572   1.047   0.905 -0.1686  0.3732 -0.0319
 6386SOL    HW130791   2.624   1.127   0.914  1.4759 -0.6625 -0.1329
 6386SOL    HW230792   2.533   1.040   0.992  1.7986 -0.1590  0.8215
 6387SOL     OW30793   4.022   4.006   7.240  0.2712  0.3917  0.2902
 6387SOL    HW130794   4.013   4.024   7.147 -1.9583  0.4576  0.5175
 6387SOL    HW230795   4.112   3.975   7.239 -0.2301 -1.0427 -0.5282
 6388SOL     OW30796   3.924   1.080   6.746  0.0544 -0.1957  0.3818
 6388SOL    HW130797   3.843   1.099   6.793 -0.8078  1.3256 -1.7611
 6388SOL    HW230798   3.971   1.164   6.745  1.4927 -0.9771  1.7203
 6389SOL     OW30799   3.023   1.476   1.696  0.4459 -0.1688  0.0280
 6389SOL    HW130800   2.951   1.513   1.747  2.3416  0.3498  2.3218
 6389SOL    HW230801   3.001   1.383   1.699  0.1847 -0.1784 -2.5190
 6390SOL     OW30802   2.571   0.711   3.082 -0.0429  0.6318  0.1167
 6390SOL    HW130803   2.476   0.708   3.086 -0.0671  1.6973  0.3386
 6390SOL    HW230804   2.576   0.725   2.987 -0.0396  1.2839  0.2133
 6391SOL     OW30805   4.408   0.163   9.101 -0.0571 -0.0573 -0.3247
 6391SOL    HW130806   4.495   0.162   9.139 -1.6267  0.3220  3.2432
 6391SOL    HW230807   4.382   0.071   9.090  0.6432 -0.4482  1.3200
 6392SOL     OW30808   2.210   4.527   6.858  0.5197 -0.0429  0.7026
 6392SOL    HW130809   2.165   4.611   6.849  0.5184 -0.1084  0.0565
 6392SOL    HW230810   2.148   4.485   6.917 -2.3868  2.2894 -0.6670
 6393SOL     OW30811   1.965   4.176   7.679 -0.2897 -0.5657  0.0065
 6393SOL    HW130812   1.897   4.113   7.657 -1.5409  0.2748  1.3912
 6393SOL    HW230813   1.942   4.198   7.770 -0.1448 -1.1231  0.1781
 6394SOL     OW30814   1.720   3.005   8.068  0.5827 -0.2383 -0.2083
 6394SOL    HW130815   1.813   3.009   8.045  0.2969  1.9097 -1.0188
 6394SOL    HW230816   1.690   3.046   7.986  1.5396  0.0897 -0.3889
 6395SOL     OW30817   1.021   3.620   9.651  0.4935  0.0934 -0.1450
 6395SOL    HW130818   1.021   3.627   9.746  1.0704  1.3618 -0.2386
 6395SOL    HW230819   1.095   3.566   9.623  0.0131 -1.6273  1.9725
 6396SOL     OW30820   2.188   1.242   2.309  0.0447 -0.1102 -0.7296
 6396SOL    HW130821   2.227   1.244   2.397 -2.5949  0.7578  0.4314
 6396SOL    HW230822   2.130   1.317   2.300  2.6885  2.0188 -0.1678
 6397SOL     OW30823   3.885   0.279  11.654 -0.7049 -0.0833 -0.3595
 6397SOL    HW130824   3.862   0.186  11.647  1.1281 -0.5867  0.1966
 6397SOL    HW230825   3.852   0.287  11.744 -1.2949 -3.7744 -0.2220
 6398SOL     OW30826   0.777   2.537   4.545  0.1619  0.0298 -0.0802
 6398SOL    HW130827   0.741   2.482   4.615  0.6745  1.3004  1.1970
 6398SOL    HW230828   0.731   2.621   4.547  0.6999  0.3349 -0.5468
 6399SOL     OW30829   3.807   2.107  15.909  0.3826  0.5531  0.0840
 6399SOL    HW130830   3.832   2.090  15.818  2.5366 -0.0939  0.8009
 6399SOL    HW230831   3.846   2.034  15.957  0.9722  1.4041  0.8957
 6400SOL     OW30832   3.644   0.596   5.930  0.1130  0.5577  0.5097
 6400SOL    HW130833   3.702   0.523   5.908 -0.6591  0.6335 -1.7925
 6400SOL    HW230834   3.699   0.658   5.978 -1.3479  1.5629  0.8972
 6401SOL     OW30835   4.615   3.861   8.202  0.4627 -0.0487  0.4990
 6401SOL    HW130836   4.547   3.919   8.237 -1.5979 -3.8498  2.7784
 6401SOL    HW230837   4.567   3.780   8.223  0.8260 -0.9394 -2.1887
 6402SOL     OW30838   2.588   1.142   4.139  0.7286 -0.6702  0.3381
 6402SOL    HW130839   2.633   1.188   4.210  1.5975  0.5167 -0.9771
 6402SOL    HW230840   2.543   1.079   4.195  0.0122 -0.2238  0.2651
 6403SOL     OW30841   2.891   1.541   4.943 -0.1162 -0.3280  0.2761
 6403SOL    HW130842   2.835   1.564   5.017  0.1300  0.8484  0.0945
 6403SOL    HW230843   2.881   1.447   4.932  0.4844 -0.4753  0.9998
 6404SOL     OW30844   4.326   2.620  15.854  0.2189 -0.4922 -0.7302
 6404SOL    HW130845   4.332   2.583  15.942 -1.2108  1.4287  0.1782
 6404SOL    HW230846   4.236   2.653  15.857 -0.2007 -1.6105 -1.0637
 6405SOL     OW30847   4.609   4.237  17.081 -0.1008  0.4885  0.1414
 6405SOL    HW130848   4.542   4.212  17.018 -1.1033  1.9331  0.6490
 6405SOL    HW230849   4.692   4.195  17.057 -0.6631  0.0562 -1.0343
 6406SOL     OW30850   3.819   2.020   7.688  0.0691  0.0065  0.2828
 6406SOL    HW130851   3.850   2.058   7.770  1.4035 -0.5580  0.0271
 6406SOL    HW230852   3.859   1.935   7.704 -1.6431 -0.4895  1.9500
 6407SOL     OW30853   0.088   2.485  15.468  0.3006 -0.2002 -0.2389
 6407SOL    HW130854   0.096   2.523  15.555 -2.4048  1.8293 -0.8891
 6407SOL    HW230855   0.169   2.434  15.457  1.2697  1.1058  0.8539
 6408SOL     OW30856   0.700   0.524   1.029  0.2759 -0.2896 -0.2774
 6408SOL    HW130857   0.757   0.567   1.092 -1.2134  1.0315  0.1546
 6408SOL    HW230858   0.761   0.457   0.999  2.5120  1.3784  0.5792
 6409SOL     OW30859   3.069   1.190   9.257 -0.1322 -0.0585 -0.4597
 6409SOL    HW130860   3.098   1.145   9.336  2.6607 -1.3043 -2.1694
 6409SOL    HW230861   3.008   1.124   9.223  1.3820 -1.2941 -0.8010
 6410SOL     OW30862   0.200   1.370   7.524 -0.5492  0.0206  0.6585
 6410SOL    HW130863   0.178   1.278   7.511  0.9323 -0.2135 -0.2060
 6410SOL    HW230864   0.137   1.374   7.596 -2.0936  0.4442 -0.7094
 6411SOL     OW30865   1.718   4.508   5.698  0.5730  0.1617  0.1552
 6411SOL    HW130866   1.758   4.430   5.735  1.0029  0.2671 -0.0978
 6411SOL    HW230867   1.789   4.568   5.721 -0.5211  1.4119  0.2960
 6412SOL     OW30868   4.224   2.666   4.195 -0.1657  0.3971 -0.0966
 6412SOL    HW130869   4.248   2.740   4.138 -1.5124  1.4913  0.7647
 6412SOL    HW230870   4.150   2.629   4.147 -0.0701 -1.1677  0.9805
 6413SOL     OW30871   2.393   1.251   4.462 -0.1258  0.2075 -0.1682
 6413SOL    HW130872   2.384   1.159   4.435  2.1727 -0.1241  0.1789
 6413SOL    HW230873   2.452   1.222   4.532  0.3662 -1.1678 -1.1534
 6414SOL     OW30874   4.271   0.005   6.488  0.0694  0.0659 -0.2294
 6414SOL    HW130875   4.198   0.008   6.426 -0.4173 -0.4036  0.3142
 6414SOL    HW230876   4.269   4.651   6.519  1.1083 -0.5246 -1.8754
 6415SOL     OW30877   3.144   0.194   6.038  0.6164 -0.0683 -0.2211
 6415SOL    HW130878   3.196   0.203   6.118 -1.6545 -1.4131  1.3766
 6415SOL    HW230879   3.213   0.199   5.971 -0.0325  1.4080 -0.7569
 6416SOL     OW30880   4.318   3.551   7.348  0.3912  0.0556 -0.1740
 6416SOL    HW130881   4.270   3.633   7.358 -1.4691 -0.9540 -0.9090
 6416SOL    HW230882   4.264   3.503   7.286  1.1545  0.7075 -1.3534
 6417SOL     OW30883   1.250   1.905   6.285  0.7026  0.4392 -0.2462
 6417SOL    HW130884   1.324   1.870   6.335  0.1277 -0.6206 -0.1381
 6417SOL    HW230885   1.263   1.999   6.277  2.0158  0.2725 -0.1074
 6418SOL     OW30886   3.692   0.803   8.722 -0.0541 -0.0459 -0.0827
 6418SOL    HW130887   3.626   0.836   8.661 -0.0268 -0.0234 -0.1001
 6418SOL    HW230888   3.761   0.771   8.663  1.0745  1.7848  0.2463
 6419SOL     OW30889   4.666   2.473   9.000  0.4197  0.4931 -0.1150
 6419SOL    HW130890   4.716   2.501   8.923  3.5738 -1.7310  1.1645
 6419SOL    HW230891   4.629   2.557   9.027 -0.6094  0.3628 -1.0845
 6420SOL     OW30892   1.501   4.515  12.097  0.4764 -0.1113  0.5915
 6420SOL    HW130893   1.587   4.545  12.068  0.5015  0.1015  0.8903
 6420SOL    HW230894   1.499   4.422  12.073 -0.1875 -0.1113  0.6467
 6421SOL     OW30895   1.545   2.329   8.396 -0.1851  0.6798 -0.5323
 6421SOL    HW130896   1.606   2.299   8.463  1.0639  0.3921 -1.7841
 6421SOL    HW230897   1.460   2.293   8.421  1.9601 -3.3991  0.8778
 6422SOL     OW30898   3.183   3.518  15.625  0.1635 -0.1897  0.5098
 6422SOL    HW130899   3.252   3.531  15.559 -0.8641 -1.4711 -0.8133
 6422SOL    HW230900   3.213   3.583  15.690  1.7288 -1.4127  1.0275
 6423SOL     OW30901   3.914   1.923   8.302 -0.0045  0.5416 -0.0471
 6423SOL    HW130902   3.950   1.960   8.383  0.0058 -2.2661  1.2394
 6423SOL    HW230903   3.966   1.968   8.236 -0.4724 -1.0798 -1.4963
 6424SOL     OW30904   4.361   4.666  11.970  1.1059 -0.7143  0.5152
 6424SOL    HW130905   4.291   4.725  12.000  1.0128 -0.0809 -0.9066
 6424SOL    HW230906   4.401   4.713  11.896  0.7609 -2.4811 -0.7787
 6425SOL     OW30907   0.223   0.442   4.807  0.6764 -0.2810  0.0868
 6425SOL    HW130908   0.159   0.400   4.864  1.6024  1.3868  2.3376
 6425SOL    HW230909   0.167   0.498   4.753 -0.4495 -0.7065  0.8162
 6426SOL     OW30910   2.797   1.553  11.272 -0.6368  0.3537 -0.0948
 6426SOL    HW130911   2.844   1.554  11.355 -0.8297 -1.8608  0.0520
 6426SOL    HW230912   2.727   1.614  11.297  0.5106  2.2373 -1.4740
 6427SOL     OW30913   4.572   0.717  15.113  0.1711  0.3421  0.2844
 6427SOL    HW130914   4.632   0.670  15.170  1.8963 -1.2649 -2.8537
 6427SOL    HW230915   4.629   0.752  15.044  0.2758  0.2000  0.2995
 6428SOL     OW30916   3.252   1.537   6.153 -0.3418 -0.7026  0.3514
 6428SOL    HW130917   3.229   1.627   6.173  0.0865 -0.3193 -0.8704
 6428SOL    HW230918   3.167   1.493   6.159 -0.7420 -0.1168 -1.0214
 6429SOL     OW30919   4.614   1.874  15.834 -0.0353 -0.2604  0.6819
 6429SOL    HW130920   4.524   1.899  15.816  0.9744  1.4220 -1.9940
 6429SOL    HW230921   4.654   1.958  15.858  0.3079  0.3568 -2.0230
 6430SOL     OW30922   1.745   2.072  17.303  0.3429 -0.1001 -0.2363
 6430SOL    HW130923   1.749   2.018  17.381  0.4166  1.4795  0.8540
 6430SOL    HW230924   1.752   2.160  17.341 -0.6097  0.5780 -1.5934
 6431SOL     OW30925   2.828   3.828   1.698  0.0423  0.2390 -0.0559
 6431SOL    HW130926   2.898   3.868   1.749  1.5733 -1.6885 -0.6555
 6431SOL    HW230927   2.763   3.822   1.768 -1.0230 -1.8961 -1.2019
 6432SOL     OW30928   2.592   1.990  15.463  0.0613 -0.3576  0.0985
 6432SOL    HW130929   2.600   1.982  15.558 -0.3958 -0.5785  0.1202
 6432SOL    HW230930   2.515   1.935  15.447  0.6049 -1.7373  2.1782
 6433SOL     OW30931   4.481   3.519  17.542  0.3002 -0.5484 -0.1719
 6433SOL    HW130932   4.549   3.546  17.480  1.4314 -1.0169  0.8544
 6433SOL    HW230933   4.537   3.475  17.606  0.2308 -0.3690  0.0118
 6434SOL     OW30934   1.613   1.024   5.255 -0.1326 -0.5507 -0.1931
 6434SOL    HW130935   1.561   1.015   5.335 -0.3271 -1.9671 -0.4785
 6434SOL    HW230936   1.656   1.107   5.275 -2.6656  0.3569  1.5473
 6435SOL     OW30937   2.112   0.874   9.232  0.0063 -0.4661 -0.1403
 6435SOL    HW130938   2.102   0.887   9.326  0.8371 -2.2283  0.2024
 6435SOL    HW230939   2.022   0.845   9.217 -0.4036  0.0018  1.4013
 6436SOL     OW30940   3.640   0.072  12.512 -0.1425 -0.1294  0.1567
 6436SOL    HW130941   3.607   0.160  12.493  0.5185  0.2873  0.9504
 6436SOL    HW230942   3.663   0.054  12.421 -1.6073  1.0323 -0.4443
 6437SOL     OW30943   4.470   1.014  13.484 -0.3089 -1.2537 -0.0819
 6437SOL    HW130944   4.388   0.985  13.443 -1.3621  0.3742  0.8628
 6437SOL    HW230945   4.429   1.073  13.547 -0.8731 -0.2384 -1.4092
 6438SOL     OW30946   3.598   1.237   6.031 -0.2231  0.7079 -0.1194
 6438SOL    HW130947   3.551   1.156   6.051 -0.0156  0.7656  0.6065
 6438SOL    HW230948   3.597   1.230   5.935  3.7283  2.3284 -0.2827
 6439SOL     OW30949   3.702   1.553  10.829  0.4197 -0.3842  0.6366
 6439SOL    HW130950   3.709   1.462  10.798  1.7640 -0.3072  0.7101
 6439SOL    HW230951   3.704   1.603  10.747  1.9843  0.6400  1.3250
 6440SOL     OW30952   4.366   1.164  11.435  0.1002  0.4391 -0.0277
 6440SOL    HW130953   4.329   1.177  11.348 -1.2125 -1.6582  0.2384
 6440SOL    HW230954   4.283   1.147  11.480 -1.2682  1.6043 -2.1144
 6441SOL     OW30955   1.517   1.670   1.618  0.7009 -0.3863  0.3682
 6441SOL    HW130956   1.591   1.693   1.673  1.2589 -1.1815 -0.0585
 6441SOL    HW230957   1.574   1.634   1.551 -0.7385  0.0848 -1.1308
 6442SOL     OW30958   3.956   3.441   5.716 -0.2473 -0.2930  0.1339
 6442SOL    HW130959   3.983   3.477   5.631 -0.6343 -0.3929 -0.0270
 6442SOL    HW230960   4.003   3.358   5.711  1.1823  0.5091  0.1315
 6443SOL     OW30961   3.925   0.601   3.870  0.0803 -0.3980  0.0829
 6443SOL    HW130962   3.902   0.688   3.839  0.7204 -0.1584  0.2684
 6443SOL    HW230963   3.948   0.618   3.962 -1.2782 -1.8653  0.6981
 6444SOL     OW30964   4.437   1.244   6.756  0.3006 -0.1652 -0.4410
 6444SOL    HW130965   4.502   1.314   6.749 -1.1151  1.2816  0.8251
 6444SOL    HW230966   4.405   1.258   6.845 -1.8405  3.5095 -1.8261
 6445SOL     OW30967   4.720   0.040   8.736 -0.0641  0.3100 -0.6069
 6445SOL    HW130968   0.028   0.075   8.813 -2.8157 -1.9501  1.9866
 6445SOL    HW230969   4.733   0.115   8.677 -0.4966 -0.1017 -1.2252
 6446SOL     OW30970   4.549   4.090   4.251  0.6204  0.2722 -0.9779
 6446SOL    HW130971   4.474   4.143   4.226 -0.5978 -1.5416 -1.1205
 6446SOL    HW230972   4.606   4.092   4.174 -0.5721 -1.2641 -1.8826
 6447SOL     OW30973   2.927   2.271  14.699  0.2003  0.3067 -0.0810
 6447SOL    HW130974   2.848   2.259  14.752 -0.7973 -0.9012 -1.8321
 6447SOL    HW230975   2.960   2.356  14.728 -0.2900  0.2328  0.6888
 6448SOL     OW30976   2.297   4.211   7.880 -0.0865  0.2625  0.2737
 6448SOL    HW130977   2.333   4.206   7.969 -1.0459 -0.3924  0.6178
 6448SOL    HW230978   2.210   4.243   7.905 -0.6170  1.0510 -2.5517
 6449SOL     OW30979   2.559   4.328   9.475 -0.2276 -0.0622  0.0001
 6449SOL    HW130980   2.549   4.284   9.391  0.9928 -2.3746  1.0573
 6449SOL    HW230981   2.518   4.414   9.460 -0.0915  0.2796  1.5748
 6450SOL     OW30982   3.497   1.778   9.985  0.0304 -0.1664 -0.0351
 6450SOL    HW130983   3.525   1.858  10.030 -0.5784 -0.2687  0.5317
 6450SOL    HW230984   3.571   1.766   9.926  0.0958  1.0838 -0.2072
 6451SOL     OW30985   2.955   2.106   2.000 -0.1723  0.4388  0.4204
 6451SOL    HW130986   2.873   2.067   2.028  0.2848 -1.5428 -1.0429
 6451SOL    HW230987   3.013   2.118   2.075 -0.0919  1.8039  0.1379
 6452SOL     OW30988   3.931   0.246  15.681 -0.8247  0.3136 -0.2600
 6452SOL    HW130989   3.961   0.212  15.596 -0.1228 -0.8635  0.4623
 6452SOL    HW230990   3.875   0.318  15.653 -1.5889 -0.0560  0.3137
 6453SOL     OW30991   2.569   0.995   9.472 -0.4926 -0.6686  0.3686
 6453SOL    HW130992   2.530   1.082   9.458 -0.7948 -0.7659  0.6176
 6453SOL    HW230993   2.493   0.939   9.454  1.4937 -3.9392  2.3431
 6454SOL     OW30994   1.104   3.853  16.802 -0.7884  0.0011 -0.0216
 6454SOL    HW130995   1.093   3.834  16.895  0.2724 -1.8809 -0.2928
 6454SOL    HW230996   1.145   3.771  16.777  0.7889  0.7842  0.0170
 6455SOL     OW30997   3.424   0.303   2.955 -0.3358 -0.4042  0.0980
 6455SOL    HW130998   3.422   0.223   3.008 -0.7506 -1.7533 -1.9568
 6455SOL    HW230999   3.491   0.277   2.892 -0.2424 -0.1806  0.1054
 6456SOL     OW31000   1.678   2.883   7.760 -0.5587 -0.3918 -0.3916
 6456SOL    HW131001   1.625   2.868   7.683 -1.4768  2.2867 -0.2940
 6456SOL    HW231002   1.669   2.797   7.800  1.3392  0.7974  2.6376
 6457SOL     OW31003   0.476   4.247   5.877 -0.3309  0.5047 -0.3127
 6457SOL    HW131004   0.432   4.332   5.877 -1.5748 -0.1444  0.7562
 6457SOL    HW231005   0.535   4.258   5.802  0.0593  3.2089  0.3973
 6458SOL     OW31006   3.069   3.701   7.885 -0.8889 -0.0715 -0.0570
 6458SOL    HW131007   3.155   3.663   7.904  1.0340  3.7774 -1.0676
 6458SOL    HW231008   3.090   3.791   7.862 -1.3567  0.5725  1.9904
 6459SOL     OW31009   0.324   4.512   8.844 -0.3330  0.4447 -0.0989
 6459SOL    HW131010   0.391   4.449   8.818 -0.0243  0.7033  0.0715
 6459SOL    HW231011   0.347   4.580   8.781 -0.9290  0.3707 -0.3886
 6460SOL     OW31012   2.800   2.434   4.173  0.0739  0.8704 -0.2252
 6460SOL    HW131013   2.735   2.381   4.219  1.5352 -1.6924 -1.1562
 6460SOL    HW231014   2.840   2.369   4.116 -0.9068  0.9465 -1.0038
 6461SOL     OW31015   4.629   2.910   5.862 -0.2175  0.2749 -0.3378
 6461SOL    HW131016   4.608   3.002   5.881 -0.3276  0.1944 -0.0704
 6461SOL    HW231017   4.697   2.897   5.928 -1.3788  1.6340  1.1295
 6462SOL     OW31018   0.051   0.776  15.768 -0.0131  0.4994 -0.3796
 6462SOL    HW131019   4.735   0.706  15.729 -0.6528  1.2187 -0.8106
 6462SOL    HW231020   0.111   0.792  15.695  0.8604 -0.9484  0.0287
 6463SOL     OW31021   1.615   2.380   4.681 -0.2586  0.6224  0.4037
 6463SOL    HW131022   1.571   2.458   4.714 -1.2926  0.0661  0.3533
 6463SOL    HW231023   1.570   2.356   4.599  0.7337  0.6903 -0.1584
 6464SOL     OW31024   1.682   0.709   8.512 -0.1070 -0.6213  0.4750
 6464SOL    HW131025   1.626   0.738   8.440  0.2657 -1.0237  0.0174
 6464SOL    HW231026   1.629   0.636   8.544  0.6670 -1.1472  0.5674
 6465SOL     OW31027   1.000   0.861   5.920  0.2915 -0.4731 -0.8245
 6465SOL    HW131028   1.065   0.873   5.851  1.6370  0.1558  0.5573
 6465SOL    HW231029   0.960   0.776   5.904 -0.5843  0.0488 -1.4076
 6466SOL     OW31030   1.031   1.618   1.943  0.2919 -0.1561  0.1325
 6466SOL    HW131031   1.049   1.524   1.938  1.8048  0.1086  0.6427
 6466SOL    HW231032   0.984   1.624   2.027  1.0057  0.7785  0.4566
 6467SOL     OW31033   4.406   0.849   7.618  0.6520  0.2176  0.3101
 6467SOL    HW131034   4.439   0.769   7.660 -4.5442 -1.3953  1.3468
 6467SOL    HW231035   4.352   0.811   7.549  0.5386 -0.3430  0.7047
 6468SOL     OW31036   3.845   4.396   7.108 -0.2029  0.0747 -0.4380
 6468SOL    HW131037   3.846   4.485   7.143 -1.7743 -0.1708  0.2059
 6468SOL    HW231038   3.905   4.351   7.168 -0.8769  0.6022  0.6163
 6469SOL     OW31039   2.603   1.401   6.947 -0.5549 -0.4782 -0.0079
 6469SOL    HW131040   2.687   1.379   6.988 -0.9509  0.1285  1.1338
 6469SOL    HW231041   2.611   1.494   6.927 -0.6765 -0.2882  0.8076
 6470SOL     OW31042   4.348   4.289   9.478  0.2540 -0.1975  0.0950
 6470SOL    HW131043   4.332   4.382   9.467 -1.2771 -0.3929  0.6220
 6470SOL    HW231044   4.368   4.265   9.388 -0.4260 -0.1737 -0.0621
 6471SOL     OW31045   4.550   1.150  17.284  0.1760 -0.2308  0.4720
 6471SOL    HW131046   4.612   1.159  17.211  0.2456  0.0953  0.5694
 6471SOL    HW231047   4.593   1.075  17.325 -0.0835 -0.7050 -0.1092
 6472SOL     OW31048   3.955   0.204   1.715  0.2805  0.6462  0.5688
 6472SOL    HW131049   3.946   0.118   1.674  0.6981 -0.0118  1.8571
 6472SOL    HW231050   4.002   0.180   1.796 -0.5355 -0.7941  0.6111
 6473SOL     OW31051   3.779   1.747   5.884  0.3532  0.8145 -0.2315
 6473SOL    HW131052   3.851   1.742   5.946  0.5441 -0.5691 -0.5619
 6473SOL    HW231053   3.706   1.753   5.944  2.1652  1.6761  1.8805
 6474SOL     OW31054   0.420   0.526   6.718 -0.1589 -0.4165  0.0745
 6474SOL    HW131055   0.373   0.501   6.639 -0.1066 -0.9541  0.2179
 6474SOL    HW231056   0.511   0.537   6.689 -0.9795 -1.1057 -2.7593
 6475SOL     OW31057   0.936   2.738   9.873 -0.0060  0.1961  0.0941
 6475SOL    HW131058   0.849   2.774   9.890 -0.5074 -0.9957  0.0281
 6475SOL    HW231059   0.981   2.793   9.937  1.6571 -0.7616 -0.2533
 6476SOL     OW31060   3.220   0.043   8.521  0.3229  0.0348 -0.1250
 6476SOL    HW131061   3.256   0.048   8.433 -1.1926  5.3091 -0.4071
 6476SOL    HW231062   3.153   4.714   8.502  0.1344  0.1692  0.0699
 6477SOL     OW31063   3.708   2.681   4.127  0.0542  0.2379 -0.0793
 6477SOL    HW131064   3.715   2.586   4.118  0.5295  0.1501  1.1415
 6477SOL    HW231065   3.774   2.707   4.192  0.5914 -1.1669 -0.0617
 6478SOL     OW31066   2.612   3.195   9.134  0.2351 -0.4999  0.3807
 6478SOL    HW131067   2.583   3.207   9.224  0.7071 -2.1187  0.7403
 6478SOL    HW231068   2.537   3.147   9.099 -0.9885  1.1655  0.7072
 6479SOL     OW31069   1.834   4.347   5.888 -0.0482  0.3426 -0.2418
 6479SOL    HW131070   1.839   4.267   5.940 -0.4260  0.5247  0.0715
 6479SOL    HW231071   1.860   4.411   5.955 -0.6671  0.2851  0.0477
 6480SOL     OW31072   3.515   3.891   2.837  0.9838  0.7307  0.2815
 6480SOL    HW131073   3.427   3.920   2.817  1.4982  1.3361 -1.0802
 6480SOL    HW231074   3.547   3.970   2.881  0.5591 -0.0225  1.9489
 6481SOL     OW31075   2.798   4.091   9.032  0.2556  0.0326 -0.6164
 6481SOL    HW131076   2.835   4.171   9.070  2.3221 -1.4866  0.6035
 6481SOL    HW231077   2.849   4.029   9.083  0.7773  0.2799 -0.8373
 6482SOL     OW31078   1.731   2.332   8.146 -0.3127 -0.1410  0.4829
 6482SOL    HW131079   1.663   2.389   8.111 -1.4288 -1.2717  0.8215
 6482SOL    HW231080   1.717   2.331   8.241 -1.2215 -1.5048  0.3282
 6483SOL     OW31081   3.968   0.601  17.675 -0.2473 -0.2829  0.8804
 6483SOL    HW131082   3.926   0.634  17.596  0.3050 -2.2690 -0.2319
 6483SOL    HW231083   4.056   0.589  17.638 -0.1523  2.0443  0.3185
 6484SOL     OW31084   3.255   1.852   5.083  0.7541 -0.4681 -0.2514
 6484SOL    HW131085   3.321   1.891   5.140 -0.0061  1.4274 -0.6910
 6484SOL    HW231086   3.217   1.931   5.044  1.2243  0.0986  0.4467
 6485SOL     OW31087   2.849   2.616   3.954 -0.6665 -0.0013  0.3266
 6485SOL    HW131088   2.826   2.536   4.001  3.3571 -2.7598 -2.4044
 6485SOL    HW231089   2.877   2.672   4.026 -0.3803  0.0834  0.1483
 6486SOL     OW31090   2.778   1.687   5.326  0.5175  0.3546  0.0040
 6486SOL    HW131091   2.831   1.615   5.293  2.4785  1.8710 -0.1760
 6486SOL    HW231092   2.727   1.707   5.248  1.7639 -0.7698 -1.0971
 6487SOL     OW31093   2.450   2.751   7.367  0.3519  0.2286  0.1088
 6487SOL    HW131094   2.489   2.674   7.407 -0.3748 -0.3735 -0.3371
 6487SOL    HW231095   2.414   2.799   7.441  2.0115  1.6652 -0.0030
 6488SOL     OW31096   1.231   2.547   4.009 -0.0144  0.0099  0.2170
 6488SOL    HW131097   1.212   2.561   3.916 -0.3436 -0.0778  0.2709
 6488SOL    HW231098   1.261   2.634   4.038  0.3807  0.0103 -0.1921
 6489SOL     OW31099   2.041   3.251   2.090  0.9163  0.9619 -0.4602
 6489SOL    HW131100   2.013   3.265   2.181 -0.6040 -2.2264 -0.4541
 6489SOL    HW231101   2.089   3.169   2.097 -1.3241 -0.4115 -1.3825
 6490SOL     OW31102   3.677   3.993   7.860  0.6679  0.0724 -0.0855
 6490SOL    HW131103   3.613   3.929   7.829  2.3035 -1.1223 -1.0475
 6490SOL    HW231104   3.617   4.046   7.912 -0.5171 -2.0916  0.7363
 6491SOL     OW31105   2.884   4.269   7.449  0.0150 -0.3559 -0.6348
 6491SOL    HW131106   2.802   4.225   7.471 -0.6601  1.6448  0.8049
 6491SOL    HW231107   2.850   4.358   7.440 -1.1274 -0.7653 -0.2485
 6492SOL     OW31108   4.479   1.740  17.081  0.4205  0.3454 -0.4558
 6492SOL    HW131109   4.480   1.645  17.071  0.6603  0.1666  1.1289
 6492SOL    HW231110   4.562   1.744  17.130 -0.6231  2.2779  1.1720
 6493SOL     OW31111   3.111   4.417  16.721  0.1102 -0.0854 -0.6739
 6493SOL    HW131112   3.118   4.507  16.752 -0.3135  0.0827 -1.0685
 6493SOL    HW231113   3.017   4.405  16.736  0.1605  1.2688  0.7778
 6494SOL     OW31114   0.076   1.549  17.741 -0.3668  0.1248 -0.1207
 6494SOL    HW131115   0.056   1.534  17.649 -0.9567  0.6782 -0.0897
 6494SOL    HW231116   0.066   1.458   0.024 -1.6086  1.0776  2.6334
 6495SOL     OW31117   3.925   4.709  16.909  0.6375  0.5365 -0.5014
 6495SOL    HW131118   3.933   0.029  16.832 -0.4115 -0.0561 -1.0335
 6495SOL    HW231119   3.936   0.034  16.982  2.4027 -2.1112  1.4387
 6496SOL     OW31120   0.087   2.746  16.238 -0.5110  0.0021  0.0703
 6496SOL    HW131121   0.033   2.737  16.317 -0.9310 -1.7425 -0.4085
 6496SOL    HW231122   0.072   2.659  16.199 -0.5595  0.4253 -0.8584
 6497SOL     OW31123   2.162   1.865  13.832 -0.0494 -0.0506 -0.6074
 6497SOL    HW131124   2.107   1.934  13.797 -0.0459 -0.3020 -1.1149
 6497SOL    HW231125   2.238   1.867  13.774  2.5068 -0.3201  2.7328
 6498SOL     OW31126   1.039   0.172   6.416 -0.2206 -0.4532 -0.0502
 6498SOL    HW131127   1.108   0.129   6.364  1.3583  0.5715  1.1824
 6498SOL    HW231128   1.068   0.169   6.508 -0.4602 -1.1326 -0.0022
 6499SOL     OW31129   2.015   1.196   6.777  0.0321  0.0177 -0.2489
 6499SOL    HW131130   1.924   1.199   6.807  0.1339 -0.6283  0.1181
 6499SOL    HW231131   2.015   1.264   6.709  2.9615 -0.2392 -0.4943
 6500SOL     OW31132   0.119   1.930   0.361  0.5980 -0.1417  0.2970
 6500SOL    HW131133   0.073   1.989   0.302 -0.1055 -0.6720  0.3250
 6500SOL    HW231134   0.043   1.904   0.413  0.4361 -0.8287 -0.2810
 6501SOL     OW31135   2.677   2.887   7.451 -0.1031  0.2516  0.7019
 6501SOL    HW131136   2.660   2.981   7.452 -1.2628  0.0232  3.1148
 6501SOL    HW231137   2.626   2.853   7.377  0.4235  0.2642  0.3377
 6502SOL     OW31138   1.617   4.124   0.890  0.4369  0.4926 -0.2556
 6502SOL    HW131139   1.673   4.052   0.861 -0.9510 -2.2091  3.8060
 6502SOL    HW231140   1.642   4.114   0.982  1.2258 -1.0490 -0.6396
 6503SOL     OW31141   1.537   4.663  11.377  0.4771 -0.4241  0.4065
 6503SOL    HW131142   1.591   4.653  11.299 -1.2488 -0.1024 -0.8412
 6503SOL    HW231143   1.453   4.691  11.339 -0.2687 -3.6565 -0.3007
 6504SOL     OW31144   0.759   1.914   9.355 -0.3269 -0.6891 -0.1843
 6504SOL    HW131145   0.849   1.889   9.379  0.8648  1.9541 -1.8773
 6504SOL    HW231146   0.707   1.834   9.343 -0.4950 -0.8121  1.4417
 6505SOL     OW31147   2.367   1.574   5.636 -0.1344  0.1375  0.2655
 6505SOL    HW131148   2.293   1.519   5.660  1.0588 -2.1698 -1.3725
 6505SOL    HW231149   2.393   1.616   5.718  0.6814 -1.8178  0.9808
 6506SOL     OW31150   2.163   2.262   6.613  0.2601 -0.7010  0.0817
 6506SOL    HW131151   2.109   2.302   6.681  0.0364 -1.2672  0.2398
 6506SOL    HW231152   2.175   2.335   6.552 -0.0856 -0.7322 -0.0238
 6507SOL     OW31153   4.722   2.363  14.066  0.3044 -0.3966  0.0998
 6507SOL    HW131154   0.050   2.408  14.012 -0.9975 -0.7710 -1.7525
 6507SOL    HW231155   4.658   2.343  13.998  0.1867  1.6618 -0.4028
 6508SOL     OW31156   0.605   1.335   8.910  0.0695  0.0539 -0.1863
 6508SOL    HW131157   0.533   1.278   8.938 -0.8599  0.3395 -1.9359
 6508SOL    HW231158   0.560   1.420   8.915  0.6014  0.3467 -0.4847
 6509SOL     OW31159   2.539   0.089   3.918 -0.3375  0.2932  0.7249
 6509SOL    HW131160   2.556   0.005   3.875  1.9990  1.4020 -0.4962
 6509SOL    HW231161   2.445   0.096   3.898  0.1373 -0.7304 -1.8876
 6510SOL     OW31162   4.193   2.722   6.886  0.6126 -0.7640  0.0885
 6510SOL    HW131163   4.178   2.653   6.950 -1.8842  1.3038  1.7235
 6510SOL    HW231164   4.103   2.750   6.869  1.7428  2.2881 -1.0564
 6511SOL     OW31165   3.751   0.594   2.377 -0.2480 -0.3895 -0.3727
 6511SOL    HW131166   3.825   0.646   2.346 -2.2618  1.7265 -1.6684
 6511SOL    HW231167   3.724   0.648   2.452  0.5108  0.7065 -0.8910
 6512SOL     OW31168   2.001   3.879   6.856 -0.1080  0.2203  0.2853
 6512SOL    HW131169   1.981   3.853   6.946 -0.4464  1.1651  0.4808
 6512SOL    HW231170   2.093   3.853   6.849 -0.0659 -0.1343  2.1597
 6513SOL     OW31171   3.166   3.307   6.322  0.9238  0.0195 -0.2813
 6513SOL    HW131172   3.127   3.282   6.405 -0.0765  0.1641 -0.7092
 6513SOL    HW231173   3.079   3.322   6.284  0.9172 -0.5548 -0.4861
 6514SOL     OW31174   3.202   3.804  11.897 -0.3621  0.1955  0.2183
 6514SOL    HW131175   3.227   3.881  11.846 -0.5447  0.0821 -0.0375
 6514SOL    HW231176   3.240   3.748  11.828 -1.3471  0.1388 -0.2716
 6515SOL     OW31177   1.553   2.401  16.666 -0.5277  0.2034 -0.2263
 6515SOL    HW131178   1.593   2.322  16.704 -1.2186  0.2668  0.6336
 6515SOL    HW231179   1.475   2.407  16.721 -0.5750  0.4054 -0.3161
 6516SOL     OW31180   4.336   3.756  13.598 -0.8217  0.1086 -0.0224
 6516SOL    HW131181   4.247   3.789  13.585 -1.1514 -0.7126  0.1346
 6516SOL    HW231182   4.379   3.830  13.554 -1.0915  0.2615 -0.0311
 6517SOL     OW31183   3.476   0.499  15.614  0.5090 -0.3294  0.5592
 6517SOL    HW131184   3.522   0.420  15.643  1.0667 -1.5000 -3.4655
 6517SOL    HW231185   3.547   0.564  15.614  1.4755 -1.3507 -3.5273
 6518SOL     OW31186   2.403   0.652   8.784 -0.0880 -0.2454 -0.2163
 6518SOL    HW131187   2.323   0.705   8.781  0.4712  0.6916  1.5601
 6518SOL    HW231188   2.365   0.568   8.809 -1.2080  0.4579  0.4518
 6519SOL     OW31189   2.745   1.612  16.767 -0.2093  0.3898  0.3793
 6519SOL    HW131190   2.734   1.699  16.730 -2.0071 -0.1392 -0.3195
 6519SOL    HW231191   2.832   1.601  16.727 -0.1673 -1.9602  1.0961
 6520SOL     OW31192   2.593   3.884   2.895 -0.0655  0.3774 -0.1310
 6520SOL    HW131193   2.553   3.810   2.941  0.8546 -1.1626 -1.8308
 6520SOL    HW231194   2.674   3.852   2.857  0.1696  0.0601  0.6340
 6521SOL     OW31195   1.742   4.424   5.381 -0.7035  0.3526  0.2690
 6521SOL    HW131196   1.810   4.488   5.360 -0.2375  0.0960  0.9895
 6521SOL    HW231197   1.736   4.438   5.476 -0.6637 -0.2773  0.3636
 6522SOL     OW31198   3.359   3.163   4.836  0.0083 -0.1808  0.1020
 6522SOL    HW131199   3.374   3.083   4.785  1.0861  2.0603 -3.0620
 6522SOL    HW231200   3.321   3.215   4.766 -0.4109 -0.1293  0.3687
 6523SOL     OW31201   0.472   3.311   6.181 -0.0504 -0.1474  0.5862
 6523SOL    HW131202   0.551   3.270   6.215 -1.7327 -3.0784  0.9794
 6523SOL    HW231203   0.474   3.393   6.229 -1.7466  0.0425  0.3348
 6524SOL     OW31204   2.219   2.950   3.174  0.7755  0.6636  0.1024
 6524SOL    HW131205   2.143   2.895   3.153  0.4591  1.5079 -0.9766
 6524SOL    HW231206   2.269   2.879   3.214  1.9023  0.3409 -1.8972
 6525SOL     OW31207   0.861   4.299   3.134  0.0165  0.7363  0.1474
 6525SOL    HW131208   0.925   4.256   3.191  2.5899  0.6182 -2.8514
 6525SOL    HW231209   0.786   4.239   3.138  0.1084  0.6656  0.9107
 6526SOL     OW31210   0.880   0.643   9.255  0.3286  0.2889 -0.1527
 6526SOL    HW131211   0.967   0.682   9.261 -0.1228  1.0669  1.4946
 6526SOL    HW231212   0.842   0.668   9.340  0.7468  1.1096 -0.2156
 6527SOL     OW31213   1.700   1.977   7.929 -0.3272  0.0539 -0.3012
 6527SOL    HW131214   1.748   2.057   7.908 -0.7951 -0.1182 -1.9771
 6527SOL    HW231215   1.615   2.011   7.955 -1.1050 -1.9450 -0.1957
 6528SOL     OW31216   0.980   1.654   5.458  0.2151  0.3914  0.1051
 6528SOL    HW131217   0.917   1.638   5.528  0.9586 -1.8642  0.2289
 6528SOL    HW231218   1.035   1.576   5.461 -1.4088 -0.6986  1.2530
 6529SOL     OW31219   2.182   1.164   7.438  0.3191 -0.0959 -0.0277
 6529SOL    HW131220   2.271   1.175   7.470 -0.5303  1.7302  1.7212
 6529SOL    HW231221   2.149   1.213   7.513  2.8193  0.5812  0.5991
 6530SOL     OW31222   3.969   1.611   9.002 -0.1896 -0.2005 -0.6994
 6530SOL    HW131223   3.951   1.563   9.083  1.1142  0.2373 -0.1510
 6530SOL    HW231224   3.886   1.660   9.002 -0.3255 -0.4414 -1.7984
 6531SOL     OW31225   3.237   2.169   0.563 -0.0047  1.3286 -0.3213
 6531SOL    HW131226   3.141   2.171   0.557 -0.1138 -3.3022 -0.3219
 6531SOL    HW231227   3.249   2.243   0.622  0.3458  0.5118  0.6342
 6532SOL     OW31228   2.052   0.325   9.494  0.1553 -0.0545  0.1237
 6532SOL    HW131229   2.141   0.290   9.491  0.1385 -0.0429 -0.3966
 6532SOL    HW231230   2.065   0.419   9.481 -3.0624  0.3979  0.1400
 6533SOL     OW31231   1.642   4.547   8.472  0.0327  0.3282 -0.5462
 6533SOL    HW131232   1.633   4.628   8.522  0.4921 -0.4765  0.8380
 6533SOL    HW231233   1.725   4.572   8.432  0.6046 -1.1068 -0.2657
 6534SOL     OW31234   1.550   0.129   3.101 -0.5964  0.1474 -0.3173
 6534SOL    HW131235   1.548   0.054   3.041 -0.2089 -1.2534  1.4144
 6534SOL    HW231236   1.643   0.143   3.119  0.1335 -1.8858 -2.4938
 6535SOL     OW31237   2.289   3.764   6.353 -0.3562  0.4239 -0.4891
 6535SOL    HW131238   2.254   3.853   6.349  0.1545  0.7168  1.3337
 6535SOL    HW231239   2.342   3.759   6.273  0.0891  0.5504 -0.2018
 6536SOL     OW31240   3.073   0.323  14.888  0.0746  0.0908 -0.3284
 6536SOL    HW131241   3.099   0.248  14.835  1.7592 -0.4476  1.2816
 6536SOL    HW231242   3.054   0.383  14.816  2.6970  0.9990 -0.2384
 6537SOL     OW31243   1.989   1.223  11.332 -0.1411 -0.7564  0.1043
 6537SOL    HW131244   2.050   1.162  11.374 -0.6578 -2.1931 -1.2438
 6537SOL    HW231245   2.050   1.291  11.301  2.4906 -3.1209  0.1280
 6538SOL     OW31246   2.981   2.828   0.723 -0.1583 -0.5080  0.2267
 6538SOL    HW131247   3.031   2.789   0.795  1.2486  1.5151  0.3673
 6538SOL    HW231248   2.896   2.788   0.737  0.0531 -0.0839  2.7122
 6539SOL     OW31249   0.371   2.892   4.845 -0.0314 -0.2588 -0.0342
 6539SOL    HW131250   0.386   2.799   4.834 -0.3592 -0.4325  1.0454
 6539SOL    HW231251   0.329   2.920   4.763 -0.4758 -1.8432 -0.3408
 6540SOL     OW31252   4.522   4.154  14.772 -0.3610 -0.1381  0.6383
 6540SOL    HW131253   4.475   4.211  14.833  0.1510  0.6767  0.2635
 6540SOL    HW231254   4.586   4.215  14.736 -0.6882 -0.7209 -0.9688
 6541SOL     OW31255   4.083   1.555   5.954  0.1905  0.2948  0.5360
 6541SOL    HW131256   4.042   1.640   5.971  1.3326  1.0955 -0.7457
 6541SOL    HW231257   4.019   1.487   5.974 -1.3907  2.2221  2.0739
 6542SOL     OW31258   0.655   2.903   8.543  0.6432 -0.0830  0.2879
 6542SOL    HW131259   0.730   2.910   8.602  0.6522  4.0679 -0.1906
 6542SOL    HW231260   0.702   2.889   8.460 -1.3539  0.3255 -0.9262
 6543SOL     OW31261   2.910   3.821  14.811  0.2133 -0.6965 -0.0030
 6543SOL    HW131262   2.938   3.779  14.730  0.2386  3.5168 -2.1719
 6543SOL    HW231263   2.966   3.898  14.819  0.4455 -0.8425 -0.2458
 6544SOL     OW31264   4.214   1.256  14.720 -0.5341  0.5406  0.2532
 6544SOL    HW131265   4.135   1.203  14.704  0.1518 -0.5917  0.5841
 6544SOL    HW231266   4.274   1.208  14.663  1.5951  0.0115  2.9292
 6545SOL     OW31267   3.672   1.611  13.525 -0.7249  0.5194 -0.0709
 6545SOL    HW131268   3.670   1.598  13.430  0.7834 -0.8514  0.0794
 6545SOL    HW231269   3.658   1.523  13.560 -0.3437  0.5562  0.1764
 6546SOL     OW31270   0.245   1.555   2.390  0.1595 -0.0255  0.2121
 6546SOL    HW131271   0.169   1.596   2.431  1.3811  2.9338 -0.4446
 6546SOL    HW231272   0.248   1.614   2.315 -0.9576 -0.0743  0.1270
 6547SOL     OW31273   0.406   0.604   8.655 -0.1080  0.1384 -0.5155
 6547SOL    HW131274   0.388   0.661   8.579 -5.5269 -1.5450 -0.4884
 6547SOL    HW231275   0.355   0.649   8.722  0.5421  0.1740 -0.0498
 6548SOL     OW31276   2.650   1.781   4.255 -0.2716  0.0611  0.3076
 6548SOL    HW131277   2.671   1.707   4.198 -1.9983  0.8634 -1.3664
 6548SOL    HW231278   2.671   1.739   4.338  0.7747  0.1221  0.0714
 6549SOL     OW31279   3.260   3.868   3.921  0.2657 -0.0615  0.1042
 6549SOL    HW131280   3.226   3.834   4.004  1.1500  0.9177  0.8574
 6549SOL    HW231281   3.223   3.955   3.914  2.1521  0.6911 -0.6407
 6550SOL     OW31282   1.693   2.516   9.463 -0.0111  0.3405  0.2471
 6550SOL    HW131283   1.748   2.591   9.486 -0.4532  0.1029  2.0552
 6550SOL    HW231284   1.626   2.557   9.407 -0.3878  1.1080  1.2643
 6551SOL     OW31285   2.409   2.695  15.448  0.3774  0.1517  0.4449
 6551SOL    HW131286   2.331   2.746  15.470 -1.4619 -3.5499  2.4448
 6551SOL    HW231287   2.394   2.688  15.354 -0.6411  0.9137  0.5503
 6552SOL     OW31288   1.262   3.978   3.642  0.0599  0.3854  0.4246
 6552SOL    HW131289   1.189   3.959   3.701 -0.0526  0.6511  0.3732
 6552SOL    HW231290   1.250   4.073   3.643  0.4273  0.4329  0.1188
 6553SOL     OW31291   1.784   1.106  16.021  0.6263 -0.1602 -0.5901
 6553SOL    HW131292   1.874   1.119  15.991  0.7262 -1.0148 -0.6584
 6553SOL    HW231293   1.800   1.074  16.110  3.3524  0.4567 -0.8535
 6554SOL     OW31294   0.276   1.242   8.518  0.5818  0.0932  0.4485
 6554SOL    HW131295   0.218   1.179   8.560 -0.3475  0.7693  0.1752
 6554SOL    HW231296   0.285   1.199   8.432  1.2706 -0.7105  0.9155
 6555SOL     OW31297   0.948   1.452   4.131 -0.0187  0.2960 -0.3794
 6555SOL    HW131298   0.932   1.464   4.037 -1.0899  0.3579 -0.1906
 6555SOL    HW231299   0.906   1.529   4.168  1.3240  0.7997  0.1076
 6556SOL     OW31300   3.876   3.471   0.548 -0.1144 -0.0954 -0.0271
 6556SOL    HW131301   3.865   3.434   0.461  1.4767  0.2825 -0.3835
 6556SOL    HW231302   3.895   3.560   0.520 -2.5996  0.6628  0.6888
 6557SOL     OW31303   4.353   0.294   3.400 -0.5233 -0.2467 -0.3414
 6557SOL    HW131304   4.437   0.314   3.358  0.1247  1.2743  1.6752
 6557SOL    HW231305   4.386   0.247   3.476  0.3560 -1.6027 -1.5694
 6558SOL     OW31306   4.139   2.176   9.710 -0.4793 -0.0655 -0.1530
 6558SOL    HW131307   4.061   2.127   9.683  0.3171 -0.6608 -1.3766
 6558SOL    HW231308   4.206   2.108   9.701  0.0088  0.4786 -0.6008
 6559SOL     OW31309   2.171   1.761  16.151 -0.0605 -1.0266 -0.3594
 6559SOL    HW131310   2.218   1.807  16.221 -0.3868  0.1216 -0.8897
 6559SOL    HW231311   2.090   1.811  16.141 -0.9539 -1.9472  2.3459
 6560SOL     OW31312   3.555   3.800   7.506  0.1612  0.0096  0.3420
 6560SOL    HW131313   3.607   3.720   7.508  0.4192  0.1502 -0.7391
 6560SOL    HW231314   3.568   3.827   7.415 -0.2635 -1.1978 -0.0758
 6561SOL     OW31315   3.648   2.315   0.902 -0.4044  0.4907 -0.2060
 6561SOL    HW131316   3.686   2.237   0.861  1.0549  0.8194  0.5241
 6561SOL    HW231317   3.620   2.358   0.821  0.2232  0.0410 -0.6705
 6562SOL     OW31318   2.529   1.158  14.014  0.3629  0.2025  0.4578
 6562SOL    HW131319   2.512   1.090  14.078 -0.6799  1.7179  1.7898
 6562SOL    HW231320   2.503   1.115  13.933  1.6660 -0.1796  0.2336
 6563SOL     OW31321   2.796   0.519   9.525 -0.0306  0.0991  0.4406
 6563SOL    HW131322   2.751   0.593   9.485 -2.8338 -2.9294 -2.0273
 6563SOL    HW231323   2.843   0.480   9.451 -2.4153  0.2922 -1.1995
 6564SOL     OW31324   3.513   4.561  16.032 -0.2584 -0.0429 -0.0519
 6564SOL    HW131325   3.526   4.468  16.052 -1.9779 -0.0856  0.8387
 6564SOL    HW231326   3.591   4.601  16.071  0.0502  0.1391 -0.8446
 6565SOL     OW31327   0.571   1.105  15.540  0.1792 -0.4784  0.2331
 6565SOL    HW131328   0.613   1.025  15.509  1.2885 -1.1084  3.3294
 6565SOL    HW231329   0.490   1.111  15.489  0.1794 -3.1785 -0.0412
 6566SOL     OW31330   2.414   1.998   6.834  0.4272  0.5350  0.1348
 6566SOL    HW131331   2.451   2.078   6.795  1.8580 -0.0591  0.2746
 6566SOL    HW231332   2.363   2.026   6.911 -1.6561  0.6516 -1.3019
 6567SOL     OW31333   4.041   4.373   6.063 -0.2370  0.0713 -0.5654
 6567SOL    HW131334   4.133   4.400   6.070 -0.0036 -0.4941 -1.4669
 6567SOL    HW231335   4.051   4.278   6.052 -0.3806  0.0071 -0.1318
 6568SOL     OW31336   0.489   0.393   4.764  0.8196  0.2509  0.0094
 6568SOL    HW131337   0.412   0.411   4.817  1.5132  0.2727  0.9969
 6568SOL    HW231338   0.529   0.480   4.766  1.6232 -0.1350  1.0076
 6569SOL     OW31339   0.582   0.459  16.736  0.4181  0.5649 -0.5791
 6569SOL    HW131340   0.677   0.472  16.736  0.3194  1.3096 -0.0104
 6569SOL    HW231341   0.565   0.438  16.828  1.5034 -1.0071 -0.7310
 6570SOL     OW31342   2.466   0.907   8.090  0.6867  0.2245 -0.2024
 6570SOL    HW131343   2.427   0.884   8.006  1.9664 -0.0233 -0.7154
 6570SOL    HW231344   2.386   0.912   8.143  0.6977  1.4553 -0.2912
 6571SOL     OW31345   2.492   3.905   4.752 -0.3784 -0.6872  0.5068
 6571SOL    HW131346   2.428   3.897   4.823  2.5241  0.4041  3.2335
 6571SOL    HW231347   2.556   3.838   4.775 -1.2562 -0.7310  2.8206
 6572SOL     OW31348   3.899   0.871  10.527  0.4826 -0.1100 -0.0174
 6572SOL    HW131349   3.928   0.824  10.449  0.4478 -1.5517  0.8386
 6572SOL    HW231350   3.879   0.960  10.497  3.2591 -0.1588 -1.9534
 6573SOL     OW31351   2.632   2.670   5.532 -0.3355 -0.0731 -0.1588
 6573SOL    HW131352   2.636   2.614   5.454 -2.1304 -3.2230  1.9844
 6573SOL    HW231353   2.577   2.740   5.498 -1.3282 -1.5278 -1.5628
 6574SOL     OW31354   3.273   3.004  10.907  0.0068  0.0655 -0.0330
 6574SOL    HW131355   3.209   2.957  10.961 -1.0509 -1.7817 -2.9260
 6574SOL    HW231356   3.273   2.946  10.831  0.9058 -1.2265  0.9518
 6575SOL     OW31357   3.022   4.376   2.813 -0.8401 -0.1720 -0.2036
 6575SOL    HW131358   3.076   4.358   2.891  1.8325 -1.1198 -2.2779
 6575SOL    HW231359   3.017   4.472   2.808  0.7497 -0.2452 -3.3522
 6576SOL     OW31360   4.622   0.977   7.027  0.4561  0.1729 -0.1130
 6576SOL    HW131361   4.531   1.008   7.034  1.1143  2.1649 -0.4220
 6576SOL    HW231362   4.650   1.020   6.946  1.4174 -0.6523 -0.2056
 6577SOL     OW31363   3.129   3.553   4.987 -0.6044 -0.0998  0.8111
 6577SOL    HW131364   3.216   3.588   4.966 -1.2150 -0.3005 -2.0702
 6577SOL    HW231365   3.129   3.580   5.079  0.0899 -0.9544  1.0669
 6578SOL     OW31366   2.838   1.211   7.736 -0.8796 -0.2105 -0.1318
 6578SOL    HW131367   2.879   1.212   7.823  1.4115 -2.9291 -1.1731
 6578SOL    HW231368   2.743   1.225   7.744 -0.6620  1.1199  0.1917
 6579SOL     OW31369   0.593   4.718   9.457  0.1807  0.3242  0.3305
 6579SOL    HW131370   0.553   4.681   9.378  0.5872  0.0234  0.2643
 6579SOL    HW231371   0.605   0.075   9.441  2.6741  0.1893  1.4292
 6580SOL     OW31372   0.382   3.485   5.163  0.3553  0.1000 -0.0649
 6580SOL    HW131373   0.459   3.440   5.127 -0.5205 -0.8176 -0.8054
 6580SOL    HW231374   0.402   3.512   5.252 -0.5822 -2.4945  0.9329
 6581SOL     OW31375   2.912   0.670  13.414 -0.0173 -0.0490  0.2010
 6581SOL    HW131376   2.960   0.606  13.467  0.4580  0.2417  0.1203
 6581SOL    HW231377   2.848   0.614  13.370  0.6111 -0.3079 -0.3889
 6582SOL     OW31378   0.815   2.507   0.861 -0.2736  0.5760 -0.0990
 6582SOL    HW131379   0.808   2.438   0.795  1.0268  0.4773 -0.1320
 6582SOL    HW231380   0.727   2.544   0.853 -0.2355  1.1488  2.2468
 6583SOL     OW31381   3.880   4.666   1.668 -0.1786  0.2626  0.0976
 6583SOL    HW131382   3.825   4.681   1.591 -0.3809 -0.0578  0.1792
 6583SOL    HW231383   3.913   4.577   1.658 -1.4373 -0.3686  1.4771
 6584SOL     OW31384   2.446   1.806   1.552  0.2032  0.4652  0.1346
 6584SOL    HW131385   2.445   1.766   1.639  0.2302  0.3534  0.0832
 6584SOL    HW231386   2.507   1.748   1.506  1.3760  1.3861  0.5237
 6585SOL     OW31387   0.768   1.775   5.353  0.3114 -0.6310 -0.2669
 6585SOL    HW131388   0.791   1.753   5.262  1.8747 -1.7276  0.4168
 6585SOL    HW231389   0.846   1.739   5.394 -0.3346 -2.2192 -0.4078
 6586SOL     OW31390   1.239   3.767   7.844 -0.3788  0.8103  0.2178
 6586SOL    HW131391   1.154   3.730   7.821  1.4941 -1.9401 -2.3209
 6586SOL    HW231392   1.268   3.799   7.759  0.2811 -0.3510  0.0159
 6587SOL     OW31393   0.441   4.714   8.680  0.0302  0.4520  0.1717
 6587SOL    HW131394   0.479   0.058   8.647  1.6813 -0.8735 -1.1683
 6587SOL    HW231395   0.375   4.705   8.610  0.7914  1.0077 -0.6166
 6588SOL     OW31396   0.328   3.243   4.148  0.0302 -0.3215  0.1327
 6588SOL    HW131397   0.340   3.328   4.107 -0.1775  0.3173  1.4232
 6588SOL    HW231398   0.292   3.196   4.072 -0.4866  0.3388 -0.0352
 6589SOL     OW31399   1.653   0.649   7.984  0.2099  0.5141  0.1382
 6589SOL    HW131400   1.674   0.715   8.051 -0.5451 -0.1963  1.0814
 6589SOL    HW231401   1.678   0.568   8.029 -1.8354  0.7582  1.6849
 6590SOL     OW31402   4.323   0.335   3.012 -0.0956 -0.3650 -0.4292
 6590SOL    HW131403   4.399   0.280   3.032 -0.8632 -1.6451 -0.9548
 6590SOL    HW231404   4.365   0.420   3.025 -3.1043  1.0818 -0.1323
 6591SOL     OW31405   2.461   0.376  17.652  0.3152  0.0537 -0.1510
 6591SOL    HW131406   2.545   0.364  17.698  0.1345  2.3666  0.7910
 6591SOL    HW231407   2.418   0.433  17.715 -0.5139 -0.1051 -0.5807
 6592SOL     OW31408   0.055   4.241   9.151  0.0394  0.1277 -0.1635
 6592SOL    HW131409   0.050   4.330   9.184  3.5221 -1.3407  4.3263
 6592SOL    HW231410   4.709   4.215   9.191  0.0280  1.0008  0.3817
 6593SOL     OW31411   0.589   0.933   2.949 -0.1736 -0.7654  0.0591
 6593SOL    HW131412   0.561   1.022   2.928  1.6018 -0.3020 -0.3005
 6593SOL    HW231413   0.632   0.919   2.865 -1.6786 -1.8028 -0.5582
 6594SOL     OW31414   3.420   1.734   7.965  0.3731  0.9947 -0.1806
 6594SOL    HW131415   3.380   1.766   8.046  0.2134 -4.2379  1.8167
 6594SOL    HW231416   3.389   1.806   7.910 -0.9948 -0.6103 -1.4618
 6595SOL     OW31417   1.857   0.805   5.716 -0.8504  0.0924 -0.0037
 6595SOL    HW131418   1.772   0.820   5.757 -0.8834  2.0808 -0.8195
 6595SOL    HW231419   1.903   0.886   5.737  0.3572 -1.3598  3.0577
 6596SOL     OW31420   2.292   2.490   7.675 -0.2205 -0.4043  0.0151
 6596SOL    HW131421   2.294   2.418   7.738 -1.0296 -0.1278  0.3571
 6596SOL    HW231422   2.279   2.443   7.593 -0.0770  1.1726 -0.9121
 6597SOL     OW31423   0.926   3.115   8.073  0.0705  0.3970 -0.0812
 6597SOL    HW131424   0.899   3.198   8.035  0.6051  0.3911 -0.4782
 6597SOL    HW231425   0.856   3.105   8.138  1.6738 -1.4488  1.3782
 6598SOL     OW31426   2.406   3.611  12.547 -0.0483 -0.1206 -0.3558
 6598SOL    HW131427   2.478   3.600  12.609  2.1173  0.5210 -2.7436
 6598SOL    HW231428   2.418   3.528  12.500  2.2764 -0.3752  0.6894
 6599SOL     OW31429   0.162   0.159   5.938 -0.3771  0.0324 -0.3155
 6599SOL    HW131430   0.106   0.172   5.862 -0.3791 -3.3106 -0.9050
 6599SOL    HW231431   0.093   0.139   6.000  0.2231  0.8973  0.6209
 6600SOL     OW31432   1.039   0.454   2.348 -0.1295  0.5244 -0.5407
 6600SOL    HW131433   1.099   0.527   2.364 -2.1372  2.2704 -0.7696
 6600SOL    HW231434   1.100   0.393   2.307 -0.7166  0.3781 -1.2067
 6601SOL     OW31435   2.027   1.344   0.257  0.2226  0.0011 -0.2294
 6601SOL    HW131436   1.947   1.378   0.219  0.1215 -0.2672 -0.2584
 6601SOL    HW231437   1.994   1.359   0.345  0.8537 -1.5420  0.2769
 6602SOL     OW31438   2.354   2.696  10.697 -0.6568  0.0982  0.0464
 6602SOL    HW131439   2.316   2.784  10.700  1.0431  0.8716 -1.0174
 6602SOL    HW231440   2.363   2.671  10.789 -1.6851 -1.0385 -0.1598
 6603SOL     OW31441   1.621   3.096  12.330  0.4367  0.1858  0.2434
 6603SOL    HW131442   1.700   3.044  12.314 -0.0201 -0.6307  0.7061
 6603SOL    HW231443   1.596   3.074  12.419  2.3156  0.6063  0.8714
 6604SOL     OW31444   0.264   1.999   1.079  0.1314  0.3413  0.0654
 6604SOL    HW131445   0.312   1.926   1.119  0.2010  0.6981  0.6367
 6604SOL    HW231446   0.199   1.946   1.034 -1.1956  1.2339  0.9308
 6605SOL     OW31447   2.083   0.043   1.538 -0.3461 -0.0052 -0.2485
 6605SOL    HW131448   2.135   0.051   1.458 -0.1874 -0.7540 -0.2230
 6605SOL    HW231449   2.086   4.685   1.557 -0.9311 -0.5047 -2.6314
 6606SOL     OW31450   2.856   1.954   5.175  0.2646  0.0102  0.5975
 6606SOL    HW131451   2.890   1.937   5.263 -0.9716  0.6694  1.1883
 6606SOL    HW231452   2.840   1.871   5.130 -0.4435 -0.0562  0.9665
 6607SOL     OW31453   2.215   3.702   9.561  0.4363 -0.1949 -0.2238
 6607SOL    HW131454   2.214   3.713   9.656  0.1686  0.2609 -0.2830
 6607SOL    HW231455   2.299   3.655   9.559  0.8217  0.5998 -2.4125
 6608SOL     OW31456   4.108   1.888   3.701  0.1359 -0.0448  0.1892
 6608SOL    HW131457   4.025   1.844   3.720 -0.0415  0.2044 -0.0122
 6608SOL    HW231458   4.155   1.818   3.655  2.8984  1.7259  0.3057
 6609SOL     OW31459   3.248   2.657   7.954  0.2986  0.6326  0.0879
 6609SOL    HW131460   3.224   2.718   8.024 -1.4005  0.3001 -0.2040
 6609SOL    HW231461   3.332   2.693   7.926  0.1391  1.8388  1.1513
 6610SOL     OW31462   0.641   3.221   6.369 -0.0300  0.3741 -0.1414
 6610SOL    HW131463   0.621   3.281   6.441  1.6792 -0.5587  1.0971
 6610SOL    HW231464   0.737   3.222   6.372  0.0564 -3.2124 -1.6724
 6611SOL     OW31465   4.015   1.627   9.618  0.9371  0.0551 -0.2351
 6611SOL    HW131466   3.956   1.669   9.556 -0.0192 -0.0253  0.6245
 6611SOL    HW231467   3.967   1.548   9.641  0.9049  0.1295 -0.0374
 6612SOL     OW31468   2.205   1.860   4.218 -0.5804 -0.5222  0.6035
 6612SOL    HW131469   2.288   1.840   4.174 -0.2134  0.9178  0.6285
 6612SOL    HW231470   2.182   1.929   4.156 -0.1680  0.6903  1.7890
 6613SOL     OW31471   2.503   3.910   7.447 -0.3233 -0.2712 -0.6257
 6613SOL    HW131472   2.427   3.899   7.505 -1.2525  1.0623 -1.6012
 6613SOL    HW231473   2.457   3.944   7.370 -0.0237 -1.1417 -1.1886
 6614SOL     OW31474   3.108   4.490   6.025  0.0402  0.4169  0.4933
 6614SOL    HW131475   3.036   4.552   6.027  0.7707  1.3129 -0.7915
 6614SOL    HW231476   3.143   4.497   5.936  0.8889 -0.9588  0.7062
 6615SOL     OW31477   2.467   3.469   6.877  0.2941 -0.1743 -0.2715
 6615SOL    HW131478   2.548   3.429   6.907  0.2802 -0.2739 -0.3687
 6615SOL    HW231479   2.401   3.427   6.931  0.3737 -0.7014 -0.5827
 6616SOL     OW31480   3.006   0.985   4.219  0.3611  0.1630  0.5195
 6616SOL    HW131481   2.985   0.972   4.311  1.4232 -0.2915  0.7019
 6616SOL    HW231482   2.933   0.945   4.172  0.2933 -0.0043  0.7687
 6617SOL     OW31483   2.217   4.420   6.113 -0.0421 -0.3577 -0.1580
 6617SOL    HW131484   2.132   4.464   6.111 -0.1826 -0.6786 -1.3893
 6617SOL    HW231485   2.258   4.462   6.037 -0.9914  1.4857  0.3482
 6618SOL     OW31486   3.939   1.891   3.980 -0.0012 -0.3586  0.2278
 6618SOL    HW131487   3.912   1.865   3.892 -0.5425  0.8604  0.0266
 6618SOL    HW231488   3.936   1.986   3.972  3.5507 -0.3539 -1.1036
 6619SOL     OW31489   3.320   1.234   1.046 -0.0802 -0.2312 -0.1130
 6619SOL    HW131490   3.390   1.233   0.980 -0.3707  1.6213 -0.4719
 6619SOL    HW231491   3.370   1.284   1.110  0.3533  0.2059 -0.7843
 6620SOL     OW31492   1.146   3.963  11.302 -1.0700 -0.7146 -0.3290
 6620SOL    HW131493   1.164   3.917  11.384 -0.8898  1.0042  0.6033
 6620SOL    HW231494   1.124   3.889  11.247 -0.5731 -0.5665 -0.7299
 6621SOL     OW31495   3.231   0.654  12.036 -0.5106 -0.4431  0.2456
 6621SOL    HW131496   3.293   0.682  11.969 -1.3205 -1.4493 -0.9254
 6621SOL    HW231497   3.258   0.563  12.047 -0.5629 -0.9028 -3.5142
 6622SOL     OW31498   3.646   4.725   6.625 -0.3207 -0.2705  0.4399
 6622SOL    HW131499   3.734   0.014   6.597 -1.1832 -1.1166 -2.9968
 6622SOL    HW231500   3.632   4.664   6.553 -1.9348 -0.2391  0.7281
 6623SOL     OW31501   3.702   4.696   3.144  0.5836 -0.8140 -0.1638
 6623SOL    HW131502   3.700   4.660   3.055  1.0890  0.7350 -0.8015
 6623SOL    HW231503   3.704   4.615   3.195 -0.1053  0.5816  2.0932
 6624SOL     OW31504   3.721   4.285  11.795  0.8090  0.5558 -0.0491
 6624SOL    HW131505   3.765   4.223  11.738 -0.8584 -1.9541  1.4231
 6624SOL    HW231506   3.694   4.349  11.728 -0.7996 -1.5373 -1.3826
 6625SOL     OW31507   3.131   3.773  11.484  0.0352 -0.0171  0.5177
 6625SOL    HW131508   3.121   3.681  11.509  1.0218 -0.7137 -1.6133
 6625SOL    HW231509   3.122   3.771  11.389  0.2909  0.6283  0.4790
 6626SOL     OW31510   3.754   0.022  14.639  0.4717  0.4923 -0.0287
 6626SOL    HW131511   3.659   0.010  14.633  0.2361  2.1475  0.4559
 6626SOL    HW231512   3.782   4.692  14.576 -1.2817 -1.5647  1.3599
 6627SOL     OW31513   1.662   4.172   1.997  0.0505  0.1247  0.6518
 6627SOL    HW131514   1.644   4.215   2.082 -0.0987  0.0863  0.6408
 6627SOL    HW231515   1.600   4.099   2.005 -0.6656  0.4987 -1.5543
 6628SOL     OW31516   2.334   3.082  15.364  0.4809  0.1444 -0.1941
 6628SOL    HW131517   2.344   3.097  15.270 -0.5496  3.2984  0.1889
 6628SOL    HW231518   2.328   3.171  15.401  1.5501  0.7343 -1.4625
 6629SOL     OW31519   2.067   4.689   3.875 -0.1240 -0.2164  0.2691
 6629SOL    HW131520   1.997   4.732   3.827  2.2037  0.3340 -2.6244
 6629SOL    HW231521   2.083   4.611   3.823 -1.6765  1.7814 -3.2127
 6630SOL     OW31522   2.167   0.379   2.668 -0.2998  0.1943 -0.2880
 6630SOL    HW131523   2.072   0.378   2.676 -0.3527 -0.3732 -0.9988
 6630SOL    HW231524   2.187   0.297   2.624  0.7846  0.9887 -1.3036
 6631SOL     OW31525   2.145   1.145   6.080 -0.2974 -0.2175 -0.0352
 6631SOL    HW131526   2.107   1.226   6.114  0.9173 -0.2874  1.4929
 6631SOL    HW231527   2.201   1.180   6.010 -1.3140  1.4949  0.0016
 6632SOL     OW31528   0.677   2.911  13.888 -0.6491  0.1603  0.0656
 6632SOL    HW131529   0.739   2.932  13.819  1.1861 -2.1275  1.0050
 6632SOL    HW231530   0.690   2.990  13.940 -0.8523  0.0996  0.2091
 6633SOL     OW31531   3.591   2.767   3.450 -0.9520 -0.5293  0.1021
 6633SOL    HW131532   3.559   2.838   3.505  0.4488  0.5307 -0.4423
 6633SOL    HW231533   3.683   2.780   3.474 -0.6942  0.5470 -1.4696
 6634SOL     OW31534   4.188   0.488   3.533  0.7676 -0.1324 -0.5990
 6634SOL    HW131535   4.215   0.417   3.475 -0.5052 -1.3528  0.3138
 6634SOL    HW231536   4.132   0.541   3.477  2.8671  1.6574 -1.0117
 6635SOL     OW31537   3.937   2.999   7.004  0.4424  1.2893 -0.2180
 6635SOL    HW131538   3.906   2.946   7.077  2.4114  0.7979  0.2580
 6635SOL    HW231539   4.004   3.045   7.053  1.0079  1.8870 -1.5626
 6636SOL     OW31540   1.350   1.635   2.949 -0.0658  0.3092 -0.0574
 6636SOL    HW131541   1.335   1.700   3.017 -0.6059  0.2308 -0.0955
 6636SOL    HW231542   1.266   1.632   2.903  0.1676  2.7782 -0.6501
 6637SOL     OW31543   0.896   3.773  13.480  0.0080  0.2577 -0.2197
 6637SOL    HW131544   0.930   3.861  13.473 -0.5597  0.4202 -1.0277
 6637SOL    HW231545   0.840   3.785  13.557 -0.9605  0.5300 -0.9548
 6638SOL     OW31546   3.568   3.177   4.411 -0.1144  0.3433 -0.0894
 6638SOL    HW131547   3.498   3.190   4.347 -0.8730  1.4719  0.9659
 6638SOL    HW231548   3.620   3.257   4.400 -1.2676  1.2732  1.1239
 6639SOL     OW31549   3.323   4.389   6.755  0.2975  0.3936 -0.2725
 6639SOL    HW131550   3.393   4.331   6.783 -0.5740 -0.3884  0.2987
 6639SOL    HW231551   3.251   4.328   6.774 -0.9449  2.3281  1.1980
 6640SOL     OW31552   3.914   4.451   2.836  0.0707 -0.1132  0.0640
 6640SOL    HW131553   4.005   4.450   2.865  0.5313 -2.8995 -1.5255
 6640SOL    HW231554   3.910   4.387   2.765  1.2690  0.4904 -0.5447
 6641SOL     OW31555   3.393   1.359   1.789 -0.7619 -0.1429 -0.7342
 6641SOL    HW131556   3.335   1.330   1.719  1.0087  0.4860 -2.4493
 6641SOL    HW231557   3.368   1.291   1.852 -1.4179  0.0244 -0.8187
 6642SOL     OW31558   3.553   4.369   5.246 -0.2581 -0.4545  0.3504
 6642SOL    HW131559   3.537   4.424   5.323 -0.2774  1.9563 -1.3820
 6642SOL    HW231560   3.644   4.342   5.260 -0.1623  0.2539  1.0800
 6643SOL     OW31561   1.609   1.090   3.531 -0.6519 -0.1571 -0.3041
 6643SOL    HW131562   1.592   1.184   3.532  0.1050 -0.0298  1.0417
 6643SOL    HW231563   1.677   1.092   3.598 -0.7978 -0.2997 -0.1505
 6644SOL     OW31564   4.193   3.575   5.892 -0.5513 -0.5523  0.3168
 6644SOL    HW131565   4.277   3.576   5.938 -0.1767 -0.4918 -0.3592
 6644SOL    HW231566   4.237   3.544   5.813  0.2214  0.7392  0.2454
 6645SOL     OW31567   1.568   4.051   8.247  0.0965  0.6754 -0.0152
 6645SOL    HW131568   1.501   4.113   8.217 -0.5217  0.0114  0.0078
 6645SOL    HW231569   1.530   4.007   8.323  0.0869 -0.4861 -0.6932
 6646SOL     OW31570   1.819   2.376   0.600 -0.2229  0.0430 -1.1590
 6646SOL    HW131571   1.884   2.442   0.624  0.9972 -1.5469 -0.0253
 6646SOL    HW231572   1.755   2.429   0.553  0.1212  0.0581 -1.6191
 6647SOL     OW31573   2.320   3.375   9.446  0.3538 -0.4094 -0.2288
 6647SOL    HW131574   2.231   3.364   9.481  0.7148 -0.5379  0.6456
 6647SOL    HW231575   2.311   3.336   9.359 -3.0296 -0.9600  0.3414
 6648SOL     OW31576   4.429   2.382   7.600 -0.2849  0.3318  0.0030
 6648SOL    HW131577   4.514   2.423   7.583  0.7688 -0.8232  2.5737
 6648SOL    HW231578   4.381   2.463   7.583 -1.6658 -0.2097  1.3464
 6649SOL     OW31579   2.481   2.252   6.465 -0.0859  0.2386  0.5449
 6649SOL    HW131580   2.425   2.306   6.410  1.1443 -0.5337 -1.4727
 6649SOL    HW231581   2.568   2.291   6.463 -0.5472  1.1793 -0.8260
 6650SOL     OW31582   3.175   3.773  16.725  0.3030  0.3891 -0.0888
 6650SOL    HW131583   3.193   3.864  16.747 -1.1111  0.1453  2.1149
 6650SOL    HW231584   3.263   3.746  16.698  0.3735 -1.0205  1.5091
 6651SOL     OW31585   3.712   2.701   0.171  0.6728 -0.5637 -0.8320
 6651SOL    HW131586   3.711   2.795   0.154  1.8443  0.5465  5.2080
 6651SOL    HW231587   3.776   2.669   0.108  0.4093 -2.1223 -0.3242
 6652SOL     OW31588   3.699   3.436   5.838 -0.5011  0.0327 -0.2892
 6652SOL    HW131589   3.655   3.417   5.755  0.4978 -1.1252 -0.5532
 6652SOL    HW231590   3.787   3.432   5.802 -1.1927  0.8838 -2.0953
 6653SOL     OW31591   1.246   2.003   4.072  0.6205  0.1566 -0.5534
 6653SOL    HW131592   1.191   1.987   4.149  0.7772 -0.9520 -0.6707
 6653SOL    HW231593   1.300   1.924   4.063 -0.8235 -0.7061 -1.5004
 6654SOL     OW31594   4.120   4.167   8.102  0.4514 -0.0397  0.0740
 6654SOL    HW131595   4.106   4.231   8.032 -0.3929 -0.0932  0.2015
 6654SOL    HW231596   4.197   4.208   8.140 -0.1801  0.3725  0.8969
 6655SOL     OW31597   0.374   2.015   4.129  0.1880 -0.1126 -0.4564
 6655SOL    HW131598   0.340   2.078   4.066  1.0444  0.6064 -0.1996
 6655SOL    HW231599   0.453   1.989   4.080  0.5040  0.2083 -0.1114
 6656SOL     OW31600   0.689   2.719   6.542 -0.1252  0.3454 -0.3012
 6656SOL    HW131601   0.650   2.784   6.483  0.1315 -0.0957 -0.9633
 6656SOL    HW231602   0.625   2.653   6.518 -0.1857 -0.8052  3.0498
 6657SOL     OW31603   3.058   4.278  11.257  0.4650 -0.6916 -0.3208
 6657SOL    HW131604   3.076   4.321  11.174 -0.3117  0.6633  0.2123
 6657SOL    HW231605   2.973   4.319  11.273  1.0166 -0.3846  1.8201
 6658SOL     OW31606   3.735   0.780   6.903 -0.3030  0.0050  0.3042
 6658SOL    HW131607   3.726   0.684   6.901  0.3525 -0.0652  0.8764
 6658SOL    HW231608   3.826   0.788   6.874 -0.1214 -1.1257  0.5687
 6659SOL     OW31609   0.000   0.200  13.972  0.0923  0.0113  0.0498
 6659SOL    HW131610   4.716   0.253  13.894  1.0447 -2.7345 -2.0892
 6659SOL    HW231611   4.671   0.131  13.965 -1.3570  1.4299 -0.2960
 6660SOL     OW31612   1.646   2.630   3.128 -0.2409  0.2500 -0.5504
 6660SOL    HW131613   1.626   2.640   3.034  0.8110 -0.4444 -0.8423
 6660SOL    HW231614   1.559   2.606   3.161 -0.6019  0.2711 -1.4629
 6661SOL     OW31615   2.280   4.449   3.230  0.2200  0.0452  0.0042
 6661SOL    HW131616   2.338   4.512   3.274  0.9993 -0.9145  0.3388
 6661SOL    HW231617   2.334   4.413   3.160 -0.3125 -1.5366  0.4283
 6662SOL     OW31618   3.442   4.195  15.423  0.4889 -0.5968 -0.1351
 6662SOL    HW131619   3.372   4.146  15.466 -0.0692 -0.6980 -1.1713
 6662SOL    HW231620   3.486   4.226  15.502 -0.5529  1.3100 -0.3040
 6663SOL     OW31621   1.771   3.295   9.444 -0.3497 -0.9299 -0.0985
 6663SOL    HW131622   1.702   3.233   9.418 -0.5186 -0.9152  0.3128
 6663SOL    HW231623   1.774   3.266   9.535  0.4238 -0.7066 -0.0515
 6664SOL     OW31624   4.076   2.318   7.149  0.1609  0.3509  0.4686
 6664SOL    HW131625   4.044   2.232   7.120  0.5028  0.6650 -0.8174
 6664SOL    HW231626   4.079   2.311   7.244 -1.0568  1.6960  0.6096
 6665SOL     OW31627   2.841   3.414  10.892  0.0391  0.1954  0.5573
 6665SOL    HW131628   2.807   3.366  10.968 -1.3172 -0.9830 -0.8070
 6665SOL    HW231629   2.779   3.487  10.892 -1.3636 -1.0008 -2.1669
 6666SOL     OW31630   1.503   2.371   6.093  0.2593  0.5060  0.6651
 6666SOL    HW131631   1.477   2.335   6.009  0.1887  0.3379  0.7581
 6666SOL    HW231632   1.558   2.446   6.072  1.5011 -0.6511 -0.1569
 6667SOL     OW31633   1.177   0.995   2.865 -0.0214 -0.1967  0.2184
 6667SOL    HW131634   1.103   1.021   2.810 -0.4968  0.7011  1.2881
 6667SOL    HW231635   1.189   1.067   2.927 -3.3661  0.4676  0.0887
 6668SOL     OW31636   2.839   3.979   3.463  0.8863 -0.4168 -0.3794
 6668SOL    HW131637   2.784   4.052   3.492  0.0504 -1.2566  0.1494
 6668SOL    HW231638   2.837   4.005   3.371 -1.0825  2.1640  0.3821
 6669SOL     OW31639   0.230   0.031   9.420 -0.1675  0.3413  0.0387
 6669SOL    HW131640   0.168   0.062   9.486 -1.2852  1.3105 -1.4801
 6669SOL    HW231641   0.251   4.685   9.464 -0.9751 -1.1173 -2.3224
 6670SOL     OW31642   3.896   1.809   9.407  0.3271 -0.2158  0.3183
 6670SOL    HW131643   3.977   1.810   9.355  0.5732 -3.1207  0.6643
 6670SOL    HW231644   3.889   1.899   9.439  1.4655  0.2966 -0.8754
 6671SOL     OW31645   3.114   3.764  13.164 -0.1706 -0.3626  0.0510
 6671SOL    HW131646   3.046   3.825  13.136 -0.4702 -1.2270 -1.0626
 6671SOL    HW231647   3.105   3.688  13.108  1.0085  1.1730 -2.2058
 6672SOL     OW31648   2.719   4.386  12.867  0.9137  0.0247  0.0963
 6672SOL    HW131649   2.795   4.408  12.921  0.3718 -0.3724  1.0109
 6672SOL    HW231650   2.662   4.462  12.877 -1.8103 -2.1954  1.4913
 6673SOL     OW31651   2.039   4.004   4.467 -0.6464 -0.1869 -0.1188
 6673SOL    HW131652   1.951   4.025   4.498 -0.4685 -0.3881  0.5219
 6673SOL    HW231653   2.096   4.056   4.525 -1.7329  0.4459  0.3891
 6674SOL     OW31654   0.492   2.153   0.555  0.7870 -0.4711  0.1496
 6674SOL    HW131655   0.417   2.096   0.537 -0.6574  0.9291  1.7445
 6674SOL    HW231656   0.560   2.087   0.537 -0.3816 -1.9012  0.9280
 6675SOL     OW31657   3.907   0.845   0.135  0.7007  0.0581 -0.6540
 6675SOL    HW131658   3.942   0.805   0.055  0.9042 -0.2060 -0.4347
 6675SOL    HW231659   3.855   0.921   0.111 -2.9525 -2.2198  0.0473
 6676SOL     OW31660   2.302   3.066  13.106  0.6187  0.5462 -0.1178
 6676SOL    HW131661   2.265   3.151  13.085 -0.2158  0.2437  0.1601
 6676SOL    HW231662   2.323   3.072  13.199  0.2232  0.5463 -0.0299
 6677SOL     OW31663   0.404   2.148   0.905 -0.2518 -0.3015 -0.8474
 6677SOL    HW131664   0.369   2.234   0.930  0.2694 -0.6759  1.1543
 6677SOL    HW231665   0.356   2.094   0.968  0.6277 -0.0010  0.0753
 6678SOL     OW31666   3.714   0.463   3.546 -0.5984  0.0795 -0.4067
 6678SOL    HW131667   3.658   0.386   3.537 -2.3045  1.4733 -1.9443
 6678SOL    HW231668   3.697   0.509   3.463 -0.4152 -2.8770 -2.0981
 6679SOL     OW31669   3.603   0.420   8.680  0.3385 -0.3797 -0.0210
 6679SOL    HW131670   3.509   0.405   8.673  0.3249 -0.4145  0.2549
 6679SOL    HW231671   3.598   0.492   8.742  0.5249 -0.0492 -0.3894
 6680SOL     OW31672   4.680   1.036  13.129  0.8060 -0.4586  0.4099
 6680SOL    HW131673   4.668   1.105  13.194 -1.0841  0.9549 -1.4362
 6680SOL    HW231674   4.588   1.024  13.104  0.5338 -1.7712  1.9641
 6681SOL     OW31675   2.569   3.030   3.712 -0.1946 -0.0488 -0.2312
 6681SOL    HW131676   2.533   2.996   3.630 -0.3295  0.6633 -0.4612
 6681SOL    HW231677   2.559   2.955   3.771  0.2693  1.0817  1.2917
 6682SOL     OW31678   1.843   4.441   0.600 -0.2990  0.4832  0.3546
 6682SOL    HW131679   1.804   4.354   0.607  1.3486  0.0728  4.3396
 6682SOL    HW231680   1.852   4.453   0.506 -2.6635  0.5501  0.1302
 6683SOL     OW31681   3.005   3.495   7.387  0.5543 -0.2094 -0.0790
 6683SOL    HW131682   3.059   3.471   7.462 -0.3155 -0.3716  0.5008
 6683SOL    HW231683   2.930   3.536   7.430  0.0676 -1.6613  0.4297
 6684SOL     OW31684   1.215   0.745  10.679 -0.7618  0.2070 -0.6406
 6684SOL    HW131685   1.305   0.727  10.709 -0.7827 -0.3489 -0.9177
 6684SOL    HW231686   1.175   0.680  10.737 -1.1743  0.6164 -0.4689
 6685SOL     OW31687   3.362   2.793  12.627 -0.4778 -0.1957 -0.2637
 6685SOL    HW131688   3.339   2.878  12.588  0.3509  0.7704  1.3460
 6685SOL    HW231689   3.451   2.800  12.593 -0.3774  0.0383  0.0487
 6686SOL     OW31690   3.200   4.139   6.157  0.1071  0.2039 -0.0541
 6686SOL    HW131691   3.179   4.114   6.247  0.7316 -0.2334 -0.0357
 6686SOL    HW231692   3.263   4.073   6.129  0.1061 -0.1758  0.8506
 6687SOL     OW31693   3.179   1.356   8.089 -0.5638  0.4836  0.3940
 6687SOL    HW131694   3.191   1.393   8.001 -0.3322 -0.3816  0.0620
 6687SOL    HW231695   3.267   1.360   8.125 -0.1549  0.1289 -0.5774
 6688SOL     OW31696   3.175   2.133  13.768 -0.2849  0.0714 -0.0767
 6688SOL    HW131697   3.127   2.207  13.807 -1.2522  0.0466 -1.2426
 6688SOL    HW231698   3.104   2.102  13.712 -0.0037  0.9010 -0.8807
 6689SOL     OW31699   3.487   1.297  13.388 -0.6477 -0.6839 -0.0355
 6689SOL    HW131700   3.522   1.211  13.364 -2.1550 -1.4325  0.3884
 6689SOL    HW231701   3.536   1.322  13.466 -0.7652  0.1367 -0.2247
 6690SOL     OW31702   4.257   0.914  17.733 -0.4547  0.5240  0.0006
 6690SOL    HW131703   4.335   0.969  17.744 -0.3310  0.6947 -1.7251
 6690SOL    HW231704   4.258   0.868   0.072 -1.3776  0.5097  0.0063
 6691SOL     OW31705   0.931   1.273   4.934  0.0942 -0.9751  0.1872
 6691SOL    HW131706   0.928   1.178   4.924  0.5220 -0.9520 -0.1502
 6691SOL    HW231707   0.916   1.294   5.026  1.2415 -1.3400  0.4611
 6692SOL     OW31708   0.710   4.115   9.715  0.1377  0.4927 -0.0245
 6692SOL    HW131709   0.759   4.197   9.710 -0.3905  0.6990 -1.6104
 6692SOL    HW231710   0.643   4.143   9.778  0.5211  3.5699 -0.9891
 6693SOL     OW31711   1.490   3.508   4.116  0.0625 -0.2988  0.4188
 6693SOL    HW131712   1.582   3.533   4.126 -0.1763  0.7988 -0.0701
 6693SOL    HW231713   1.472   3.532   4.025 -0.4523  0.1343  0.6336
 6694SOL     OW31714   4.050   1.791   4.204  0.4581  0.1146  0.5565
 6694SOL    HW131715   4.008   1.805   4.119 -0.0002 -2.8168  0.3089
 6694SOL    HW231716   4.136   1.764   4.172 -0.9316 -2.2066 -1.2326
 6695SOL     OW31717   2.962   2.858   9.349 -0.5772 -0.4506 -1.1498
 6695SOL    HW131718   2.931   2.822   9.432 -1.6001  2.6933 -0.1852
 6695SOL    HW231719   3.022   2.790   9.317  0.5364  0.0574 -0.1573
 6696SOL     OW31720   1.970   3.499   3.544  0.4019 -0.1728 -0.4847
 6696SOL    HW131721   1.986   3.541   3.460 -0.6647 -2.1372 -1.6804
 6696SOL    HW231722   1.965   3.568   3.609 -0.9512  1.9233 -2.8366
 6697SOL     OW31723   4.469   3.129   3.521 -0.6302  0.2169  0.3261
 6697SOL    HW131724   4.423   3.196   3.572 -1.0343  0.6579 -0.6109
 6697SOL    HW231725   4.529   3.197   3.490  1.4451 -0.5454  2.6434
 6698SOL     OW31726   2.989   4.027   1.460 -0.0605  0.5649  0.3886
 6698SOL    HW131727   2.917   3.995   1.514 -0.2032  2.7828  1.4814
 6698SOL    HW231728   2.942   4.058   1.382  1.8213 -0.0123 -0.9872
 6699SOL     OW31729   3.165   3.990   6.415 -0.3907  0.3430 -0.1934
 6699SOL    HW131730   3.113   3.952   6.344  1.7132  0.7203 -1.9501
 6699SOL    HW231731   3.168   3.915   6.474 -1.2580  0.3686 -0.1150
 6700SOL     OW31732   0.233   0.146  13.113  0.3745  0.7765 -0.5491
 6700SOL    HW131733   0.159   0.092  13.085 -0.7877  1.9389  0.2619
 6700SOL    HW231734   0.230   0.212  13.043  2.8292  0.1184 -1.2504
 6701SOL     OW31735   3.414   3.688   7.167  0.1402  0.4263  0.1924
 6701SOL    HW131736   3.360   3.742   7.225 -0.9823  0.4453 -0.8741
 6701SOL    HW231737   3.487   3.750   7.165  0.1428  0.4416  1.0543
 6702SOL     OW31738   1.914   1.447   5.285 -0.3991  0.7480  0.0448
 6702SOL    HW131739   1.947   1.493   5.207 -2.0727  2.2098  0.2111
 6702SOL    HW231740   1.902   1.518   5.348 -2.6007 -1.5291  2.1437
 6703SOL     OW31741   4.167   2.283  14.374 -0.0468 -0.1255 -0.0339
 6703SOL    HW131742   4.132   2.194  14.386  0.4131 -0.2754  0.1953
 6703SOL    HW231743   4.231   2.283  14.445 -0.2345  0.5746  0.1284
 6704SOL     OW31744   3.574   1.008  12.958 -0.2538  0.0092  0.0948
 6704SOL    HW131745   3.570   0.921  12.919 -1.3550  0.3365 -0.5007
 6704SOL    HW231746   3.636   1.052  12.902  1.0174 -2.7539 -0.6756
 6705SOL     OW31747   3.735   1.952   5.445  0.3199 -0.1002 -0.6729
 6705SOL    HW131748   3.752   1.957   5.539  1.4788  0.0729 -0.8866
 6705SOL    HW231749   3.642   1.977   5.440 -0.1822 -1.9658 -0.5749
 6706SOL     OW31750   0.210   0.191   5.146  0.2287 -0.6397 -0.0090
 6706SOL    HW131751   0.128   0.229   5.177 -0.7390  0.0602 -3.4311
 6706SOL    HW231752   0.191   0.098   5.158  3.2212 -0.9670  2.3592
 6707SOL     OW31753   3.648   1.409   2.175  0.2912  0.3693 -0.0671
 6707SOL    HW131754   3.645   1.321   2.136  2.6165  0.3620 -0.2290
 6707SOL    HW231755   3.598   1.403   2.256 -0.2126 -0.4391 -0.4320
 6708SOL     OW31756   0.240   3.196   2.016  0.1219  0.5390  0.2378
 6708SOL    HW131757   0.305   3.128   1.999  0.5798  0.5400  2.0061
 6708SOL    HW231758   0.225   3.191   2.111  1.1356 -0.5399  0.3352
 6709SOL     OW31759   3.026   0.867   1.245  0.8619 -0.0346  0.3971
 6709SOL    HW131760   3.092   0.805   1.276  2.8696  1.8263 -0.1534
 6709SOL    HW231761   3.060   0.955   1.262  0.8601 -0.2453  1.4986
 6710SOL     OW31762   4.463   1.673   3.858  0.3344 -0.1475  0.3064
 6710SOL    HW131763   4.426   1.608   3.798  2.0999 -2.5165  1.7526
 6710SOL    HW231764   4.557   1.655   3.852  0.1239 -1.1285  0.0171
 6711SOL     OW31765   3.340   2.103  11.482 -0.1118  0.6986 -0.5568
 6711SOL    HW131766   3.299   2.105  11.569 -2.3642 -0.4893 -1.5988
 6711SOL    HW231767   3.405   2.034  11.492 -0.3704  0.4627 -0.5320
 6712SOL     OW31768   0.438   2.249   9.454 -0.2784  0.2604 -0.0720
 6712SOL    HW131769   0.476   2.182   9.512  2.2894  1.0492 -0.8364
 6712SOL    HW231770   0.470   2.217   9.369 -0.3991  0.8427 -0.3380
 6713SOL     OW31771   0.919   3.467  15.115 -0.2104 -0.2499  0.1788
 6713SOL    HW131772   0.933   3.399  15.050 -0.9257 -0.0003 -0.2364
 6713SOL    HW231773   0.965   3.543  15.078  0.3750  1.0793  3.5857
 6714SOL     OW31774   2.778   4.684  10.327 -1.2934  0.3439 -0.3878
 6714SOL    HW131775   2.694   4.637  10.327 -1.7425  1.1445 -0.5152
 6714SOL    HW231776   2.778   4.713  10.419 -1.7554 -2.9083  0.6385
 6715SOL     OW31777   2.993   1.616  16.630 -0.1358 -0.3133 -0.6607
 6715SOL    HW131778   3.010   1.654  16.544 -0.1794 -1.7863 -1.3325
 6715SOL    HW231779   3.038   1.531  16.625 -1.6410 -1.1489  0.0969
 6716SOL     OW31780   1.301   3.869   5.407 -0.8317 -0.1859 -0.2763
 6716SOL    HW131781   1.371   3.843   5.346 -0.0490 -0.1548  0.6085
 6716SOL    HW231782   1.360   3.937   5.439 -0.6342 -0.2618 -0.4756
 6717SOL     OW31783   1.055   2.564   4.470  0.4808 -0.1129  0.7060
 6717SOL    HW131784   0.968   2.573   4.507  1.0933  1.8131  1.6767
 6717SOL    HW231785   1.101   2.645   4.493  0.8553 -0.1438  0.0863
 6718SOL     OW31786   3.910   2.373   5.628  0.4261  0.4139  0.3210
 6718SOL    HW131787   3.965   2.314   5.679  2.5625  0.3695 -2.0385
 6718SOL    HW231788   3.943   2.392   5.540  0.7687 -2.9961 -0.2853
 6719SOL     OW31789   4.537   1.541  10.562  0.7143  0.1632 -0.1001
 6719SOL    HW131790   4.630   1.563  10.570  0.2106  2.3011 -0.0897
 6719SOL    HW231791   4.535   1.464  10.506  2.2913 -1.0294  1.4767
 6720SOL     OW31792   3.516   1.595  11.064  0.1512  0.1705 -0.5792
 6720SOL    HW131793   3.529   1.687  11.088  0.4735  0.3461 -1.4254
 6720SOL    HW231794   3.570   1.587  10.986  1.9583  1.3194  0.5600
 6721SOL     OW31795   0.630   4.630   3.507 -0.4688  0.0820  0.5863
 6721SOL    HW131796   0.709   4.593   3.468 -0.5692  0.2686  0.2122
 6721SOL    HW231797   0.630   4.579   3.588 -0.3432 -1.5055 -0.4154
 6722SOL     OW31798   0.534   2.119   2.055  0.2343  0.3022  0.2242
 6722SOL    HW131799   0.530   2.072   1.972  0.8298  0.8334 -0.1096
 6722SOL    HW231800   0.518   2.206   2.018  0.2632  1.1155  2.1040
 6723SOL     OW31801   4.535   0.939   2.695 -0.1100  0.8432 -0.7495
 6723SOL    HW131802   4.566   0.920   2.784  1.2404  1.0934 -1.1603
 6723SOL    HW231803   4.586   0.867   2.657 -0.9545  0.6911 -1.5820
 6724SOL     OW31804   0.547   4.296   5.064 -0.4869 -0.0463 -0.0429
 6724SOL    HW131805   0.513   4.236   4.999 -1.4437 -1.8498  2.1209
 6724SOL    HW231806   0.621   4.246   5.099 -1.7441 -2.2594 -0.5760
 6725SOL     OW31807   2.195   2.868  15.470 -0.1397 -0.1437 -0.0580
 6725SOL    HW131808   2.229   2.948  15.430  1.0899  0.2535  1.8093
 6725SOL    HW231809   2.117   2.845  15.419  0.9453 -0.3902 -1.5858
 6726SOL     OW31810   3.102   4.086   2.321  0.5089 -0.0686 -0.3006
 6726SOL    HW131811   3.048   4.163   2.305  1.0663  0.1281 -1.2658
 6726SOL    HW231812   3.034   4.020   2.336 -0.7705  0.9052 -1.7688
 6727SOL     OW31813   1.888   1.537  11.111  0.2252 -0.2531 -0.1347
 6727SOL    HW131814   1.975   1.500  11.130  0.9796  0.2993 -2.5521
 6727SOL    HW231815   1.862   1.497  11.028  0.5537  2.1841 -1.3995
 6728SOL     OW31816   4.659   3.512  16.487 -0.3207  0.1528  0.0093
 6728SOL    HW131817   0.011   3.542  16.507  0.9291 -1.7806 -2.5724
 6728SOL    HW231818   4.606   3.585  16.518 -0.7152 -0.8557  1.7487
 6729SOL     OW31819   1.237   4.048  10.386 -0.3603 -0.1781 -0.1032
 6729SOL    HW131820   1.219   3.956  10.403  0.1894 -0.6564 -2.0601
 6729SOL    HW231821   1.150   4.083  10.370  0.7096  1.4058 -2.5764
 6730SOL     OW31822   0.596   0.714   0.250  0.0509  0.0926  0.4867
 6730SOL    HW131823   0.530   0.783   0.251  0.5106  0.5663 -2.5465
 6730SOL    HW231824   0.678   0.756   0.274  0.2323 -1.3661  2.3408
 6731SOL     OW31825   4.288   3.975   7.147 -0.0356 -0.3032  0.1382
 6731SOL    HW131826   4.345   3.977   7.224 -0.5677 -2.5870  0.5824
 6731SOL    HW231827   4.320   4.047   7.093 -1.1769  2.1134  2.6755
 6732SOL     OW31828   1.926   3.416   5.640 -0.3187  0.0732 -0.1191
 6732SOL    HW131829   1.931   3.330   5.683  1.9175  0.2212 -0.0884
 6732SOL    HW231830   1.836   3.414   5.606  0.6387 -1.2231 -2.5788
 6733SOL     OW31831   0.893   2.697   3.836  0.5625 -0.0456 -0.3317
 6733SOL    HW131832   0.819   2.714   3.777 -0.1384 -1.0526  0.2698
 6733SOL    HW231833   0.891   2.773   3.893  0.5888  1.4550 -2.3007
 6734SOL     OW31834   4.299   1.108   3.529  0.2796 -0.1600 -0.3352
 6734SOL    HW131835   4.289   1.038   3.594 -0.2266  0.1917 -0.0353
 6734SOL    HW231836   4.269   1.054   3.456  2.3545 -0.4123 -1.0142
 6735SOL     OW31837   3.512   0.425   1.847 -0.1553  0.5550 -0.3383
 6735SOL    HW131838   3.540   0.334   1.853  0.5263  0.7147 -1.1614
 6735SOL    HW231839   3.598   0.467   1.837 -0.2103  0.4144 -1.3745
 6736SOL     OW31840   2.855   4.213   6.882 -0.1523  0.0249  0.4685
 6736SOL    HW131841   2.768   4.187   6.849  0.5290 -3.2620  1.2240
 6736SOL    HW231842   2.835   4.302   6.911  1.7050  1.0920 -1.5626
 6737SOL     OW31843   2.543   0.673   8.553 -0.1076 -0.2393  0.5655
 6737SOL    HW131844   2.482   0.701   8.621 -0.9619  0.0638 -0.3233
 6737SOL    HW231845   2.551   0.578   8.558 -1.2148 -0.3404  0.5428
 6738SOL     OW31846   0.148   0.495   7.516  0.4020  0.5882  0.4530
 6738SOL    HW131847   0.126   0.554   7.444 -2.3213 -0.0233  0.7814
 6738SOL    HW231848   0.062   0.468   7.549  0.4487 -0.8665 -0.6359
 6739SOL     OW31849   4.526   2.210   6.519 -0.0905 -0.1409 -0.1185
 6739SOL    HW131850   4.452   2.267   6.540  0.0394  0.5492 -1.5791
 6739SOL    HW231851   4.571   2.274   6.465  0.9838  0.2500  1.2320
 6740SOL     OW31852   0.674   4.280   7.986 -0.5662  0.0078  0.8368
 6740SOL    HW131853   0.696   4.188   7.995  0.6273  0.3689  1.6985
 6740SOL    HW231854   0.730   4.315   8.056 -0.8249  0.8750  0.6083
 6741SOL     OW31855   0.577   1.398   9.473  0.3325 -0.7115  0.1286
 6741SOL    HW131856   0.492   1.418   9.511  1.4697  2.8431  0.8021
 6741SOL    HW231857   0.616   1.365   9.554  0.6272 -0.1554  0.2098
 6742SOL     OW31858   3.402   4.090  11.332 -0.4566 -0.0035 -0.1391
 6742SOL    HW131859   3.455   4.150  11.384  0.5314 -0.5152 -0.5501
 6742SOL    HW231860   3.450   4.009  11.349 -3.2716 -1.1017  2.6127
 6743SOL     OW31861   1.449   4.260   6.816 -0.5239  0.2512  0.2638
 6743SOL    HW131862   1.493   4.297   6.893  0.7168 -0.6304 -0.0145
 6743SOL    HW231863   1.499   4.184   6.786  0.7347  1.2017 -0.0689
 6744SOL     OW31864   0.796   2.518   7.667 -0.0490 -0.4656  0.3810
 6744SOL    HW131865   0.880   2.540   7.627 -1.1320  1.2080 -1.0178
 6744SOL    HW231866   0.800   2.426   7.641  0.4546 -0.8715  1.9056
 6745SOL     OW31867   2.501   3.608  11.885  0.1176 -0.0190  0.4424
 6745SOL    HW131868   2.437   3.668  11.924 -0.0585 -0.0286  0.1670
 6745SOL    HW231869   2.464   3.522  11.904  0.3972 -0.0186  1.0056
 6746SOL     OW31870   4.017   0.209   5.734 -0.1316 -0.8463 -0.3031
 6746SOL    HW131871   4.039   0.116   5.731 -1.1967 -1.1716  1.7728
 6746SOL    HW231872   4.050   0.235   5.820 -1.5113 -2.0388  0.5943
 6747SOL     OW31873   0.172   4.589   9.746  0.1020  0.0819 -0.4299
 6747SOL    HW131874   0.199   4.628   9.829  2.1628 -2.3467  0.0243
 6747SOL    HW231875   0.258   4.588   9.703  0.8140 -0.5311  1.0207
 6748SOL     OW31876   0.016   4.635  12.576  0.2762  0.0926 -0.7893
 6748SOL    HW131877   0.087   4.679  12.529 -0.6778  1.6263 -0.7837
 6748SOL    HW231878   0.051   4.616  12.663 -0.6357  1.3228 -0.1451
 6749SOL     OW31879   0.022   1.973  12.216 -0.4094  0.1406  0.0046
 6749SOL    HW131880   0.014   2.020  12.133  0.3063 -0.5453 -0.4515
 6749SOL    HW231881   0.079   2.027  12.270 -0.2457 -0.4616  0.4291
 6750SOL     OW31882   1.829   0.693   4.980 -0.0868  0.1641 -0.1485
 6750SOL    HW131883   1.778   0.742   4.916 -1.5672  0.2444  1.1025
 6750SOL    HW231884   1.853   0.759   5.046 -1.9622  2.1822 -1.4723
 6751SOL     OW31885   2.806   1.834  15.436 -0.0655  0.1412 -0.5146
 6751SOL    HW131886   2.733   1.896  15.434 -2.2350 -2.3122  2.5253
 6751SOL    HW231887   2.766   1.771  15.377 -2.1612  1.6547 -0.7421
 6752SOL     OW31888   4.006   1.759  10.793 -0.1673  0.1014  0.0743
 6752SOL    HW131889   4.072   1.774  10.725 -0.4705  2.6948  0.3455
 6752SOL    HW231890   3.951   1.697  10.745 -1.9307  2.2643 -0.7288
 6753SOL     OW31891   4.407   2.920   3.204  0.3369 -0.2124 -0.0571
 6753SOL    HW131892   4.349   2.901   3.278 -1.0071 -0.2719 -1.1384
 6753SOL    HW231893   4.404   3.015   3.200  0.8074 -0.1778  0.4096
 6754SOL     OW31894   1.492   1.072   0.711 -0.1332 -0.2067 -0.0601
 6754SOL    HW131895   1.471   1.164   0.697 -3.2465 -1.2036 -1.8940
 6754SOL    HW231896   1.563   1.093   0.773 -2.5063  0.9497  2.2530
 6755SOL     OW31897   1.816   2.728   8.583  0.0757  0.0542 -0.6116
 6755SOL    HW131898   1.725   2.720   8.610  0.2449 -3.3374 -0.9767
 6755SOL    HW231899   1.821   2.669   8.508  0.2649 -1.8401  0.8941
 6756SOL     OW31900   1.016   1.589  16.017  0.7149  0.1458  0.6876
 6756SOL    HW131901   0.953   1.531  15.974  0.8549 -0.2162  0.9665
 6756SOL    HW231902   1.037   1.653  15.950 -1.6318  0.0042 -0.1972
 6757SOL     OW31903   0.594   1.111   6.816  0.4647 -0.2846 -0.1271
 6757SOL    HW131904   0.516   1.150   6.857 -0.3270 -1.3884 -0.5683
 6757SOL    HW231905   0.554   1.060   6.746  0.3022 -0.2999 -0.0228
 6758SOL     OW31906   3.670   2.770   7.437 -0.0323 -0.8865 -0.0734
 6758SOL    HW131907   3.685   2.756   7.530 -1.4756  0.2354  0.3358
 6758SOL    HW231908   3.576   2.773   7.418  0.5230  0.1959 -2.7381
 6759SOL     OW31909   1.384   0.268   9.223  0.4126 -0.2369  0.0880
 6759SOL    HW131910   1.459   0.282   9.166 -0.5336  3.0386 -0.3823
 6759SOL    HW231911   1.380   0.173   9.226  2.4762 -0.2528  2.7309
 6760SOL     OW31912   1.544   1.011   9.028 -0.1652 -0.5405 -0.1714
 6760SOL    HW131913   1.484   1.081   9.001 -1.2432 -1.5789 -0.4716
 6760SOL    HW231914   1.489   0.963   9.090  0.7142  1.5679  2.2299
 6761SOL     OW31915   3.341   4.445   1.924 -0.3282  0.0454  0.6688
 6761SOL    HW131916   3.370   4.361   1.889 -0.5510  0.3777 -0.2922
 6761SOL    HW231917   3.390   4.504   1.867 -0.3863 -2.1428 -1.6796
 6762SOL     OW31918   2.849   1.791   6.590  0.0716 -0.5118  0.0262
 6762SOL    HW131919   2.838   1.856   6.521  2.2798 -0.2010 -0.0300
 6762SOL    HW231920   2.848   1.848   6.667 -0.0974 -0.3985 -0.0591
 6763SOL     OW31921   0.319   1.689   7.290  0.0037 -0.5183 -0.3273
 6763SOL    HW131922   0.379   1.755   7.256  0.8147 -1.1173 -0.0723
 6763SOL    HW231923   0.236   1.736   7.284  0.1584 -0.0998  0.7817
 6764SOL     OW31924   2.923   0.048   6.358 -0.6710 -0.1623 -0.6099
 6764SOL    HW131925   2.913   4.716   6.425 -1.2283  0.3505 -0.1618
 6764SOL    HW231926   2.990   0.103   6.398 -1.4441 -0.7614  1.5102
 6765SOL     OW31927   1.960   4.488   2.944  0.1989  0.6412  0.5103
 6765SOL    HW131928   1.923   4.402   2.925  0.5295  0.7727 -0.7146
 6765SOL    HW231929   1.891   4.548   2.917  1.6532  2.8262  1.6970
 6766SOL     OW31930   4.479   3.518   3.341 -0.0991  0.0964 -0.3301
 6766SOL    HW131931   4.489   3.510   3.247  1.6509  1.2346 -0.2377
 6766SOL    HW231932   4.514   3.607   3.346  1.7263 -0.5167 -2.2150
 6767SOL     OW31933   3.417   0.877   7.857  0.4713  0.6313 -0.4446
 6767SOL    HW131934   3.335   0.924   7.841  1.7393  2.6147 -1.0831
 6767SOL    HW231935   3.438   0.908   7.945 -1.0300 -1.1606  0.5605
 6768SOL     OW31936   0.353   0.769   3.481  0.1738  0.3297 -0.2982
 6768SOL    HW131937   0.340   0.863   3.494 -0.0987  0.1119  1.0425
 6768SOL    HW231938   0.263   0.735   3.475  0.0188  0.5678  0.6537
 6769SOL     OW31939   3.158   4.144   4.252  0.3293 -0.1949 -0.5374
 6769SOL    HW131940   3.086   4.196   4.214 -0.0842 -2.2296 -2.5220
 6769SOL    HW231941   3.159   4.182   4.340  2.8559  2.0802 -1.5360
 6770SOL     OW31942   0.093   4.369   8.810 -0.4685 -0.5799 -0.0178
 6770SOL    HW131943   0.126   4.280   8.811  0.8758 -0.0827  0.0119
 6770SOL    HW231944   0.173   4.419   8.825 -0.1601 -1.3804  1.0089
 6771SOL     OW31945   1.704   4.526   8.940 -0.1643 -0.7141 -0.5158
 6771SOL    HW131946   1.681   4.469   8.866 -0.7339 -1.0361 -0.0945
 6771SOL    HW231947   1.656   4.495   9.016  1.6617  0.1814  0.9898
 6772SOL     OW31948   1.704   0.615   2.839  0.0403  0.0111 -0.5574
 6772SOL    HW131949   1.688   0.600   2.932  0.4454  2.0540 -0.1557
 6772SOL    HW231950   1.791   0.654   2.849  1.3509 -3.0965  0.1734
 6773SOL     OW31951   1.493   4.474   6.207 -0.0610 -0.4092  0.4755
 6773SOL    HW131952   1.585   4.486   6.230 -0.4109 -0.2172  1.7353
 6773SOL    HW231953   1.511   4.483   6.113  0.6034 -0.0451  0.6357
 6774SOL     OW31954   2.918   0.524  17.202 -0.4296 -0.8039  0.1742
 6774SOL    HW131955   2.832   0.553  17.233 -1.6615 -1.1845 -2.9172
 6774SOL    HW231956   2.902   0.564  17.117  0.3843  0.7266  0.7486
 6775SOL     OW31957   2.285   3.384   2.257 -0.4589 -0.3644  0.0473
 6775SOL    HW131958   2.201   3.414   2.221 -1.5255 -1.8498  1.3155
 6775SOL    HW231959   2.357   3.432   2.216 -0.4259  0.2800  0.8628
 6776SOL     OW31960   0.714   3.232   2.414  0.0850 -0.1685  0.1897
 6776SOL    HW131961   0.748   3.162   2.470 -1.0668  0.9321  2.2719
 6776SOL    HW231962   0.644   3.181   2.373  1.4224 -0.2425 -1.9887
 6777SOL     OW31963   0.529   1.366   0.621  0.3824 -0.1201 -0.2066
 6777SOL    HW131964   0.507   1.390   0.712  1.7757  2.1879 -0.4697
 6777SOL    HW231965   0.438   1.370   0.591 -0.4256 -0.3783  2.1838
 6778SOL     OW31966   0.475   0.296  10.340  0.6393  0.0672 -0.0673
 6778SOL    HW131967   0.556   0.335  10.373  0.0085  2.9782 -2.0052
 6778SOL    HW231968   0.470   0.235  10.414  1.8229 -1.0744 -0.9123
 6779SOL     OW31969   3.531   0.365   5.658 -0.0915 -0.5751  0.0848
 6779SOL    HW131970   3.582   0.314   5.595 -0.5060  0.3479 -1.0034
 6779SOL    HW231971   3.589   0.440   5.666 -0.1843 -0.5770  0.7227
 6780SOL     OW31972   1.055   3.984   4.373  0.2860 -0.2122  0.6200
 6780SOL    HW131973   0.990   4.050   4.347 -0.3080 -0.6177  1.0771
 6780SOL    HW231974   1.000   3.954   4.445  1.4388 -0.2916  1.4577
 6781SOL     OW31975   3.491   3.132   2.390 -0.0639  0.3692  0.4477
 6781SOL    HW131976   3.463   3.098   2.475 -0.7148  1.7349  0.7782
 6781SOL    HW231977   3.539   3.208   2.422  1.2257  0.3786 -1.4989
 6782SOL     OW31978   2.238   0.017   0.827 -0.0631 -0.6739  0.3124
 6782SOL    HW131979   2.149   0.035   0.859 -0.1438  1.9739 -1.3466
 6782SOL    HW231980   2.213   4.701   0.752  1.0785 -2.0224  0.8789
 6783SOL     OW31981   4.287   1.332   5.578  0.2434  0.2492  0.2041
 6783SOL    HW131982   4.252   1.335   5.489 -1.1347 -0.7335  0.7064
 6783SOL    HW231983   4.283   1.240   5.604 -2.6806  0.3839  0.2106
 6784SOL     OW31984   2.412   0.901   9.192 -0.0027  0.0629 -0.2199
 6784SOL    HW131985   2.326   0.862   9.179  1.6928 -3.1910 -1.8550
 6784SOL    HW231986   2.468   0.855   9.129  1.3403 -0.1182  1.1040
 6785SOL     OW31987   4.541   3.546   9.625 -0.0130 -0.5774  0.2242
 6785SOL    HW131988   4.495   3.464   9.607 -1.6026  0.2092  0.6522
 6785SOL    HW231989   4.561   3.585   9.540 -0.0109 -0.6980  0.1698
 6786SOL     OW31990   1.525   3.134  11.202  0.4323  0.3044  0.3215
 6786SOL    HW131991   1.441   3.172  11.227 -0.7570 -2.0732 -0.1428
 6786SOL    HW231992   1.579   3.136  11.281 -2.6197  2.0425  2.3644
 6787SOL     OW31993   3.941   4.023  16.565  0.6969  0.5508 -0.1618
 6787SOL    HW131994   3.961   4.022  16.472  0.2888  2.0016 -0.2615
 6787SOL    HW231995   4.022   4.035  16.616  0.4434 -0.2618  0.4374
 6788SOL     OW31996   1.311   4.630   7.514 -0.1992  0.5896 -0.3453
 6788SOL    HW131997   1.314   4.582   7.432 -1.1269 -1.7743  0.9922
 6788SOL    HW231998   1.395   4.676   7.515 -0.8725  1.8669 -2.5442
 6789SOL     OW31999   1.015   4.358   3.636  0.5762 -0.0278 -0.5430
 6789SOL    HW132000   1.096   4.306   3.636  0.3414 -0.3920 -0.0068
 6789SOL    HW232001   0.944   4.296   3.620  0.9061 -0.8056  1.1125
 6790SOL     OW32002   0.361   4.179   7.306  0.1476 -0.0365  0.5112
 6790SOL    HW132003   0.332   4.111   7.367  0.9203  0.5212  1.5045
 6790SOL    HW232004   0.392   4.134   7.228 -0.3688 -3.0888  2.0539
 6791SOL     OW32005   3.051   0.811  10.156  0.4342  0.3236 -0.4361
 6791SOL    HW132006   3.056   0.785  10.247 -2.4032 -0.6014 -0.5393
 6791SOL    HW232007   2.975   0.758  10.132  0.8527 -0.0460 -0.9312
 6792SOL     OW32008   1.924   1.206   7.173 -0.1163  0.0424 -0.0287
 6792SOL    HW132009   1.884   1.187   7.257  1.0750  2.5504  1.0917
 6792SOL    HW232010   1.946   1.118   7.143 -0.6018 -0.1701  0.2437
 6793SOL     OW32011   4.359   0.534   8.855  0.8059 -0.4885 -0.2454
 6793SOL    HW132012   4.284   0.590   8.836  0.4486 -0.0195  2.5676
 6793SOL    HW232013   4.397   0.580   8.930 -1.4464 -2.9149  2.3830
 6794SOL     OW32014   2.506   1.407  12.550  0.3142 -0.5712  0.1517
 6794SOL    HW132015   2.422   1.421  12.593  0.7386  3.1820 -0.2267
 6794SOL    HW232016   2.492   1.433  12.460  1.9652  0.0915  0.0756
 6795SOL     OW32017   0.476   3.266   0.012 -0.0465 -0.0303  0.3346
 6795SOL    HW132018   0.567   3.251   0.037  0.4124  0.6370 -0.9025
 6795SOL    HW232019   0.440   3.281   0.099  2.0695  3.3703  0.6139
 6796SOL     OW32020   3.066   3.539   2.966  0.6862  0.1886 -0.2491
 6796SOL    HW132021   3.130   3.508   2.902  0.9495 -0.6144  0.3960
 6796SOL    HW232022   2.985   3.510   2.923  0.3116  1.8086 -0.6286
 6797SOL     OW32023   0.433   0.531  15.582 -0.0762  0.0677  0.1633
 6797SOL    HW132024   0.400   0.461  15.526  1.0050  1.3131 -2.0446
 6797SOL    HW232025   0.525   0.506  15.570 -0.8767 -2.2384 -1.1965
 6798SOL     OW32026   2.836   0.798   5.687 -0.0943 -0.1640  0.1030
 6798SOL    HW132027   2.925   0.795   5.722  0.1150 -0.4313 -0.4509
 6798SOL    HW232028   2.781   0.790   5.765 -1.3252  1.5376 -0.5840
 6799SOL     OW32029   0.484   2.736   2.535 -0.0421 -0.6533 -0.4678
 6799SOL    HW132030   0.552   2.738   2.602  0.2483 -2.0720 -0.7147
 6799SOL    HW232031   0.535   2.703   2.460  2.2170 -0.6415  1.0724
 6800SOL     OW32032   1.868   3.494   1.319 -0.3976 -0.3356 -0.4519
 6800SOL    HW132033   1.910   3.556   1.260  2.1635 -1.7267 -0.1272
 6800SOL    HW232034   1.876   3.415   1.266 -0.5636 -0.6058 -0.0825
 6801SOL     OW32035   3.900   4.226  12.984 -0.6594  0.1013  0.0406
 6801SOL    HW132036   3.813   4.265  12.992 -0.6511 -0.0649  0.9105
 6801SOL    HW232037   3.939   4.273  12.909 -2.2358 -0.1097 -0.9020
 6802SOL     OW32038   2.873   4.017   3.197  0.0439  0.3277  0.0910
 6802SOL    HW132039   2.952   4.006   3.144  0.0676  0.6571  0.0567
 6802SOL    HW232040   2.816   3.953   3.153  0.5198 -0.0049 -0.0371
 6803SOL     OW32041   1.718   1.446   6.686 -0.1023 -0.3257  0.7867
 6803SOL    HW132042   1.793   1.454   6.628 -1.0472  0.4344 -0.3306
 6803SOL    HW232043   1.749   1.370   6.735 -0.3451  0.3208  1.9359
 6804SOL     OW32044   2.466   0.250   6.699 -0.6169 -0.4718 -0.1650
 6804SOL    HW132045   2.473   0.329   6.752 -3.3397  0.1101 -0.6851
 6804SOL    HW232046   2.528   0.188   6.739 -0.4167 -0.6375 -0.7381
 6805SOL     OW32047   0.483   2.391   7.431  0.3278 -0.9064  0.4725
 6805SOL    HW132048   0.502   2.389   7.337  2.2752  4.8232  0.7413
 6805SOL    HW232049   0.495   2.301   7.464 -0.7178 -1.1158  0.2652
 6806SOL     OW32050   0.057   1.683   3.309  0.0191 -0.5967  0.1046
 6806SOL    HW132051   0.085   1.655   3.396 -2.5690 -3.6836 -0.0545
 6806SOL    HW232052   0.076   1.607   3.254  0.3168  0.4453 -1.2346
 6807SOL     OW32053   3.110   4.527   7.092 -0.3230  0.9768 -0.8105
 6807SOL    HW132054   3.172   4.576   7.146  1.0843  0.0353 -1.5927
 6807SOL    HW232055   3.034   4.515   7.149 -0.8395  1.4696 -1.3945
 6808SOL     OW32056   3.540   0.930  17.610  0.8894 -0.1730  0.3254
 6808SOL    HW132057   3.475   0.865  17.637  2.4107 -2.1135 -0.6930
 6808SOL    HW232058   3.500   0.974  17.534  0.7955 -0.5419  0.1597
 6809SOL     OW32059   4.458   2.716   2.468  0.2144  0.1778  0.1099
 6809SOL    HW132060   4.425   2.758   2.388 -0.7278 -0.1397  0.3272
 6809SOL    HW232061   4.391   2.744   2.530 -0.7719 -0.6818 -0.5566
 6810SOL     OW32062   1.198   1.558   7.336  0.3444 -0.2057  0.0111
 6810SOL    HW132063   1.201   1.619   7.262  0.0060  1.7293  1.5887
 6810SOL    HW232064   1.263   1.606   7.387  0.7283 -0.0430 -0.6329
 6811SOL     OW32065   1.930   1.706   7.009 -0.2831 -1.0863  0.2050
 6811SOL    HW132066   2.011   1.707   6.958 -0.0379 -0.4196  0.6016
 6811SOL    HW232067   1.902   1.615   6.999 -0.1409 -1.1860  0.6958
 6812SOL     OW32068   2.737   0.147   3.659  0.0271 -0.5057 -0.1934
 6812SOL    HW132069   2.662   0.097   3.691 -1.0193  1.7177  0.8848
 6812SOL    HW232070   2.710   0.164   3.568 -0.5888  0.0668  0.0930
 6813SOL     OW32071   1.036   2.677   1.690  0.7264 -0.1846 -0.2515
 6813SOL    HW132072   1.095   2.688   1.616 -1.5472  0.7783 -1.9215
 6813SOL    HW232073   1.093   2.697   1.764 -1.6598 -0.1769  1.6278
 6814SOL     OW32074   2.369   1.331   4.058  0.1724 -0.0947 -0.0772
 6814SOL    HW132075   2.436   1.273   4.094 -0.3839  0.6749  2.2086
 6814SOL    HW232076   2.389   1.408   4.111  0.8722  0.1445 -0.6918
 6815SOL     OW32077   3.194   1.279   5.511 -0.3369 -0.1427 -0.1117
 6815SOL    HW132078   3.122   1.326   5.553  1.1336  0.2592  1.8865
 6815SOL    HW232079   3.147   1.196   5.500  0.9858 -0.6977 -1.5950
 6816SOL     OW32080   0.622   2.602   7.870 -0.0473  0.1451  0.3673
 6816SOL    HW132081   0.615   2.518   7.914 -0.5637  0.3357  0.6468
 6816SOL    HW232082   0.675   2.586   7.792  0.3719 -0.4128  0.7704
 6817SOL     OW32083   2.685   0.852   9.697  0.1155  0.1815 -0.0772
 6817SOL    HW132084   2.619   0.783   9.685  0.0808  0.2184 -0.0968
 6817SOL    HW232085   2.697   0.882   9.607  0.6610  1.9730  0.6038
 6818SOL     OW32086   4.242   1.934   3.956  0.4693  0.0997 -0.1605
 6818SOL    HW132087   4.255   1.846   3.989  2.8410 -0.0828 -1.5589
 6818SOL    HW232088   4.199   1.930   3.871  1.4990  0.2183 -0.6887
 6819SOL     OW32089   2.374   0.382   4.434  0.0753 -0.1828 -0.2760
 6819SOL    HW132090   2.448   0.346   4.385  0.5788  1.0671 -0.4313
 6819SOL    HW232091   2.419   0.435   4.500  0.4009 -0.4587 -0.2747
 6820SOL     OW32092   2.190   3.569   2.447  0.3922  0.6942  0.3629
 6820SOL    HW132093   2.137   3.562   2.368  0.3773 -0.8483  0.5091
 6820SOL    HW232094   2.260   3.510   2.418 -0.4831 -0.6329  0.9268
 6821SOL     OW32095   2.616   0.775   5.518  0.2024  0.5550 -0.0831
 6821SOL    HW132096   2.690   0.797   5.574 -1.1159 -0.1225  1.9314
 6821SOL    HW232097   2.590   0.699   5.570  0.4151  0.5704  0.0431
 6822SOL     OW32098   4.352   1.053   6.990 -0.3335  0.1524 -0.6378
 6822SOL    HW132099   4.333   0.984   6.926 -1.2271 -1.1212  0.9780
 6822SOL    HW232100   4.274   1.106   7.010  0.0442 -0.1370  1.6102
 6823SOL     OW32101   1.899   0.437   3.475 -0.4586  0.0709  0.0585
 6823SOL    HW132102   1.837   0.401   3.539 -0.3591 -0.6180 -0.2351
 6823SOL    HW232103   1.844   0.472   3.405  1.0952  0.8053 -0.7808
 6824SOL     OW32104   3.407   2.558   7.643  0.2007  0.0618 -0.6537
 6824SOL    HW132105   3.465   2.631   7.667 -0.6355  0.7452 -0.7396
 6824SOL    HW232106   3.470   2.487   7.628 -1.4424 -1.6740  0.6688
 6825SOL     OW32107   1.677   1.995   5.058 -0.2087  0.2664 -0.5519
 6825SOL    HW132108   1.676   1.924   4.993  1.5788 -1.1182  0.9436
 6825SOL    HW232109   1.772   1.997   5.069 -0.1111 -0.4657 -1.2037
 6826SOL     OW32110   0.272   2.132   2.908 -0.0430 -0.5932 -0.4115
 6826SOL    HW132111   0.220   2.162   2.834 -0.4678 -0.6583 -0.1381
 6826SOL    HW232112   0.208   2.171   2.967  0.2695 -3.0052  1.5327
 6827SOL     OW32113   1.751   2.641   0.813 -0.3967 -0.2738  0.2067
 6827SOL    HW132114   1.735   2.719   0.760  1.6698  0.3740  0.5095
 6827SOL    HW232115   1.667   2.602   0.790 -0.3388 -1.8130  2.6146
 6828SOL     OW32116   0.291   1.260  14.009  0.2550  0.6429 -0.6414
 6828SOL    HW132117   0.292   1.235  13.916 -0.9251 -3.5074  0.4850
 6828SOL    HW232118   0.251   1.177  14.032  2.1073  0.0291  0.4316
 6829SOL     OW32119   2.903   0.592  16.154  0.1686 -0.3094  0.4608
 6829SOL    HW132120   2.957   0.633  16.087 -3.4554  3.0969 -0.3456
 6829SOL    HW232121   2.980   0.553  16.196  0.6426  0.2153  0.0755
 6830SOL     OW32122   3.092   2.618   7.230  0.1738  0.0528  0.3475
 6830SOL    HW132123   3.140   2.565   7.294 -0.1154 -0.5500  0.0638
 6830SOL    HW232124   3.120   2.708   7.247 -0.8836  0.2883  0.8484
 6831SOL     OW32125   3.970   4.183   6.933 -0.1921  0.0929 -0.7104
 6831SOL    HW132126   3.902   4.249   6.944 -1.2796 -1.0241 -0.8563
 6831SOL    HW232127   4.048   4.237   6.952  0.8736 -0.9446 -2.1689
 6832SOL     OW32128   4.374   2.653   7.557  0.0815  0.3139  0.1230
 6832SOL    HW132129   4.324   2.685   7.631 -0.3273 -0.5488  0.2186
 6832SOL    HW232130   4.362   2.715   7.485  0.1707  0.8494  0.5767
 6833SOL     OW32131   3.188   4.331   7.329  0.3289  0.2077 -0.5350
 6833SOL    HW132132   3.200   4.243   7.293  0.3891 -0.5133  1.2480
 6833SOL    HW232133   3.102   4.316   7.369  1.2265 -0.8782  1.0006
 6834SOL     OW32134   1.311   2.249   6.518  0.0735 -0.3728  0.2625
 6834SOL    HW132135   1.395   2.222   6.553 -0.4819  0.0991  1.9766
 6834SOL    HW232136   1.339   2.334   6.483  0.3801 -1.1817 -1.4209
 6835SOL     OW32137   1.064   3.158   4.892  0.2716 -0.4023  0.2034
 6835SOL    HW132138   1.048   3.212   4.969  0.5371  1.8562 -1.3033
 6835SOL    HW232139   1.102   3.225   4.835  0.1483  0.7515  1.4622
 6836SOL     OW32140   4.517   2.230   7.176 -0.5521 -0.1233  0.4452
 6836SOL    HW132141   4.477   2.176   7.244 -1.0981  0.4735  0.5940
 6836SOL    HW232142   4.568   2.295   7.225  0.2191 -1.8630  1.9407
 6837SOL     OW32143   1.816   2.064  11.253 -0.3391 -0.2907  1.1089
 6837SOL    HW132144   1.768   2.060  11.336 -1.0745 -1.2080  0.6492
 6837SOL    HW232145   1.888   2.123  11.275  0.0212 -0.0989 -0.5818
 6838SOL     OW32146   0.932   1.411   5.199  0.2184  0.1081 -0.5180
 6838SOL    HW132147   1.010   1.423   5.145  1.0012  2.0213  1.0329
 6838SOL    HW232148   0.965   1.357   5.270  3.4637  1.7915 -0.7117
 6839SOL     OW32149   4.435   1.088  16.681  0.4252  0.4755 -0.5272
 6839SOL    HW132150   4.414   1.128  16.597 -0.2308 -0.7057 -0.9249
 6839SOL    HW232151   4.519   1.043  16.666  0.1714 -0.1071 -0.1797
 6840SOL     OW32152   0.597   4.543   8.228 -0.4854  0.0828  0.4895
 6840SOL    HW132153   0.573   4.600   8.155 -2.8686 -0.8330  0.5573
 6840SOL    HW232154   0.689   4.524   8.210 -0.0286  1.8222  1.0404
 6841SOL     OW32155   2.844   3.865   7.432 -0.3234  0.6064 -0.0778
 6841SOL    HW132156   2.790   3.789   7.410  0.2773  0.0191  0.4829
 6841SOL    HW232157   2.800   3.899   7.510 -0.5237  0.3871 -0.0954
 6842SOL     OW32158   3.428   2.982   7.224  0.3588  0.1879 -0.5436
 6842SOL    HW132159   3.424   2.888   7.243 -1.0368  0.1430 -1.1180
 6842SOL    HW232160   3.359   3.009   7.285  0.6743  0.2840 -0.2238
 6843SOL     OW32161   0.410   4.074   7.002  0.2356  0.5049 -0.1492
 6843SOL    HW132162   0.424   4.167   6.986  1.8158  0.1738 -0.6446
 6843SOL    HW232163   0.315   4.062   7.011  0.2570 -0.6456 -1.3884
 6844SOL     OW32164   1.234   3.753   8.545  0.2118 -0.4132  0.0524
 6844SOL    HW132165   1.189   3.776   8.625  1.5759  0.3166  0.6102
 6844SOL    HW232166   1.174   3.687   8.511 -0.1654 -0.8300  1.5379
 6845SOL     OW32167   0.777   1.828   8.326  0.8619  0.4627 -0.2953
 6845SOL    HW132168   0.722   1.749   8.324 -0.2898  1.2837 -1.6845
 6845SOL    HW232169   0.803   1.829   8.234 -3.6394  2.0993 -1.5815
 6846SOL     OW32170   0.922   1.475   7.387 -0.4275  0.3065 -0.6381
 6846SOL    HW132171   0.995   1.530   7.416  0.5688 -0.9992 -0.6705
 6846SOL    HW232172   0.956   1.435   7.307  2.7433  2.5417 -0.4541
 6847SOL     OW32173   1.558   0.033   3.832 -0.7325 -0.1337  0.2770
 6847SOL    HW132174   1.464   0.046   3.824 -0.7463 -1.9406 -2.4148
 6847SOL    HW232175   1.578   0.076   3.915 -3.1440  2.8271 -0.6558
 6848SOL     OW32176   1.832   4.243   8.370 -0.6382 -0.4292 -0.3556
 6848SOL    HW132177   1.789   4.161   8.395  1.2614 -0.9804  1.0774
 6848SOL    HW232178   1.910   4.250   8.425 -0.6775  1.7702 -0.5657
 6849SOL     OW32179   4.162   2.583   4.643  0.4460  0.4576 -0.0918
 6849SOL    HW132180   4.234   2.526   4.669  0.0179  0.3475  0.8298
 6849SOL    HW232181   4.139   2.635   4.720  1.7698 -0.6062  1.0160
 6850SOL     OW32182   4.668   3.208  10.448 -0.0145 -0.2195  0.0281
 6850SOL    HW132183   4.665   3.249  10.535 -0.9535  1.4167 -0.7795
 6850SOL    HW232184   4.576   3.214  10.424  0.2090  0.8017 -0.5753
 6851SOL     OW32185   0.868   3.477   3.587 -0.3307 -0.0993 -0.0437
 6851SOL    HW132186   0.823   3.549   3.631  0.3142 -0.4129  1.1138
 6851SOL    HW232187   0.930   3.457   3.657 -0.0076  0.1002 -0.2693
 6852SOL     OW32188   4.572   2.513   8.216  0.1883 -0.6397 -0.1522
 6852SOL    HW132189   4.501   2.576   8.232  0.4316 -0.5115  0.4159
 6852SOL    HW232190   4.649   2.562   8.247 -1.9915  2.8666 -0.2497
 6853SOL     OW32191   4.468   1.147   2.187 -0.5664 -0.1247 -0.3855
 6853SOL    HW132192   4.394   1.109   2.139 -0.2969 -1.2260  0.0716
 6853SOL    HW232193   4.539   1.092   2.155 -0.9886 -0.8605 -0.0545
 6854SOL     OW32194   1.936   1.985   1.949 -0.3171 -0.9987  0.2257
 6854SOL    HW132195   2.018   2.027   1.925 -0.6114 -0.8447 -0.5340
 6854SOL    HW232196   1.958   1.893   1.933 -1.1802 -1.7948  3.7353
 6855SOL     OW32197   4.392   0.484  14.886 -0.1433 -0.2823  0.2184
 6855SOL    HW132198   4.348   0.545  14.945 -1.6065 -2.0889  0.9720
 6855SOL    HW232199   4.443   0.559  14.855  0.1651 -0.6223 -0.0994
 6856SOL     OW32200   1.293   4.257   3.043  0.3184  0.1778  0.1862
 6856SOL    HW132201   1.286   4.349   3.017 -0.8446  0.8644  2.9129
 6856SOL    HW232202   1.332   4.224   2.962  0.9823  1.4095  0.0132
 6857SOL     OW32203   2.746   0.868   3.667  0.7788  0.7806  0.1441
 6857SOL    HW132204   2.721   0.935   3.603 -1.8368 -1.4728 -1.1563
 6857SOL    HW232205   2.730   0.922   3.745 -0.9672  0.4488  0.0073
 6858SOL     OW32206   2.836   1.828  14.467  0.1019  0.0381  0.7326
 6858SOL    HW132207   2.907   1.891  14.469 -0.5663  0.9490 -4.4722
 6858SOL    HW232208   2.795   1.824  14.554  1.4477 -2.5834  1.2354
 6859SOL     OW32209   4.308   1.217  15.313 -0.6402 -0.0446 -0.5067
 6859SOL    HW132210   4.255   1.179  15.244  1.3384 -0.7818 -1.6193
 6859SOL    HW232211   4.295   1.154  15.385  3.2366 -0.4794 -0.1817
 6860SOL     OW32212   2.048   1.096  13.476  0.2179  0.3103  0.0123
 6860SOL    HW132213   1.958   1.103  13.508  0.6047 -2.1684  1.6522
 6860SOL    HW232214   2.062   1.001  13.478  2.6756  0.6774 -0.5459
 6861SOL     OW32215   4.175   4.004   6.406  0.1763 -0.0592 -0.2762
 6861SOL    HW132216   4.100   4.008   6.464 -0.3979  4.2643 -1.3584
 6861SOL    HW232217   4.195   3.910   6.401  2.1027  0.3626 -0.7872
 6862SOL     OW32218   1.725   4.699   7.289  0.1543  0.0183 -0.2669
 6862SOL    HW132219   1.811   4.678   7.325  1.0630 -0.2121 -2.5583
 6862SOL    HW232220   1.744   4.706   7.195  0.4533 -2.0697 -0.3502
 6863SOL     OW32221   0.177   3.103   8.611 -0.0689 -0.1208 -0.0151
 6863SOL    HW132222   0.260   3.098   8.565 -0.6905  1.3248 -1.2966
 6863SOL    HW232223   0.128   3.154   8.546 -1.4548  0.9063  1.8266
 6864SOL     OW32224   4.615   4.608  17.709 -0.1913 -0.3703  0.7158
 6864SOL    HW132225   4.526   4.573  17.705 -0.8774  1.6353 -1.2980
 6864SOL    HW232226   4.654   4.561  17.636  1.9919  1.3109  0.7933
 6865SOL     OW32227   2.948   3.800   1.206  0.5626 -0.2118  0.1640
 6865SOL    HW132228   2.920   3.818   1.117 -3.1040 -0.7473  1.2317
 6865SOL    HW232229   2.867   3.811   1.256  1.5508 -0.4344  1.8225
 6866SOL     OW32230   3.443   0.606   0.490  0.3387  0.3712 -0.0795
 6866SOL    HW132231   3.354   0.621   0.523  0.6555  2.5726 -0.2403
 6866SOL    HW232232   3.498   0.616   0.568  0.4933 -0.4769 -0.0862
 6867SOL     OW32233   4.436   0.267  12.121  0.0558 -1.0374  0.1366
 6867SOL    HW132234   4.473   0.343  12.166 -1.3083 -0.9325  1.0795
 6867SOL    HW232235   4.488   0.201  12.169  0.8346  0.0267  0.7527
 6868SOL     OW32236   0.032   0.463  14.947 -0.1631 -0.3500 -0.5237
 6868SOL    HW132237   0.110   0.437  14.897  1.5336  2.4883  0.6514
 6868SOL    HW232238   0.023   0.555  14.920 -0.3746 -0.0703  0.5068
 6869SOL     OW32239   2.051   4.646   2.671 -0.0661 -0.3158 -0.0642
 6869SOL    HW132240   2.104   4.632   2.750 -3.0641 -0.2476  1.9847
 6869SOL    HW232241   2.052   4.560   2.630  0.0376  1.0405 -2.8959
 6870SOL     OW32242   0.229   3.484   7.279 -0.2323  0.1066  0.0439
 6870SOL    HW132243   0.216   3.520   7.367  1.5275  0.2653  0.2533
 6870SOL    HW232244   0.248   3.392   7.298  0.9775  0.4975  0.7321
 6871SOL     OW32245   0.755   0.550   9.016  0.4496 -0.0307 -0.2175
 6871SOL    HW132246   0.737   0.624   8.958  0.8271 -0.1546 -0.4887
 6871SOL    HW232247   0.794   0.603   9.086  1.4731  1.4067 -1.8675
 6872SOL     OW32248   2.221   4.440   4.758 -0.1269 -0.3613 -0.2686
 6872SOL    HW132249   2.286   4.402   4.818 -1.1674  0.7067  1.5150
 6872SOL    HW232250   2.271   4.521   4.743 -1.2487 -0.3606 -3.9654
 6873SOL     OW32251   3.417   1.388   3.364  0.6593  0.0410  0.4360
 6873SOL    HW132252   3.478   1.460   3.349  0.7158 -0.4529 -1.6868
 6873SOL    HW232253   3.473   1.311   3.360  0.3113 -0.1370 -0.8187
 6874SOL     OW32254   3.125   1.953   9.857 -0.2353  0.2737  0.1039
 6874SOL    HW132255   3.193   1.885   9.858  1.4151  1.9382  1.6235
 6874SOL    HW232256   3.083   1.933   9.774 -1.4423  0.4189  0.6849
 6875SOL     OW32257   2.639   2.447   3.681  0.3338  0.4345 -1.1776
 6875SOL    HW132258   2.631   2.380   3.749 -2.5674  1.9531 -0.0401
 6875SOL    HW232259   2.675   2.387   3.615  2.0843 -1.3995  1.4288
 6876SOL     OW32260   1.671   1.808  17.457 -0.4508  0.4277  0.3695
 6876SOL    HW132261   1.728   1.796  17.381  1.6527 -0.7380  2.1447
 6876SOL    HW232262   1.640   1.719  17.473  0.4790 -0.1173 -0.8223
 6877SOL     OW32263   2.248   2.018   6.522 -0.6471  0.0836 -0.5815
 6877SOL    HW132264   2.238   2.110   6.546  0.2419  0.0992 -0.2844
 6877SOL    HW232265   2.323   2.000   6.579 -2.3886 -0.8833  1.3952
 6878SOL     OW32266   2.692   0.782   5.915 -0.3650 -0.2650  0.0640
 6878SOL    HW132267   2.708   0.765   6.007 -0.4089  0.0400  0.1294
 6878SOL    HW232268   2.602   0.816   5.913  0.4642  1.8744 -0.4727
 6879SOL     OW32269   3.990   3.032  11.492  0.0859 -0.2464 -0.0324
 6879SOL    HW132270   3.901   3.050  11.462  0.4396  1.8394  0.1724
 6879SOL    HW232271   3.973   2.953  11.545 -2.2658  1.1013  1.2629
 6880SOL     OW32272   2.932   4.489   9.474  0.1395 -0.4830 -0.2966
 6880SOL    HW132273   2.966   4.411   9.519 -3.0680 -2.0420 -0.5770
 6880SOL    HW232274   2.840   4.470   9.490 -0.4252  0.0689 -2.8856
 6881SOL     OW32275   0.591   3.847  17.720  0.4145 -0.2413 -0.0668
 6881SOL    HW132276   0.671   3.881  17.681 -0.1493  0.1202 -0.9079
 6881SOL    HW232277   0.571   3.786  17.649 -1.1370 -0.2387  0.3602
 6882SOL     OW32278   4.140   3.149   7.960  0.3508  0.6445  0.6741
 6882SOL    HW132279   4.094   3.168   8.042 -3.2339 -2.7533 -0.5797
 6882SOL    HW232280   4.082   3.087   7.915  0.9681  2.0827 -2.1223
 6883SOL     OW32281   3.382   0.711   7.320 -0.4143  0.3547  0.0587
 6883SOL    HW132282   3.456   0.768   7.298 -0.0762 -0.4908 -0.9553
 6883SOL    HW232283   3.326   0.718   7.242  0.6398  1.6679 -0.5873
 6884SOL     OW32284   0.434   1.011   2.562 -0.4290 -0.4494 -0.4574
 6884SOL    HW132285   0.470   1.100   2.558 -2.0329  0.1390 -1.7331
 6884SOL    HW232286   0.506   0.973   2.612 -2.0326 -0.6151  1.7329
 6885SOL     OW32287   3.309   1.650   0.740  0.3142  0.2362  0.3366
 6885SOL    HW132288   3.330   1.558   0.724  0.0376 -0.1278  2.0570
 6885SOL    HW232289   3.371   1.674   0.809 -1.3412 -1.9753  2.5686
 6886SOL     OW32290   3.833   1.032   8.772 -0.1014 -0.4360 -0.2945
 6886SOL    HW132291   3.751   1.082   8.773 -1.4549 -2.6028 -0.5358
 6886SOL    HW232292   3.792   0.948   8.751 -2.4216  0.5834  0.0997
 6887SOL     OW32293   0.249   1.796  12.146 -0.1357  0.1218 -0.7951
 6887SOL    HW132294   0.207   1.725  12.194  0.0596  0.3118 -0.3350
 6887SOL    HW232295   0.172   1.831  12.101 -2.2872 -1.9448  1.2766
 6888SOL     OW32296   4.593   3.606  15.680  0.3133 -0.3188  0.7539
 6888SOL    HW132297   4.659   3.634  15.617 -0.1881  1.9334  1.2194
 6888SOL    HW232298   4.512   3.605  15.628  0.6902  2.2827  0.1582
 6889SOL     OW32299   4.669   3.920   4.778 -0.3295 -0.2757  0.0729
 6889SOL    HW132300   4.618   3.982   4.830  0.0238  0.7735 -0.8368
 6889SOL    HW232301   4.607   3.860   4.736 -1.9899  0.2271  1.8055
 6890SOL     OW32302   3.572   1.077   8.359  0.4384  0.1428  0.1821
 6890SOL    HW132303   3.558   0.997   8.410 -3.3136  0.0305 -0.9932
 6890SOL    HW232304   3.548   1.147   8.419  0.5883  3.0442 -3.1144
 6891SOL     OW32305   1.418   0.985   3.212 -0.1660  0.3060  0.2182
 6891SOL    HW132306   1.414   1.068   3.165  1.5579 -1.6967 -3.5750
 6891SOL    HW232307   1.345   0.996   3.272 -0.1429  0.4911  0.2098
 6892SOL     OW32308   2.279   0.644   6.191  0.3740 -0.6011  0.2451
 6892SOL    HW132309   2.272   0.737   6.213 -1.5980 -0.6502 -0.1200
 6892SOL    HW232310   2.301   0.657   6.099 -3.5583  1.3300 -0.4463
 6893SOL     OW32311   2.013   1.610   5.536  0.4387  0.2914  0.3588
 6893SOL    HW132312   2.031   1.697   5.572  0.0884  0.0666  1.0840
 6893SOL    HW232313   2.095   1.575   5.503  0.6073  0.1674  0.9099
 6894SOL     OW32314   1.194   0.051   4.105 -0.0064  0.0662  0.5581
 6894SOL    HW132315   1.264   0.002   4.148 -0.3302  1.3863  2.5988
 6894SOL    HW232316   1.235   0.137   4.117 -0.0769  0.1784  0.0053
 6895SOL     OW32317   1.978   2.563   6.261  0.1775  0.0466 -0.3125
 6895SOL    HW132318   2.050   2.514   6.302 -0.0090 -1.1658 -1.4498
 6895SOL    HW232319   2.005   2.562   6.170 -0.8582 -1.9531 -0.5858
 6896SOL     OW32320   3.779   1.842  13.476  0.3792 -0.1547 -0.0793
 6896SOL    HW132321   3.869   1.819  13.502 -0.3068 -0.6619  1.8566
 6896SOL    HW232322   3.744   1.758  13.506  0.6604 -0.1519  0.2617
 6897SOL     OW32323   0.296   0.205   7.224  0.2196  0.0679  0.1296
 6897SOL    HW132324   0.208   0.177   7.251 -0.1446 -1.8445 -3.0326
 6897SOL    HW232325   0.337   0.118   7.221  0.6810  0.3385 -1.3692
 6898SOL     OW32326   1.902   0.210  13.871  0.4012 -0.4081 -0.4248
 6898SOL    HW132327   1.890   0.125  13.914  0.8830 -0.0354  0.4381
 6898SOL    HW232328   1.885   0.275  13.938 -0.7436  0.3196 -1.4194
 6899SOL     OW32329   4.272   1.599  10.454 -0.1659 -0.1005  0.3622
 6899SOL    HW132330   4.362   1.596  10.488 -0.2816  0.8725  0.7769
 6899SOL    HW232331   4.238   1.684  10.485  1.2861  0.5114  0.2878
 6900SOL     OW32332   1.462   4.289  15.394 -0.5401 -0.0929  0.1460
 6900SOL    HW132333   1.436   4.251  15.310 -3.7487 -0.0577  1.1380
 6900SOL    HW232334   1.557   4.296  15.383 -0.1504  0.4074  3.9132
 6901SOL     OW32335   2.649   3.894   4.453  0.1956 -0.3080  0.2864
 6901SOL    HW132336   2.554   3.884   4.444  0.2136 -1.2329  1.1474
 6901SOL    HW232337   2.672   3.893   4.360 -0.0239 -1.3697  0.2389
 6902SOL     OW32338   2.681   3.303   2.446 -0.5220 -0.1163 -0.0595
 6902SOL    HW132339   2.753   3.295   2.509 -0.1082  0.8981 -0.4034
 6902SOL    HW232340   2.611   3.268   2.501  0.2467  0.2432  1.1575
 6903SOL     OW32341   0.571   1.657   9.694 -0.1332 -0.0093 -0.1033
 6903SOL    HW132342   0.645   1.597   9.681 -0.5694 -0.1440 -1.9802
 6903SOL    HW232343   0.601   1.717   9.762  0.1071 -1.7305  1.3058
 6904SOL     OW32344   1.911   3.889   5.446  0.2832 -0.0390  0.4282
 6904SOL    HW132345   2.000   3.917   5.424  0.6066 -1.7401 -0.4106
 6904SOL    HW232346   1.930   3.804   5.484  1.8016  0.6671  1.2740
 6905SOL     OW32347   4.516   1.388   2.055 -0.2061  0.0790  0.1639
 6905SOL    HW132348   4.484   1.316   2.110 -0.0352  0.8022  1.2077
 6905SOL    HW232349   4.524   1.465   2.112  0.4943  0.1868 -0.0795
 6906SOL     OW32350   0.068   2.755   1.632  0.1694  0.1323  0.7128
 6906SOL    HW132351   0.130   2.687   1.607  0.0511 -0.6795  2.5976
 6906SOL    HW232352   0.003   2.741   1.564 -1.3843  3.2049  1.5568
 6907SOL     OW32353   3.674   3.569   5.395 -0.2985  0.3648 -0.1749
 6907SOL    HW132354   3.672   3.520   5.312  2.7965 -0.0369 -0.0109
 6907SOL    HW232355   3.588   3.561   5.436 -1.2583  0.6629 -2.1425
 6908SOL     OW32356   0.971   0.122   8.792  0.2842 -0.3385 -0.2771
 6908SOL    HW132357   0.968   0.055   8.860 -2.7728 -0.9751 -1.0496
 6908SOL    HW232358   0.933   0.196   8.841  0.2741 -1.1864  1.0052
 6909SOL     OW32359   4.704   3.430   7.169  0.4975 -0.2049  0.1986
 6909SOL    HW132360   4.643   3.484   7.119  2.2810  0.4648 -1.2644
 6909SOL    HW232361   0.045   3.483   7.188  0.9570 -1.2312  1.2428
 6910SOL     OW32362   0.256   4.174   0.324  0.6960 -0.2273  0.5169
 6910SOL    HW132363   0.218   4.192   0.239  0.4514  0.4524  0.7706
 6910SOL    HW232364   0.344   4.147   0.296  1.0670 -0.4598  1.8712
 6911SOL     OW32365   0.802   1.187   2.451 -0.1253 -0.3156  0.4306
 6911SOL    HW132366   0.733   1.245   2.417  0.6844 -0.0264 -0.7025
 6911SOL    HW232367   0.751   1.109   2.473  1.4465 -1.0377  1.4633
 6912SOL     OW32368   0.217   3.195   7.317  0.2598  0.4206  0.1471
 6912SOL    HW132369   0.136   3.152   7.287  0.1915  0.2859  0.5276
 6912SOL    HW232370   0.281   3.125   7.303 -1.5913 -1.6711  1.9846
 6913SOL     OW32371   0.790   3.110   4.496  0.0960  0.1816  0.4735
 6913SOL    HW132372   0.713   3.054   4.494  1.9573 -2.3714  1.1808
 6913SOL    HW232373   0.860   3.060   4.455 -2.3787 -1.0228 -2.2640
 6914SOL     OW32374   2.387   2.552   3.671 -0.2683 -0.2936 -0.1629
 6914SOL    HW132375   2.375   2.509   3.586 -0.6899 -1.6306  0.5641
 6914SOL    HW232376   2.479   2.528   3.679 -0.6451 -0.7947  2.5666
 6915SOL     OW32377   2.490   1.331   6.154 -0.2586  0.5071  0.3041
 6915SOL    HW132378   2.442   1.283   6.221  2.9563  0.2354  2.4560
 6915SOL    HW232379   2.492   1.263   6.087 -0.0910 -0.6344  1.4767
 6916SOL     OW32380   4.360   1.190  13.952 -0.2062  0.3427 -0.4382
 6916SOL    HW132381   4.417   1.201  13.876  0.7139 -0.6727  0.1068
 6916SOL    HW232382   4.376   1.099  13.974 -0.1421  0.0146 -1.8276
 6917SOL     OW32383   1.158   2.702  12.758  0.1809  0.9093  0.2572
 6917SOL    HW132384   1.146   2.676  12.850 -0.5422  0.5332  0.0587
 6917SOL    HW232385   1.067   2.731  12.746 -0.9628 -2.3811  0.8875
 6918SOL     OW32386   2.453   3.332  15.382  0.1128  0.4168 -0.2023
 6918SOL    HW132387   2.470   3.333  15.288 -0.1263  0.1597 -0.2501
 6918SOL    HW232388   2.472   3.426  15.391  1.8509 -0.2762  3.2265
 6919SOL     OW32389   1.036   0.390   5.568 -0.0204 -0.4830 -0.0739
 6919SOL    HW132390   0.966   0.395   5.503 -0.1937  0.1835  0.1615
 6919SOL    HW232391   1.109   0.406   5.508 -0.4322 -1.4315 -0.8187
 6920SOL     OW32392   3.578   1.021   2.431 -0.6516 -0.1531 -0.0703
 6920SOL    HW132393   3.518   1.083   2.389  0.7058  0.0160 -1.7481
 6920SOL    HW232394   3.518   0.947   2.433 -1.4772  0.5729  2.5770
 6921SOL     OW32395   4.009   2.971   3.619  0.3470  0.2433  0.0233
 6921SOL    HW132396   4.090   2.987   3.667 -0.3368  1.7183  0.6881
 6921SOL    HW232397   3.943   3.033   3.649  1.7735  1.8619 -0.1263
 6922SOL     OW32398   3.458   4.127  11.076  0.0061 -0.0924  0.1007
 6922SOL    HW132399   3.438   4.104  11.167  1.7807 -3.0087 -0.2306
 6922SOL    HW232400   3.365   4.132  11.053 -0.1345 -0.6630  0.5288
 6923SOL     OW32401   4.498   1.898   1.507  0.1278  0.1926 -0.2079
 6923SOL    HW132402   4.590   1.908   1.483  0.2249  0.1132  0.1276
 6923SOL    HW232403   4.461   1.892   1.419  0.4739  3.4013 -0.5750
 6924SOL     OW32404   2.862   2.172   7.979 -0.1078 -0.5366  0.0474
 6924SOL    HW132405   2.799   2.234   7.942 -0.0824 -2.1625 -2.7295
 6924SOL    HW232406   2.842   2.093   7.928  0.9166  0.0733 -1.3102
 6925SOL     OW32407   1.351   3.775   4.455  0.1805 -0.2703 -0.1736
 6925SOL    HW132408   1.308   3.808   4.375 -0.0103  0.6645  0.3120
 6925SOL    HW232409   1.277   3.782   4.515  0.5204 -1.4170  0.3667
 6926SOL     OW32410   3.856   4.356   6.405  0.3562  0.4853  0.2115
 6926SOL    HW132411   3.921   4.299   6.364  0.3695 -0.5847  1.7173
 6926SOL    HW232412   3.848   4.306   6.486  0.2536 -0.1892 -0.2222
 6927SOL     OW32413   2.006   2.738  12.362  0.1386 -0.5623  0.2645
 6927SOL    HW132414   1.941   2.711  12.296 -0.9421  1.4076  0.5164
 6927SOL    HW232415   2.092   2.723  12.323 -0.4425 -0.4727 -1.0423
 6928SOL     OW32416   2.315   1.519  15.317 -0.4383 -0.1205 -0.2644
 6928SOL    HW132417   2.316   1.605  15.359  0.0975 -0.5551  0.6150
 6928SOL    HW232418   2.239   1.517  15.259 -0.0715  2.6836 -0.8867
 6929SOL     OW32419   3.522   1.154   3.062 -0.5481 -0.1122 -0.0710
 6929SOL    HW132420   3.559   1.136   2.975 -0.7014 -2.0184  0.2458
 6929SOL    HW232421   3.597   1.169   3.120 -1.5000  1.8067  0.6595
 6930SOL     OW32422   0.253   0.766   6.650  0.5567 -0.1038  0.4392
 6930SOL    HW132423   0.283   0.683   6.686 -1.1264 -0.5917  0.7519
 6930SOL    HW232424   0.177   0.791   6.702  1.4348  1.4980  0.9381
 6931SOL     OW32425   3.597   1.166   2.066  0.3108  0.0988  0.3355
 6931SOL    HW132426   3.544   1.107   2.012 -0.5041  1.1719 -0.0479
 6931SOL    HW232427   3.677   1.116   2.082  0.7473  0.4269 -0.7962
 6932SOL     OW32428   4.267   0.911   4.842 -0.4373  0.1190  0.0741
 6932SOL    HW132429   4.322   0.973   4.794 -0.2403 -1.3864 -1.6075
 6932SOL    HW232430   4.184   0.926   4.797 -0.2478  2.3873  0.4792
 6933SOL     OW32431   3.625   3.989  15.438  0.6737 -0.2431  0.2275
 6933SOL    HW132432   3.605   3.965  15.528 -1.4062 -0.9916 -0.4282
 6933SOL    HW232433   3.560   4.057  15.421 -0.8350 -1.7050  0.1405
 6934SOL     OW32434   0.158   0.561   9.900  0.3486  0.0024 -0.1457
 6934SOL    HW132435   0.185   0.653   9.900 -2.4647  0.8213 -0.9572
 6934SOL    HW232436   0.248   0.530   9.890  1.1449  1.9387  0.9747
 6935SOL     OW32437   3.722   3.614  12.284  0.3028 -0.5850 -0.1203
 6935SOL    HW132438   3.733   3.520  12.270  0.9547 -0.3516 -1.1406
 6935SOL    HW232439   3.627   3.620  12.293  0.6552  1.7232  2.2617
 6936SOL     OW32440   3.373   2.913   9.165  0.3727  0.2711  0.4308
 6936SOL    HW132441   3.300   2.904   9.227  0.0783 -0.9126 -0.0916
 6936SOL    HW232442   3.333   2.970   9.099  0.9973  1.4486  1.0574
 6937SOL     OW32443   3.857   2.057   7.416 -0.0711 -0.0262 -0.4926
 6937SOL    HW132444   3.821   2.066   7.504 -1.5145 -2.1629 -0.8519
 6937SOL    HW232445   3.778   2.050   7.362 -0.7356  2.7051  0.1290
 6938SOL     OW32446   2.252   4.060   3.112  0.6328 -0.1804 -0.2068
 6938SOL    HW132447   2.289   3.975   3.090 -3.8890 -2.2343  0.1835
 6938SOL    HW232448   2.192   4.032   3.180 -1.6285  1.6174 -1.4422
 6939SOL     OW32449   3.515   0.869  10.711 -0.3423  0.0293 -0.2012
 6939SOL    HW132450   3.476   0.890  10.626 -1.8216  0.5273  0.6075
 6939SOL    HW232451   3.449   0.909  10.768  0.3511  0.5674  0.2144
 6940SOL     OW32452   2.246   3.436  16.570 -0.0352  0.5987  0.1300
 6940SOL    HW132453   2.233   3.403  16.481  1.8953  0.4313 -0.0993
 6940SOL    HW232454   2.308   3.507  16.556  0.0133  0.6910  0.7910
 6941SOL     OW32455   1.201   0.453   0.800  0.4626 -0.2792 -0.6952
 6941SOL    HW132456   1.152   0.400   0.738  1.0455 -1.0695 -0.4909
 6941SOL    HW232457   1.147   0.531   0.796 -0.9733 -1.3456 -2.1109
 6942SOL     OW32458   2.575   0.614   6.274  0.5848 -0.5614  0.0416
 6942SOL    HW132459   2.480   0.607   6.264  0.7153 -0.8318 -0.9641
 6942SOL    HW232460   2.589   0.531   6.320  0.1064 -1.6771 -1.8492
 6943SOL     OW32461   0.471   1.968   8.407  0.6718 -0.1281  0.0378
 6943SOL    HW132462   0.518   1.885   8.419  0.3653 -0.6305 -2.2422
 6943SOL    HW232463   0.400   1.961   8.471  0.1847 -0.2574 -0.5209
 6944SOL     OW32464   3.653   4.372  13.091  0.0396  0.2807 -0.5844
 6944SOL    HW132465   3.578   4.420  13.126 -1.2920 -2.6089  0.5161
 6944SOL    HW232466   3.619   4.282  13.096  2.5690 -0.5884  0.6535
 6945SOL     OW32467   4.355   1.547   7.519 -0.0939  0.3817 -0.0625
 6945SOL    HW132468   4.364   1.473   7.579  2.8546 -0.1211 -1.1274
 6945SOL    HW232469   4.324   1.612   7.581 -1.6047 -0.3746 -0.0453
 6946SOL     OW32470   3.028   4.263   9.576  0.0419 -0.1543 -0.1221
 6946SOL    HW132471   3.112   4.217   9.575  0.1431  0.0351 -0.3403
 6946SOL    HW232472   3.020   4.279   9.670 -0.0893 -3.4101  0.4350
 6947SOL     OW32473   0.642   0.495   0.090  0.0344  0.2579 -0.5186
 6947SOL    HW132474   0.729   0.470   0.120  0.7200  2.4364 -0.6881
 6947SOL    HW232475   0.629   0.581   0.129 -0.4375 -0.1723  0.2754
 6948SOL     OW32476   4.109   2.226  10.893  0.5879  0.7082  0.0876
 6948SOL    HW132477   4.058   2.267  10.964 -0.3281  0.8335 -0.6404
 6948SOL    HW232478   4.103   2.137  10.929 -1.1508  0.7717 -0.0062
 6949SOL     OW32479   1.461   1.111   2.280  0.4802 -0.5380 -1.0468
 6949SOL    HW132480   1.423   1.041   2.332 -0.6699  0.5801 -0.3616
 6949SOL    HW232481   1.387   1.153   2.235 -0.7498 -2.0096 -0.3529
 6950SOL     OW32482   0.301   0.944  10.783 -0.2298 -0.1211  0.0530
 6950SOL    HW132483   0.224   0.972  10.732 -0.8700 -2.7036 -0.3999
 6950SOL    HW232484   0.282   0.852  10.766  0.2568 -0.3959  1.0112
 6951SOL     OW32485   1.797   1.464   4.705 -0.5556 -0.1122 -0.3072
 6951SOL    HW132486   1.830   1.398   4.644  1.9762  2.1686 -1.4456
 6951SOL    HW232487   1.879   1.509   4.727  0.3707 -1.4071 -1.0528
 6952SOL     OW32488   0.990   1.823   6.203 -0.2015 -0.1234  0.3282
 6952SOL    HW132489   1.064   1.883   6.215  0.1761 -0.4065 -0.6156
 6952SOL    HW232490   1.020   1.743   6.246 -0.3123 -0.4866 -0.2692
 6953SOL     OW32491   1.429   3.520   7.918 -0.1925 -0.2462  0.1651
 6953SOL    HW132492   1.369   3.522   7.844  0.3147 -0.7156 -0.2576
 6953SOL    HW232493   1.495   3.589   7.909 -0.1222 -0.5380 -1.6130
 6954SOL     OW32494   3.395   1.735   4.752  0.2896  0.3213 -0.2196
 6954SOL    HW132495   3.433   1.802   4.809  1.4411  0.1340 -0.7748
 6954SOL    HW232496   3.331   1.777   4.694  0.6219  0.9596 -0.1237
 6955SOL     OW32497   3.306   1.263   5.948 -0.3078 -0.0671  0.0419
 6955SOL    HW132498   3.278   1.254   6.039  1.5473  1.2940  0.7542
 6955SOL    HW232499   3.278   1.180   5.909  0.1082 -0.7305  1.1407
 6956SOL     OW32500   2.717   1.833   1.942 -0.0377 -0.3145 -0.0822
 6956SOL    HW132501   2.713   1.919   1.983  3.4288 -0.2276  0.0897
 6956SOL    HW232502   2.655   1.833   1.869 -0.9669  0.9096  0.7092
 6957SOL     OW32503   3.226   4.592   3.863  0.0508  0.1279 -0.1804
 6957SOL    HW132504   3.318   4.613   3.881 -0.1024  1.9347 -1.5822
 6957SOL    HW232505   3.184   4.602   3.949 -0.3814  1.4587 -0.5539
 6958SOL     OW32506   3.466   2.281   2.798  0.0563  0.0049  0.4109
 6958SOL    HW132507   3.480   2.218   2.728  0.7558 -0.3305  0.8494
 6958SOL    HW232508   3.420   2.227   2.862  1.2075 -1.0104  0.3893
 6959SOL     OW32509   0.796   3.413  10.851  0.3019 -0.3965 -0.1728
 6959SOL    HW132510   0.705   3.389  10.868 -0.3728  1.1497 -1.5097
 6959SOL    HW232511   0.799   3.493  10.904 -2.8584 -1.0541  1.0080
 6960SOL     OW32512   0.065   0.268   3.122 -0.4044  0.0632 -0.4453
 6960SOL    HW132513   0.101   0.326   3.055 -1.1562  1.1861  0.1141
 6960SOL    HW232514   0.105   0.186   3.094 -0.0678 -0.4238  1.5050
 6961SOL     OW32515   0.838   1.241   7.983  0.4742  0.1036  0.4509
 6961SOL    HW132516   0.851   1.205   7.895  0.7467 -0.5376  0.7562
 6961SOL    HW232517   0.743   1.231   7.989  0.4446  0.7371  0.9627
 6962SOL     OW32518   1.779   4.587   9.490  0.1838 -0.5762 -0.0150
 6962SOL    HW132519   1.862   4.554   9.525  0.2700  0.6468  0.9457
 6962SOL    HW232520   1.729   4.605   9.570 -0.5241  0.0667 -0.6060
 6963SOL     OW32521   0.834   3.198   3.557  0.3908 -0.1374 -0.5288
 6963SOL    HW132522   0.755   3.199   3.502  0.6194 -2.8795 -0.9093
 6963SOL    HW232523   0.848   3.292   3.543 -2.2142  0.6958  2.3756
 6964SOL     OW32524   1.691   3.654  14.235 -0.4678 -0.0755  0.4519
 6964SOL    HW132525   1.699   3.672  14.141 -0.7263 -1.3833  0.1752
 6964SOL    HW232526   1.606   3.693  14.254 -1.2075 -0.4011 -2.1670
 6965SOL     OW32527   3.440   1.263  15.908 -0.0025  0.3578  0.4088
 6965SOL    HW132528   3.505   1.333  15.905 -0.7209  1.0390  0.8642
 6965SOL    HW232529   3.362   1.318  15.917  0.2566  0.6054  1.1023
 6966SOL     OW32530   0.849   4.430   8.152  0.4573  0.3084 -0.4049
 6966SOL    HW132531   0.929   4.378   8.155  1.7300  2.2593 -0.2708
 6966SOL    HW232532   0.888   4.501   8.101 -0.1299  0.0423 -1.2103
 6967SOL     OW32533   1.365   3.926   6.126  0.0860 -0.2811  0.1451
 6967SOL    HW132534   1.356   3.940   6.031 -0.8759  1.2224  0.4624
 6967SOL    HW232535   1.273   3.933   6.150 -0.5058  2.1158 -2.7757
 6968SOL     OW32536   1.229   3.754   7.343 -0.1287  0.7123 -0.0509
 6968SOL    HW132537   1.300   3.711   7.296 -0.3707  1.1176 -0.7806
 6968SOL    HW232538   1.174   3.675   7.350 -1.0930  1.2820 -1.2325
 6969SOL     OW32539   3.626   3.875  13.713 -0.3910  0.3345 -0.2930
 6969SOL    HW132540   3.593   3.904  13.798 -0.1946  0.4182 -0.2448
 6969SOL    HW232541   3.546   3.832  13.680  1.1136 -1.7556 -1.2726
 6970SOL     OW32542   4.358   1.437   2.523 -0.1205  0.2102  0.3537
 6970SOL    HW132543   4.311   1.520   2.528  1.7746  1.4235 -1.9807
 6970SOL    HW232544   4.286   1.374   2.533 -0.3565  0.4935  0.4176
 6971SOL     OW32545   1.751   2.252   9.398 -0.0011 -0.9976 -0.5595
 6971SOL    HW132546   1.811   2.305   9.345 -0.8337  0.7279  0.1980
 6971SOL    HW232547   1.735   2.309   9.473 -0.7659 -2.2929  0.2434
 6972SOL     OW32548   1.266   4.030   7.959 -0.1486  0.6288 -0.2777
 6972SOL    HW132549   1.237   4.043   8.049  0.6728 -0.1992  0.1064
 6972SOL    HW232550   1.260   3.935   7.953 -0.8244  0.6769 -0.3052
 6973SOL     OW32551   3.425   1.737   1.928  0.3992  0.3302  0.4909
 6973SOL    HW132552   3.346   1.758   1.977  0.5181  0.4826  0.6139
 6973SOL    HW232553   3.398   1.742   1.836 -0.7802 -2.8286  0.6455
 6974SOL     OW32554   1.414   0.235   5.595 -0.0380  0.1701  0.0892
 6974SOL    HW132555   1.358   0.296   5.548  1.4754  1.9697  0.6254
 6974SOL    HW232556   1.377   0.147   5.593  0.2816  0.0588 -0.8470
 6975SOL     OW32557   3.753   2.977   8.358 -0.3161  0.4881  0.5902
 6975SOL    HW132558   3.694   2.940   8.423 -0.4202 -0.3297  0.0358
 6975SOL    HW232559   3.713   3.056   8.322  1.4825  1.3178  0.3734
 6976SOL     OW32560   0.223   0.997   0.203 -0.4605  0.1567  0.1468
 6976SOL    HW132561   0.145   0.941   0.199  0.1812 -0.7497  0.4517
 6976SOL    HW232562   0.275   0.952   0.136  0.4148  1.2871  0.0579
 6977SOL     OW32563   0.399   3.524   6.409  0.4508 -0.4535  0.2433
 6977SOL    HW132564   0.407   3.526   6.504 -1.0144 -0.3835  0.3690
 6977SOL    HW232565   0.317   3.564   6.378  1.0683 -0.6180 -1.5943
 6978SOL     OW32566   1.462   2.627  12.903  0.5634 -0.3049  0.2897
 6978SOL    HW132567   1.551   2.627  12.866 -0.1635  0.1307 -1.4587
 6978SOL    HW232568   1.414   2.656  12.825  1.5826  1.1522  0.2003
 6979SOL     OW32569   2.263   0.709   5.929  0.1246  0.2069 -0.4392
 6979SOL    HW132570   2.186   0.664   5.895  0.9347 -0.1647 -1.8111
 6979SOL    HW232571   2.274   0.767   5.853 -1.9942 -0.6228 -1.3702
 6980SOL     OW32572   4.622   3.500  17.241  0.0227  0.2536 -0.5055
 6980SOL    HW132573   4.589   3.479  17.154 -1.7030  2.6667 -0.4137
 6980SOL    HW232574   4.644   3.414  17.278 -0.7046 -0.2910 -1.3578
 6981SOL     OW32575   4.328   2.372  14.005  0.3396 -0.7055  0.0061
 6981SOL    HW132576   4.283   2.448  14.045 -0.5397 -0.6000 -1.1864
 6981SOL    HW232577   4.260   2.305  14.018  1.8078 -2.2160 -0.2393
 6982SOL     OW32578   0.910   3.089   9.158  0.1913  0.0820 -0.1988
 6982SOL    HW132579   0.952   3.174   9.152  0.2661 -0.0397 -1.4297
 6982SOL    HW232580   0.816   3.106   9.155  0.3997  1.3088  0.1312
 6983SOL     OW32581   1.082   0.534   6.068 -0.3292  0.3086  0.0391
 6983SOL    HW132582   1.087   0.439   6.076 -2.3273  0.1244 -0.8453
 6983SOL    HW232583   1.133   0.565   6.143  1.1227 -1.1861 -0.3560
 6984SOL     OW32584   1.419   0.736  16.660  0.0205 -0.1685  0.3177
 6984SOL    HW132585   1.363   0.668  16.698 -0.4996  0.9687  1.5903
 6984SOL    HW232586   1.494   0.716  16.715  0.4392 -3.2840 -1.4242
 6985SOL     OW32587   0.475   0.998   6.232 -0.7482  0.2121 -0.6963
 6985SOL    HW132588   0.443   0.922   6.281 -0.1480 -0.4499 -1.3335
 6985SOL    HW232589   0.542   0.948   6.185 -0.9068 -1.7514  1.1790
 6986SOL     OW32590   4.657   3.340  16.280  0.1300 -0.6646  0.5719
 6986SOL    HW132591   4.647   3.407  16.347 -0.9268 -0.2011 -0.0547
 6986SOL    HW232592   4.735   3.373  16.234  1.5546 -0.4361  3.1524
 6987SOL     OW32593   3.660   1.905  11.877 -0.1123  0.1166 -0.2406
 6987SOL    HW132594   3.613   1.935  11.955  1.0929 -2.1710  1.3502
 6987SOL    HW232595   3.621   1.820  11.855 -0.8360  0.5530 -0.6426
 6988SOL     OW32596   0.277   3.340  12.341 -0.4621  0.2887 -0.5944
 6988SOL    HW132597   0.184   3.363  12.335 -0.5326 -0.4638 -2.2010
 6988SOL    HW232598   0.287   3.331  12.436  2.6134 -1.4923 -1.0946
 6989SOL     OW32599   4.119   0.107  10.573 -0.2262 -0.0821  0.0881
 6989SOL    HW132600   4.144   0.047  10.644  1.8230 -1.4961 -1.8528
 6989SOL    HW232601   4.203   0.117  10.529 -1.0528  2.8700 -0.8251
 6990SOL     OW32602   2.659   3.575   2.438  0.1227  0.1150  0.6458
 6990SOL    HW132603   2.676   3.481   2.433  1.5110  0.5221 -2.8494
 6990SOL    HW232604   2.749   3.602   2.417 -0.5920  0.9531 -1.3765
 6991SOL     OW32605   3.990   4.503  10.370  0.2805 -0.4508  0.8950
 6991SOL    HW132606   3.943   4.575  10.412 -2.6060 -1.3194 -0.9035
 6991SOL    HW232607   4.011   4.452  10.448  0.8903  1.2466  1.8323
 6992SOL     OW32608   3.847   0.401  10.799  0.3686 -0.2204 -0.8025
 6992SOL    HW132609   3.895   0.390  10.716 -0.1431 -0.2315 -1.0994
 6992SOL    HW232610   3.922   0.418  10.856 -1.3798  4.7010  0.0450
 6993SOL     OW32611   0.865   2.066   7.827  0.4951 -0.5047  0.1196
 6993SOL    HW132612   0.785   2.013   7.831  1.4441 -1.7313  3.1177
 6993SOL    HW232613   0.847   2.136   7.764  3.1668 -0.5439 -0.6645
 6994SOL     OW32614   2.838   1.995   4.812  0.2465 -0.4479  0.2478
 6994SOL    HW132615   2.896   1.931   4.854  1.0109 -0.4432 -0.7859
 6994SOL    HW232616   2.834   2.066   4.876  1.2876 -0.2928  0.1460
 6995SOL     OW32617   4.381   1.821   1.094 -0.3446  0.1452  0.4687
 6995SOL    HW132618   4.342   1.769   1.023 -0.3819  0.8143  0.0028
 6995SOL    HW232619   4.427   1.883   1.038 -2.1768  1.3922  0.3561
 6996SOL     OW32620   3.448   4.459   3.543  0.0362  0.6467  0.7595
 6996SOL    HW132621   3.425   4.437   3.453 -2.7757 -1.7032  2.0420
 6996SOL    HW232622   3.389   4.402   3.593 -1.3035 -0.6924 -2.3660
 6997SOL     OW32623   1.800   3.436   8.747  0.1510  0.1710 -0.3519
 6997SOL    HW132624   1.742   3.507   8.720 -0.2160  0.0157  0.0159
 6997SOL    HW232625   1.789   3.376   8.674  1.0627  0.8362 -1.0293
 6998SOL     OW32626   1.124   0.294  14.348  0.1706  0.3206  0.0710
 6998SOL    HW132627   1.052   0.348  14.315  2.7425  3.5942 -0.1429
 6998SOL    HW232628   1.083   0.210  14.327 -0.2319  0.1013  1.7049
 6999SOL     OW32629   3.569   3.001  13.219 -0.3047  0.1308  0.2782
 6999SOL    HW132630   3.590   2.918  13.177 -0.0362  1.0507 -1.4286
 6999SOL    HW232631   3.645   3.060  13.210 -0.1314 -0.2613 -0.8203
 7000SOL     OW32632   1.027   4.470   5.432  0.1198 -0.3479 -0.4583
 7000SOL    HW132633   0.985   4.409   5.371  1.0165 -3.6826  2.2602
 7000SOL    HW232634   0.966   4.542   5.448 -0.9705 -1.6506  1.2261
 7001SOL     OW32635   3.482   4.454  16.368 -0.0056  0.4553 -0.3059
 7001SOL    HW132636   3.417   4.411  16.423 -1.5331  1.8923 -0.9883
 7001SOL    HW232637   3.493   4.543  16.401  0.5064 -0.1619  1.1881
 7002SOL     OW32638   4.038   0.846   7.134  0.1812 -0.6254  0.3961
 7002SOL    HW132639   4.120   0.851   7.183  1.0309  0.4879 -1.1487
 7002SOL    HW232640   4.071   0.810   7.052 -1.8594 -4.4723  1.2804
 7003SOL     OW32641   3.962   1.878   8.618  0.3857  0.0126 -0.3579
 7003SOL    HW132642   3.893   1.811   8.615 -0.2911  0.5810  2.2277
 7003SOL    HW232643   3.909   1.955   8.639  0.9307  0.1967  0.3500
 7004SOL     OW32644   2.306   0.543   4.210 -0.4190 -0.6690  0.0098
 7004SOL    HW132645   2.211   0.535   4.217 -0.4739 -0.6115 -0.6954
 7004SOL    HW232646   2.337   0.492   4.285  0.0719 -0.7653 -0.2561
 7005SOL     OW32647   2.793   3.879  11.619  0.3041 -0.3605  0.2691
 7005SOL    HW132648   2.849   3.838  11.553 -0.3570 -0.1913 -0.3945
 7005SOL    HW232649   2.785   3.810  11.685  0.0144  1.5976  2.3037
 7006SOL     OW32650   3.913   1.410   7.795  0.6983  0.3172 -0.3282
 7006SOL    HW132651   4.005   1.429   7.817 -0.4670  1.1410  3.9369
 7006SOL    HW232652   3.896   1.344   7.863 -3.8902  1.2321 -0.6302
 7007SOL     OW32653   4.063   3.880   4.820 -0.0295  0.1284 -0.6459
 7007SOL    HW132654   4.074   3.785   4.824  0.5798  0.1619 -1.4732
 7007SOL    HW232655   4.150   3.907   4.791 -1.0241  2.7644 -1.2201
 7008SOL     OW32656   3.882   3.900   8.499 -0.0952 -0.4462 -0.1277
 7008SOL    HW132657   3.918   3.909   8.587 -1.6103  0.6796  0.3826
 7008SOL    HW232658   3.801   3.950   8.511  1.2361  1.6964 -0.1299
 7009SOL     OW32659   2.217   0.673   6.753 -0.5746  0.1806 -0.9243
 7009SOL    HW132660   2.261   0.743   6.800  1.4335 -1.2980 -0.5807
 7009SOL    HW232661   2.286   0.639   6.695 -1.1046  0.1621 -1.5458
 7010SOL     OW32662   0.261   2.764   6.777 -0.0152 -0.0675 -0.2495
 7010SOL    HW132663   0.204   2.687   6.779 -1.9717  1.4350  1.4182
 7010SOL    HW232664   0.236   2.807   6.696 -0.3966  1.1782  0.5348
 7011SOL     OW32665   2.447   1.684  14.642 -0.1472 -0.4395  0.3283
 7011SOL    HW132666   2.453   1.605  14.589  1.3512  0.1983 -0.4533
 7011SOL    HW232667   2.357   1.700  14.612  0.3226 -0.1551 -0.9491
 7012SOL     OW32668   1.193   3.782   2.369  0.3493 -0.2558  0.1116
 7012SOL    HW132669   1.143   3.709   2.330 -1.7292  0.3997  1.5083
 7012SOL    HW232670   1.151   3.858   2.331 -0.2327 -0.4282  0.4005
 7013SOL     OW32671   0.395   4.682   7.238 -0.5276 -0.1056  0.3728
 7013SOL    HW132672   0.397   4.589   7.261 -0.1223 -0.9611 -3.1541
 7013SOL    HW232673   0.490   4.689   7.228 -0.4015  0.3990  1.8032
 7014SOL     OW32674   0.488   2.857   4.407  0.4426 -0.1175  0.3710
 7014SOL    HW132675   0.464   2.807   4.329 -0.5424  1.0875 -0.1103
 7014SOL    HW232676   0.496   2.946   4.371 -2.4508  0.6754  1.7251
 7015SOL     OW32677   2.094   4.099   2.423  0.2143 -0.2274  0.0818
 7015SOL    HW132678   2.139   4.071   2.503  1.7120  1.8557 -0.0200
 7015SOL    HW232679   2.008   4.131   2.448 -0.4570 -0.6989 -1.5967
 7016SOL     OW32680   2.089   3.628   2.982  0.3959  0.1568  0.2998
 7016SOL    HW132681   2.021   3.561   2.979  0.2427  0.2285  1.7966
 7016SOL    HW232682   2.154   3.589   3.042 -0.7004 -2.1838 -0.0273
 7017SOL     OW32683   3.103   4.237   6.991 -0.2673  0.2080  0.2159
 7017SOL    HW132684   3.024   4.229   6.939 -0.5210 -1.6946  0.9223
 7017SOL    HW232685   3.100   4.332   7.004  2.8206  0.4527 -0.6425
 7018SOL     OW32686   0.648   1.139  10.014  0.4858  0.3960 -0.1937
 7018SOL    HW132687   0.565   1.112  10.051 -0.0903 -1.3609 -2.7645
 7018SOL    HW232688   0.654   1.085   9.935 -0.4464 -0.7913  0.5430
 7019SOL     OW32689   3.418   3.968   5.773 -0.3858 -0.2451 -0.3052
 7019SOL    HW132690   3.412   4.054   5.732 -2.9674 -0.2444  0.0320
 7019SOL    HW232691   3.494   3.934   5.725 -1.5959 -0.0021 -2.4102
 7020SOL     OW32692   0.677   2.314   9.899  0.2741  0.4876  0.2370
 7020SOL    HW132693   0.751   2.307   9.839  0.8764  0.0915  1.0279
 7020SOL    HW232694   0.647   2.400   9.870 -1.2776  0.5717  2.0730
 7021SOL     OW32695   3.021   1.221   6.562  0.2822 -0.8116  0.0973
 7021SOL    HW132696   3.092   1.286   6.562  0.2187 -0.7378  1.7913
 7021SOL    HW232697   3.062   1.138   6.583  1.0184 -0.9480 -1.8733
 7022SOL     OW32698   4.671   2.306  14.331 -0.7194 -0.2194 -0.1347
 7022SOL    HW132699   4.719   2.384  14.358 -2.0277  0.8204 -0.8245
 7022SOL    HW232700   4.679   2.305  14.235  0.0449 -0.1125 -0.0713
 7023SOL     OW32701   3.553   3.850  12.448 -0.2604  0.4132 -0.6184
 7023SOL    HW132702   3.512   3.784  12.392 -1.0484  0.3954 -0.0155
 7023SOL    HW232703   3.645   3.841  12.422 -0.7632  0.7728 -2.5270
 7024SOL     OW32704   2.610   1.087  15.207  0.4601 -0.7182 -0.5827
 7024SOL    HW132705   2.557   1.015  15.172 -1.8534  1.5435 -1.6945
 7024SOL    HW232706   2.555   1.145  15.259  2.1109 -2.4142  3.0563
 7025SOL     OW32707   2.481   3.384   3.973 -0.1295 -0.6735 -0.2024
 7025SOL    HW132708   2.575   3.382   3.955  0.4510 -0.5209  2.8719
 7025SOL    HW232709   2.471   3.475   4.001  0.3503 -0.5880 -0.3179
 7026SOL     OW32710   4.611   1.254  14.878  0.2298  0.6546  0.0954
 7026SOL    HW132711   4.573   1.167  14.893 -2.6628  1.9449  0.2287
 7026SOL    HW232712   4.529   1.302  14.881 -0.3742 -0.3563 -0.3809
 7027SOL     OW32713   1.861   3.078   6.695  0.5092 -0.3816 -0.3528
 7027SOL    HW132714   1.930   3.137   6.727  0.4102 -0.4883  0.0652
 7027SOL    HW232715   1.883   3.079   6.602 -2.0106  1.6452 -0.9484
 7028SOL     OW32716   1.226   3.010   1.081 -0.2004  0.0568  0.1556
 7028SOL    HW132717   1.317   3.001   1.110 -0.3667 -0.9512  0.3428
 7028SOL    HW232718   1.240   3.008   0.987  0.2076  2.4678  0.1512
 7029SOL     OW32719   2.616   2.075   4.401  0.3929  0.1263 -0.1820
 7029SOL    HW132720   2.540   2.024   4.428 -0.5807  2.8331  2.2202
 7029SOL    HW232721   2.690   2.023   4.433  1.0812  1.7600  0.8892
 7030SOL     OW32722   0.328   3.763  11.663  0.1522  0.2562 -0.7268
 7030SOL    HW132723   0.267   3.696  11.631  0.1949 -0.5777  0.9253
 7030SOL    HW232724   0.275   3.839  11.640 -0.8457  0.4938  2.3207
 7031SOL     OW32725   2.171   0.341  13.907  0.4610 -0.4728  0.3277
 7031SOL    HW132726   2.123   0.422  13.890 -1.2737 -0.8757  3.3307
 7031SOL    HW232727   2.096   0.289  13.937  1.1173 -0.5139  1.8798
 7032SOL     OW32728   2.751   0.002   2.027  0.0049  0.5780 -0.2088
 7032SOL    HW132729   2.679   0.047   1.984  0.3493  0.6298 -0.7385
 7032SOL    HW232730   2.820   0.005   1.960 -0.2483  1.1231 -0.4424
 7033SOL     OW32731   0.204   1.897   7.779  0.6539  0.7690 -0.5850
 7033SOL    HW132732   0.185   1.811   7.817  1.1298  0.2348 -1.5660
 7033SOL    HW232733   0.144   1.960   7.820  0.9303  0.9263 -0.4236
 7034SOL     OW32734   3.833   0.144  11.912  0.0014  0.4291 -0.2626
 7034SOL    HW132735   3.775   0.159  11.987  2.7403  0.2277  1.9166
 7034SOL    HW232736   3.796   0.061  11.880  0.1584  1.2234 -2.4875
 7035SOL     OW32737   2.102   0.543  17.287  0.3913  0.5924  0.1609
 7035SOL    HW132738   2.122   0.548  17.380  4.1878 -1.2913 -0.5547
 7035SOL    HW232739   2.075   0.630  17.257  1.1878  1.0475  0.7528
 7036SOL     OW32740   1.717   2.150   6.043 -0.2611 -0.2527  0.3356
 7036SOL    HW132741   1.725   2.178   5.951 -1.7012 -1.4017 -0.1199
 7036SOL    HW232742   1.692   2.220   6.103  3.5502  0.4280  1.1741
 7037SOL     OW32743   2.284   4.652   7.583  0.0585 -0.4452 -0.1507
 7037SOL    HW132744   2.269   4.609   7.667  0.7728  1.2878  0.8569
 7037SOL    HW232745   2.318   4.578   7.533  0.0597 -0.4192 -0.1881
 7038SOL     OW32746   4.198   4.088  16.663 -0.0292  0.1012 -0.8591
 7038SOL    HW132747   4.248   4.094  16.745 -0.3516 -0.8426 -0.5922
 7038SOL    HW232748   4.223   4.167  16.615  1.1962  0.3149  0.1324
 7039SOL     OW32749   4.320   2.956   8.881 -0.0459  0.1464  0.1472
 7039SOL    HW132750   4.321   3.049   8.904 -2.6227 -0.2606  1.9082
 7039SOL    HW232751   4.410   2.930   8.900  0.7142  1.6595 -1.4022
 7040SOL     OW32752   2.007   0.716   3.863 -0.3551 -0.1846 -0.0796
 7040SOL    HW132753   1.952   0.645   3.895 -0.9579  1.1569  1.8963
 7040SOL    HW232754   1.941   0.757   3.806 -0.4389  1.2062  1.0101
 7041SOL     OW32755   0.580   1.457   2.989  0.1345 -0.3286  0.6252
 7041SOL    HW132756   0.598   1.394   2.920 -0.5518 -0.6726  0.7613
 7041SOL    HW232757   0.487   1.466   2.969  0.3334 -0.8789 -0.5459
 7042SOL     OW32758   1.900   0.261   7.254 -0.0385 -0.1041 -0.0979
 7042SOL    HW132759   1.867   0.341   7.295  2.2310  0.9544 -0.3478
 7042SOL    HW232760   1.853   0.192   7.301  1.5167 -3.0034 -2.8392
 7043SOL     OW32761   1.345   3.244   6.976  0.6411 -0.7061 -0.3613
 7043SOL    HW132762   1.290   3.249   6.899 -0.1337 -0.3841  0.2135
 7043SOL    HW232763   1.407   3.177   6.946 -0.1193 -1.2415 -0.7372
 7044SOL     OW32764   4.594   1.499   7.112 -0.0369  0.3200  0.1225
 7044SOL    HW132765   4.659   1.429   7.114 -2.3486 -1.7989  0.7107
 7044SOL    HW232766   4.631   1.553   7.042  1.2728 -0.6416  0.0811
 7045SOL     OW32767   4.687   2.685  17.167  0.3370 -0.6300  0.6185
 7045SOL    HW132768   4.600   2.725  17.171  0.1923 -0.9187  0.3693
 7045SOL    HW232769   4.706   2.674  17.074 -0.0517  1.4404  0.3015
 7046SOL     OW32770   2.186   1.410   8.897 -0.5241  0.1042 -0.0491
 7046SOL    HW132771   2.130   1.432   8.823 -1.0040  0.1867  0.3373
 7046SOL    HW232772   2.135   1.348   8.948 -0.6100  0.6649  0.5488
 7047SOL     OW32773   3.990   0.367   6.834  0.1450  0.4942 -0.8990
 7047SOL    HW132774   3.899   0.385   6.856  0.2023 -0.3717  0.0660
 7047SOL    HW232775   3.984   0.301   6.765 -2.0955 -0.6643  0.4230
 7048SOL     OW32776   2.484   1.207   7.289  0.5539  0.1397 -0.1011
 7048SOL    HW132777   2.465   1.141   7.356 -0.3086 -0.9725 -1.4331
 7048SOL    HW232778   2.576   1.229   7.300  0.3252  0.1610  1.7358
 7049SOL     OW32779   3.435   3.330   6.550  0.2789 -0.2729 -0.4729
 7049SOL    HW132780   3.376   3.322   6.625 -0.5366  1.3207 -0.9367
 7049SOL    HW232781   3.400   3.399   6.493  1.8927  0.9263 -0.0492
 7050SOL     OW32782   3.039   4.682   3.610  0.3846 -0.1426  0.5669
 7050SOL    HW132783   3.018   4.700   3.518 -1.5747  1.0897  1.2455
 7050SOL    HW232784   3.132   4.703   3.610  0.0397  1.4193  0.1061
 7051SOL     OW32785   0.928   3.855   8.446 -0.1089 -0.1854 -0.6391
 7051SOL    HW132786   0.898   3.791   8.511  0.3354 -0.1359 -0.3858
 7051SOL    HW232787   0.857   3.919   8.446  0.5665  0.5636 -1.6144
 7052SOL     OW32788   4.041   3.550   8.530  0.0908  0.3388  0.6400
 7052SOL    HW132789   4.048   3.559   8.625 -0.6409 -0.0855  0.7365
 7052SOL    HW232790   4.049   3.643   8.510  0.2768  0.5119  1.5376
 7053SOL     OW32791   0.056   1.818   8.708 -0.5060 -0.0703  0.5829
 7053SOL    HW132792   4.706   1.858   8.711 -1.3253 -1.8014 -0.2929
 7053SOL    HW232793   0.060   1.759   8.784  0.0464  0.7504  1.1894
 7054SOL     OW32794   0.159   1.563   7.061  0.1843  0.4524 -0.5325
 7054SOL    HW132795   0.099   1.630   7.028  1.4401  1.9003  0.1160
 7054SOL    HW232796   0.209   1.616   7.123 -0.6043 -0.9886  1.3293
 7055SOL     OW32797   3.811   1.013  16.208 -0.5016 -0.0721  0.2588
 7055SOL    HW132798   3.798   0.939  16.150 -0.0736 -1.0025  1.3511
 7055SOL    HW232799   3.721   1.031  16.238 -0.2335 -1.4444  1.8858
 7056SOL     OW32800   4.192   3.902   1.477  0.7289  0.3875 -0.7126
 7056SOL    HW132801   4.164   3.871   1.391  0.3651 -2.7549  0.5579
 7056SOL    HW232802   4.180   3.823   1.530 -0.1723  0.0261 -1.4578
 7057SOL     OW32803   1.166   2.659   7.215  0.7763 -0.8249  0.5011
 7057SOL    HW132804   1.137   2.676   7.126 -0.3177 -1.0995  0.8003
 7057SOL    HW232805   1.146   2.566   7.226  1.6291 -1.2237 -1.3669
 7058SOL     OW32806   3.117   2.108   0.029 -0.1966 -0.2119  0.0057
 7058SOL    HW132807   3.074   2.081   0.111 -2.7807 -1.4542 -1.7613
 7058SOL    HW232808   3.199   2.059   0.036  0.1529  0.2969 -0.5411
 7059SOL     OW32809   0.905   2.102  16.809  0.3951  0.5000 -0.4247
 7059SOL    HW132810   0.819   2.123  16.773 -0.1870  0.4029  0.9440
 7059SOL    HW232811   0.926   2.178  16.863  1.4646 -0.7823  0.9613
 7060SOL     OW32812   4.329   4.419   1.882  0.0846 -0.0089 -0.3742
 7060SOL    HW132813   4.244   4.404   1.923  1.4772  0.0822  2.5477
 7060SOL    HW232814   4.335   4.515   1.883  1.0060 -0.0655 -0.1314
 7061SOL     OW32815   3.525   1.521   5.431  0.8748  0.4707  0.1906
 7061SOL    HW132816   3.518   1.603   5.481 -3.2683  0.4737 -0.3999
 7061SOL    HW232817   3.489   1.457   5.493  0.1439  0.2545 -0.4569
 7062SOL     OW32818   3.436   2.856   3.960  0.1094  0.2564 -0.0698
 7062SOL    HW132819   3.491   2.899   4.025 -0.7030 -0.3492  1.0075
 7062SOL    HW232820   3.396   2.778   3.997  0.5687  1.2917  2.6436
 7063SOL     OW32821   1.916   2.753  16.077 -1.0630  0.3454  0.3004
 7063SOL    HW132822   1.860   2.695  16.128  1.0364 -1.5041  0.5276
 7063SOL    HW232823   1.973   2.796  16.142 -1.5390 -0.8073  1.4804
 7064SOL     OW32824   0.826   3.838  10.356  0.2343 -0.2192 -0.0251
 7064SOL    HW132825   0.872   3.921  10.345 -1.7543  1.2078  2.4808
 7064SOL    HW232826   0.842   3.820  10.448 -0.7725 -0.7576  0.0487
 7065SOL     OW32827   0.194   0.424   2.921  0.5382 -0.4331 -0.5486
 7065SOL    HW132828   0.279   0.402   2.883 -0.2894 -0.4635 -2.3913
 7065SOL    HW232829   0.132   0.432   2.848  3.5655 -0.0941 -3.0671
 7066SOL     OW32830   1.200   0.143   8.635 -0.1192 -0.0584  0.1771
 7066SOL    HW132831   1.212   0.048   8.635 -1.6301 -0.2561  1.0840
 7066SOL    HW232832   1.106   0.131   8.651  0.1358 -2.3405  0.0047
 7067SOL     OW32833   1.794   3.248   9.716 -0.0596  0.0043 -0.1900
 7067SOL    HW132834   1.854   3.190   9.762 -1.6860 -0.6861  1.0655
 7067SOL    HW232835   1.707   3.227   9.750  0.6135  0.4061  1.8308
 7068SOL     OW32836   2.034   2.474   5.696  0.3554  1.1325  0.2227
 7068SOL    HW132837   2.025   2.474   5.791  1.1059 -1.1228  0.3057
 7068SOL    HW232838   2.095   2.403   5.673 -0.3231  1.0183 -1.2058
 7069SOL     OW32839   0.557   1.886   6.964  0.2091  0.1600  0.0346
 7069SOL    HW132840   0.638   1.875   6.913 -0.1393 -0.3313 -0.4174
 7069SOL    HW232841   0.564   1.977   6.991 -1.4028 -0.1550  1.5393
 7070SOL     OW32842   2.878   4.160  11.635 -0.0562 -0.1526  0.0189
 7070SOL    HW132843   2.842   4.071  11.637  0.2261 -0.2682  0.0341
 7070SOL    HW232844   2.807   4.210  11.675 -1.1630 -1.8707  0.2004
 7071SOL     OW32845   1.087   4.537   6.061 -0.4657 -0.0175  0.2655
 7071SOL    HW132846   1.045   4.561   6.144  0.9249  0.5504  0.8061
 7071SOL    HW232847   1.135   4.457   6.083  1.0961  1.0269  0.6589
 7072SOL     OW32848   2.036   0.449   7.591 -0.3931 -0.6329  0.3772
 7072SOL    HW132849   1.949   0.432   7.554 -0.1655  1.3714 -1.0291
 7072SOL    HW232850   2.039   0.543   7.572  1.2431 -0.7412  0.0837
 7073SOL     OW32851   3.167   0.333   0.750  0.1935  0.1113  0.1252
 7073SOL    HW132852   3.090   0.284   0.719  0.9712  0.4836 -2.3327
 7073SOL    HW232853   3.232   0.268   0.722  0.1407 -0.3413  1.0350
 7074SOL     OW32854   0.546   1.407   9.955  0.2544  0.2511 -0.5027
 7074SOL    HW132855   0.594   1.332   9.991  0.5339 -0.0728 -1.5446
 7074SOL    HW232856   0.583   1.407   9.866  2.3780  1.6627  0.3873
 7075SOL     OW32857   0.619   3.124   9.139 -0.5240 -0.1975 -0.6107
 7075SOL    HW132858   0.575   3.199   9.179 -0.0501  0.4867 -1.3582
 7075SOL    HW232859   0.562   3.100   9.066  1.2892 -0.2686 -2.0145
 7076SOL     OW32860   2.755   1.971   2.565 -0.2153 -0.0273  0.3466
 7076SOL    HW132861   2.851   1.975   2.559 -0.1558 -1.6130  0.2511
 7076SOL    HW232862   2.733   1.929   2.482  1.0862 -0.3355  0.1503
 7077SOL     OW32863   0.867   1.456  10.003  0.1858 -0.5119 -0.1752
 7077SOL    HW132864   0.781   1.470   9.964  0.2496 -1.1837 -0.5560
 7077SOL    HW232865   0.854   1.517  10.076  1.9977 -1.1751  0.7207
 7078SOL     OW32866   3.819   0.002  11.639  0.3159 -0.0316 -0.1253
 7078SOL    HW132867   3.823   4.670  11.706  0.1310  0.3610  0.2849
 7078SOL    HW232868   3.741   0.049  11.667  1.3283  1.0140  0.9119
 7079SOL     OW32869   4.313   4.485  17.148  0.0380  0.5096  0.0238
 7079SOL    HW132870   4.237   4.456  17.096 -1.0138  1.1857  1.1721
 7079SOL    HW232871   4.364   4.535  17.084  1.8635  0.7278  1.6773
 7080SOL     OW32872   0.690   3.887  11.232  0.1398 -0.7427 -0.2721
 7080SOL    HW132873   0.765   3.860  11.286  0.2642  0.0410 -0.0479
 7080SOL    HW232874   0.636   3.880  11.311  1.2052  0.8237  0.6136
 7081SOL     OW32875   2.533   2.914  16.286  0.1017  0.4084  0.1669
 7081SOL    HW132876   2.561   2.945  16.372  0.9240  0.2612 -0.0467
 7081SOL    HW232877   2.476   2.987  16.265 -1.1727 -0.4387  0.6763
 7082SOL     OW32878   0.720   1.806   9.839  0.1805  0.2670 -0.1354
 7082SOL    HW132879   0.751   1.822   9.928 -1.7942  1.0472  0.4179
 7082SOL    HW232880   0.781   1.849   9.780 -0.3392  0.1859 -0.7297
 7083SOL     OW32881   3.826   2.054  15.622 -0.1650 -0.1482  0.3348
 7083SOL    HW132882   3.837   1.959  15.625  0.3719 -0.0982 -0.1060
 7083SOL    HW232883   3.745   2.056  15.572  0.3467 -0.9099 -0.5204
 7084SOL     OW32884   2.562   3.469   9.912 -0.3514 -0.0984  0.4310
 7084SOL    HW132885   2.550   3.554   9.955 -0.6969 -0.2096  0.5541
 7084SOL    HW232886   2.497   3.475   9.843 -1.3199 -1.3983  1.2382
 7085SOL     OW32887   4.570   2.091  15.564  0.6945 -0.1424  0.0498
 7085SOL    HW132888   4.664   2.069  15.561  0.4597 -0.7986 -2.1953
 7085SOL    HW232889   4.547   2.019  15.505 -1.0909  0.8071 -0.4061
 7086SOL     OW32890   3.870   2.634   9.897  0.1875 -0.0654  0.2239
 7086SOL    HW132891   3.777   2.620   9.879  0.4913 -1.3341 -0.3974
 7086SOL    HW232892   3.874   2.717   9.851 -1.1613 -0.4931 -0.6566
 7087SOL     OW32893   3.313   2.361  13.058 -0.2398 -0.2005  0.5289
 7087SOL    HW132894   3.235   2.370  13.003  0.7913  2.6460 -0.4634
 7087SOL    HW232895   3.291   2.423  13.127 -0.9236 -0.4590  0.5424
 7088SOL     OW32896   1.267   0.459  13.997 -0.3117  0.2099  0.0347
 7088SOL    HW132897   1.286   0.525  14.064  0.4936  0.1483 -0.1327
 7088SOL    HW232898   1.213   0.504  13.932 -0.2327  0.3477  0.0637
 7089SOL     OW32899   2.111   1.379   6.215  0.0087 -0.1319  0.0470
 7089SOL    HW132900   2.174   1.450   6.226 -0.0410 -0.3073  1.3845
 7089SOL    HW232901   2.028   1.428   6.210  0.0510 -0.3278 -2.7891
 7090SOL     OW32902   2.156   1.456  13.105 -0.2575  0.7850 -0.0908
 7090SOL    HW132903   2.173   1.503  13.186  0.0866  1.2147 -0.4108
 7090SOL    HW232904   2.121   1.377  13.146  0.3096 -0.3823 -1.8695
 7091SOL     OW32905   4.339   1.827   7.081  0.5056  0.6389 -0.2317
 7091SOL    HW132906   4.244   1.819   7.077  0.5003  1.1339 -1.1069
 7091SOL    HW232907   4.352   1.746   7.129 -0.5429 -1.1846 -3.0377
 7092SOL     OW32908   1.941   2.873   1.571  0.0462 -0.1941  0.0849
 7092SOL    HW132909   2.036   2.869   1.562  0.0848  3.5336 -0.9876
 7092SOL    HW232910   1.940   2.931   1.647  0.9498 -0.8534  0.5988
 7093SOL     OW32911   3.351   3.456   9.282 -0.4160  0.2986  0.1665
 7093SOL    HW132912   3.320   3.402   9.354 -1.6390 -0.5545 -0.9988
 7093SOL    HW232913   3.438   3.426   9.254 -0.4646  0.0730  0.2645
 7094SOL     OW32914   4.225   3.912   0.943  0.6555 -0.3121  0.0675
 7094SOL    HW132915   4.208   3.819   0.929 -1.0293 -0.2305  1.5990
 7094SOL    HW232916   4.301   3.929   0.887  0.8026 -0.9300  0.0849
 7095SOL     OW32917   4.433   1.358   4.262 -0.0335 -0.8705 -0.5137
 7095SOL    HW132918   4.376   1.432   4.283 -0.4543 -0.4649 -3.0585
 7095SOL    HW232919   4.459   1.383   4.173 -3.2268 -1.0060 -1.4963
 7096SOL     OW32920   3.029   2.602   2.694 -0.8967  0.0126 -0.4358
 7096SOL    HW132921   2.990   2.515   2.697 -0.2385 -0.2005  1.5443
 7096SOL    HW232922   3.086   2.603   2.617  1.5506 -0.2104  1.3747
 7097SOL     OW32923   2.963   3.423   8.270 -0.3180 -0.1833 -0.7362
 7097SOL    HW132924   3.010   3.350   8.230 -2.0490 -2.0042  0.5675
 7097SOL    HW232925   2.876   3.383   8.276  0.0664 -0.6708  1.3255
 7098SOL     OW32926   0.613   2.920   5.797  0.3714 -0.0640  0.0992
 7098SOL    HW132927   0.546   2.972   5.752  0.4530 -0.0274  0.0195
 7098SOL    HW232928   0.547   2.874   5.849 -0.4615 -0.7265 -1.5593
 7099SOL     OW32929   3.911   1.765   7.757 -0.3879  0.5394  0.6005
 7099SOL    HW132930   3.880   1.745   7.845 -0.0319 -0.5574  0.4690
 7099SOL    HW232931   3.856   1.716   7.695  0.6374 -1.2197  1.0862
 7100SOL     OW32932   1.044   2.537   2.797  0.1420 -0.4326 -0.7572
 7100SOL    HW132933   1.039   2.512   2.889 -1.6182  0.3057 -0.6461
 7100SOL    HW232934   1.138   2.553   2.788  0.4279 -0.5045  2.0747
 7101SOL     OW32935   1.398   1.256   3.950 -0.1224  0.3735  0.1404
 7101SOL    HW132936   1.457   1.286   3.881  0.3511  0.1749  0.4631
 7101SOL    HW232937   1.387   1.162   3.931  0.6344 -0.3847  3.5325
 7102SOL     OW32938   2.065   2.701   2.872  0.5963 -0.0275 -0.3020
 7102SOL    HW132939   2.055   2.649   2.953  2.3057  0.0782 -0.0213
 7102SOL    HW232940   1.992   2.762   2.876  0.7314  0.1489 -0.5804
 7103SOL     OW32941   3.688   3.292   3.275 -0.1356  0.3492  0.2409
 7103SOL    HW132942   3.640   3.373   3.288 -0.3286  0.1787  0.6061
 7103SOL    HW232943   3.627   3.220   3.294  1.9555 -0.9359  2.1166
 7104SOL     OW32944   2.096   0.371   5.784 -0.0275  0.1720  0.0479
 7104SOL    HW132945   2.122   0.355   5.875 -0.1900  1.3727  0.3075
 7104SOL    HW232946   2.074   0.464   5.781  0.2356  0.1889 -1.3222
 7105SOL     OW32947   1.054   4.618   7.326 -0.3263 -0.5298  0.0379
 7105SOL    HW132948   0.962   4.644   7.332 -0.2767 -0.4971  0.6655
 7105SOL    HW232949   1.090   4.705   7.312 -1.2611 -0.4688 -2.1006
 7106SOL     OW32950   1.911   2.427   7.821 -0.6364 -0.3294 -0.0849
 7106SOL    HW132951   1.976   2.493   7.845 -2.3074  1.4465 -0.5075
 7106SOL    HW232952   1.849   2.481   7.773 -0.5158 -0.2135 -0.1098
 7107SOL     OW32953   3.567   2.885   2.027 -0.1343 -0.4551 -0.3270
 7107SOL    HW132954   3.561   2.906   1.934  0.3226 -1.8515 -0.6700
 7107SOL    HW232955   3.518   2.803   2.028  0.7371 -0.9741 -0.8126
 7108SOL     OW32956   0.527   0.183   7.052 -0.0545  0.0014  0.6115
 7108SOL    HW132957   0.503   0.180   6.960  1.3161  1.2985  0.2285
 7108SOL    HW232958   0.441   0.200   7.091  0.4018 -1.2508  2.1770
 7109SOL     OW32959   4.534   2.919   1.768 -0.1737  0.1180 -0.4053
 7109SOL    HW132960   4.628   2.937   1.778 -0.2575 -0.3419  1.1731
 7109SOL    HW232961   4.505   2.855   1.833 -1.8998  0.0810 -1.2247
 7110SOL     OW32962   3.102   1.614   5.144  0.0678  0.2949 -0.1807
 7110SOL    HW132963   3.132   1.559   5.071 -0.1813 -0.5086  0.3163
 7110SOL    HW232964   3.167   1.683   5.156  1.2956 -0.9963  0.7378
 7111SOL     OW32965   4.541   4.045   1.786  0.1818 -0.8500  0.3768
 7111SOL    HW132966   4.634   4.066   1.787  0.0818 -0.3169 -1.2876
 7111SOL    HW232967   4.517   4.015   1.698 -0.6088 -0.5681  0.4916
 7112SOL     OW32968   3.272   3.330   9.504  0.3861 -0.1884  0.4521
 7112SOL    HW132969   3.189   3.328   9.553 -1.1237 -3.2821 -2.1968
 7112SOL    HW232970   3.325   3.302   9.578  2.5007  0.1223 -0.9438
 7113SOL     OW32971   1.506   2.867  11.082  0.2713 -0.6205  0.0138
 7113SOL    HW132972   1.496   2.951  11.126 -1.1545  0.4027 -2.2317
 7113SOL    HW232973   1.601   2.853  11.085  0.3636 -0.5972 -2.7572
 7114SOL     OW32974   0.575   0.020  15.531 -0.8855 -0.3427 -0.4485
 7114SOL    HW132975   0.653   4.736  15.582  0.8432  1.8294 -2.1826
 7114SOL    HW232976   0.613   0.018  15.443  1.9206  0.5651  0.7274
 7115SOL     OW32977   4.273   3.534  13.126  0.0095  0.2786  1.0292
 7115SOL    HW132978   4.327   3.550  13.049  0.4596  0.8216  1.4583
 7115SOL    HW232979   4.344   3.530  13.191  1.0713  0.8697 -0.0919
 7116SOL     OW32980   0.232   0.276   8.257 -0.4458 -0.2918  0.3282
 7116SOL    HW132981   0.206   0.349   8.312  0.1647  0.2492 -0.0923
 7116SOL    HW232982   0.312   0.315   8.221  0.4852 -0.7979  1.8689
 7117SOL     OW32983   2.560   0.477   1.548  0.5875  0.3288  0.3961
 7117SOL    HW132984   2.645   0.432   1.549  0.3677 -0.1048 -1.3201
 7117SOL    HW232985   2.535   0.441   1.633  1.1036  0.5120  0.6254
 7118SOL     OW32986   1.079   1.272   0.123 -0.2659  0.2885  0.1376
 7118SOL    HW132987   1.168   1.238   0.135 -0.1364  0.5856  0.0159
 7118SOL    HW232988   1.083   1.304   0.033 -1.7138  2.1687  0.7483
 7119SOL     OW32989   4.118   1.129   3.261 -0.3812  0.1803 -0.6207
 7119SOL    HW132990   4.045   1.067   3.249 -0.1599 -0.1084 -0.4807
 7119SOL    HW232991   4.078   1.181   3.331 -0.5194  2.2144 -2.2181
 7120SOL     OW32992   1.218   3.766   6.883  0.6455 -0.7744 -0.1391
 7120SOL    HW132993   1.264   3.832   6.832 -2.2044 -0.2990 -2.1307
 7120SOL    HW232994   1.256   3.694   6.833 -1.1401 -1.6943 -0.1989
 7121SOL     OW32995   4.661   4.736   2.844 -0.0724 -0.3905 -0.1337
 7121SOL    HW132996   4.704   4.651   2.858  1.8823  0.6939  0.5352
 7121SOL    HW232997   4.576   4.698   2.824 -0.3206 -1.4121  2.7814
 7122SOL     OW32998   3.693   4.611   2.885 -0.1396 -0.0279 -0.3955
 7122SOL    HW132999   3.649   4.569   2.811  0.5528 -0.3124 -0.6455
 7122SOL    HW233000   3.764   4.548   2.895 -0.2134 -0.4903 -2.7783
 7123SOL     OW33001   1.761   2.867  11.830 -0.4626  0.6051 -0.3530
 7123SOL    HW133002   1.845   2.908  11.846 -0.5025  0.4476  0.2599
 7123SOL    HW233003   1.699   2.930  11.868 -1.7466 -0.4132 -0.7309
 7124SOL     OW33004   4.607   2.526   7.069 -0.0924  0.5561  0.1443
 7124SOL    HW133005   4.652   2.517   7.153  1.0654 -1.1883 -0.6678
 7124SOL    HW233006   4.524   2.566   7.097  0.0441 -0.7561  2.4279
 7125SOL     OW33007   1.754   4.389   1.873 -0.5284  0.1235  0.4619
 7125SOL    HW133008   1.845   4.409   1.893 -0.3664 -1.2687  1.0845
 7125SOL    HW233009   1.744   4.312   1.928  0.5203 -0.3169  0.0358
 7126SOL     OW33010   3.355   3.635  11.748  0.5582  0.0746 -0.3696
 7126SOL    HW133011   3.427   3.632  11.811 -2.8032 -0.6923  3.4887
 7126SOL    HW233012   3.404   3.636  11.666 -1.3688  0.4583 -1.5219
 7127SOL     OW33013   1.469   0.720   9.019 -0.6629  0.2666  0.5693
 7127SOL    HW133014   1.452   0.700   9.111 -1.8120 -1.4553 -0.0317
 7127SOL    HW233015   1.556   0.683   9.007  0.4000  1.9340  3.1771
 7128SOL     OW33016   2.190   4.620   3.061  0.0235  0.5582 -0.5982
 7128SOL    HW133017   2.214   4.545   3.116 -1.0665  0.4454 -0.2764
 7128SOL    HW233018   2.095   4.625   3.067  0.0363  2.0648 -1.6320
 7129SOL     OW33019   4.146   0.861  10.899  0.2214  0.3322 -0.0960
 7129SOL    HW133020   4.090   0.933  10.870  1.4427  0.4810 -2.0767
 7129SOL    HW233021   4.085   0.823  10.962  0.9259 -0.9500 -0.1820
 7130SOL     OW33022   2.776   0.392   4.653  0.1757  0.1349 -0.2008
 7130SOL    HW133023   2.711   0.330   4.621  1.4213 -0.3154 -1.8675
 7130SOL    HW233024   2.770   0.463   4.589  4.1178  0.1260 -0.5976
 7131SOL     OW33025   4.686   0.920  15.964 -0.6443  0.1188 -0.0767
 7131SOL    HW133026   0.025   0.902  16.020  1.3573  1.2482 -2.4045
 7131SOL    HW233027   4.717   0.868  15.890 -0.0567 -0.1998  0.3937
 7132SOL     OW33028   0.612   0.561   3.108  0.0291  0.3082 -0.2068
 7132SOL    HW133029   0.684   0.574   3.047  1.5544 -0.7653  1.3351
 7132SOL    HW233030   0.579   0.650   3.121  0.3718  0.1886  1.5784
 7133SOL     OW33031   3.154   3.048  14.437  0.2232 -0.3333 -0.4196
 7133SOL    HW133032   3.125   3.057  14.346 -1.0266  0.1632  0.0181
 7133SOL    HW233033   3.121   3.129  14.476 -0.7137 -0.2295 -1.4160
 7134SOL     OW33034   3.418   0.848   3.527 -0.3237 -0.1582 -0.5704
 7134SOL    HW133035   3.494   0.806   3.568 -0.9605 -0.8905 -0.1416
 7134SOL    HW233036   3.382   0.778   3.472  2.2626 -1.5248 -0.5080
 7135SOL     OW33037   1.788   2.398  11.006  0.0260 -0.1918 -0.7995
 7135SOL    HW133038   1.764   2.308  10.986  0.7731 -0.7906  1.1045
 7135SOL    HW233039   1.882   2.381  11.009  0.0893 -0.1654 -2.5983
 7136SOL     OW33040   4.343   4.090   5.140  0.3268 -0.3511  0.1209
 7136SOL    HW133041   4.255   4.102   5.176  0.2250 -2.0441  0.4119
 7136SOL    HW233042   4.354   3.996   5.149 -1.6854 -0.4839  0.9872
 7137SOL     OW33043   1.129   3.785   5.884 -0.1208 -0.0245 -0.1115
 7137SOL    HW133044   1.090   3.873   5.883 -0.3277 -0.1292 -1.3817
 7137SOL    HW233045   1.126   3.753   5.794  1.3453  0.1789 -0.2198
 7138SOL     OW33046   4.096   1.521   5.294 -0.3753  0.5639  0.1748
 7138SOL    HW133047   4.042   1.563   5.227 -0.4320  1.4144  0.7438
 7138SOL    HW233048   4.185   1.553   5.276 -0.2635  1.5289  2.4399
 7139SOL     OW33049   0.487   4.516   3.299  0.1519 -0.5243  0.6546
 7139SOL    HW133050   0.541   4.508   3.221 -2.4111 -1.5730 -0.9944
 7139SOL    HW233051   0.534   4.573   3.360  0.0175  0.5311 -0.2344
 7140SOL     OW33052   2.492   1.046   6.345  0.1515 -0.1693  0.3547
 7140SOL    HW133053   2.549   1.012   6.276  1.6388 -0.4304  1.7355
 7140SOL    HW233054   2.550   1.115   6.378 -0.6727 -0.5840  2.6401
 7141SOL     OW33055   3.652   1.868   4.359 -0.5371 -0.0033  0.2131
 7141SOL    HW133056   3.683   1.894   4.272 -1.1279  1.9336  0.5879
 7141SOL    HW233057   3.593   1.942   4.370 -0.1844  0.5067 -1.2530
 7142SOL     OW33058   1.112   3.323   4.222 -0.2095  0.3975  0.2493
 7142SOL    HW133059   1.150   3.267   4.156 -0.7287 -1.0410  1.1708
 7142SOL    HW233060   1.183   3.384   4.244 -0.2065  0.3404  0.3995
 7143SOL     OW33061   0.223   1.021   9.145  0.2650  0.4404 -0.0454
 7143SOL    HW133062   0.156   1.072   9.191 -0.2611 -1.3774  1.2115
 7143SOL    HW233063   0.180   0.936   9.128  0.8117  0.1642 -0.0350
 7144SOL     OW33064   1.083   3.407  11.202 -0.0402 -0.5167 -0.0796
 7144SOL    HW133065   0.995   3.372  11.192 -0.8015  2.1367 -2.5660
 7144SOL    HW233066   1.082   3.473  11.133  0.0595  0.2301  0.6348
 7145SOL     OW33067   2.311   1.177  13.569  0.2692  0.2470 -0.0225
 7145SOL    HW133068   2.341   1.250  13.515 -0.4861  1.8976  1.7949
 7145SOL    HW233069   2.221   1.174  13.538 -0.4673 -0.6975  2.1749
 7146SOL     OW33070   3.376   0.006   2.824 -0.3409 -0.4882  0.3576
 7146SOL    HW133071   3.386   4.688   2.746 -0.7427  0.2233 -0.1867
 7146SOL    HW233072   3.315   4.685   2.870  0.2488  0.0094  1.7514
 7147SOL     OW33073   3.235   1.806   6.462 -0.2520 -0.7068  0.0832
 7147SOL    HW133074   3.185   1.744   6.516 -0.9878  0.7868  1.1096
 7147SOL    HW233075   3.188   1.809   6.378  1.6919 -0.5594 -1.0150
 7148SOL     OW33076   1.766   2.688   6.391 -0.1846 -0.2767 -1.0742
 7148SOL    HW133077   1.841   2.663   6.338  0.9208  0.1883  0.2801
 7148SOL    HW233078   1.745   2.609   6.441  1.4425  2.0092  3.2304
 7149SOL     OW33079   3.328   4.259  10.059  0.5731  0.5328  0.3714
 7149SOL    HW133080   3.248   4.285  10.103  0.2779 -3.4235  2.2080
 7149SOL    HW233081   3.379   4.202  10.117  1.1430  0.4704 -0.1790
 7150SOL     OW33082   4.668   0.928  16.628  0.0858 -0.5580 -0.0952
 7150SOL    HW133083   4.736   0.868  16.656  1.2964  0.3017 -1.1735
 7150SOL    HW233084   4.713   0.978  16.560  0.1534 -1.2994 -0.5967
 7151SOL     OW33085   1.352   0.848  14.710 -0.4069 -0.5935  0.6930
 7151SOL    HW133086   1.412   0.827  14.781  1.2733  0.5341 -0.3915
 7151SOL    HW233087   1.338   0.941  14.727 -0.9574 -0.2905 -1.3269
 7152SOL     OW33088   4.295   4.148   1.839 -0.0478  0.2701 -0.2516
 7152SOL    HW133089   4.302   4.244   1.835  1.2172  0.2858  2.4933
 7152SOL    HW233090   4.380   4.131   1.797  0.5503  1.4908  0.4712
 7153SOL     OW33091   0.285   4.057   0.553  0.7227  0.1703 -0.4110
 7153SOL    HW133092   0.320   4.135   0.596  0.9068 -0.8063  1.2054
 7153SOL    HW233093   0.274   4.093   0.465  2.2167  0.1815 -0.5924
 7154SOL     OW33094   3.035   2.969   3.236  0.4877  0.1956  0.1135
 7154SOL    HW133095   3.008   2.996   3.324 -3.1755 -0.0727 -0.9409
 7154SOL    HW233096   3.079   2.889   3.267 -1.0312 -0.8826 -0.5442
 7155SOL     OW33097   4.379   3.903   0.717 -0.0934  0.3259  0.2456
 7155SOL    HW133098   4.379   3.887   0.623 -0.2533  4.8367 -0.5115
 7155SOL    HW233099   4.471   3.921   0.733 -0.2996 -1.1610  3.1753
 7156SOL     OW33100   4.690   1.887   4.009 -1.0486  0.3275  0.4653
 7156SOL    HW133101   0.030   1.886   4.066 -1.8217 -0.4602  1.4776
 7156SOL    HW233102   4.713   1.811   3.955 -0.1114  1.9188 -1.3916
 7157SOL     OW33103   2.446   2.968   4.303 -0.1963  0.1669 -0.2935
 7157SOL    HW133104   2.441   3.052   4.257 -0.9262  1.9843  3.1336
 7157SOL    HW233105   2.528   2.932   4.270 -0.5488 -0.2792 -0.6883
 7158SOL     OW33106   2.894   1.718   7.096 -0.1085  0.6274 -0.8780
 7158SOL    HW133107   2.800   1.737   7.093 -0.2256  0.1213 -0.4608
 7158SOL    HW233108   2.926   1.746   7.182 -2.0267  0.6954 -0.1850
 7159SOL     OW33109   3.402   4.008   8.638 -0.6770 -0.3469 -0.5946
 7159SOL    HW133110   3.468   4.042   8.577  0.1773 -1.5017 -0.3076
 7159SOL    HW233111   3.449   4.023   8.719 -2.8943  1.0797  0.4201
 7160SOL     OW33112   0.275   3.191  17.443  0.2238 -0.0606  0.7708
 7160SOL    HW133113   0.231   3.114  17.481  0.7857 -0.4326  0.6798
 7160SOL    HW233114   0.218   3.256  17.482 -0.1752  0.3076 -0.4345
 7161SOL     OW33115   4.348   1.936   6.570  0.2938 -0.3953  0.4728
 7161SOL    HW133116   4.396   2.013   6.598  0.5614 -0.3245 -0.1753
 7161SOL    HW233117   4.339   1.955   6.476 -0.2263  1.3555  0.8788
 7162SOL     OW33118   2.089   1.290  12.825 -0.4119 -0.1724  0.0510
 7162SOL    HW133119   2.184   1.281  12.815 -0.3777  0.4147 -0.1204
 7162SOL    HW233120   2.088   1.386  12.827  0.4333 -0.1201 -2.8344
 7163SOL     OW33121   0.826   0.549   4.413 -0.0525  0.1182 -0.1058
 7163SOL    HW133122   0.901   0.568   4.357 -1.2035  1.3000 -1.2507
 7163SOL    HW233123   0.831   0.453   4.409 -2.3254  0.0347 -0.8882
 7164SOL     OW33124   2.726   2.918   9.243  0.3810  0.0396  0.6021
 7164SOL    HW133125   2.820   2.938   9.245  0.8292 -1.9932  0.2118
 7164SOL    HW233126   2.720   2.841   9.187 -0.0391  1.2498 -1.0169
 7165SOL     OW33127   2.159   1.849   4.853  0.4216  0.4694 -0.2022
 7165SOL    HW133128   2.199   1.896   4.780  0.4850  0.8569  0.0794
 7165SOL    HW233129   2.229   1.840   4.918 -2.2347 -2.6092  2.2284
 7166SOL     OW33130   2.750   1.834   9.419  0.4139 -0.4929 -0.2472
 7166SOL    HW133131   2.806   1.771   9.466  0.3620 -0.2102  0.1972
 7166SOL    HW233132   2.673   1.831   9.476  0.3554 -0.0485 -0.3039
 7167SOL     OW33133   2.109   4.427  10.031  0.3188  0.1452 -0.4122
 7167SOL    HW133134   2.049   4.478   9.975  1.5783  0.2689 -1.6523
 7167SOL    HW233135   2.108   4.341   9.989  0.1719  0.0464 -0.2028
 7168SOL     OW33136   1.578   4.382   1.008  0.2061 -0.2231 -0.1673
 7168SOL    HW133137   1.605   4.296   0.974  0.5433  0.3555 -1.3449
 7168SOL    HW233138   1.500   4.381   0.952 -0.0865 -0.3868  0.2434
 7169SOL     OW33139   3.805   0.557   6.521  0.0960  0.4555  0.8813
 7169SOL    HW133140   3.808   0.511   6.438 -1.3352  0.5122  0.8051
 7169SOL    HW233141   3.899   0.568   6.538  0.4063 -0.0531 -0.5130
 7170SOL     OW33142   1.551   0.742   5.241 -0.8094  0.0138  0.6173
 7170SOL    HW133143   1.626   0.689   5.269  0.3968  0.8514 -1.0019
 7170SOL    HW233144   1.580   0.829   5.268  1.4868 -0.6128  0.1418
 7171SOL     OW33145   3.710   3.220   7.561  0.3928 -0.2712  0.2506
 7171SOL    HW133146   3.758   3.224   7.478 -1.1792 -2.2764 -0.7537
 7171SOL    HW233147   3.617   3.223   7.541  0.2977  0.8595  0.8897
 7172SOL     OW33148   2.353   3.878   4.996  0.0006  0.2601 -0.0870
 7172SOL    HW133149   2.259   3.865   5.008 -0.0141  1.5186  1.1482
 7172SOL    HW233150   2.393   3.878   5.083  2.1645  0.3165 -1.0753
 7173SOL     OW33151   4.135   2.513   2.555 -0.0088 -0.4535  0.1708
 7173SOL    HW133152   4.066   2.481   2.614  0.8012 -0.3754  1.1517
 7173SOL    HW233153   4.176   2.430   2.532  1.0212 -0.0761  0.6625
 7174SOL     OW33154   1.456   0.383   7.027  0.2899 -0.4851 -0.3063
 7174SOL    HW133155   1.457   0.358   6.935 -3.0008  1.8048 -0.9720
 7174SOL    HW233156   1.445   0.478   7.025 -2.1271 -0.7342  1.4646
 7175SOL     OW33157   1.402   2.631   2.898  0.1447 -0.8629  0.0888
 7175SOL    HW133158   1.434   2.588   2.819  0.4726 -0.6192  0.0882
 7175SOL    HW233159   1.385   2.718   2.863  0.7169 -0.1505  1.5798
 7176SOL     OW33160   2.408   1.654   4.548  0.0106  0.3977  0.3991
 7176SOL    HW133161   2.399   1.750   4.547 -0.8371  0.2404 -3.9549
 7176SOL    HW233162   2.335   1.632   4.490  1.3304 -2.0349 -0.2947
 7177SOL     OW33163   4.421   1.764  16.229 -0.3666  0.4084  0.0083
 7177SOL    HW133164   4.355   1.824  16.195 -1.0631 -0.2494  0.1908
 7177SOL    HW233165   4.369   1.700  16.278 -0.4469  1.6636  1.5566
 7178SOL     OW33166   1.110   0.612  13.818 -0.5542  0.1477 -0.4108
 7178SOL    HW133167   1.060   0.682  13.861  0.4549  1.3026 -1.1198
 7178SOL    HW233168   1.050   0.595  13.746  1.1979  2.9625 -2.5310
 7179SOL     OW33169   1.037   0.724   4.950 -0.6557  0.1413  0.1539
 7179SOL    HW133170   0.977   0.743   4.878  0.2325 -2.0947 -1.1851
 7179SOL    HW233171   1.058   0.812   4.981  0.4878 -0.4533  1.0348
 7180SOL     OW33172   2.959   2.905   2.897 -0.1221 -0.0793  0.1415
 7180SOL    HW133173   2.913   2.833   2.939  0.8945  0.1845  1.6893
 7180SOL    HW233174   2.887   2.967   2.893  1.9193  2.2244 -0.7913
 7181SOL     OW33175   4.286   4.728   8.229  0.1757  0.6259  0.5009
 7181SOL    HW133176   4.375   4.693   8.220 -0.7111 -1.6474  0.4518
 7181SOL    HW233177   4.271   4.705   8.321  0.0889  0.6616  0.4951
 7182SOL     OW33178   4.155   3.029  10.328  0.0681  0.4718  0.1930
 7182SOL    HW133179   4.157   2.943  10.368  1.1345  0.9117  1.0744
 7182SOL    HW233180   4.065   3.056  10.349 -0.4553 -1.8742  0.8929
 7183SOL     OW33181   0.166   0.820   2.718 -0.1548 -0.4564 -0.3779
 7183SOL    HW133182   0.082   0.784   2.686  0.0563 -0.2895 -1.1329
 7183SOL    HW233183   0.218   0.788   2.644  0.9255  2.2588 -0.8038
 7184SOL     OW33184   0.462   4.079   6.215 -0.1213  0.2579  0.5964
 7184SOL    HW133185   0.455   4.032   6.298 -0.2066  1.2487  1.1582
 7184SOL    HW233186   0.546   4.124   6.223  0.2252 -0.5004  1.3314
 7185SOL     OW33187   3.749   3.963  14.674 -0.5738 -0.3995  0.2357
 7185SOL    HW133188   3.782   3.882  14.714 -2.2439 -1.5002 -0.6108
 7185SOL    HW233189   3.658   3.956  14.705 -0.5994  2.5639  0.7832
 7186SOL     OW33190   3.150   2.026   5.978  0.1021  0.3829 -0.5594
 7186SOL    HW133191   3.165   2.011   5.885  1.1886 -1.3265 -0.1120
 7186SOL    HW233192   3.236   2.035   6.019 -0.1449  0.2488 -0.0047
 7187SOL     OW33193   3.168   1.626   1.489  0.2421  0.0967 -0.1996
 7187SOL    HW133194   3.130   1.580   1.564 -0.9447  1.2791 -0.0703
 7187SOL    HW233195   3.256   1.644   1.522 -0.3467  3.7211 -0.5903
 7188SOL     OW33196   4.336   3.853   8.791 -0.3083  0.0312  0.2472
 7188SOL    HW133197   4.287   3.800   8.855 -0.8606 -1.3196 -1.2892
 7188SOL    HW233198   4.423   3.824   8.820  0.3083  1.9238  0.2440
 7189SOL     OW33199   2.075   3.850  15.732 -0.2888  0.4578 -0.1659
 7189SOL    HW133200   2.161   3.814  15.714 -0.6482  0.8653 -2.7407
 7189SOL    HW233201   2.077   3.912  15.659  1.7277  3.0023  2.0348
 7190SOL     OW33202   4.145   0.721   3.162  0.7859  0.7472  0.1426
 7190SOL    HW133203   4.107   0.740   3.076  0.5686 -0.6467 -0.0657
 7190SOL    HW233204   4.119   0.630   3.176  0.0325  0.8190 -0.7481
 7191SOL     OW33205   4.439   3.514  13.320 -0.2804 -0.6942 -0.4239
 7191SOL    HW133206   4.506   3.528  13.253  1.0130  0.5734  1.1365
 7191SOL    HW233207   4.479   3.550  13.399  0.3049 -1.2080 -0.4906
 7192SOL     OW33208   2.773   0.657   2.184 -0.2741 -0.4025  0.1933
 7192SOL    HW133209   2.748   0.745   2.212 -0.7426 -0.1902 -0.8760
 7192SOL    HW233210   2.831   0.673   2.109 -1.4842 -1.3640 -0.9472
 7193SOL     OW33211   3.160   2.575   4.995  0.6556 -0.2339 -0.3976
 7193SOL    HW133212   3.110   2.611   5.068  0.7318  0.8468 -0.8823
 7193SOL    HW233213   3.087   2.531   4.951 -1.0997  1.3368  0.9749
 7194SOL     OW33214   3.252   4.725   3.344 -0.1204  0.3948  0.1995
 7194SOL    HW133215   3.299   0.031   3.272 -1.4870  0.5035 -0.6411
 7194SOL    HW233216   3.243   0.062   3.404  0.7798  0.2576  0.5092
 7195SOL     OW33217   1.128   2.968   8.136  0.4824  0.0281 -0.2772
 7195SOL    HW133218   1.059   3.024   8.100  0.1680 -0.5227 -0.5288
 7195SOL    HW233219   1.080   2.890   8.108  2.7664 -1.4302 -0.1352
 7196SOL     OW33220   2.251   2.158  10.598 -0.0516 -0.0519 -0.6063
 7196SOL    HW133221   2.322   2.128  10.655 -1.0728  0.2292  0.8188
 7196SOL    HW233222   2.205   2.224  10.651 -2.4990 -2.3353  0.1438
 7197SOL     OW33223   4.305   3.042  12.388  0.0407  0.0185 -0.0612
 7197SOL    HW133224   4.363   2.968  12.369  0.3290 -0.6288  3.2544
 7197SOL    HW233225   4.332   3.070  12.476  2.5409  2.2682 -1.5729
 7198SOL     OW33226   2.885   1.084  12.725 -0.3723 -0.4412  0.3227
 7198SOL    HW133227   2.981   1.088  12.725 -0.4222  0.6109  0.4013
 7198SOL    HW233228   2.864   1.176  12.712 -1.7151 -0.9514 -1.0700
 7199SOL     OW33229   1.805   1.571   8.808 -0.7071 -0.3699 -0.3489
 7199SOL    HW133230   1.769   1.641   8.863  1.3680  0.7493 -0.4148
 7199SOL    HW233231   1.751   1.498   8.839 -0.7256  0.2075  1.0046
 7200SOL     OW33232   0.145   4.551  12.781  0.0903 -0.0572  0.4828
 7200SOL    HW133233   0.144   4.461  12.812 -0.4267  0.3476  1.6392
 7200SOL    HW233234   0.181   4.592  12.860  0.5949  0.8712 -0.2312
 7201SOL     OW33235   1.506   0.063   7.422 -0.1004  0.3986  0.1642
 7201SOL    HW133236   1.576   0.028   7.368 -1.0444  1.2285 -1.6162
 7201SOL    HW233237   1.566   0.113   7.476 -1.1696 -0.8917  2.5271
 7202SOL     OW33238   0.640   4.536   2.791  0.5267  0.4516 -0.4901
 7202SOL    HW133239   0.616   4.566   2.704 -0.3896  1.7901  0.2261
 7202SOL    HW233240   0.558   4.496   2.821  0.4993  1.6189  0.9838
 7203SOL     OW33241   2.539   1.646   1.784 -0.3888 -0.3666  0.1737
 7203SOL    HW133242   2.566   1.589   1.713 -1.1361 -2.1576  1.3344
 7203SOL    HW233243   2.567   1.602   1.864 -0.0051  0.7509  0.6650
 7204SOL     OW33244   0.271   0.493  10.288  0.2156  0.0572  0.4089
 7204SOL    HW133245   0.350   0.545  10.271  1.6796 -3.2568 -2.8928
 7204SOL    HW233246   0.304   0.406  10.312  1.5259  0.6281  0.7161
 7205SOL     OW33247   2.819   3.769   8.243 -0.0448 -0.1717 -0.6068
 7205SOL    HW133248   2.807   3.717   8.164  1.1250 -1.5607  0.1209
 7205SOL    HW233249   2.835   3.714   8.320  2.6879  0.6434 -0.5962
 7206SOL     OW33250   3.709   1.725   3.544  0.1984 -0.0223  0.6973
 7206SOL    HW133251   3.668   1.743   3.628 -0.1241  3.5414 -0.2304
 7206SOL    HW233252   3.683   1.783   3.472  0.7204 -0.7900 -0.1094
 7207SOL     OW33253   0.060   3.766  12.845  0.0068  0.0908 -0.3207
 7207SOL    HW133254   0.084   3.728  12.930 -1.3917  0.5201  0.2590
 7207SOL    HW233255   0.008   3.837  12.884 -0.9856  0.1182 -1.7097
 7208SOL     OW33256   2.638   2.060   2.081 -0.4658  0.1454 -0.3481
 7208SOL    HW133257   2.552   2.053   2.122  0.5124 -1.9416  1.3565
 7208SOL    HW233258   2.655   2.146   2.042  2.1734  1.1617  3.0544
 7209SOL     OW33259   4.664   1.012   4.297 -0.1109  0.0435 -0.3029
 7209SOL    HW133260   4.604   1.070   4.344 -0.6595 -1.5298  0.9220
 7209SOL    HW233261   4.728   1.081   4.276  0.7323 -1.2186 -1.8837
 7210SOL     OW33262   4.503   2.003   3.769  0.0116  0.1146  0.1672
 7210SOL    HW133263   4.511   1.917   3.810  0.3434  0.4496  0.8055
 7210SOL    HW233264   4.415   2.023   3.801 -0.6093 -0.4384 -1.1995
 7211SOL     OW33265   0.762   3.026   2.572 -0.1312  0.0471 -0.0329
 7211SOL    HW133266   0.673   2.993   2.561 -0.3415 -0.0467  1.9338
 7211SOL    HW233267   0.818   2.949   2.561  0.2474  0.2521  0.4949
 7212SOL     OW33268   0.992   3.943   5.376 -0.3938  0.0883 -0.1660
 7212SOL    HW133269   0.985   3.976   5.286  2.4521  0.6043 -0.1974
 7212SOL    HW233270   1.045   4.007   5.422 -1.7944  1.0334  0.1456
 7213SOL     OW33271   0.612   2.823   2.797 -0.2428  0.1342 -0.0150
 7213SOL    HW133272   0.584   2.739   2.833 -0.0640  0.7842  1.6255
 7213SOL    HW233273   0.524   2.858   2.810  0.4737  0.9776  2.6540
 7214SOL     OW33274   4.249   3.019  11.906  0.2699  0.4130 -0.5925
 7214SOL    HW133275   4.262   2.929  11.935  0.0600  0.6229  0.1660
 7214SOL    HW233276   4.317   3.033  11.840  1.0183 -1.0972 -0.1265
 7215SOL     OW33277   2.130   1.554  15.122  0.3538  0.2419 -0.9075
 7215SOL    HW133278   2.135   1.546  15.026  0.5984 -1.3272 -0.7567
 7215SOL    HW233279   2.061   1.620  15.132  0.5787  0.5298 -1.2534
 7216SOL     OW33280   3.935   0.320   8.994  0.0737  0.7378  0.5822
 7216SOL    HW133281   4.030   0.315   8.990 -0.1527 -0.7733 -2.6200
 7216SOL    HW233282   3.906   0.311   8.903  0.7930  0.9032  0.3353
 7217SOL     OW33283   1.924   1.594   4.226 -0.1354  0.1183  0.5335
 7217SOL    HW133284   1.850   1.599   4.287  2.4661  0.6166  3.6174
 7217SOL    HW233285   1.895   1.535   4.157 -0.2362  0.5629  0.1979
 7218SOL     OW33286   1.487   2.783   4.522  0.1386 -0.0547  0.0310
 7218SOL    HW133287   1.553   2.741   4.468  0.3384 -2.9689  2.5232
 7218SOL    HW233288   1.429   2.819   4.456  0.8566  0.0199 -0.5618
 7219SOL     OW33289   1.837   2.005   5.696  0.3672  0.0290 -0.4230
 7219SOL    HW133290   1.841   2.098   5.717  0.5136  0.6311 -3.1303
 7219SOL    HW233291   1.917   1.981   5.745  0.0799 -0.7769 -0.3387
 7220SOL     OW33292   0.403   4.611  14.181  0.0803  0.1893  0.0969
 7220SOL    HW133293   0.372   4.695  14.214  1.4581  0.3060  1.1277
 7220SOL    HW233294   0.448   4.641  14.102 -0.3939 -2.6968 -1.2718
 7221SOL     OW33295   2.181   2.380  10.769  0.4286  0.4035 -0.9044
 7221SOL    HW133296   2.111   2.421  10.718 -1.0425  1.0240  1.6511
 7221SOL    HW233297   2.144   2.370  10.856  0.8503 -0.4353 -0.8234
 7222SOL     OW33298   1.886   0.352   4.827 -0.5727  0.1090 -0.2001
 7222SOL    HW133299   1.930   0.431   4.798  0.6985 -0.1804  0.9502
 7222SOL    HW233300   1.894   0.297   4.749  2.3883  0.1800  0.0790
 7223SOL     OW33301   0.160   1.610   7.839 -0.4409 -0.3873  0.8560
 7223SOL    HW133302   0.148   1.515   7.845  3.6150 -0.9355  0.6196
 7223SOL    HW233303   0.243   1.621   7.791 -0.6415 -0.7128  0.4325
 7224SOL     OW33304   4.234   3.743   8.537  0.3677  0.3083  0.1190
 7224SOL    HW133305   4.292   3.817   8.554  0.5528 -0.1371  1.4417
 7224SOL    HW233306   4.244   3.746   8.442  0.9268  2.3711  0.2508
 7225SOL     OW33307   4.001   4.717   5.080 -0.2401  0.1878 -0.2682
 7225SOL    HW133308   3.975   4.728   4.989 -3.2067 -0.7982  0.4344
 7225SOL    HW233309   3.993   4.622   5.093 -0.5278  0.2921  0.3338
 7226SOL     OW33310   0.879   3.850   9.554  0.4931  0.5164 -0.2224
 7226SOL    HW133311   0.901   3.757   9.549 -1.7421 -0.0456  0.2051
 7226SOL    HW233312   0.929   3.868   9.634 -1.0726 -0.7841  1.0882
 7227SOL     OW33313   3.933   1.515   3.158 -0.0966 -0.2227 -0.3252
 7227SOL    HW133314   3.994   1.445   3.179 -2.2436 -0.9876  3.2373
 7227SOL    HW233315   3.973   1.575   3.220  0.6468  0.9946 -1.9929
 7228SOL     OW33316   3.469   0.792   6.967  0.1218 -0.1280 -0.4388
 7228SOL    HW133317   3.563   0.808   6.960  0.1827  0.2615  1.2383
 7228SOL    HW233318   3.457   0.726   6.899  0.8544 -1.5513  0.8096
 7229SOL     OW33319   3.920   3.586   7.336 -0.1052 -0.0785  0.0749
 7229SOL    HW133320   3.964   3.661   7.377  0.3940 -1.1747  1.5264
 7229SOL    HW233321   3.905   3.613   7.245 -0.6448 -1.3522 -0.2076
 7230SOL     OW33322   4.240   0.048   5.247 -0.0487  0.4168 -0.1244
 7230SOL    HW133323   4.243   0.141   5.271  0.0520  0.6291 -0.9824
 7230SOL    HW233324   4.158   0.048   5.197 -0.7397  0.1250  1.0054
 7231SOL     OW33325   0.360   3.420   4.898  0.3241  0.1929 -0.0323
 7231SOL    HW133326   0.294   3.351   4.888 -0.8077  1.2257  0.3252
 7231SOL    HW233327   0.356   3.453   4.988  1.6746 -2.3733  0.9988
 7232SOL     OW33328   2.730   1.683  12.347 -0.1160 -0.0656 -0.5926
 7232SOL    HW133329   2.802   1.735  12.309 -1.5506  2.1455 -0.2635
 7232SOL    HW233330   2.784   1.624  12.399 -1.7009 -1.0353 -0.0616
 7233SOL     OW33331   4.036   3.107   3.311 -0.1581  0.2593 -0.1748
 7233SOL    HW133332   4.070   3.035   3.365  1.2042  1.8422  1.0921
 7233SOL    HW233333   3.964   3.066   3.263 -1.0017 -0.3172  1.5716
 7234SOL     OW33334   4.202   3.188   1.164  0.1231 -0.5613  0.0687
 7234SOL    HW133335   4.267   3.206   1.096 -0.9188  1.9725 -0.2726
 7234SOL    HW233336   4.250   3.122   1.215  1.1692  0.4066  0.3378
 7235SOL     OW33337   3.320   0.801  10.082 -0.1952  0.4850  0.3812
 7235SOL    HW133338   3.322   0.827   9.990  0.0874  0.7775  0.4736
 7235SOL    HW233339   3.228   0.771  10.084  0.4835 -1.5251  1.9434
 7236SOL     OW33340   4.605   3.451  11.291  0.0838 -0.3151  0.3211
 7236SOL    HW133341   4.546   3.522  11.264 -0.6680 -1.7744 -1.8298
 7236SOL    HW233342   4.567   3.426  11.375 -2.9173  2.2041 -0.2616
 7237SOL     OW33343   0.667   1.917   3.682  0.7274 -0.0205 -0.2368
 7237SOL    HW133344   0.684   1.986   3.746  0.1289  1.5744 -1.7953
 7237SOL    HW233345   0.574   1.939   3.672  0.4087 -0.6446  1.3924
 7238SOL     OW33346   4.541   0.142   6.677  0.5363 -0.0575 -0.8268
 7238SOL    HW133347   4.555   0.236   6.685  3.0498 -0.4099 -1.1691
 7238SOL    HW233348   4.445   0.144   6.671  0.2770  1.3633  3.8903
 7239SOL     OW33349   3.173   3.878  16.156  0.2443 -0.2253  0.0994
 7239SOL    HW133350   3.164   3.807  16.093 -0.5768  0.2916 -0.3555
 7239SOL    HW233351   3.235   3.840  16.219 -0.0651 -1.3065 -0.2408
 7240SOL     OW33352   1.717   4.330   0.269  0.0422 -0.5595  0.0322
 7240SOL    HW133353   1.773   4.253   0.279  1.2492  0.2106 -0.7887
 7240SOL    HW233354   1.742   4.355   0.180  2.9240 -1.4633  0.6001
 7241SOL     OW33355   1.690   2.459  17.650 -0.6041 -0.1049  0.4411
 7241SOL    HW133356   1.713   2.427  17.563 -2.7800 -0.9430  0.1529
 7241SOL    HW233357   1.742   2.539  17.652 -0.5945 -0.0057 -3.6446
 7242SOL     OW33358   1.543   3.693   7.473 -0.1497 -0.5967  0.4729
 7242SOL    HW133359   1.507   3.671   7.388 -1.7006  1.6471  0.5528
 7242SOL    HW233360   1.596   3.770   7.451  0.5596 -1.3827 -0.5874
 7243SOL     OW33361   0.164   4.362  14.475 -0.6414 -0.4801 -0.2189
 7243SOL    HW133362   0.210   4.325  14.399 -0.5441  1.8101 -1.2877
 7243SOL    HW233363   0.192   4.454  14.473  2.6747 -1.5024 -0.7947
 7244SOL     OW33364   3.180   3.569  14.070  0.0845  0.4094 -0.8974
 7244SOL    HW133365   3.198   3.479  14.096 -1.9304  0.6374  1.2191
 7244SOL    HW233366   3.196   3.562  13.975 -0.2252 -0.1602 -0.9088
 7245SOL     OW33367   1.559   4.166   9.639  0.1322  0.2430  0.3660
 7245SOL    HW133368   1.517   4.182   9.724  0.6973  0.2521  0.6480
 7245SOL    HW233369   1.625   4.236   9.643 -0.4414  0.9517 -2.7668
 7246SOL     OW33370   1.968   2.798   6.734  0.2138  0.1250  0.0839
 7246SOL    HW133371   1.919   2.806   6.652 -0.3450  3.1238  0.7195
 7246SOL    HW233372   1.962   2.889   6.761  0.6671  0.5034 -1.0839
 7247SOL     OW33373   0.977   3.657   6.089  0.0111 -0.4316 -0.1777
 7247SOL    HW133374   1.026   3.655   6.007  0.3721  0.2647  0.0204
 7247SOL    HW233375   1.030   3.723   6.133 -2.4910  2.0731 -0.9049
 7248SOL     OW33376   2.620   2.713   0.093  0.0924  0.0319  0.7897
 7248SOL    HW133377   2.677   2.637   0.105  0.6312  0.4195  0.7215
 7248SOL    HW233378   2.640   2.768   0.169  1.4454  1.3472 -0.5140
 7249SOL     OW33379   4.671   1.481   5.238  0.5578  0.2199 -0.1013
 7249SOL    HW133380   4.665   1.415   5.307 -3.3593  1.1663  0.4349
 7249SOL    HW233381   0.019   1.525   5.250  0.2308  0.7507  0.2374
 7250SOL     OW33382   2.045   1.948  12.967  0.0612 -0.2237  0.2460
 7250SOL    HW133383   1.957   1.961  12.933 -0.2545 -0.5014  0.9376
 7250SOL    HW233384   2.090   2.007  12.907  0.0299 -0.4456  0.0023
 7251SOL     OW33385   3.880   3.734  16.014  0.2140  0.7406 -1.1134
 7251SOL    HW133386   3.876   3.766  15.924 -2.2019  0.2554 -1.1852
 7251SOL    HW233387   3.971   3.758  16.030  0.2543 -0.1400  0.0502
 7252SOL     OW33388   0.425   2.835   5.949  0.6331 -0.3592  0.3457
 7252SOL    HW133389   0.399   2.743   5.957 -0.5665  0.0810  1.4275
 7252SOL    HW233390   0.347   2.875   5.988 -0.9384 -3.3270  0.2313
 7253SOL     OW33391   3.123   1.558   7.027 -0.2989  0.2002  0.1068
 7253SOL    HW133392   3.185   1.577   7.097  1.7303  0.0528 -1.6751
 7253SOL    HW233393   3.072   1.639   7.037  2.1222  2.1011 -3.0061
 7254SOL     OW33394   0.468   3.923   1.478  0.0200 -0.3286  0.0860
 7254SOL    HW133395   0.554   3.883   1.495  0.6805  0.3638 -1.6734
 7254SOL    HW233396   0.441   3.840   1.438 -0.0631 -0.6550  0.8106
 7255SOL     OW33397   0.281   2.325  14.555 -0.5195 -0.0928 -0.1305
 7255SOL    HW133398   0.368   2.354  14.528 -0.1992 -0.0073  1.0345
 7255SOL    HW233399   0.259   2.272  14.478  1.7749  0.0456 -0.8876
 7256SOL     OW33400   0.435   1.497   3.659 -0.5753  0.1823 -0.3559
 7256SOL    HW133401   0.509   1.450   3.621 -0.3235 -0.2330  0.6700
 7256SOL    HW233402   0.404   1.546   3.583  0.2950 -0.7746 -1.3322
 7257SOL     OW33403   4.533   2.153   2.288  0.2471  0.2640 -0.5681
 7257SOL    HW133404   4.452   2.136   2.239 -0.5806 -1.2993  1.3464
 7257SOL    HW233405   4.596   2.086   2.260  1.0606  0.7517  0.1192
 7258SOL     OW33406   4.219   3.010  16.156 -0.6164 -0.1751  0.4897
 7258SOL    HW133407   4.267   3.080  16.200 -1.6258 -1.1027  3.0940
 7258SOL    HW233408   4.276   2.977  16.087  0.4677 -0.5560  1.5749
 7259SOL     OW33409   0.196   1.264   2.315 -0.1107  0.1492  0.3013
 7259SOL    HW133410   0.137   1.290   2.244 -1.0071 -0.5823  0.7800
 7259SOL    HW233411   0.231   1.351   2.331  0.9410 -0.5730  1.9266
 7260SOL     OW33412   2.836   3.803   7.137  0.3612 -0.0089 -0.6450
 7260SOL    HW133413   2.769   3.792   7.204  1.2365 -1.1970  0.0274
 7260SOL    HW233414   2.906   3.839   7.190 -1.0782  0.5269  0.8893
 7261SOL     OW33415   4.207   1.568   6.765 -0.4820  0.3008  0.1389
 7261SOL    HW133416   4.283   1.620   6.737 -1.0603  1.0651 -0.0044
 7261SOL    HW233417   4.247   1.531   6.843 -0.5067  0.2304  0.1177
 7262SOL     OW33418   0.906   2.299   8.868 -0.8670  0.1141  0.0260
 7262SOL    HW133419   0.830   2.277   8.923  0.7298 -4.8230  0.2698
 7262SOL    HW233420   0.905   2.224   8.808  0.4733  1.0013 -1.1194
 7263SOL     OW33421   0.350   2.689   1.755  0.2239 -0.4702 -0.3998
 7263SOL    HW133422   0.305   2.707   1.838  1.1541 -1.4232  0.3091
 7263SOL    HW233423   0.319   2.602   1.731 -0.8743  0.6185 -2.9623
 7264SOL     OW33424   0.286   3.933  11.289  0.0344  0.2092 -0.2202
 7264SOL    HW133425   0.332   4.006  11.331 -1.4955  0.3714  1.1697
 7264SOL    HW233426   0.348   3.918  11.217  0.2949  1.2570 -0.2218
 7265SOL     OW33427   0.741   0.365   5.518  0.6523 -0.2064 -0.2720
 7265SOL    HW133428   0.698   0.425   5.579 -0.4370  0.0449 -1.2959
 7265SOL    HW233429   0.751   0.421   5.441  2.4687  0.9520  0.7922
 7266SOL     OW33430   2.615   3.141   6.233 -0.3932 -0.3161 -0.5997
 7266SOL    HW133431   2.662   3.058   6.228 -0.2441 -0.1808 -1.4395
 7266SOL    HW233432   2.541   3.116   6.178 -1.1350  0.9482 -0.1857
 7267SOL     OW33433   4.075   1.969  10.955  0.4753 -0.4607  0.3824
 7267SOL    HW133434   4.010   1.911  10.916  0.5690  0.8333 -1.6835
 7267SOL    HW233435   4.158   1.930  10.927 -0.2652 -1.0476 -1.0044
 7268SOL     OW33436   1.038   3.671   7.708 -0.0532  0.2152 -0.5212
 7268SOL    HW133437   1.106   3.603   7.702 -0.6575 -0.6964  3.0319
 7268SOL    HW233438   0.964   3.619   7.675 -0.0869  0.7518 -1.2675
 7269SOL     OW33439   4.406   3.762   6.618 -0.1140  0.1413 -0.1832
 7269SOL    HW133440   4.455   3.693   6.573  0.1030 -1.2623  2.1942
 7269SOL    HW233441   4.337   3.759   6.552 -1.0932  0.5097  0.8022
 7270SOL     OW33442   3.369   4.397   4.834 -0.2472  0.0261 -0.2786
 7270SOL    HW133443   3.383   4.466   4.898  1.3458 -0.5808  0.0337
 7270SOL    HW233444   3.298   4.423   4.775 -2.4015 -1.7527  1.5222
 7271SOL     OW33445   2.616   2.324   2.001  0.5032 -0.3455 -0.5052
 7271SOL    HW133446   2.545   2.366   2.049 -0.0948 -0.7126 -1.0704
 7271SOL    HW233447   2.662   2.396   1.958  0.1859  0.0385 -0.1951
 7272SOL     OW33448   3.877   0.088   4.774 -0.4114 -0.5138  0.7905
 7272SOL    HW133449   3.876   0.142   4.695  1.0834 -0.5976  0.7110
 7272SOL    HW233450   3.865   0.005   4.729  0.6667  0.5440 -1.4442
 7273SOL     OW33451   2.728   3.244   8.483  0.5846 -0.5018  0.5347
 7273SOL    HW133452   2.717   3.153   8.512  0.1281 -0.2675  1.1017
 7273SOL    HW233453   2.718   3.246   8.388  2.1914 -2.6801  0.3217
 7274SOL     OW33454   0.655   2.475   8.717  0.4188  0.0042  0.1393
 7274SOL    HW133455   0.738   2.461   8.673  0.6563 -1.2937  1.0110
 7274SOL    HW233456   0.666   2.566   8.746  1.6281  0.5143 -1.9495
 7275SOL     OW33457   4.182   0.062   2.625  0.4275 -0.3685 -0.0596
 7275SOL    HW133458   4.095   0.022   2.623 -0.0592  0.6577  0.6389
 7275SOL    HW233459   4.184   0.117   2.703 -2.1242 -1.7576  0.9568
 7276SOL     OW33460   2.957   3.566   9.384 -0.1704  0.0105  0.2314
 7276SOL    HW133461   2.892   3.543   9.450 -0.0896  1.6772  0.8833
 7276SOL    HW233462   3.010   3.486   9.379 -1.9319 -1.0942 -0.6069
 7277SOL     OW33463   3.151   4.537  17.726  0.7433  0.1462  0.3263
 7277SOL    HW133464   3.175   4.524  17.635 -1.4902  1.7620 -0.5093
 7277SOL    HW233465   3.137   4.446   0.005 -2.2975  0.7543  0.9519
 7278SOL     OW33466   3.557   0.324  12.498  0.4134 -0.3329  0.1135
 7278SOL    HW133467   3.484   0.376  12.465  1.7606  0.2760 -1.9228
 7278SOL    HW233468   3.587   0.380  12.569 -0.3412  0.6498 -0.3437
 7279SOL     OW33469   1.081   4.735   1.983  0.1650 -0.1144  0.3237
 7279SOL    HW133470   1.047   0.009   2.072 -1.3399 -0.7383 -0.1786
 7279SOL    HW233471   1.034   0.059   1.926  0.0583  0.2723  0.8146
 7280SOL     OW33472   1.588   4.373   3.052  0.0699  0.6411  0.5382
 7280SOL    HW133473   1.581   4.442   3.118  2.6475  1.2826  0.1746
 7280SOL    HW233474   1.549   4.299   3.097  0.7353 -0.1112 -0.1253
 7281SOL     OW33475   2.412   3.588  10.224 -0.0331  0.0662 -0.2429
 7281SOL    HW133476   2.490   3.565  10.275 -0.2314 -1.2761 -0.5485
 7281SOL    HW233477   2.360   3.509  10.210 -0.5592  0.6238 -1.3749
 7282SOL     OW33478   2.069   4.300   3.391 -0.1228 -0.3167  0.0999
 7282SOL    HW133479   2.108   4.365   3.333  0.5153  0.8603  1.8223
 7282SOL    HW233480   1.990   4.276   3.344  1.0328 -0.5860 -1.7020
 7283SOL     OW33481   3.834   2.163   0.666 -0.1193 -0.2513 -0.2244
 7283SOL    HW133482   3.870   2.173   0.578  0.6303 -1.1648 -0.0234
 7283SOL    HW233483   3.851   2.070   0.686 -1.5341 -0.3013  0.7337
 7284SOL     OW33484   4.032   2.268   3.349 -0.6703  0.4684 -0.0190
 7284SOL    HW133485   4.042   2.199   3.283  0.9539 -0.2962  1.0358
 7284SOL    HW233486   4.052   2.210   3.422  2.6419  0.6181 -0.8198
 7285SOL     OW33487   0.408   2.613   4.834 -0.0242  0.1770  0.5716
 7285SOL    HW133488   0.475   2.561   4.790  0.8928  1.5763  0.3020
 7285SOL    HW233489   0.449   2.604   4.920  0.0985  1.8366  0.6983
 7286SOL     OW33490   0.020   2.889   7.302 -0.1972 -0.3082 -0.6212
 7286SOL    HW133491   4.701   2.932   7.367  0.5937 -2.1148  1.2665
 7286SOL    HW233492   0.001   2.941   7.224 -1.8389 -0.1502 -0.1131
 7287SOL     OW33493   3.785   4.255   6.643 -0.1799 -0.3027 -0.5716
 7287SOL    HW133494   3.698   4.295   6.641  0.5093  1.1747 -0.7119
 7287SOL    HW233495   3.845   4.318   6.684 -1.3078  0.7919 -0.6215
 7288SOL     OW33496   0.553   1.647   0.379 -0.4393 -0.9199  0.5048
 7288SOL    HW133497   0.460   1.667   0.367 -0.4770 -2.0973 -1.2299
 7288SOL    HW233498   0.562   1.682   0.467  1.5857 -0.0429 -0.0482
 7289SOL     OW33499   2.023   0.212  10.550 -0.0184 -0.4045  0.1403
 7289SOL    HW133500   2.018   0.163  10.632  0.3585  1.0502  1.0163
 7289SOL    HW233501   1.950   0.169  10.505  0.5985 -1.6010  0.2657
 7290SOL     OW33502   3.245   0.470  15.975  0.1109  0.5118  0.7241
 7290SOL    HW133503   3.332   0.445  15.943  0.1937 -0.6747  1.8666
 7290SOL    HW233504   3.221   0.545  15.920  0.5408 -0.0536 -0.2347
 7291SOL     OW33505   0.881   2.812   2.125  0.3873  0.6787 -0.4370
 7291SOL    HW133506   0.927   2.820   2.209  0.9402  0.0572 -0.6750
 7291SOL    HW233507   0.931   2.744   2.080  0.8121  0.9461 -0.3759
 7292SOL     OW33508   1.650   1.792   6.932 -0.0471  0.1520 -0.0537
 7292SOL    HW133509   1.592   1.784   7.008  0.1444  0.8483  0.1663
 7292SOL    HW233510   1.735   1.819   6.967  0.7748  0.9499 -2.6452
 7293SOL     OW33511   0.529   2.405   3.548  0.1105 -0.1204  0.5821
 7293SOL    HW133512   0.479   2.353   3.612 -0.0818 -0.8467 -0.1597
 7293SOL    HW233513   0.458   2.445   3.497 -0.0046  0.0039  0.8388
 7294SOL     OW33514   4.335   3.340  15.747 -0.4360 -0.2767 -0.2509
 7294SOL    HW133515   4.336   3.373  15.657  1.4206  0.2820 -0.0391
 7294SOL    HW233516   4.300   3.252  15.732 -1.4433 -0.2395  1.9573
 7295SOL     OW33517   0.883   4.314   4.561  0.0394  0.0429  0.2561
 7295SOL    HW133518   0.858   4.280   4.475  0.5923  0.3454 -0.0248
 7295SOL    HW233519   0.796   4.336   4.596 -0.0164  1.5236 -0.7834
 7296SOL     OW33520   3.570   0.232   3.441  0.2118  0.2502  0.1913
 7296SOL    HW133521   3.544   0.159   3.497 -4.5058  1.2336 -0.7477
 7296SOL    HW233522   3.656   0.202   3.410 -0.9107 -2.6640 -0.1089
 7297SOL     OW33523   4.404   4.676   4.357 -0.5237 -0.2920 -0.4896
 7297SOL    HW133524   4.315   4.679   4.321  0.2390 -2.9007 -2.5709
 7297SOL    HW233525   4.409   0.021   4.408  1.0130 -1.5210  1.3225
 7298SOL     OW33526   4.059   1.735   5.489  0.7274 -0.1863 -0.4928
 7298SOL    HW133527   4.075   1.672   5.419 -1.8550 -1.2767 -0.1285
 7298SOL    HW233528   3.967   1.715   5.508  0.6172  1.4388  0.7344
 7299SOL     OW33529   4.452   1.249   9.057  0.8351 -0.6975 -0.1155
 7299SOL    HW133530   4.404   1.175   9.018  2.4241 -1.0936 -1.3192
 7299SOL    HW233531   4.405   1.259   9.140  1.0176 -1.3054  0.0663
 7300SOL     OW33532   1.514   1.997  15.434 -0.2008  0.5396 -0.3337
 7300SOL    HW133533   1.486   1.933  15.498  1.2841  2.0342  1.8011
 7300SOL    HW233534   1.590   2.037  15.477 -0.7782  0.6633  0.5622
 7301SOL     OW33535   4.424   0.799  16.628 -0.0288 -0.3678  0.0257
 7301SOL    HW133536   4.514   0.833  16.622 -1.2393  2.5691 -1.9141
 7301SOL    HW233537   4.384   0.838  16.550  1.2100  1.0183  0.0719
 7302SOL     OW33538   0.654   0.976  14.904  0.0161  0.7047  0.8670
 7302SOL    HW133539   0.612   0.934  14.979 -1.0975 -1.1117 -0.7434
 7302SOL    HW233540   0.584   0.981  14.839  2.4276 -0.8403 -1.8873
 7303SOL     OW33541   4.686   0.070   2.163 -0.5195  0.4301 -0.1940
 7303SOL    HW133542   4.652   0.122   2.236  0.0156 -3.0363  2.4957
 7303SOL    HW233543   4.698   0.138   2.096 -0.7534 -0.7218 -1.4057
 7304SOL     OW33544   2.520   1.467   6.489  0.3025  0.1511 -0.2832
 7304SOL    HW133545   2.569   1.385   6.493  0.0305  0.0412  0.9197
 7304SOL    HW233546   2.541   1.505   6.575 -0.0070  2.0401 -1.0282
 7305SOL     OW33547   3.403   0.371  16.323 -0.4749 -0.5089 -0.2207
 7305SOL    HW133548   3.471   0.309  16.298  1.1871  2.3449 -2.7679
 7305SOL    HW233549   3.446   0.446  16.363  0.7218 -1.9068  1.0850
 7306SOL     OW33550   0.886   0.307   7.743 -0.5107  0.0154  0.0868
 7306SOL    HW133551   0.824   0.235   7.756 -0.9753 -0.2889 -3.5928
 7306SOL    HW233552   0.951   0.257   7.693 -0.0901  2.0559 -1.4012
 7307SOL     OW33553   1.422   3.169  15.400  0.0181  0.3876  0.0967
 7307SOL    HW133554   1.351   3.169  15.464  1.1117 -0.4147  1.3070
 7307SOL    HW233555   1.493   3.185  15.462  0.6261 -0.3935 -0.4086
 7308SOL     OW33556   0.840   3.046   7.220 -0.3879  0.2377 -0.1917
 7308SOL    HW133557   0.887   3.014   7.143 -2.3714 -0.1092 -1.2408
 7308SOL    HW233558   0.819   3.133   7.185  1.0093  1.2321  1.3976
 7309SOL     OW33559   4.713   0.694   8.503  0.1707  0.1772  0.1832
 7309SOL    HW133560   4.643   0.685   8.439 -0.0779  0.2769  0.4429
 7309SOL    HW233561   4.666   0.686   8.586 -1.4803 -2.4150 -1.0035
 7310SOL     OW33562   1.762   0.428   3.134  0.4551 -0.2185  0.4826
 7310SOL    HW133563   1.856   0.413   3.142  0.6153  1.1561  1.0895
 7310SOL    HW233564   1.759   0.509   3.184  0.0487  0.6847 -1.0373
 7311SOL     OW33565   4.162   4.513   2.136  0.1176 -0.1988 -0.3843
 7311SOL    HW133566   4.118   4.464   2.067  0.0850  2.4007 -2.2143
 7311SOL    HW233567   4.114   4.474   2.209  2.0541 -0.0520  0.9614
 7312SOL     OW33568   1.861   3.407   6.010 -0.0733 -0.1529 -0.5001
 7312SOL    HW133569   1.872   3.491   5.965 -1.5547  0.4557  0.2546
 7312SOL    HW233570   1.767   3.396   5.991 -0.2965 -1.0046  1.1446
 7313SOL     OW33571   3.608   4.534  15.222  0.4452  0.4036  0.2599
 7313SOL    HW133572   3.552   4.536  15.300  1.5100 -2.2126  1.0828
 7313SOL    HW233573   3.683   4.494  15.266  0.4525 -0.0974 -0.2031
 7314SOL     OW33574   0.810   3.254   1.755 -0.3376 -0.4080 -0.4283
 7314SOL    HW133575   0.803   3.188   1.824 -0.9992  1.4806  1.3081
 7314SOL    HW233576   0.734   3.236   1.699 -0.7353  0.6306 -0.2311
 7315SOL     OW33577   4.184   0.528   2.432 -0.0570  0.0579  0.0382
 7315SOL    HW133578   4.187   0.495   2.342  1.9685  2.4443 -0.7587
 7315SOL    HW233579   4.100   0.486   2.453  0.1417 -0.7948 -0.8890
 7316SOL     OW33580   4.648   0.352  17.466 -0.2815 -0.5688 -0.1905
 7316SOL    HW133581   4.692   0.294  17.529 -1.1522 -1.0778 -0.0491
 7316SOL    HW233582   4.560   0.313  17.463 -1.3878  2.2440 -3.1423
 7317SOL     OW33583   0.739   3.834   5.853 -0.8310  0.4896  0.0888
 7317SOL    HW133584   0.786   3.889   5.790  0.4540  1.4267  1.8453
 7317SOL    HW233585   0.770   3.852   5.942 -0.5236 -0.3994  0.1673
 7318SOL     OW33586   0.573   2.634   7.547 -0.0913  0.0004 -0.0909
 7318SOL    HW133587   0.534   2.560   7.501  0.7407 -1.7324  1.9812
 7318SOL    HW233588   0.658   2.594   7.563 -1.0605 -2.8449 -1.9277
 7319SOL     OW33589   0.697   1.952   6.569 -0.9082 -0.1173  0.3993
 7319SOL    HW133590   0.612   1.945   6.525 -1.2134  0.5256  0.9044
 7319SOL    HW233591   0.680   2.008   6.644  0.5624 -0.3729  0.9209
 7320SOL     OW33592   4.082   3.042   6.131  0.9629 -0.5402  0.0204
 7320SOL    HW133593   4.067   3.126   6.089  0.8907 -1.2233 -1.3252
 7320SOL    HW233594   4.012   2.977   6.130  1.8693 -1.5290  0.9638
 7321SOL     OW33595   3.422   0.587   8.275  0.7884 -0.3615 -0.0896
 7321SOL    HW133596   3.358   0.640   8.323  1.0265 -2.0392  2.0936
 7321SOL    HW233597   3.385   0.592   8.187  2.1711  1.8076 -0.5333
 7322SOL     OW33598   0.938   2.308  12.925  0.0944 -0.2906  0.7572
 7322SOL    HW133599   0.904   2.324  12.837 -1.3293 -1.0289  1.1623
 7322SOL    HW233600   0.925   2.213  12.934  2.8733 -0.9025 -1.6015
 7323SOL     OW33601   2.498   0.114   2.359  0.0278  0.4176 -0.2267
 7323SOL    HW133602   2.574   0.057   2.348 -0.4422 -0.3980  0.7431
 7323SOL    HW233603   2.506   0.149   2.448 -2.2232 -1.4895  0.7316
 7324SOL     OW33604   0.059   1.670  15.489 -0.4974  0.2170  0.4002
 7324SOL    HW133605   4.712   1.716  15.494  0.3380  1.8508 -0.5555
 7324SOL    HW233606   0.049   1.606  15.560 -1.9492  0.2851  0.2556
 7325SOL     OW33607   1.251   4.415   7.346  0.4918 -0.4265  0.2151
 7325SOL    HW133608   1.163   4.453   7.353  0.5761 -0.0847 -0.6532
 7325SOL    HW233609   1.236   4.367   7.265 -0.2428  0.3974 -0.1311
 7326SOL     OW33610   3.276   0.412   4.670  0.0612 -0.6827 -0.3644
 7326SOL    HW133611   3.311   0.324   4.688  1.8125 -0.2629 -1.6133
 7326SOL    HW233612   3.257   0.395   4.577 -1.0503 -0.2408 -0.2081
 7327SOL     OW33613   0.012   0.824   2.303 -0.0957  0.4035  0.4647
 7327SOL    HW133614   0.048   0.738   2.283 -3.2685 -0.6096 -0.8811
 7327SOL    HW233615   0.085   0.865   2.350 -0.1497  2.9604 -1.6760
 7328SOL     OW33616   2.046   3.066  11.188  0.2076  0.5357 -0.2025
 7328SOL    HW133617   2.134   3.028  11.196 -0.0206  0.2329  0.9580
 7328SOL    HW233618   2.036   3.099  11.277  0.1772 -0.9749  0.3569
 7329SOL     OW33619   0.006   0.308   8.592  0.4868 -0.1443  0.6438
 7329SOL    HW133620   0.065   0.376   8.558 -0.4998  0.3733 -0.0512
 7329SOL    HW233621   4.670   0.355   8.633 -0.0050 -3.2021  3.2401
 7330SOL     OW33622   0.253   0.653   7.969 -1.3137  0.9061  0.3286
 7330SOL    HW133623   0.313   0.654   8.044 -0.2783 -0.9935 -0.4820
 7330SOL    HW233624   0.276   0.569   7.931 -0.6410  0.6921  1.1971
 7331SOL     OW33625   1.175   0.266   4.966 -0.2464  0.1564 -0.6267
 7331SOL    HW133626   1.091   0.224   4.986 -0.4458  0.1721 -1.4110
 7331SOL    HW233627   1.134   0.328   4.905  0.1509 -0.3236 -1.3817
 7332SOL     OW33628   2.994   2.264  13.175 -0.2982  0.0316 -0.2007
 7332SOL    HW133629   2.910   2.224  13.153 -0.9056  1.2680 -0.1584
 7332SOL    HW233630   2.971   2.323  13.247 -0.8752 -0.5985  0.1277
 7333SOL     OW33631   4.066   0.999  16.329 -0.0764  0.4006  0.2244
 7333SOL    HW133632   3.973   1.001  16.307 -0.2885 -0.0737  1.0681
 7333SOL    HW233633   4.074   1.078  16.382  1.2311  0.9098 -0.7431
 7334SOL     OW33634   2.003   1.650   4.702 -0.2626 -0.0706  0.9653
 7334SOL    HW133635   2.051   1.725   4.738  1.0882 -0.0611 -0.8716
 7334SOL    HW233636   2.017   1.671   4.610 -1.3822  1.8426  1.2179
 7335SOL     OW33637   3.964   3.918   7.691 -0.5749  0.0904 -0.0313
 7335SOL    HW133638   3.913   3.864   7.752 -0.1632  2.4531  2.4092
 7335SOL    HW233639   4.043   3.925   7.744 -1.2553  1.6865  0.7977
 7336SOL     OW33640   0.401   3.527   6.674 -0.6464 -0.3851 -0.1798
 7336SOL    HW133641   0.417   3.581   6.751 -1.8787 -0.0750 -0.1292
 7336SOL    HW233642   0.456   3.450   6.686  1.0129  0.7643 -0.5042
 7337SOL     OW33643   1.649   1.724  10.968  0.0163 -0.8026 -0.0584
 7337SOL    HW133644   1.661   1.629  10.972 -2.1112 -1.0970 -0.5726
 7337SOL    HW233645   1.583   1.742  10.901  0.6733 -0.8474 -0.7239
 7338SOL     OW33646   4.566   0.650   7.737  0.2858 -0.0964  0.1213
 7338SOL    HW133647   4.636   0.640   7.801  1.0657  1.4532 -0.4735
 7338SOL    HW233648   4.489   0.594   7.747  0.5500  0.0492  2.8994
 7339SOL     OW33649   2.610   3.530  10.680  0.1249 -0.2074 -0.1480
 7339SOL    HW133650   2.621   3.558  10.770  2.8284 -0.5409 -0.3801
 7339SOL    HW233651   2.536   3.583  10.650 -1.3922 -2.3557 -0.1867
 7340SOL     OW33652   3.675   0.370  12.760 -0.4834 -0.2837 -0.0963
 7340SOL    HW133653   3.639   0.324  12.836 -1.9472  0.5429 -0.3048
 7340SOL    HW233654   3.729   0.299  12.723 -1.3534 -1.8003  1.5158
 7341SOL     OW33655   4.716   2.829   2.476 -0.7391 -0.3288 -0.1533
 7341SOL    HW133656   4.620   2.830   2.472 -0.6726  0.0018 -1.7981
 7341SOL    HW233657   4.727   2.772   2.400 -1.0114 -1.1096  0.3885
 7342SOL     OW33658   3.820   2.102   7.987 -0.3407  0.5509 -0.0914
 7342SOL    HW133659   3.902   2.097   8.036 -0.5722 -0.1335  0.2369
 7342SOL    HW233660   3.825   2.180   7.933  1.4870  1.1193  0.8919
 7343SOL     OW33661   3.433   1.346   1.269 -0.4271  0.5152  0.0266
 7343SOL    HW133662   3.496   1.417   1.255 -0.8899  1.0923  0.8896
 7343SOL    HW233663   3.468   1.306   1.349  0.0014 -2.0705 -1.4429
 7344SOL     OW33664   4.442   1.554   1.864 -0.5444 -0.2339 -0.3753
 7344SOL    HW133665   4.470   1.519   1.780  1.4290  0.8169 -0.1538
 7344SOL    HW233666   4.466   1.480   1.919 -2.4802  0.2105  1.1020
 7345SOL     OW33667   0.985   1.277  17.558 -0.1165 -0.3256  0.5336
 7345SOL    HW133668   0.944   1.361  17.576 -1.5478 -1.0059  0.4105
 7345SOL    HW233669   0.920   1.228  17.508 -0.3205 -1.6303  2.0680
 7346SOL     OW33670   0.315   4.280   9.058  0.2973  0.2970 -0.0573
 7346SOL    HW133671   0.227   4.252   9.082  0.2474  0.1415 -0.4309
 7346SOL    HW233672   0.296   4.374   9.057 -1.8721 -0.0942  2.0359
 7347SOL     OW33673   1.698   2.657  10.914  0.2583 -0.2483  0.0943
 7347SOL    HW133674   1.775   2.713  10.915  0.4290 -0.4413 -1.1865
 7347SOL    HW233675   1.739   2.585  10.961  0.8384 -0.3943 -0.6307
 7348SOL     OW33676   2.458   3.295   7.581 -0.2978 -0.1367  0.4610
 7348SOL    HW133677   2.489   3.312   7.492 -0.4470  2.5439  0.9020
 7348SOL    HW233678   2.391   3.232   7.556  0.4932 -0.6590 -0.3463
 7349SOL     OW33679   3.491   0.374  10.269 -0.1945  0.3893 -0.3545
 7349SOL    HW133680   3.542   0.400  10.345 -1.7027  1.5007  0.2607
 7349SOL    HW233681   3.557   0.309  10.243 -1.6501 -2.0066  1.8608
 7350SOL     OW33682   1.066   1.964  13.724  0.1718  0.1390 -0.2388
 7350SOL    HW133683   1.158   1.941  13.726  0.4221  1.1584 -0.1501
 7350SOL    HW233684   1.026   1.892  13.674 -0.5282 -1.3284  2.4472
 7351SOL     OW33685   3.830   0.100   7.035  0.0427 -0.2467  0.3403
 7351SOL    HW133686   3.810   0.027   7.094  0.3342  0.3207  1.1395
 7351SOL    HW233687   3.911   0.068   6.995  0.3791  3.0559 -1.6920
 7352SOL     OW33688   4.631   0.477   2.766  0.0846 -0.4470  0.1122
 7352SOL    HW133689   4.557   0.419   2.783 -1.4331  1.6029  0.3827
 7352SOL    HW233690   4.596   0.547   2.820 -0.7649 -0.4468 -0.4420
 7353SOL     OW33691   1.326   3.961   6.666  0.3256  0.0293  0.5711
 7353SOL    HW133692   1.405   3.962   6.721 -0.1570  1.2076  1.2612
 7353SOL    HW233693   1.349   3.928   6.580  0.1976 -0.1371  0.6002
 7354SOL     OW33694   0.218   4.263   6.159  0.5015 -0.0754  0.0428
 7354SOL    HW133695   0.277   4.191   6.136  0.2972 -0.3131  0.2541
 7354SOL    HW233696   0.158   4.212   6.214  0.1337 -0.9712 -1.1771
 7355SOL     OW33697   2.892   2.922   6.900 -0.5191  0.2985 -0.4833
 7355SOL    HW133698   2.859   2.949   6.986  1.4075  0.6099  0.1474
 7355SOL    HW233699   2.817   2.944   6.845 -1.1112 -0.0342  0.1877
 7356SOL     OW33700   0.562   2.809   2.080 -0.2263 -0.0600 -0.0942
 7356SOL    HW133701   0.528   2.725   2.049 -0.9824 -0.1586  1.0154
 7356SOL    HW233702   0.657   2.797   2.084 -0.5412 -1.6265  2.7220
 7357SOL     OW33703   1.630   1.475   4.271 -0.5652  0.2976  0.0731
 7357SOL    HW133704   1.561   1.488   4.207 -1.7473  0.8016  1.4541
 7357SOL    HW233705   1.600   1.527   4.346  1.9046  1.2919  0.3709
 7358SOL     OW33706   4.506   4.319   4.768  0.0357 -0.0071  0.0950
 7358SOL    HW133707   4.533   4.381   4.700  0.2771  2.0254  2.0269
 7358SOL    HW233708   4.445   4.379   4.810 -0.7358 -0.4481 -0.3934
 7359SOL     OW33709   1.910   3.957  11.630  0.4357  0.1980  0.0322
 7359SOL    HW133710   1.965   3.938  11.706  2.0515 -2.8090 -1.8726
 7359SOL    HW233711   1.979   3.943  11.564  0.1747 -2.3808  0.2846
 7360SOL     OW33712   2.687   4.530   3.869 -0.5549 -0.4158 -0.2616
 7360SOL    HW133713   2.674   4.442   3.835  0.8515 -0.3951 -0.8501
 7360SOL    HW233714   2.638   4.582   3.806 -0.8091 -0.2051  0.1080
 7361SOL     OW33715   1.970   3.076   8.557  0.4107  0.9754  0.0841
 7361SOL    HW133716   2.000   3.166   8.544 -0.3588  1.4360  1.4191
 7361SOL    HW233717   1.876   3.091   8.571  0.2839 -0.8856  1.2579
 7362SOL     OW33718   0.686   1.551   8.351  0.2626 -0.5545  0.2703
 7362SOL    HW133719   0.663   1.480   8.290 -2.0687  0.7716 -0.3797
 7362SOL    HW233720   0.613   1.552   8.413 -0.5165  0.3158 -0.6632
 7363SOL     OW33721   3.360   2.326   7.136  0.0973  0.3057 -0.0077
 7363SOL    HW133722   3.433   2.268   7.117  0.1871  1.2691 -2.5767
 7363SOL    HW233723   3.350   2.299   7.227  1.4522 -1.3382 -0.3555
 7364SOL     OW33724   2.047   3.874   5.925  0.8673  0.4671  0.1637
 7364SOL    HW133725   2.051   3.896   6.018 -1.4418 -0.4799  0.4917
 7364SOL    HW233726   2.107   3.801   5.915  0.7786  0.5121 -0.6245
 7365SOL     OW33727   1.331   2.893   5.185 -0.2973 -0.2519 -0.0719
 7365SOL    HW133728   1.245   2.866   5.154  0.6675 -1.0063 -2.1349
 7365SOL    HW233729   1.303   2.900   5.277  2.0741  0.4911  0.5966
 7366SOL     OW33730   1.340   3.027   9.530  0.2696 -0.9510 -0.3123
 7366SOL    HW133731   1.247   3.015   9.548  0.1389 -1.3254 -1.2291
 7366SOL    HW233732   1.333   3.057   9.440 -0.6292  1.5213  0.5833
 7367SOL     OW33733   4.344   0.947   2.509  0.2154 -0.0036  0.9197
 7367SOL    HW133734   4.429   0.962   2.551  0.4650  1.7891 -0.2128
 7367SOL    HW233735   4.359   0.859   2.474  3.5060  0.7970  0.3385
 7368SOL     OW33736   3.268   0.553   8.883  0.0600 -0.2465 -0.3769
 7368SOL    HW133737   3.178   0.550   8.914  0.3933 -3.2046  0.3506
 7368SOL    HW233738   3.264   0.645   8.858 -2.4505 -0.8593 -2.1829
 7369SOL     OW33739   1.282   2.983   6.382  0.3775  0.1576  0.0481
 7369SOL    HW133740   1.264   2.938   6.465 -1.2446 -0.3489 -0.6005
 7369SOL    HW233741   1.286   2.907   6.325 -2.0184  2.0493 -2.5822
 7370SOL     OW33742   3.123   0.780   6.163 -0.5020 -0.0574  0.0223
 7370SOL    HW133743   3.046   0.798   6.109  0.8643  2.4999 -1.0959
 7370SOL    HW233744   3.123   0.847   6.232 -1.5724  1.5113 -1.5014
 7371SOL     OW33745   1.703   0.489  11.748  0.6283  0.0885 -0.1383
 7371SOL    HW133746   1.749   0.464  11.668 -1.1944 -1.3816 -0.7351
 7371SOL    HW233747   1.646   0.562  11.723 -0.0643 -0.7043 -0.8281
 7372SOL     OW33748   3.707   4.573  12.636 -0.0392 -0.8079 -0.7562
 7372SOL    HW133749   3.737   4.498  12.585  1.3004 -0.2177 -0.8434
 7372SOL    HW233750   3.681   4.634  12.568 -2.2111 -1.0077 -0.1051
 7373SOL     OW33751   1.190   0.855   9.356 -0.0661  0.1918  0.5804
 7373SOL    HW133752   1.213   0.763   9.341  3.3218  1.1364  0.0175
 7373SOL    HW233753   1.128   0.851   9.429 -0.5995 -1.1660  0.0478
 7374SOL     OW33754   3.920   4.370   4.476 -0.3462 -0.3750  0.1331
 7374SOL    HW133755   3.845   4.328   4.436  0.3408 -1.2242 -0.2613
 7374SOL    HW233756   3.937   4.308   4.547 -4.4314  0.2405  1.6491
 7375SOL     OW33757   1.207   4.718  14.157 -0.1792  0.7537 -1.2418
 7375SOL    HW133758   1.261   0.061  14.156  0.0385  0.6044 -1.4959
 7375SOL    HW233759   1.263   4.654  14.113  0.6594  1.4868 -1.2481
 7376SOL     OW33760   0.137   1.380   8.882  0.2482 -0.0060  0.1531
 7376SOL    HW133761   0.062   1.425   8.842  0.1300  0.3630  0.7978
 7376SOL    HW233762   0.115   1.288   8.889  0.0842 -0.2485 -3.5873
 7377SOL     OW33763   3.477   1.275  17.085  0.5787 -0.0322  0.0466
 7377SOL    HW133764   3.438   1.234  17.008 -1.9068  3.7724 -0.7244
 7377SOL    HW233765   3.473   1.367  17.058 -1.5704 -0.1515 -0.0765
 7378SOL     OW33766   1.339   1.769  15.854 -0.3751 -0.0538  0.4323
 7378SOL    HW133767   1.337   1.807  15.942 -0.5954 -3.6964  1.9851
 7378SOL    HW233768   1.352   1.674  15.859 -0.2345 -0.2371 -2.9785
 7379SOL     OW33769   3.369   1.882   3.588  0.3347  0.1033 -0.2241
 7379SOL    HW133770   3.305   1.904   3.520 -2.3783 -3.4670  1.2659
 7379SOL    HW233771   3.363   1.787   3.586 -1.3238  0.2041  0.1792
 7380SOL     OW33772   3.982   1.270  12.865  0.9848  0.7480 -0.3329
 7380SOL    HW133773   4.046   1.315  12.810  1.8332 -0.2388 -0.1389
 7380SOL    HW233774   4.045   1.251  12.934  1.1548 -1.4228 -1.1101
 7381SOL     OW33775   1.735   1.358   1.870 -0.3749  0.2417  0.3354
 7381SOL    HW133776   1.737   1.407   1.952 -2.2939  0.6391  0.1449
 7381SOL    HW233777   1.681   1.286   1.905 -0.0898  0.2531  0.8017
 7382SOL     OW33778   0.036   2.005  15.222 -0.6360  0.4212 -0.6193
 7382SOL    HW133779   0.043   2.101  15.224  1.6456  0.1772  2.0421
 7382SOL    HW233780   0.109   1.964  15.268 -3.3926 -2.8293  0.7702
 7383SOL     OW33781   1.463   4.726   0.721  0.4510  0.1859 -0.2122
 7383SOL    HW133782   1.545   4.682   0.700  1.0125  0.9905  0.2632
 7383SOL    HW233783   1.399   4.655   0.729  0.6380  0.1402  0.9426
 7384SOL     OW33784   4.583   4.514   4.599 -0.1442  0.0469 -0.3912
 7384SOL    HW133785   4.627   4.599   4.595 -1.0680  0.5206 -0.3925
 7384SOL    HW233786   4.519   4.517   4.528 -1.8666 -1.9744  1.0770
 7385SOL     OW33787   2.825   4.214   2.174  0.4612 -0.1092  0.4135
 7385SOL    HW133788   2.900   4.264   2.206  0.8539 -0.3777 -0.0888
 7385SOL    HW233789   2.814   4.262   2.092  2.3044  1.0950  0.8710
 7386SOL     OW33790   3.768   0.968   5.013 -0.9366 -0.1742  0.1586
 7386SOL    HW133791   3.696   1.010   5.060  0.3710 -0.0895  2.0877
 7386SOL    HW233792   3.838   1.030   5.033  0.3673 -1.8075  0.6624
 7387SOL     OW33793   1.750   3.983   3.764 -0.0443 -0.4393  0.4413
 7387SOL    HW133794   1.683   4.042   3.730 -0.7587 -2.4819 -1.6452
 7387SOL    HW233795   1.809   4.037   3.816 -0.3482 -1.0408  1.4199
 7388SOL     OW33796   1.036   4.112   0.520  0.3437  0.6948 -0.3446
 7388SOL    HW133797   1.122   4.077   0.500 -0.6056 -0.9918 -1.5106
 7388SOL    HW233798   1.047   4.125   0.614  0.3008 -2.3755  0.0641
 7389SOL     OW33799   2.449   3.126   3.366 -0.1347  0.6190 -0.9307
 7389SOL    HW133800   2.543   3.139   3.380 -0.4612  2.5615 -0.5532
 7389SOL    HW233801   2.434   3.050   3.422  0.1425  1.2329 -0.0179
 7390SOL     OW33802   4.324   1.713   0.845 -0.0610 -0.3762 -0.1752
 7390SOL    HW133803   4.358   1.779   0.784 -2.1296  1.2965  0.4940
 7390SOL    HW233804   4.335   1.634   0.791 -0.7893 -0.6408  0.0584
 7391SOL     OW33805   0.446   4.453  13.350  0.1307 -0.1567 -0.1472
 7391SOL    HW133806   0.366   4.489  13.389 -0.2534 -0.7631 -0.3705
 7391SOL    HW233807   0.507   4.476  13.420  0.7640  0.8270 -1.0206
 7392SOL     OW33808   1.735   1.030   2.617 -0.3115  0.4321 -0.3312
 7392SOL    HW133809   1.653   1.074   2.594 -0.9188 -0.2020  0.6241
 7392SOL    HW233810   1.711   1.015   2.708  0.7310  0.4390 -0.0560
 7393SOL     OW33811   2.122   1.600  14.535 -0.3570 -0.5241  0.3057
 7393SOL    HW133812   2.097   1.687  14.564  0.9151 -0.1643  0.3407
 7393SOL    HW233813   2.109   1.604  14.440  0.1079  1.4914  0.3232
 7394SOL     OW33814   0.597   0.088  11.674 -0.3511 -0.2094  0.3192
 7394SOL    HW133815   0.604   0.069  11.767  1.1913  1.3545  0.5288
 7394SOL    HW233816   0.568   0.179  11.668 -1.9511 -0.7801 -0.4980
 7395SOL     OW33817   0.877   4.379   9.897 -0.2712 -0.1304 -0.1993
 7395SOL    HW133818   0.836   4.464   9.911 -0.7262 -0.5224  0.8478
 7395SOL    HW233819   0.817   4.356   9.826  2.0212  1.4131 -2.6484
 7396SOL     OW33820   0.851   0.496   7.447  0.1941 -0.2459  0.4411
 7396SOL    HW133821   0.935   0.538   7.462 -0.7551  1.7744  0.0693
 7396SOL    HW233822   0.873   0.414   7.402 -1.8402  0.0654 -1.1464
 7397SOL     OW33823   1.237   2.920   5.508  0.3840 -0.4662  0.4475
 7397SOL    HW133824   1.287   2.839   5.522 -0.6337 -1.5439 -2.1300
 7397SOL    HW233825   1.297   2.989   5.535 -0.2801  0.1301  0.3892
 7398SOL     OW33826   2.763   0.393   8.759  0.4021 -0.4864  0.1149
 7398SOL    HW133827   2.697   0.386   8.690  1.6609 -0.6222 -1.0738
 7398SOL    HW233828   2.766   0.301   8.787 -0.3108 -0.0514  1.5803
 7399SOL     OW33829   0.758   0.643   0.792  0.4175 -0.6543 -0.2741
 7399SOL    HW133830   0.726   0.656   0.881 -0.0162  1.5548 -0.7583
 7399SOL    HW233831   0.686   0.699   0.762 -2.3938 -3.4191  1.2816
 7400SOL     OW33832   1.547   3.401  14.223  0.0523  0.1164  0.5803
 7400SOL    HW133833   1.584   3.488  14.205 -0.5757  0.1349 -0.6067
 7400SOL    HW233834   1.623   3.349  14.248 -0.3532 -1.3973 -1.3337
 7401SOL     OW33835   0.050   0.286   3.579  0.3049 -0.3065  0.0583
 7401SOL    HW133836   4.710   0.288   3.522  0.9722  0.6010 -0.8114
 7401SOL    HW233837   0.016   0.355   3.636  0.2574  0.6254 -1.0935
 7402SOL     OW33838   4.588   0.674   6.349  0.1130  0.3566 -0.2413
 7402SOL    HW133839   4.498   0.682   6.317 -0.0105  1.1153  0.2882
 7402SOL    HW233840   4.645   0.680   6.272  1.7319 -0.3709  0.9116
 7403SOL     OW33841   1.684   2.716  12.786  0.1014 -0.1664 -0.5287
 7403SOL    HW133842   1.740   2.727  12.709 -1.2560 -0.3283 -1.5416
 7403SOL    HW233843   1.631   2.796  12.785  1.1406  0.5123 -1.1682
 7404SOL     OW33844   2.853   4.219  10.303  0.1560 -1.1072  0.1837
 7404SOL    HW133845   2.853   4.138  10.353  0.3111 -1.4485 -0.3681
 7404SOL    HW233846   2.797   4.199  10.228 -0.7733 -2.1165  1.1504
 7405SOL     OW33847   4.367   0.135  12.492 -0.2956  0.2249 -0.2833
 7405SOL    HW133848   4.458   0.129  12.462 -0.3887 -0.1679 -0.4945
 7405SOL    HW233849   4.324   0.079  12.427  0.1600 -0.3236 -0.1148
 7406SOL     OW33850   1.697   3.794   5.270  0.7121  0.0988  0.2900
 7406SOL    HW133851   1.765   3.774   5.335  1.8233  1.6938 -0.3916
 7406SOL    HW233852   1.710   3.888   5.261  0.4840  0.1181  0.1507
 7407SOL     OW33853   4.364   1.266   0.915  0.5362 -0.1385  0.2633
 7407SOL    HW133854   4.301   1.216   0.865  1.9053  0.7582 -2.3349
 7407SOL    HW233855   4.309   1.276   0.993  1.1647 -0.0893  0.7069
 7408SOL     OW33856   1.021   4.236   5.565 -0.8982  0.0021 -0.4471
 7408SOL    HW133857   1.076   4.303   5.526  0.1741 -1.1158 -0.8593
 7408SOL    HW233858   0.980   4.274   5.642 -0.5136  0.7881 -0.6395
 7409SOL     OW33859   3.373   3.296   8.446 -0.1560  0.4266 -0.5507
 7409SOL    HW133860   3.293   3.308   8.496 -2.1905 -2.0550 -3.2339
 7409SOL    HW233861   3.353   3.206   8.420 -0.4193  0.4002 -0.2463
 7410SOL     OW33862   0.327   3.247  12.600  0.1305  0.0771  0.0538
 7410SOL    HW133863   0.371   3.313  12.653 -0.0754  2.1594 -2.3438
 7410SOL    HW233864   0.390   3.176  12.590  0.1770 -0.0806  1.4526
 7411SOL     OW33865   2.258   4.221   1.543  0.1638 -0.0631 -0.3698
 7411SOL    HW133866   2.343   4.257   1.570  0.9945 -1.4818 -1.0775
 7411SOL    HW233867   2.240   4.161   1.616 -0.6273  1.2812  0.5348
 7412SOL     OW33868   0.478   1.765   3.207 -0.1088 -0.4239  0.0034
 7412SOL    HW133869   0.530   1.689   3.181  2.1503  0.7036  1.2289
 7412SOL    HW233870   0.523   1.829   3.152 -0.2406  0.2706  0.7067
 7413SOL     OW33871   2.377   4.149   5.463  1.0327 -0.1853  0.0588
 7413SOL    HW133872   2.463   4.108   5.457  0.8669 -0.3315 -1.2893
 7413SOL    HW233873   2.388   4.207   5.538 -2.4264  0.5391 -0.0333
 7414SOL     OW33874   0.159   4.088   7.110  0.1369  0.1236  0.0672
 7414SOL    HW133875   0.176   4.175   7.147  0.0885  0.3173 -0.3746
 7414SOL    HW233876   0.075   4.104   7.069  0.5266  1.7107 -0.1323
 7415SOL     OW33877   1.795   3.177   2.566  0.0754  0.1436  0.0343
 7415SOL    HW133878   1.730   3.248   2.562  1.6114  1.4806 -1.4282
 7415SOL    HW233879   1.768   3.135   2.485  0.4101  1.8382 -0.9450
 7416SOL     OW33880   2.563   0.078   8.074  0.5795  0.0046 -0.0889
 7416SOL    HW133881   2.581   0.100   7.983  0.2060  0.8466  0.0412
 7416SOL    HW233882   2.493   0.013   8.074  0.1063  0.5033  1.1267
 7417SOL     OW33883   0.285   4.575   2.347 -0.2104 -0.4329  0.3991
 7417SOL    HW133884   0.226   4.538   2.412  0.2258  0.2859  1.2015
 7417SOL    HW233885   0.353   4.507   2.345  0.0795 -0.1173 -1.4466
 7418SOL     OW33886   4.707   2.900   5.259  0.1555  0.0457 -0.2176
 7418SOL    HW133887   4.664   2.815   5.263 -0.8866  0.5187 -1.4682
 7418SOL    HW233888   4.652   2.943   5.194 -1.5233  0.8901  1.7593
 7419SOL     OW33889   3.445   2.120   1.977  0.0587 -0.1352 -0.6642
 7419SOL    HW133890   3.539   2.138   1.970  0.5382 -1.6451  1.8481
 7419SOL    HW233891   3.460   2.059   2.050  0.1556 -0.7419 -1.1871
 7420SOL     OW33892   2.416   2.746   2.081  0.1583 -0.2677  0.4761
 7420SOL    HW133893   2.483   2.735   2.013  2.2371 -0.9475  2.6738
 7420SOL    HW233894   2.372   2.826   2.052 -0.1317  0.3471  2.6757
 7421SOL     OW33895   1.136   3.569  10.641 -0.8093 -0.1444 -0.0789
 7421SOL    HW133896   1.052   3.527  10.659 -0.6052  0.6526  2.7466
 7421SOL    HW233897   1.202   3.500  10.641 -0.8691 -0.2110 -0.8654
 7422SOL     OW33898   2.485   2.588   9.303  0.2612 -0.1652  0.5700
 7422SOL    HW133899   2.460   2.497   9.321 -1.6916  0.2691 -0.0467
 7422SOL    HW233900   2.404   2.635   9.318 -0.4979 -1.2279 -0.1608
 7423SOL     OW33901   3.113   2.738   4.579 -0.4088 -0.2824  0.4778
 7423SOL    HW133902   3.189   2.744   4.522 -0.1797  3.1617  1.1054
 7423SOL    HW233903   3.100   2.830   4.604 -0.4349 -0.6487  1.8189
 7424SOL     OW33904   2.606   2.045   5.906  0.1913  0.5941  0.3801
 7424SOL    HW133905   2.695   2.034   5.871  0.7801  0.7839  1.7993
 7424SOL    HW233906   2.630   2.019   5.995  2.7434  2.1988  0.1522
 7425SOL     OW33907   3.320   4.221   2.962 -0.2069  0.1841  0.5438
 7425SOL    HW133908   3.414   4.218   2.949 -0.1526  2.0061  0.4841
 7425SOL    HW233909   3.317   4.185   3.050 -0.0352  0.3529  0.6176
 7426SOL     OW33910   3.105   1.597   9.684 -0.0300 -0.6346  0.4955
 7426SOL    HW133911   3.160   1.519   9.676 -0.8068 -0.9961 -1.1979
 7426SOL    HW233912   3.113   1.624   9.776 -0.3364  1.0401  0.0165
 7427SOL     OW33913   2.375   3.969  11.701 -0.1967 -0.1217  0.0276
 7427SOL    HW133914   2.363   4.060  11.727  0.7428 -0.4329  1.5064
 7427SOL    HW233915   2.348   3.932  11.785 -1.4791  1.7699  0.4415
 7428SOL     OW33916   2.110   0.805   5.011 -0.2686 -0.2964 -0.6732
 7428SOL    HW133917   2.072   0.865   4.947 -0.3159  2.1552  1.6273
 7428SOL    HW233918   2.050   0.800   5.086  3.3439 -2.6922  2.0424
 7429SOL     OW33919   1.418   3.025  12.153  0.3822 -0.0261  0.0403
 7429SOL    HW133920   1.379   3.113  12.161 -0.4210 -0.3526 -0.2838
 7429SOL    HW233921   1.491   3.034  12.214  1.3983 -2.1910 -0.9005
 7430SOL     OW33922   2.399   0.435   4.872  0.5558 -0.0835 -0.1329
 7430SOL    HW133923   2.356   0.353   4.899 -1.3471  1.7012  2.2214
 7430SOL    HW233924   2.321   0.490   4.865  0.8846  0.4112  0.1263
 7431SOL     OW33925   1.551   3.768  16.590  0.0509  0.0750  0.2036
 7431SOL    HW133926   1.495   3.796  16.662 -2.7147 -3.2068 -0.6770
 7431SOL    HW233927   1.636   3.807  16.612 -0.5814  2.3941 -1.5201
 7432SOL     OW33928   0.646   0.452   5.241  0.1797 -0.0006 -0.3758
 7432SOL    HW133929   0.624   0.363   5.211 -0.5608  1.0218 -2.8299
 7432SOL    HW233930   0.686   0.488   5.162  0.1719  0.8789  0.0248
 7433SOL     OW33931   0.146   4.537   6.057 -0.4374  0.8053  0.1998
 7433SOL    HW133932   0.175   4.455   6.097 -0.5473  0.1641 -1.0430
 7433SOL    HW233933   0.170   4.592   6.132  0.2903 -0.8108  1.1548
 7434SOL     OW33934   4.013   1.291   3.730 -0.0705  0.6319  0.2590
 7434SOL    HW133935   4.005   1.214   3.787  0.6623 -2.3296 -3.6637
 7434SOL    HW233936   3.950   1.355   3.766 -0.7677  0.8578 -1.3899
 7435SOL     OW33937   0.269   4.080   3.357  0.2763  0.3949 -0.3251
 7435SOL    HW133938   0.212   4.070   3.434  1.0379 -0.5331  0.1142
 7435SOL    HW233939   0.257   4.175   3.348 -0.4612  0.2677 -0.6799
 7436SOL     OW33940   0.102   1.346   4.006 -0.0253 -0.6885 -0.3252
 7436SOL    HW133941   0.161   1.350   4.081  0.3695  1.8920 -0.7779
 7436SOL    HW233942   0.151   1.394   3.939 -0.1446 -0.6348 -0.3748
 7437SOL     OW33943   3.268   0.565  17.426 -0.7773 -0.7905  0.5495
 7437SOL    HW133944   3.355   0.579  17.389 -1.4180 -0.9755 -1.0170
 7437SOL    HW233945   3.284   0.489  17.483 -1.4442  0.1988  2.0810
 7438SOL     OW33946   3.975   4.317   8.960 -0.2845 -0.6278 -0.0188
 7438SOL    HW133947   3.970   4.271   9.044 -1.6107 -0.3213  0.0803
 7438SOL    HW233948   3.905   4.382   8.956 -0.2169 -0.6058 -0.8094
 7439SOL     OW33949   3.876   2.597   2.685  0.5267  0.3857 -0.0376
 7439SOL    HW133950   3.912   2.660   2.748 -0.2181  2.0261 -1.2487
 7439SOL    HW233951   3.788   2.630   2.671  1.2456  2.0289 -0.6720
 7440SOL     OW33952   4.527   2.577   4.022  0.8315  0.0898 -0.4438
 7440SOL    HW133953   4.507   2.508   3.959 -1.5539  0.2545  0.1356
 7440SOL    HW233954   4.460   2.642   3.999  0.4877 -0.2141 -0.2827
 7441SOL     OW33955   1.504   0.952   8.613 -0.5583 -0.1432  0.0987
 7441SOL    HW133956   1.568   0.880   8.615 -0.7844 -0.2791  2.6400
 7441SOL    HW233957   1.458   0.933   8.695  2.3931  0.0663  1.8299
 7442SOL     OW33958   4.239   0.882   3.388 -0.1371 -0.1106 -0.1988
 7442SOL    HW133959   4.304   0.827   3.432  2.8096  1.8301 -2.0906
 7442SOL    HW233960   4.214   0.848   3.302 -1.4262 -1.2028  0.6141
 7443SOL     OW33961   2.439   0.034   4.329 -0.1268 -0.2071  0.5396
 7443SOL    HW133962   2.413   4.716   4.255 -0.7708 -1.9910  2.0905
 7443SOL    HW233963   2.419   0.125   4.305  0.7239 -0.1586  0.0150
 7444SOL     OW33964   3.199   1.966   3.337 -0.1206 -0.2388 -0.3238
 7444SOL    HW133965   3.250   1.900   3.291  0.0330 -1.2043  1.2266
 7444SOL    HW233966   3.109   1.935   3.325 -0.1023 -0.2385 -0.4609
 7445SOL     OW33967   0.064   3.026  17.521  0.3902 -0.1703 -0.0402
 7445SOL    HW133968   0.103   2.981  17.595 -0.7699 -1.7014 -0.3409
 7445SOL    HW233969   0.045   2.954  17.460  2.9236  0.6693 -1.8252
 7446SOL     OW33970   1.133   4.360   7.612  0.3292 -0.0500  0.3029
 7446SOL    HW133971   1.219   4.379   7.651  0.4002 -0.1700  0.2065
 7446SOL    HW233972   1.161   4.284   7.560  1.0549 -0.2105  0.9229
 7447SOL     OW33973   2.693   2.203   5.111 -0.2196  0.5277  0.0670
 7447SOL    HW133974   2.736   2.122   5.138 -1.2384  0.0231  0.1806
 7447SOL    HW233975   2.602   2.186   5.133  0.0653  0.6369  1.3290
 7448SOL     OW33976   1.677   3.832   7.876  0.4824  0.0601 -0.4111
 7448SOL    HW133977   1.687   3.912   7.825 -4.5729  0.7522 -0.2958
 7448SOL    HW233978   1.653   3.768   7.809  1.8637 -0.3348 -0.5326
 7449SOL     OW33979   2.872   2.569  11.238  0.0199  0.2901 -0.0738
 7449SOL    HW133980   2.916   2.486  11.221  0.7216  0.7653 -0.5722
 7449SOL    HW233981   2.799   2.552  11.179 -0.1669  1.5196 -0.2114
 7450SOL     OW33982   1.373   4.296  10.585  0.1669 -0.2491  0.3077
 7450SOL    HW133983   1.417   4.215  10.560 -0.5484 -0.0343 -1.6344
 7450SOL    HW233984   1.306   4.296  10.517 -0.7012  0.4441  1.1749
 7451SOL     OW33985   2.674   1.170   3.287 -0.5372 -0.9893  0.3553
 7451SOL    HW133986   2.600   1.227   3.308  0.6506 -0.3959  2.8630
 7451SOL    HW233987   2.685   1.120   3.367  0.6098 -1.4476 -0.0860
 7452SOL     OW33988   1.073   0.314  14.801 -0.0821  0.1435 -0.0749
 7452SOL    HW133989   1.015   0.238  14.802  0.4657 -0.2994 -1.5375
 7452SOL    HW233990   1.120   0.299  14.883 -3.1224  0.4725  1.6988
 7453SOL     OW33991   3.673   2.051  16.702 -0.2080  0.3467  0.1149
 7453SOL    HW133992   3.581   2.057  16.679 -0.1051  1.9581  0.0963
 7453SOL    HW233993   3.717   2.117  16.649  0.1296  0.2417  0.2601
 7454SOL     OW33994   3.850   0.123   8.547  0.0803 -0.2141 -0.2033
 7454SOL    HW133995   3.855   0.032   8.576  0.4240 -0.4977 -1.1592
 7454SOL    HW233996   3.764   0.137   8.508  0.9211 -1.7764 -2.5762
 7455SOL     OW33997   2.410   3.515   5.378  0.2146 -0.0517 -0.1396
 7455SOL    HW133998   2.436   3.587   5.319 -1.0389 -0.4406 -1.1613
 7455SOL    HW233999   2.486   3.458   5.365  0.2212  0.4237 -2.2416
 7456SOL     OW34000   3.649   0.851   3.225 -0.0878 -0.1301 -0.5283
 7456SOL    HW134001   3.715   0.871   3.160  0.4959  2.0114  0.7330
 7456SOL    HW234002   3.694   0.891   3.300 -0.2098  0.3826 -0.7319
 7457SOL     OW34003   3.752   2.356   7.748  0.2883 -0.3956  0.0075
 7457SOL    HW134004   3.847   2.343   7.753  0.3668 -0.4545 -1.6865
 7457SOL    HW234005   3.716   2.340   7.835  0.4884 -0.2023  0.1254
 7458SOL     OW34006   0.416   3.756   8.101  0.7929 -0.0157  0.1599
 7458SOL    HW134007   0.451   3.829   8.152 -0.9720 -1.3898  3.3328
 7458SOL    HW234008   0.329   3.757   8.141  0.5912 -2.2209 -0.2070
 7459SOL     OW34009   1.619   4.170   1.589 -0.8321  0.1692 -0.4594
 7459SOL    HW134010   1.709   4.142   1.575 -0.5588  0.4937  0.6916
 7459SOL    HW234011   1.584   4.191   1.503  0.0414 -1.7454 -1.2960
 7460SOL     OW34012   4.463   0.406   4.665  0.2036 -0.2590 -0.2314
 7460SOL    HW134013   4.492   0.490   4.700  0.5275 -0.1691 -0.7129
 7460SOL    HW234014   4.450   0.352   4.742  2.7058  1.0252  1.0836
 7461SOL     OW34015   1.334   1.717  16.115 -0.1603 -0.0474  0.3822
 7461SOL    HW134016   1.380   1.752  16.191  0.1221 -0.3674  0.3617
 7461SOL    HW234017   1.320   1.628  16.145  0.6845 -0.0239  0.8663
 7462SOL     OW34018   3.839   3.997   4.870  0.1787 -0.0047 -0.8357
 7462SOL    HW134019   3.928   3.971   4.845  0.5992  1.1684 -0.5805
 7462SOL    HW234020   3.814   4.036   4.786  1.2534  0.3802 -0.9817
 7463SOL     OW34021   1.801   2.254   5.780  0.4864  0.4106 -0.6764
 7463SOL    HW134022   1.877   2.312   5.783  0.1496  0.7993  0.5349
 7463SOL    HW234023   1.746   2.310   5.725  0.0358  0.3582 -0.2809
 7464SOL     OW34024   0.523   3.566  12.091 -0.0250  0.1579 -0.0001
 7464SOL    HW134025   0.617   3.582  12.088 -0.8046  4.1342 -2.4738
 7464SOL    HW234026   0.492   3.634  12.032  2.4960  1.2401 -0.0411
 7465SOL     OW34027   0.190   3.310   8.807  0.6345 -0.2788 -0.1569
 7465SOL    HW134028   0.161   3.276   8.891 -1.8089  1.7241 -0.1928
 7465SOL    HW234029   0.182   3.232   8.752  1.1478  0.1152 -0.7930
 7466SOL     OW34030   3.431   0.987  16.612 -0.0615 -0.0874  0.1815
 7466SOL    HW134031   3.496   0.945  16.669 -1.4816 -1.4028  0.8108
 7466SOL    HW234032   3.371   0.913  16.611  1.5615 -1.4155  0.9428
 7467SOL     OW34033   0.222   0.953   6.017 -0.0640  0.2447  0.3941
 7467SOL    HW134034   0.198   0.937   5.926  1.4436 -1.8961  0.3564
 7467SOL    HW234035   0.258   1.042   6.016  2.2654 -0.6858  1.0354
 7468SOL     OW34036   1.114   3.818   8.791 -0.3704  0.3081  0.5147
 7468SOL    HW134037   1.026   3.846   8.816 -0.6253  0.6354 -0.7536
 7468SOL    HW234038   1.175   3.871   8.842 -0.5646  0.1546  0.9031
 7469SOL     OW34039   3.882   1.635   4.358 -0.1531 -0.1050 -0.2794
 7469SOL    HW134040   3.953   1.672   4.305 -1.1166 -0.9408 -2.1558
 7469SOL    HW234041   3.841   1.716   4.388  0.4307 -0.6696  2.0181
 7470SOL     OW34042   0.581   0.967   3.336 -0.2243  0.2238  0.1491
 7470SOL    HW134043   0.558   0.910   3.263 -1.9807  0.4125  0.5617
 7470SOL    HW234044   0.652   0.917   3.377  1.5737  1.8757 -0.9457
 7471SOL     OW34045   3.467   3.624  12.315 -0.4469  0.2851 -0.0565
 7471SOL    HW134046   3.385   3.630  12.267 -2.4562 -1.9559  3.0840
 7471SOL    HW234047   3.428   3.603  12.400  0.1526 -0.5755  0.0010
 7472SOL     OW34048   2.975   1.193   6.865  0.1261 -0.4824 -0.9150
 7472SOL    HW134049   2.977   1.283   6.897  1.9840 -1.6342  2.1435
 7472SOL    HW234050   2.981   1.210   6.771 -1.5257 -3.3163 -1.5326
 7473SOL     OW34051   4.684   1.558   7.444  0.2904 -0.2972  0.2669
 7473SOL    HW134052   4.694   1.530   7.535  1.0148 -0.9982 -0.0232
 7473SOL    HW234053   4.700   1.651   7.461 -4.2087  1.1034 -3.2300
 7474SOL     OW34054   3.735   4.200  17.699 -0.4162  0.2497  0.0152
 7474SOL    HW134055   3.688   4.119  17.718  2.1300 -0.8764  1.6349
 7474SOL    HW234056   3.721   4.251   0.034 -2.3844  2.0235 -1.4885
 7475SOL     OW34057   0.590   4.428  11.787  0.2200 -0.4445  0.1523
 7475SOL    HW134058   0.574   4.446  11.695  2.1432  1.9403  0.2943
 7475SOL    HW234059   0.678   4.461  11.803 -0.4475  2.6137 -2.3965
 7476SOL     OW34060   2.526   1.611   9.382 -0.0792 -0.1369 -0.1994
 7476SOL    HW134061   2.542   1.667   9.458  0.0057  0.7980 -0.9048
 7476SOL    HW234062   2.548   1.524   9.416 -2.1032 -0.2723  0.7532
 7477SOL     OW34063   0.264   2.531   6.499  0.2598 -0.3404 -0.3404
 7477SOL    HW134064   0.214   2.547   6.419 -1.6982  2.8674  1.5109
 7477SOL    HW234065   0.199   2.502   6.563 -0.8250 -1.0741 -1.7801
 7478SOL     OW34066   3.112   4.511   2.064 -0.4795  0.7640 -0.5384
 7478SOL    HW134067   3.049   4.530   1.994 -2.7733 -1.1514  0.9960
 7478SOL    HW234068   3.183   4.490   2.004 -0.0982  0.2001  0.1165
 7479SOL     OW34069   2.083   3.142   7.868  0.0898 -0.3415 -0.3360
 7479SOL    HW134070   2.088   3.216   7.807  0.3065  0.1905  0.3317
 7479SOL    HW234071   2.042   3.074   7.815 -1.1944  0.3930 -0.2712
 7480SOL     OW34072   1.425   3.259   4.337 -0.3774 -0.4914  0.9029
 7480SOL    HW134073   1.416   3.328   4.402 -0.7687 -0.2589  0.5974
 7480SOL    HW234074   1.414   3.311   4.257 -0.3633 -0.6679  0.7859
 7481SOL     OW34075   2.615   0.793  13.538 -0.1816  0.0600  0.4671
 7481SOL    HW134076   2.523   0.821  13.542 -0.1370 -0.0663  2.5046
 7481SOL    HW234077   2.642   0.835  13.457 -2.5204  2.4866  0.9312
 7482SOL     OW34078   2.926   4.570   3.997 -0.2274 -0.3151 -0.1451
 7482SOL    HW134079   2.842   4.560   3.954 -0.7665 -0.4035  0.9378
 7482SOL    HW234080   2.940   4.657   3.959  0.4930 -0.8925 -1.2154
 7483SOL     OW34081   4.195   4.200   4.679  0.0612 -0.6429 -0.1620
 7483SOL    HW134082   4.122   4.229   4.734  0.6000  0.6852 -0.1296
 7483SOL    HW234083   4.260   4.166   4.740 -0.2466 -1.2042 -0.1472
 7484SOL     OW34084   3.673   0.162  12.968 -0.0444  0.0531  0.1288
 7484SOL    HW134085   3.686   0.067  12.963  2.2392  0.4743 -2.0266
 7484SOL    HW234086   3.730   0.195  12.899  1.7027 -1.8240  0.6670
 7485SOL     OW34087   3.128   3.383   7.921 -0.9415 -0.1380  0.4495
 7485SOL    HW134088   3.069   3.357   7.992 -0.4157  0.1112  0.9827
 7485SOL    HW234089   3.197   3.429   7.968 -1.7280  2.7690 -1.2682
 7486SOL     OW34090   0.299   1.934   8.603  0.1359 -0.4362 -0.0980
 7486SOL    HW134091   0.290   1.921   8.698  0.8195  1.4178  0.2032
 7486SOL    HW234092   0.208   1.918   8.578  0.0658 -0.4281  0.1429
 7487SOL     OW34093   2.088   0.754   5.558  0.1605 -0.5978 -0.0428
 7487SOL    HW134094   2.130   0.823   5.609 -0.1431 -1.7438  1.7478
 7487SOL    HW234095   2.005   0.739   5.603 -0.4015 -1.2270 -1.3124
 7488SOL     OW34096   0.017   0.155   6.432  0.0390  1.0973  0.4262
 7488SOL    HW134097   0.112   0.165   6.430  0.0636  0.1337 -2.4231
 7488SOL    HW234098   4.719   0.170   6.520  3.6899  2.2652  1.6527
 7489SOL     OW34099   2.548   3.911   8.155  0.5445  0.0868 -0.2431
 7489SOL    HW134100   2.641   3.892   8.171  0.0940 -1.5334  0.3799
 7489SOL    HW234101   2.490   3.836   8.150  2.1226 -1.1346 -0.3090
 7490SOL     OW34102   4.321   2.379   4.285 -0.4401 -0.0645  0.8842
 7490SOL    HW134103   4.330   2.348   4.195 -0.4831 -0.0666  0.8803
 7490SOL    HW234104   4.234   2.418   4.270  0.9300  2.1592 -1.2265
 7491SOL     OW34105   2.700   0.510   7.969  0.1836 -1.0119 -0.2920
 7491SOL    HW134106   2.690   0.596   7.928 -0.8143 -0.1343  1.7820
 7491SOL    HW234107   2.612   0.473   7.968  0.2628 -1.1093 -2.7386
 7492SOL     OW34108   2.917   3.490   1.210 -0.0206 -0.0532 -0.0512
 7492SOL    HW134109   2.918   3.585   1.203 -0.4973  0.2588  3.8906
 7492SOL    HW234110   3.008   3.465   1.230 -0.3412 -1.0474  0.1731
 7493SOL     OW34111   1.546   2.977   8.657 -0.1585 -0.3120  0.3252
 7493SOL    HW134112   1.544   2.887   8.626  1.2707 -0.5324  0.9033
 7493SOL    HW234113   1.457   3.010   8.645 -0.2695 -0.5115  0.5913
 7494SOL     OW34114   0.184   1.845   6.293 -0.1502  0.1108  0.1680
 7494SOL    HW134115   0.225   1.806   6.216 -1.6588  1.2573 -1.2234
 7494SOL    HW234116   0.101   1.798   6.296 -1.0206  1.6768  0.6344
 7495SOL     OW34117   4.399   0.017  14.302 -0.0351  0.1653 -0.1176
 7495SOL    HW134118   4.321   0.068  14.324  0.1225 -0.2840  1.4239
 7495SOL    HW234119   4.448   0.097  14.281 -0.0975  0.2148 -0.0739
 7496SOL     OW34120   3.590   1.133   8.778 -0.0090  0.0546  0.0414
 7496SOL    HW134121   3.603   1.227   8.761 -1.6635 -0.2012 -2.6135
 7496SOL    HW234122   3.496   1.136   8.760 -0.0292 -0.8574  0.0120
 7497SOL     OW34123   4.020   1.082   1.945 -0.7164 -0.0748 -0.1394
 7497SOL    HW134124   3.992   1.170   1.919 -2.7523 -0.0706  2.1196
 7497SOL    HW234125   4.110   1.084   1.912 -0.1977 -1.2465  1.2052
 7498SOL     OW34126   1.766   2.882   3.743 -0.0719 -0.7653 -0.2805
 7498SOL    HW134127   1.804   2.805   3.701  0.3351 -1.2544  0.9765
 7498SOL    HW234128   1.676   2.854   3.761  0.5725 -1.6528  1.5666
 7499SOL     OW34129   0.753   0.422   6.217 -0.4822  0.2385 -0.3084
 7499SOL    HW134130   0.714   0.481   6.153 -1.7876 -0.5674 -0.2489
 7499SOL    HW234131   0.819   0.407   6.148 -3.5389 -0.5609 -3.0560
 7500SOL     OW34132   1.077   3.016   9.592  0.3199 -0.6770 -0.2081
 7500SOL    HW134133   1.035   3.010   9.506  1.6537  1.1873 -1.0084
 7500SOL    HW234134   1.005   3.068   9.627  1.6187  1.7502 -1.0886
 7501SOL     OW34135   0.712   3.162  15.072  0.7740 -0.1583 -0.1600
 7501SOL    HW134136   0.679   3.086  15.023  0.3877  1.0404 -1.7781
 7501SOL    HW234137   0.705   3.240  15.016 -0.0820 -0.0332  0.1242
 7502SOL     OW34138   3.395   4.060  10.253  0.0964 -0.1037  0.3233
 7502SOL    HW134139   3.362   3.997  10.189 -0.7475  0.2466  0.4239
 7502SOL    HW234140   3.458   4.004  10.300  1.7493  1.9590  0.5476
 7503SOL     OW34141   4.351   3.225  11.294  0.0749  0.5119  0.8120
 7503SOL    HW134142   4.405   3.298  11.322  0.1352  0.7195  0.1480
 7503SOL    HW234143   4.319   3.187  11.376 -2.1825 -2.1831 -1.3201
 7504SOL     OW34144   2.036   4.591   9.606  0.0304 -0.0973  0.2388
 7504SOL    HW134145   2.070   4.605   9.694  0.2489  0.3383  0.0846
 7504SOL    HW234146   2.108   4.622   9.550 -0.9309  0.6081 -0.6111
 7505SOL     OW34147   1.338   2.542   5.183 -0.3735 -1.0492  0.1529
 7505SOL    HW134148   1.293   2.587   5.112 -1.1337 -1.6077  0.2834
 7505SOL    HW234149   1.337   2.450   5.154 -0.2657 -1.3500  1.0945
 7506SOL     OW34150   0.188   3.523   3.806 -0.8307 -0.0111 -0.5060
 7506SOL    HW134151   0.255   3.457   3.821 -0.3027  0.3539 -1.2636
 7506SOL    HW234152   0.197   3.524   3.711  0.7477  1.9555 -0.3375
 7507SOL     OW34153   1.595   0.137   2.063  0.2756 -0.2482 -0.0918
 7507SOL    HW134154   1.612   0.064   2.003  2.6113  0.4977 -0.3359
 7507SOL    HW234155   1.617   0.211   2.006  0.6911  0.4022  0.9154
 7508SOL     OW34156   4.709   0.612   7.108  0.1627 -0.0883  0.4319
 7508SOL    HW134157   4.670   0.634   7.023 -0.6568  0.7320  1.0284
 7508SOL    HW234158   0.066   0.608   7.089 -0.1598  1.1602 -1.4285
 7509SOL     OW34159   0.605   3.460   5.610 -0.3275 -0.1728  0.2841
 7509SOL    HW134160   0.576   3.492   5.695  1.7299  0.9817  0.5557
 7509SOL    HW234161   0.615   3.366   5.626 -0.0635  0.0237  1.2545
 7510SOL     OW34162   2.534   1.526   9.953 -0.0597  0.2817  0.2738
 7510SOL    HW134163   2.509   1.552  10.042 -0.8297 -0.9770  0.4312
 7510SOL    HW234164   2.621   1.491   9.975  0.0662 -0.0308 -0.7574
 7511SOL     OW34165   3.663   4.027   5.307  0.5610 -0.2192  0.5222
 7511SOL    HW134166   3.743   3.978   5.327  0.8860  0.6329  1.3515
 7511SOL    HW234167   3.653   4.000   5.216 -1.5563  0.1663  0.6554
 7512SOL     OW34168   1.285   3.173   8.318  0.1371  0.4145  0.0413
 7512SOL    HW134169   1.218   3.241   8.322  0.0486  0.4353 -2.0115
 7512SOL    HW234170   1.250   3.116   8.250 -2.1484  2.0549 -0.1458
 7513SOL     OW34171   2.768   0.135   8.879 -0.1215  0.6774 -0.7848
 7513SOL    HW134172   2.850   0.153   8.925 -0.3884 -0.0844 -0.0125
 7513SOL    HW234173   2.793   0.065   8.818 -0.9517 -0.3842  0.0955
 7514SOL     OW34174   1.826   4.069   6.475 -0.0568  0.3290 -0.1504
 7514SOL    HW134175   1.788   4.129   6.410  0.4018 -0.6795 -1.3604
 7514SOL    HW234176   1.853   4.134   6.540  2.3193 -2.9845  2.1866
 7515SOL     OW34177   1.453   4.133   6.406  0.1440 -0.0253  0.1508
 7515SOL    HW134178   1.446   4.044   6.373  0.2811 -0.9728  2.7063
 7515SOL    HW234179   1.365   4.169   6.393 -0.6804 -2.0979  0.1015
 7516SOL     OW34180   2.538   1.754   3.840 -0.2625 -0.3535  0.3499
 7516SOL    HW134181   2.486   1.773   3.762  1.9933  0.9236 -0.8543
 7516SOL    HW234182   2.537   1.658   3.841  0.8653 -0.3682  2.1672
 7517SOL     OW34183   2.533   2.007   9.319 -0.0077  0.1033  0.1346
 7517SOL    HW134184   2.565   1.923   9.353  0.8254  0.6938  0.8088
 7517SOL    HW234185   2.610   2.063   9.329  0.5832 -0.8449  0.9640
 7518SOL     OW34186   0.214   2.347   8.099 -0.0800  0.1045  0.5269
 7518SOL    HW134187   0.292   2.299   8.126  0.2477  1.0422  1.2488
 7518SOL    HW234188   0.180   2.368   8.186 -0.0239  0.8781  0.3616
 7519SOL     OW34189   2.022   0.564   4.373 -0.0620  0.4270  0.0104
 7519SOL    HW134190   1.934   0.567   4.335  0.3540 -2.0383 -1.1348
 7519SOL    HW234191   2.065   0.490   4.330 -1.1276  0.0594 -0.4318
 7520SOL     OW34192   1.949   3.177   6.371 -0.7706 -0.5751 -0.2351
 7520SOL    HW134193   1.918   3.092   6.400  0.6164 -0.3544  1.8787
 7520SOL    HW234194   1.999   3.152   6.293  0.8578 -0.6188  0.8289
 7521SOL     OW34195   1.062   4.711   7.022  0.6669  0.1498 -0.6403
 7521SOL    HW134196   1.122   4.706   7.096 -1.0817 -0.6330  0.7417
 7521SOL    HW234197   0.985   0.023   7.052  1.5107  0.2418  1.4002
 7522SOL     OW34198   1.767   4.717   7.911 -0.2891  0.3435 -0.1863
 7522SOL    HW134199   1.703   0.050   7.896 -1.5255 -0.8038 -0.2381
 7522SOL    HW234200   1.742   4.688   7.999  1.2794 -1.6433 -0.3933
 7523SOL     OW34201   2.327   0.171   2.152  0.0226 -0.0500 -0.2082
 7523SOL    HW134202   2.259   0.214   2.204 -0.6662 -1.9710  0.5212
 7523SOL    HW234203   2.398   0.168   2.215 -1.4968  2.9802  1.6135
 7524SOL     OW34204   2.449   0.044  16.103  0.3357  0.5468 -0.0194
 7524SOL    HW134205   2.469   0.137  16.111  2.9900 -0.0367 -0.0161
 7524SOL    HW234206   2.359   0.045  16.070  0.1826  3.2823  0.4654
 7525SOL     OW34207   0.933   2.252  17.064 -0.6874 -0.6348 -0.0655
 7525SOL    HW134208   0.891   2.338  17.054 -0.3615 -0.0997  3.0983
 7525SOL    HW234209   0.873   2.210  17.125  0.6751 -1.3244  0.8196
 7526SOL     OW34210   0.109   3.964  15.187 -0.3441  0.0500  0.0659
 7526SOL    HW134211   0.147   4.033  15.241 -2.1378 -1.7364  3.6359
 7526SOL    HW234212   0.016   3.954  15.209 -0.1147 -0.1811  0.9537
 7527SOL     OW34213   3.620   1.090   2.805 -0.2930  0.0102 -0.0940
 7527SOL    HW134214   3.653   1.006   2.773  2.3703 -0.2077  3.2087
 7527SOL    HW234215   3.646   1.152   2.737  2.6035 -1.0789  0.0304
 7528SOL     OW34216   1.012   2.758   9.619  0.5514 -0.0567 -0.0063
 7528SOL    HW134217   1.045   2.847   9.619  0.3090  0.0329 -0.3087
 7528SOL    HW234218   0.971   2.760   9.706 -2.7704  1.6041 -1.6123
 7529SOL     OW34219   1.250   1.427   5.374  1.0559  0.0286  0.0512
 7529SOL    HW134220   1.194   1.349   5.363 -0.2087  0.7414  1.4282
 7529SOL    HW234221   1.315   1.405   5.440 -0.4210 -0.5747  1.3151
 7530SOL     OW34222   1.816   1.614   2.374 -0.1498  0.0437 -0.7275
 7530SOL    HW134223   1.784   1.704   2.370 -0.6449 -0.1524 -1.2178
 7530SOL    HW234224   1.886   1.609   2.310 -1.0176 -4.4370 -1.3210
 7531SOL     OW34225   0.718   1.595   1.020 -0.1091  0.2848 -0.0438
 7531SOL    HW134226   0.735   1.671   0.963 -0.6376 -1.3995 -2.4578
 7531SOL    HW234227   0.643   1.562   0.971  0.0309  0.9687 -0.7310
 7532SOL     OW34228   3.872   1.092  15.862  0.1472 -0.0771  0.1118
 7532SOL    HW134229   3.889   1.166  15.919 -0.8477 -0.3604  0.7631
 7532SOL    HW234230   3.960   1.053  15.855  0.8355  1.7311 -1.4211
 7533SOL     OW34231   0.204   1.416   5.360 -0.0507  0.7839  0.2193
 7533SOL    HW134232   0.265   1.487   5.381 -0.0728  0.5284  1.1554
 7533SOL    HW234233   0.143   1.422   5.434  0.1224 -2.1421  0.5836
 7534SOL     OW34234   0.008   0.309   2.044  0.0294 -0.2266  0.3453
 7534SOL    HW134235   0.042   0.300   1.955 -0.1072  1.1758  0.1643
 7534SOL    HW234236   0.075   0.357   2.093  1.7591 -1.8220 -0.4663
 7535SOL     OW34237   4.196   0.593   6.744  0.0670  0.1484 -0.3327
 7535SOL    HW134238   4.122   0.548   6.784 -0.9866  2.3487  0.1917
 7535SOL    HW234239   4.173   0.585   6.652 -1.2264  0.3635 -0.0221
 7536SOL     OW34240   3.713   4.256   8.465  0.2295  0.0993  0.2989
 7536SOL    HW134241   3.808   4.260   8.457  0.2249 -0.2720  0.0592
 7536SOL    HW234242   3.698   4.279   8.556 -1.6999 -0.7905  0.2129
 7537SOL     OW34243   3.406   4.278   5.863 -0.3940  0.2127 -0.4191
 7537SOL    HW134244   3.341   4.275   5.793  0.0875  1.3085 -0.9089
 7537SOL    HW234245   3.375   4.217   5.931  0.0591 -0.0391 -0.4371
 7538SOL     OW34246   3.157   2.841   2.733  0.2098 -0.6967  1.0805
 7538SOL    HW134247   3.117   2.766   2.688 -1.3519  0.4270  0.6055
 7538SOL    HW234248   3.086   2.871   2.789 -0.6549  0.8579 -0.8333
 7539SOL     OW34249   3.865   3.754   7.119  0.6029  0.0905  0.0879
 7539SOL    HW134250   3.882   3.765   7.026  0.8045 -2.3771 -0.1640
 7539SOL    HW234251   3.892   3.839   7.155 -1.0355  1.1303 -1.1256
 7540SOL     OW34252   0.106   1.927   2.778 -0.1436 -0.5177  0.0949
 7540SOL    HW134253   0.183   1.972   2.814 -0.0236 -1.1014  0.5741
 7540SOL    HW234254   0.046   1.934   2.852  1.2987  3.5327  0.9075
 7541SOL     OW34255   0.330   0.492   3.173 -0.4137  0.2468 -0.1144
 7541SOL    HW134256   0.412   0.540   3.160 -1.3745  1.6684 -0.8949
 7541SOL    HW234257   0.282   0.487   3.090  1.6303 -1.0278 -1.2432
 7542SOL     OW34258   1.588   2.170   8.908 -0.1195 -0.0618 -0.0671
 7542SOL    HW134259   1.495   2.162   8.927 -0.2474  1.5086 -0.0365
 7542SOL    HW234260   1.621   2.218   8.984  0.2069 -0.4190  0.0201
 7543SOL     OW34261   1.350   0.018   6.582  0.2060 -0.1633  0.1370
 7543SOL    HW134262   1.290   4.731   6.653  1.4153 -0.4157  1.0601
 7543SOL    HW234263   1.336   4.681   6.523  0.0367  0.0786 -0.1225
 7544SOL     OW34264   4.446   4.239   5.898 -0.7937 -0.2760  0.2352
 7544SOL    HW134265   4.418   4.180   5.827  0.9421 -0.2495 -0.4819
 7544SOL    HW234266   4.530   4.201   5.926 -0.2538  1.2949  0.7147
 7545SOL     OW34267   1.828   0.039   8.916  0.2988  0.6159  0.3280
 7545SOL    HW134268   1.748   4.723   8.917  2.1890 -2.2455  1.0777
 7545SOL    HW234269   1.880   4.719   8.974  0.9228  1.4872  0.6163
 7546SOL     OW34270   0.581   2.068   8.036 -0.1510  0.0070 -0.5714
 7546SOL    HW134271   0.646   2.037   8.099 -1.0019  1.0982  0.8442
 7546SOL    HW234272   0.506   2.083   8.095  1.0106  0.6053  0.7395
 7547SOL     OW34273   2.064   1.125   1.882  0.4415 -0.5946  0.3396
 7547SOL    HW134274   2.040   1.147   1.972  0.1852 -0.1201  0.1523
 7547SOL    HW234275   2.074   1.031   1.898  2.5538 -0.6833 -1.4816
 7548SOL     OW34276   4.147   4.406   0.525  0.7427 -0.2274  0.5153
 7548SOL    HW134277   4.099   4.345   0.468  3.2685 -1.7530  0.0366
 7548SOL    HW234278   4.121   4.489   0.486 -1.0511  0.1639  2.5104
 7549SOL     OW34279   4.348   4.632   9.066  0.6856 -0.0460 -0.2751
 7549SOL    HW134280   4.362   4.538   9.073  0.6018  0.0402  0.9189
 7549SOL    HW234281   4.371   4.655   8.975  2.3652  0.7794  0.3445
 7550SOL     OW34282   1.993   0.701   3.487  0.1197 -0.3354 -0.2677
 7550SOL    HW134283   2.086   0.705   3.512 -0.1200  0.0359  0.5972
 7550SOL    HW234284   1.981   0.607   3.497 -0.1356 -0.2331  0.4115
 7551SOL     OW34285   1.269   4.192   5.896 -0.0499  0.1821  0.1141
 7551SOL    HW134286   1.289   4.226   5.808  0.1684 -0.9217 -0.2649
 7551SOL    HW234287   1.191   4.139   5.881 -0.7406  1.7113 -1.7233
 7552SOL     OW34288   4.527   3.872  14.889 -0.1230  0.2478  0.2947
 7552SOL    HW134289   4.522   3.954  14.839  0.9468  0.7285  0.9919
 7552SOL    HW234290   4.521   3.902  14.980 -1.1398 -0.8975  0.6112
 7553SOL     OW34291   1.065   1.766  12.277  0.2841 -0.6825 -0.7895
 7553SOL    HW134292   1.094   1.681  12.310  0.7850  0.3802  1.5070
 7553SOL    HW234293   0.972   1.773  12.299  0.1400 -1.7207 -1.0673
 7554SOL     OW34294   1.421   1.764   5.318  0.0407 -0.4931  0.2630
 7554SOL    HW134295   1.395   1.761   5.410  1.3841  1.7419  0.7296
 7554SOL    HW234296   1.485   1.835   5.327 -1.3731  0.7003  0.7481
 7555SOL     OW34297   0.051   2.787   4.520  0.0000 -0.2036  0.0868
 7555SOL    HW134298   4.698   2.779   4.487 -0.3241 -0.5011  1.0399
 7555SOL    HW234299   0.098   2.804   4.439 -0.2250  0.6106  0.1244
 7556SOL     OW34300   2.563   4.401   7.975  0.4861 -0.4594  0.2307
 7556SOL    HW134301   2.514   4.358   8.044  0.5184  0.0984  0.6019
 7556SOL    HW234302   2.510   4.481   7.977 -0.9350 -1.3643 -1.2919
 7557SOL     OW34303   1.265   0.991  12.181 -0.3874 -0.2242  0.5938
 7557SOL    HW134304   1.322   1.004  12.106 -0.9109 -1.0675  0.0489
 7557SOL    HW234305   1.258   1.084  12.204 -0.5442 -0.6314  2.2134
 7558SOL     OW34306   1.748   2.522   5.085 -0.2813 -0.7232  0.0140
 7558SOL    HW134307   1.701   2.566   5.014  2.7076  1.4703 -0.6278
 7558SOL    HW234308   1.708   2.436   5.074  0.4139 -1.1199  0.6202
 7559SOL     OW34309   2.676   2.945  11.963 -0.5399  0.0503  0.0474
 7559SOL    HW134310   2.711   3.032  11.981  0.2078  0.1071 -1.7230
 7559SOL    HW234311   2.616   2.936  12.037 -0.8064  0.9099 -0.0674
 7560SOL     OW34312   4.483   3.833  13.132  0.0781 -0.1132 -0.1879
 7560SOL    HW134313   4.401   3.797  13.097  0.4148 -0.0527 -1.0366
 7560SOL    HW234314   4.525   3.852  13.048 -1.9823 -0.7735 -1.3763
 7561SOL     OW34315   1.004   3.714   1.184 -0.0657 -0.2569 -0.1199
 7561SOL    HW134316   1.047   3.647   1.238  2.0866 -0.9397 -2.6371
 7561SOL    HW234317   0.948   3.654   1.135 -0.3160  0.7749 -1.0962
 7562SOL     OW34318   0.250   4.176   5.416  0.2743 -0.3153  0.3594
 7562SOL    HW134319   0.174   4.214   5.372  1.0396  1.7733  0.8170
 7562SOL    HW234320   0.257   4.097   5.363 -2.0401  0.0403 -0.4775
 7563SOL     OW34321   4.196   2.473  17.415  0.5433  0.5454  1.0283
 7563SOL    HW134322   4.268   2.532  17.394 -0.0315  0.4130 -1.2583
 7563SOL    HW234323   4.199   2.411  17.343  0.2666  1.3574  0.3123
 7564SOL     OW34324   3.521   0.552   4.186  0.0616 -0.0988 -0.3747
 7564SOL    HW134325   3.543   0.645   4.180 -2.0538  0.4379  0.1456
 7564SOL    HW234326   3.428   0.571   4.192  0.2870  1.1806 -0.8231
 7565SOL     OW34327   1.443   2.660   0.645 -0.4991 -0.1493 -0.1200
 7565SOL    HW134328   1.473   2.573   0.617  0.1568  0.2284 -0.5871
 7565SOL    HW234329   1.521   2.713   0.633 -0.7798  0.1941 -0.4505
 7566SOL     OW34330   4.006   3.577   8.197 -0.2272  0.0189  0.1023
 7566SOL    HW134331   4.066   3.550   8.127 -0.5120  0.0117 -0.1376
 7566SOL    HW234332   4.074   3.582   8.264 -1.7324  1.2088  1.5182
 7567SOL     OW34333   2.947   2.537   0.713 -0.3999 -0.2600  0.3764
 7567SOL    HW134334   2.900   2.526   0.630  0.3158 -1.6161  0.1432
 7567SOL    HW234335   2.907   2.469   0.768  1.1096  0.7794  2.7290
 7568SOL     OW34336   0.417   1.608   7.763  0.0586 -0.5634  0.0914
 7568SOL    HW134337   0.482   1.656   7.815 -0.6498 -0.5784  0.9899
 7568SOL    HW234338   0.446   1.626   7.674  1.8184  2.2662  1.2391
 7569SOL     OW34339   1.835   0.126   9.570  0.0336  0.4622  0.5919
 7569SOL    HW134340   1.865   0.062   9.506 -0.5630 -0.2409  1.0111
 7569SOL    HW234341   1.907   0.187   9.553 -1.7656  2.2507 -0.5735
 7570SOL     OW34342   4.599   0.856   2.959  0.0609 -0.0344  0.0586
 7570SOL    HW134343   4.545   0.869   3.037  0.3600  0.9719  0.1054
 7570SOL    HW234344   4.665   0.792   2.983  0.4990  0.7467  0.9156
 7571SOL     OW34345   4.289   3.034   9.875  0.4068 -0.2925  0.5261
 7571SOL    HW134346   4.340   2.990   9.807  0.3840  0.5027 -0.0124
 7571SOL    HW234347   4.351   3.053   9.946 -0.3589  1.2994  0.7718
 7572SOL     OW34348   1.097   3.867   8.221  0.3557  0.1922 -0.2947
 7572SOL    HW134349   1.049   3.849   8.302  2.0162  0.9013  0.8488
 7572SOL    HW234350   1.032   3.899   8.159  0.5193 -0.6860 -0.9240
 7573SOL     OW34351   0.393   4.480   9.282 -0.4033 -0.1710  0.3018
 7573SOL    HW134352   0.338   4.440   9.350  0.1681 -1.0381  0.2513
 7573SOL    HW234353   0.337   4.553   9.254 -0.0009 -0.2851 -0.8000
 7574SOL     OW34354   3.141   1.526   4.612 -0.2045  0.2930  0.1021
 7574SOL    HW134355   3.167   1.613   4.642  2.4365  0.3279 -2.3009
 7574SOL    HW234356   3.225   1.503   4.574 -0.3746 -1.5435  0.8318
 7575SOL     OW34357   2.947   0.857   7.562  0.1127  0.5213 -0.0679
 7575SOL    HW134358   2.978   0.787   7.618  1.0039  0.4196 -0.6929
 7575SOL    HW234359   3.021   0.884   7.508 -1.1726  1.5104 -1.3541
 7576SOL     OW34360   2.836   1.141   0.416 -0.0028  0.8503 -0.0593
 7576SOL    HW134361   2.807   1.064   0.368  0.2823 -0.2017  1.4917
 7576SOL    HW234362   2.772   1.149   0.486  1.0418  1.3867  0.8352
 7577SOL     OW34363   2.841   0.639   7.005 -0.0782 -0.8562  0.5504
 7577SOL    HW134364   2.917   0.598   7.044 -0.7032 -1.6337  0.9389
 7577SOL    HW234365   2.845   0.598   6.919  0.9367  0.3290  0.0293
 7578SOL     OW34366   2.282   2.606  11.956 -0.2739  0.3275  0.1746
 7578SOL    HW134367   2.372   2.578  11.941  0.7735  2.7653  1.8538
 7578SOL    HW234368   2.249   2.564  11.877 -1.7707  0.8470  0.5156
 7579SOL     OW34369   4.581   4.043  15.967 -0.4184 -0.1638  0.0471
 7579SOL    HW134370   4.606   3.997  16.048  0.2421 -1.7084 -1.0310
 7579SOL    HW234371   4.629   4.126  15.960 -1.1531  0.2051 -0.6137
 7580SOL     OW34372   4.244   4.457  10.751  0.5743 -0.0281 -0.2119
 7580SOL    HW134373   4.240   4.395  10.824  0.4142  0.3393  0.0855
 7580SOL    HW234374   4.201   4.533  10.790 -0.9389 -0.9615 -0.0692
 7581SOL     OW34375   4.545   0.219   2.347  0.5284  0.2539 -0.2836
 7581SOL    HW134376   4.464   0.250   2.389 -0.8384 -1.4649 -1.6523
 7581SOL    HW234377   4.599   0.200   2.424  1.4213  1.0674 -0.7116
 7582SOL     OW34378   4.062   2.283  17.702  0.3761  0.0153  0.0205
 7582SOL    HW134379   4.060   2.272  17.607  0.3972  1.1046 -0.1124
 7582SOL    HW234380   4.070   2.379  17.705  1.2129 -0.0846  0.7590
 7583SOL     OW34381   0.320   1.754   6.565  0.2859  0.1615 -0.0383
 7583SOL    HW134382   0.278   1.733   6.481 -0.3096 -0.5191  0.4210
 7583SOL    HW234383   0.270   1.699   6.627 -0.4544  0.7396 -0.1219
 7584SOL     OW34384   3.206   1.024   5.827 -0.4902 -0.2412 -0.1150
 7584SOL    HW134385   3.182   0.935   5.802 -1.1234  0.0335 -0.5222
 7584SOL    HW234386   3.285   1.039   5.775 -0.1647 -3.2238 -0.4771
 7585SOL     OW34387   2.472   4.321   1.658  0.1586 -0.5207  0.0288
 7585SOL    HW134388   2.473   4.417   1.654 -2.0486 -0.6125 -2.7951
 7585SOL    HW234389   2.496   4.293   1.747 -1.7671  1.1512  1.0874
 7586SOL     OW34390   3.573   1.042   4.223 -0.4309  0.4323 -0.9639
 7586SOL    HW134391   3.477   1.037   4.219 -0.3974 -0.1330 -1.0803
 7586SOL    HW234392   3.582   1.131   4.256 -0.0575 -0.4166  1.2496
 7587SOL     OW34393   1.412   3.934   7.163  0.5573  0.0557  0.2459
 7587SOL    HW134394   1.325   3.918   7.125  0.4255  2.9575 -0.6101
 7587SOL    HW234395   1.456   3.856   7.130 -0.0587  0.4943 -1.6172
 7588SOL     OW34396   1.889   0.172   2.420 -0.1875 -0.0528 -0.4555
 7588SOL    HW134397   1.838   0.145   2.496 -0.5280  1.7198 -0.0635
 7588SOL    HW234398   1.845   0.251   2.389 -0.9432 -0.9174 -1.6295
 7589SOL     OW34399   3.891   3.649  12.476 -0.3689  0.6890  0.0485
 7589SOL    HW134400   3.954   3.658  12.405  0.0631 -0.4950  0.2874
 7589SOL    HW234401   3.810   3.633  12.426  0.4035 -1.6279 -0.4486
 7590SOL     OW34402   4.001   2.476   6.949 -0.2624 -0.4162  0.3620
 7590SOL    HW134403   4.022   2.412   7.017  0.5822 -2.2556 -1.6210
 7590SOL    HW234404   3.951   2.525   7.014  0.2151  1.4080 -0.6296
 7591SOL     OW34405   2.561   2.104   7.400  0.4075 -0.0513  0.5712
 7591SOL    HW134406   2.618   2.060   7.462  1.7416  0.7896 -0.0651
 7591SOL    HW234407   2.599   2.102   7.312  0.7828 -3.5546  0.8449
 7592SOL     OW34408   4.598   1.647   4.921  0.0284 -0.2933 -0.0718
 7592SOL    HW134409   4.551   1.619   4.842  0.4458 -3.1883  0.7124
 7592SOL    HW234410   4.630   1.561   4.949  1.7077  0.5013  0.4343
 7593SOL     OW34411   4.455   1.257  11.765 -0.4453 -0.2566 -0.0871
 7593SOL    HW134412   4.398   1.182  11.751  0.0238 -1.1272  2.7256
 7593SOL    HW234413   4.534   1.232  11.718  0.5081  0.4874  1.1315
 7594SOL     OW34414   3.244   0.920  11.643 -0.1991 -0.6964 -0.9125
 7594SOL    HW134415   3.285   0.887  11.723  1.8457  0.7356 -1.3822
 7594SOL    HW234416   3.299   0.879  11.577  1.0460 -1.4913  0.6342
 7595SOL     OW34417   0.960   1.078   2.686 -0.7396 -0.0285  0.1714
 7595SOL    HW134418   0.915   1.111   2.609  0.0863 -0.4952 -0.5111
 7595SOL    HW234419   0.913   1.125   2.755 -0.0668 -0.5535  0.9812
 7596SOL     OW34420   0.371   4.185   2.334 -0.1980  0.4051  0.4984
 7596SOL    HW134421   0.427   4.263   2.333  0.7150 -0.2456  1.3255
 7596SOL    HW234422   0.310   4.201   2.262 -0.5395 -0.3735  0.6125
 7597SOL     OW34423   2.873   1.174   6.123 -0.2885 -0.6446 -0.0262
 7597SOL    HW134424   2.858   1.099   6.179 -0.1610  0.0652  0.9572
 7597SOL    HW234425   2.789   1.181   6.077  0.3483  0.4405 -1.0429
 7598SOL     OW34426   3.061   4.133   8.631  0.0604  0.6897 -0.4387
 7598SOL    HW134427   3.064   4.208   8.572 -0.2313 -0.0923 -1.4631
 7598SOL    HW234428   2.972   4.102   8.612 -0.4287  1.4827  0.5796
 7599SOL     OW34429   0.797   4.469   5.730  0.0614  0.0218  0.0069
 7599SOL    HW134430   0.843   4.506   5.655 -0.2238 -1.6110 -0.9822
 7599SOL    HW234431   0.722   4.423   5.691  0.0344  0.5358 -0.5514
 7600SOL     OW34432   1.433   3.579   8.448  0.0305  0.1812  0.2963
 7600SOL    HW134433   1.455   3.618   8.363 -0.3243  1.5295  0.8134
 7600SOL    HW234434   1.370   3.644   8.479 -1.4132 -1.3109  0.4803
 7601SOL     OW34435   1.158   0.062   4.512 -0.3371 -0.0038  0.0066
 7601SOL    HW134436   1.092   0.030   4.450  0.9429 -1.9273 -0.3781
 7601SOL    HW234437   1.101   0.098   4.579 -0.2378  0.0468  0.0641
 7602SOL     OW34438   0.905   0.738   5.365 -0.0273 -0.3744 -0.0873
 7602SOL    HW134439   0.974   0.738   5.431  2.3802  1.4973 -2.6341
 7602SOL    HW234440   0.916   0.826   5.329 -0.6731 -0.0087  0.6085
 7603SOL     OW34441   3.035   1.426   7.291  0.3109 -0.9307  0.0725
 7603SOL    HW134442   3.032   1.364   7.364 -1.0844 -0.5246  0.3683
 7603SOL    HW234443   3.113   1.478   7.311  0.0620 -0.3861 -0.4032
 7604SOL     OW34444   3.936   3.767   6.291  0.3274  0.6639 -0.1062
 7604SOL    HW134445   3.902   3.678   6.300  0.4076  0.5177 -1.3323
 7604SOL    HW234446   3.997   3.768   6.217 -1.5331  0.0698 -1.6361
 7605SOL     OW34447   2.722   0.332  14.694 -0.2438  0.3222 -0.0723
 7605SOL    HW134448   2.628   0.331  14.677 -0.2449 -0.6905 -0.0089
 7605SOL    HW234449   2.744   0.240  14.676 -2.1156  0.6011 -3.7692
 7606SOL     OW34450   1.739   1.942   6.546 -0.1762  0.1849 -0.5969
 7606SOL    HW134451   1.820   1.960   6.499 -0.3484 -0.8389 -1.2940
 7606SOL    HW234452   1.756   1.853   6.578 -2.0196  0.2334  0.5116
 7607SOL     OW34453   0.383   0.185   4.611 -0.0104 -0.3864 -0.6808
 7607SOL    HW134454   0.426   0.246   4.671  0.5622 -1.6643  0.2232
 7607SOL    HW234455   0.373   0.234   4.530 -0.7025  1.5302  0.5457
 7608SOL     OW34456   1.323   3.450  16.865 -0.2944 -0.1299  0.1802
 7608SOL    HW134457   1.415   3.435  16.886 -0.4947 -0.2465  0.9809
 7608SOL    HW234458   1.301   3.527  16.917 -0.4390  0.1974 -0.3639
 7609SOL     OW34459   1.573   4.136   5.779 -0.4050  0.4462 -0.4196
 7609SOL    HW134460   1.554   4.187   5.858  0.2653 -0.8400  0.5791
 7609SOL    HW234461   1.658   4.108   5.815 -0.2446 -0.5538 -1.5527
 7610SOL     OW34462   4.393   2.304   2.480  0.3395 -0.4996 -0.6691
 7610SOL    HW134463   4.460   2.271   2.420  2.1107  3.1548 -0.6762
 7610SOL    HW234464   4.447   2.372   2.521 -0.0433  0.4776 -1.7987
 7611SOL     OW34465   1.134   0.858   6.867  0.3095 -0.0480  0.3120
 7611SOL    HW134466   1.076   0.871   6.792  0.8881  0.6567  0.0041
 7611SOL    HW234467   1.087   0.785   6.910 -0.1939 -0.4708 -0.9610
 7612SOL     OW34468   2.248   3.536   1.882  0.0941 -0.5935  0.0544
 7612SOL    HW134469   2.316   3.471   1.861  1.0895  1.3383 -2.6574
 7612SOL    HW234470   2.173   3.478   1.891  0.0649 -0.7722 -1.4670
 7613SOL     OW34471   1.914   3.872   4.990 -0.0602 -0.0430  0.0162
 7613SOL    HW134472   1.955   3.836   5.069  2.5019 -0.0680 -1.3252
 7613SOL    HW234473   1.821   3.846   4.993  0.1419 -0.5473  1.7296
 7614SOL     OW34474   3.993   1.950   5.329 -0.1626  0.2653  0.0170
 7614SOL    HW134475   3.903   1.957   5.362 -0.5528  0.2012 -1.0051
 7614SOL    HW234476   4.031   1.888   5.390  0.8655  1.0241  0.1384
 7615SOL     OW34477   1.005   1.360   7.136 -0.0242 -0.0159 -0.2545
 7615SOL    HW134478   0.956   1.411   7.072  1.5770  1.0547 -0.6131
 7615SOL    HW234479   1.098   1.376   7.119  0.1403  1.4156  1.9912
 7616SOL     OW34480   0.591   2.048   5.946 -0.2224 -0.0298  0.2252
 7616SOL    HW134481   0.683   2.036   5.923 -0.3917 -1.7677  0.4700
 7616SOL    HW234482   0.577   1.964   5.989  1.4471 -0.4145  0.0007
 7617SOL     OW34483   3.074   1.143   4.815  0.2014  0.1506  0.2818
 7617SOL    HW134484   3.087   1.162   4.908  1.2516 -0.7595  0.3201
 7617SOL    HW234485   3.162   1.158   4.781  0.0730 -0.1764 -0.1986
 7618SOL     OW34486   3.580   2.863   8.555 -0.1802 -0.0896  0.1260
 7618SOL    HW134487   3.561   2.905   8.639  1.9142  0.7202  0.1793
 7618SOL    HW234488   3.569   2.772   8.584  1.6209 -0.7019 -1.1077
 7619SOL     OW34489   0.873   4.650   2.847  0.4935 -0.0579  0.1168
 7619SOL    HW134490   0.801   4.591   2.825  0.9154 -1.8426  3.5845
 7619SOL    HW234491   0.924   4.646   2.766 -0.8824  2.2584 -0.8884
 7620SOL     OW34492   1.226   1.807   6.765  0.0086  0.2083  0.2243
 7620SOL    HW134493   1.162   1.795   6.695 -2.5345  0.1442  2.5419
 7620SOL    HW234494   1.177   1.774   6.840  1.5002  2.2328  2.0925
 7621SOL     OW34495   1.317   1.149   5.337  0.3474 -0.3630 -0.1081
 7621SOL    HW134496   1.335   1.056   5.348 -0.9022 -0.4140  1.5872
 7621SOL    HW234497   1.330   1.173   5.429  0.1497 -1.0735  0.1039
 7622SOL     OW34498   3.975   3.025   4.193 -0.2563  0.6018  0.2883
 7622SOL    HW134499   3.989   3.019   4.099 -0.1253 -0.2200  0.3538
 7622SOL    HW234500   3.971   2.933   4.221  0.7313  0.0196 -1.4657
 7623SOL     OW34501   4.193   2.432   1.236  0.3635  0.3739  0.0545
 7623SOL    HW134502   4.195   2.341   1.267  4.6685  0.9820  1.6482
 7623SOL    HW234503   4.185   2.425   1.141 -1.2401 -2.5101  0.4035
 7624SOL     OW34504   0.252   2.864   6.523 -0.0587 -0.0444  0.2155
 7624SOL    HW134505   0.300   2.883   6.442 -0.1094 -1.6223 -0.1801
 7624SOL    HW234506   0.171   2.822   6.493 -1.2641  1.7168  1.0395
 7625SOL     OW34507   2.401   3.091   6.087  0.2526 -0.1657 -0.1865
 7625SOL    HW134508   2.332   3.157   6.096  0.5414  0.3114 -1.5635
 7625SOL    HW234509   2.408   3.090   5.992  2.9576 -0.1891  0.0248
 7626SOL     OW34510   2.406   2.639   6.777 -0.6608 -0.1171  0.1057
 7626SOL    HW134511   2.326   2.618   6.730 -1.3022  1.4642  0.5065
 7626SOL    HW234512   2.477   2.613   6.718  0.0849 -0.3315  1.0824
 7627SOL     OW34513   3.828   4.173   3.041 -0.0645  0.2140 -0.7704
 7627SOL    HW134514   3.873   4.248   3.080 -0.1294 -0.1560  0.0200
 7627SOL    HW234515   3.853   4.105   3.104 -1.1993 -0.8221 -1.4331
 7628SOL     OW34516   3.599   2.522   4.671  0.4081 -0.1887 -0.3488
 7628SOL    HW134517   3.521   2.540   4.722  1.3929  1.9877  0.3993
 7628SOL    HW234518   3.628   2.445   4.720  1.0652 -0.0911 -0.5780
 7629SOL     OW34519   2.612   3.083   2.648  0.8351  0.1597 -0.9076
 7629SOL    HW134520   2.595   2.995   2.616 -0.1273 -0.5187  1.5011
 7629SOL    HW234521   2.618   3.059   2.741 -2.3515 -1.5316 -1.1387
 7630SOL     OW34522   2.767   2.584  11.793  0.5376 -0.0306 -0.5026
 7630SOL    HW134523   2.672   2.597  11.783  0.3905 -0.7461 -0.0740
 7630SOL    HW234524   2.806   2.671  11.788  1.3009 -0.2658  1.3716
 7631SOL     OW34525   4.638   0.184  12.585 -0.2986  0.1039 -0.1841
 7631SOL    HW134526   4.667   0.093  12.593  1.1948  0.6063  0.0321
 7631SOL    HW234527   4.633   0.209  12.492 -1.0528  0.2883 -0.0909
 7632SOL     OW34528   2.740   1.270   4.981 -0.2856 -0.0917 -0.1834
 7632SOL    HW134529   2.663   1.214   4.971 -1.0698  1.1197 -0.9901
 7632SOL    HW234530   2.709   1.330   5.049  0.8228 -0.1377  0.3595
 7633SOL     OW34531   0.104   3.996   3.831  0.0978 -0.0862  0.0444
 7633SOL    HW134532   0.155   3.917   3.847  0.1152  0.0825  0.8165
 7633SOL    HW234533   0.102   4.019   3.924 -0.3020  0.5929 -0.1294
 7634SOL     OW34534   2.105   3.800   7.309  0.2121  0.2244  0.4234
 7634SOL    HW134535   2.196   3.827   7.299  0.3609 -0.4183  0.0304
 7634SOL    HW234536   2.072   3.859   7.377 -0.2361 -0.2093  0.5840
 7635SOL     OW34537   4.254   2.595   4.952  0.3441 -0.6699  0.7739
 7635SOL    HW134538   4.230   2.576   5.043  0.0379  3.1365  1.4984
 7635SOL    HW234539   4.324   2.531   4.936 -0.4120 -0.7352 -2.1531
 7636SOL     OW34540   2.748   0.950   1.814 -0.1357 -0.1948 -0.1097
 7636SOL    HW134541   2.793   0.880   1.767  2.4690 -0.2596  2.5245
 7636SOL    HW234542   2.694   0.983   1.741 -1.3808  1.4324  1.5547
 7637SOL     OW34543   3.933   2.206  10.105 -0.1468 -0.1524  0.4735
 7637SOL    HW134544   3.964   2.288  10.066 -0.9707  1.0154  2.2839
 7637SOL    HW234545   3.966   2.147  10.037  0.4807 -0.4016  0.9960
 7638SOL     OW34546   0.974   2.138  10.570 -0.1082  0.5732  0.2489
 7638SOL    HW134547   0.977   2.132  10.474 -1.9852  2.2322  0.0787
 7638SOL    HW234548   1.004   2.224  10.598  2.3374  0.1315 -1.0126
 7639SOL     OW34549   4.569   4.037   7.782  0.3220 -0.1700  0.3101
 7639SOL    HW134550   4.576   4.133   7.784  0.0533 -0.1479  0.2678
 7639SOL    HW234551   4.646   4.020   7.836 -0.0503  1.7387  1.4567
 7640SOL     OW34552   1.832   2.325   4.091 -0.0590  0.2336  0.3116
 7640SOL    HW134553   1.911   2.366   4.125 -0.6544  3.0025 -1.6902
 7640SOL    HW234554   1.766   2.344   4.158 -0.7683  0.3514 -0.4252
 7641SOL     OW34555   0.859   0.955   3.165 -0.2139 -0.1301  0.3198
 7641SOL    HW134556   0.830   0.898   3.236  0.0420  1.9105  2.0885
 7641SOL    HW234557   0.924   0.897   3.126  0.7968 -0.2382  2.1614
 7642SOL     OW34558   3.810   2.873   7.209 -0.3430 -0.2008 -0.2540
 7642SOL    HW134559   3.737   2.877   7.146  0.9105  1.4276 -1.6166
 7642SOL    HW234560   3.760   2.845   7.285 -3.0189  0.4096 -1.7775
 7643SOL     OW34561   4.710   2.181  17.456  0.1406 -0.1186  0.1494
 7643SOL    HW134562   4.618   2.174  17.427 -0.1519  0.9568  0.8138
 7643SOL    HW234563   4.713   2.274  17.433 -0.1697  0.7886  3.8392
 7644SOL     OW34564   2.652   3.349   5.352  0.4037 -0.4462 -0.0934
 7644SOL    HW134565   2.648   3.328   5.259 -1.6818 -1.9338  0.3359
 7644SOL    HW234566   2.673   3.442   5.337 -0.2496 -0.3529 -0.4077
 7645SOL     OW34567   4.618   1.609   2.254  0.0292 -0.1543 -0.3598
 7645SOL    HW134568   4.615   1.520   2.287  0.1754  0.2577  0.7709
 7645SOL    HW234569   4.540   1.654   2.287 -1.2701 -2.6082 -0.0762
 7646SOL     OW34570   2.453   3.588   8.713  0.4431 -0.2675  0.6595
 7646SOL    HW134571   2.534   3.562   8.668  0.4157  0.0351  0.4385
 7646SOL    HW234572   2.397   3.571   8.638  1.1067 -1.1595  0.3558
 7647SOL     OW34573   2.385   4.261  10.859 -0.8082 -0.0290  0.5006
 7647SOL    HW134574   2.468   4.308  10.860 -0.3554 -0.8152  0.1229
 7647SOL    HW234575   2.343   4.297  10.937 -1.9223  0.6444 -0.3946
 7648SOL     OW34576   3.072   1.284   3.725 -0.5790  0.0105 -0.3912
 7648SOL    HW134577   3.055   1.235   3.806 -0.0840  0.5456  0.0363
 7648SOL    HW234578   3.057   1.215   3.661 -2.5225 -0.9945  1.1684
 7649SOL     OW34579   0.296   1.897   5.469  0.2348 -0.6032  0.4398
 7649SOL    HW134580   0.291   1.815   5.419 -2.4088  0.4400 -1.0680
 7649SOL    HW234581   0.385   1.929   5.456  0.9084 -2.3376  0.9007
 7650SOL     OW34582   2.860   0.872   2.911 -0.8078 -0.6327  0.4431
 7650SOL    HW134583   2.920   0.843   2.979 -1.2121 -1.4297  0.4547
 7650SOL    HW234584   2.832   0.786   2.880 -1.7569 -0.4676  0.8367
 7651SOL     OW34585   2.615   3.226   7.063  0.3850  0.5465 -0.8061
 7651SOL    HW134586   2.573   3.211   6.978 -1.4797 -1.5657  0.4731
 7651SOL    HW234587   2.664   3.145   7.078 -1.0119 -0.0746  0.4808
 7652SOL     OW34588   2.766   1.619   3.627 -0.2083 -0.1464  0.3587
 7652SOL    HW134589   2.740   1.704   3.592  1.1026  1.0262  2.2709
 7652SOL    HW234590   2.832   1.598   3.560 -0.9801  0.5951 -0.6332
 7653SOL     OW34591   0.936   0.008   4.009  0.2213  0.4192 -0.3161
 7653SOL    HW134592   1.028   0.020   4.034 -0.3985 -0.2144  2.3297
 7653SOL    HW234593   0.945   4.705   3.923  0.1794  0.5463 -0.3782
 7654SOL     OW34594   1.381   1.782   3.992 -0.2119 -0.0063 -0.3048
 7654SOL    HW134595   1.378   1.768   3.897 -2.5451  3.1335 -0.6754
 7654SOL    HW234596   1.406   1.694   4.020 -0.4740  0.2739  0.7860
 7655SOL     OW34597   0.331   3.529   2.233  0.5541  0.1756  0.0955
 7655SOL    HW134598   0.401   3.526   2.169 -0.6238  0.9479 -1.2451
 7655SOL    HW234599   0.371   3.483   2.307  0.3343 -0.5163 -0.2224
 7656SOL     OW34600   1.742   2.132   7.526 -0.1273 -0.6276  0.3181
 7656SOL    HW134601   1.836   2.147   7.528  0.3518 -3.5767 -0.0179
 7656SOL    HW234602   1.724   2.089   7.443  2.0533  0.1356 -0.5481
 7657SOL     OW34603   0.732   3.282   7.127  0.2859 -0.8527  0.0244
 7657SOL    HW134604   0.661   3.328   7.172  1.2148  0.1500  0.4437
 7657SOL    HW234605   0.790   3.357   7.125  1.1689 -1.5010  1.6787
 7658SOL     OW34606   0.962   4.716   4.336  0.3135 -0.2535 -0.2447
 7658SOL    HW134607   0.954   4.651   4.266  2.1388 -0.9189  0.1671
 7658SOL    HW234608   0.895   0.045   4.313 -1.3565 -1.3345  1.4989
 7659SOL     OW34609   0.683   0.048   8.379  0.2238  0.5472 -0.3129
 7659SOL    HW134610   0.663   4.714   8.317 -2.4288  0.5902  0.5296
 7659SOL    HW234611   0.738   0.010   8.447  0.7521  2.0453  0.0960
 7660SOL     OW34612   3.760   2.165   2.241 -0.1253  0.5494  0.1292
 7660SOL    HW134613   3.773   2.167   2.146 -1.2114 -1.4378 -0.0720
 7660SOL    HW234614   3.849   2.183   2.271  0.3265  1.1133 -1.5335
 7661SOL     OW34615   0.455   3.787   4.106 -0.1672  0.0908 -0.0195
 7661SOL    HW134616   0.437   3.694   4.092  0.8178  0.3921 -3.1728
 7661SOL    HW234617   0.399   3.825   4.039 -0.5944 -0.8257 -0.1940
 7662SOL     OW34618   1.452   3.461  12.671 -0.0085  0.4635 -0.2750
 7662SOL    HW134619   1.481   3.427  12.586  2.0583 -0.7511  0.9297
 7662SOL    HW234620   1.497   3.425  12.747 -3.2403  0.4943  1.6435
 7663SOL     OW34621   1.799   2.786  12.528  0.1100  0.0256  0.0169
 7663SOL    HW134622   1.753   2.794  12.445  1.2443  2.5105 -0.3533
 7663SOL    HW234623   1.891   2.794  12.501 -0.2364  1.9444 -0.6003
 7664SOL     OW34624   2.995   3.657  10.988  0.4896 -0.1093  0.7543
 7664SOL    HW134625   2.964   3.573  10.954  0.0043  0.6550 -0.6976
 7664SOL    HW234626   2.996   3.705  10.906 -4.2519 -0.6558  0.4021
 7665SOL     OW34627   3.753   4.328   4.740 -0.0824  0.1319 -0.0102
 7665SOL    HW134628   3.755   4.243   4.696  0.1281  0.9733 -1.6287
 7665SOL    HW234629   3.673   4.320   4.793  0.6937 -0.4959  1.0601
 7666SOL     OW34630   1.211   2.406  12.642  0.2015 -0.6610  0.2296
 7666SOL    HW134631   1.174   2.318  12.637  0.1805 -0.7411  1.8164
 7666SOL    HW234632   1.136   2.461  12.617  0.3169  0.1583  1.6988
 7667SOL     OW34633   1.362   1.763  16.846 -0.5747  0.1044 -0.4548
 7667SOL    HW134634   1.414   1.815  16.785  2.0661 -1.7219  0.2075
 7667SOL    HW234635   1.288   1.818  16.871 -1.6586 -1.3284 -0.5085
 7668SOL     OW34636   1.505   2.809   6.078  0.8032  0.5590 -0.8406
 7668SOL    HW134637   1.490   2.728   6.029  0.3913 -0.5173  1.0434
 7668SOL    HW234638   1.491   2.878   6.013  1.1996 -0.0800 -1.6123
 7669SOL     OW34639   2.080   1.723  16.485  0.3412  0.2022  0.3649
 7669SOL    HW134640   2.001   1.774  16.468 -0.0206 -0.3952  0.2568
 7669SOL    HW234641   2.142   1.796  16.487  1.0473 -0.3554 -1.0081
 7670SOL     OW34642   4.265   2.721   7.284  0.4211 -0.0050  0.5937
 7670SOL    HW134643   4.176   2.710   7.317 -0.3854  3.0689 -0.5531
 7670SOL    HW234644   4.282   2.641   7.233  3.4561  0.8489  0.2889
 7671SOL     OW34645   2.973   2.419  14.416  0.0820  0.1881 -0.1085
 7671SOL    HW134646   3.045   2.463  14.461  0.0844  0.1439 -0.0702
 7671SOL    HW234647   2.914   2.491  14.393  0.5718  0.7366  0.3493
 7672SOL     OW34648   2.741   0.510   3.154 -0.3491 -0.6155  0.1513
 7672SOL    HW134649   2.686   0.435   3.130 -2.4535  1.2319 -0.8088
 7672SOL    HW234650   2.689   0.588   3.133 -0.8871 -0.5306  1.8072
 7673SOL     OW34651   4.500   0.736   5.183  0.7044 -0.1804  0.0026
 7673SOL    HW134652   4.459   0.814   5.145  0.4405 -0.2950  0.0597
 7673SOL    HW234653   4.543   0.689   5.111  0.7687 -0.2137  0.0637
 7674SOL     OW34654   3.074   2.496   8.780  0.7416 -0.1267  0.1074
 7674SOL    HW134655   3.016   2.566   8.749 -0.0722 -0.2525  1.3643
 7674SOL    HW234656   3.149   2.553   8.797  0.6920  0.4058 -1.4247
 7675SOL     OW34657   0.735   0.051   1.621  0.3276  0.1474  0.0293
 7675SOL    HW134658   0.674   4.722   1.655  2.6051 -1.3845  1.1351
 7675SOL    HW234659   0.750   0.024   1.530 -1.2794 -1.7350  0.3280
 7676SOL     OW34660   3.732   4.080   7.609 -0.4262 -0.0882  0.0187
 7676SOL    HW134661   3.783   4.001   7.588  2.0923  0.9234  2.3340
 7676SOL    HW234662   3.720   4.063   7.702 -3.0399  0.6997 -0.1751
 7677SOL     OW34663   1.854   1.415   4.037  0.1556  0.0754  0.0983
 7677SOL    HW134664   1.859   1.434   3.943  1.8094 -0.7205  0.0320
 7677SOL    HW234665   1.768   1.374   4.048  0.3528  0.0849  1.5990
 7678SOL     OW34666   0.450   1.043   3.561  0.1666 -0.2203  0.2434
 7678SOL    HW134667   0.505   1.030   3.484 -0.1699  0.7890 -0.1626
 7678SOL    HW234668   0.503   1.111   3.603  0.4890  0.2705 -0.9562
 7679SOL     OW34669   4.192   4.284   8.781 -0.1579 -0.3538  0.4913
 7679SOL    HW134670   4.238   4.366   8.767  0.0691 -0.2708  1.7587
 7679SOL    HW234671   4.128   4.311   8.847 -1.3649  0.3895 -0.9818
 7680SOL     OW34672   0.059   4.106   0.083 -0.0277  0.0311 -0.2331
 7680SOL    HW134673   0.127   4.136   0.024  0.7045 -0.9640  0.1088
 7680SOL    HW234674   0.016   4.191   0.094 -0.8323 -0.3318 -0.5414
 7681SOL     OW34675   2.680   2.734   0.803  0.0523  0.1808  0.2248
 7681SOL    HW134676   2.735   2.692   0.869  0.5028 -3.3285 -2.3810
 7681SOL    HW234677   2.631   2.660   0.766 -0.3926  0.0558  1.0613
 7682SOL     OW34678   1.958   1.416   6.551 -0.0732  0.0765  0.3827
 7682SOL    HW134679   1.945   1.363   6.473 -2.6283 -0.0677  0.9181
 7682SOL    HW234680   2.052   1.397   6.557 -0.6025 -1.8138  2.6195
 7683SOL     OW34681   0.163   3.585   5.928 -0.2098  0.5515  0.0119
 7683SOL    HW134682   0.209   3.654   5.976  0.5314  0.4857 -0.6006
 7683SOL    HW234683   0.189   3.505   5.973 -1.2756  0.5050  0.5502
 7684SOL     OW34684   1.350   1.382   4.524  0.0691 -0.1188 -0.1722
 7684SOL    HW134685   1.270   1.390   4.575  0.3518 -0.9447  0.4020
 7684SOL    HW234686   1.377   1.473   4.529  0.1041 -0.0602 -1.3483
 7685SOL     OW34687   3.028   1.749   3.672 -0.3948 -0.4816  0.7435
 7685SOL    HW134688   3.011   1.710   3.586  0.5039  0.2795  0.2097
 7685SOL    HW234689   3.041   1.668   3.721  2.9085  0.1612  0.9544
 7686SOL     OW34690   4.579   0.226  14.254  0.0378  0.2563 -0.1985
 7686SOL    HW134691   4.605   0.239  14.163 -0.6048  1.4820 -0.2004
 7686SOL    HW234692   4.607   0.307  14.295  0.0244  0.3312 -0.3392
 7687SOL     OW34693   2.662   2.943   6.728 -0.5682  0.0750 -0.5738
 7687SOL    HW134694   2.609   2.977   6.656  0.3416  0.6404 -0.9734
 7687SOL    HW234695   2.619   2.996   6.795 -0.4278 -0.4128 -0.1001
 7688SOL     OW34696   2.806   4.346  12.610 -0.0700  0.1400 -0.2525
 7688SOL    HW134697   2.897   4.317  12.598 -0.6519 -1.5022 -0.6652
 7688SOL    HW234698   2.793   4.352  12.705 -0.9421  0.4115 -0.3934
 7689SOL     OW34699   4.141   0.885  17.085  0.2041  1.0846 -0.5773
 7689SOL    HW134700   4.066   0.910  17.139 -0.5944 -0.4357 -0.9768
 7689SOL    HW234701   4.105   0.888  16.997  0.3092  1.1731 -0.6167
 7690SOL     OW34702   0.038   2.831   9.666  0.0912  0.1131 -0.0011
 7690SOL    HW134703   0.044   2.745   9.624 -1.6058 -0.6204  1.2239
 7690SOL    HW234704   0.128   2.856   9.684 -0.1916  1.0591  0.0812
 7691SOL     OW34705   2.445   0.365   8.043 -0.0944 -0.1791  0.5514
 7691SOL    HW134706   2.359   0.400   8.065 -0.9887 -1.8772 -0.2343
 7691SOL    HW234707   2.443   0.274   8.072 -0.1423  0.5119  2.7615
 7692SOL     OW34708   3.162   1.408  15.674 -0.0152 -0.1766 -0.4643
 7692SOL    HW134709   3.164   1.418  15.769  0.7799  1.3737 -0.6523
 7692SOL    HW234710   3.149   1.495  15.637 -0.2158 -0.0197 -0.0309
 7693SOL     OW34711   2.762   2.635  15.323  0.1708  0.8187  0.0288
 7693SOL    HW134712   2.794   2.545  15.324 -2.5208 -0.1401 -0.1320
 7693SOL    HW234713   2.833   2.681  15.369 -1.1172  1.6734  1.1583
 7694SOL     OW34714   0.961   0.804  13.968  0.1170 -0.3537  0.2510
 7694SOL    HW134715   0.931   0.806  14.059  1.6028  1.8582  0.6921
 7694SOL    HW234716   0.993   0.894  13.965  0.1190 -0.3109  1.5504
 7695SOL     OW34717   1.300   2.396   1.928 -0.2473 -0.0936 -0.1836
 7695SOL    HW134718   1.215   2.365   1.897 -0.7218  0.6052  0.4221
 7695SOL    HW234719   1.307   2.338   2.004 -0.9285  3.0926  2.3161
 7696SOL     OW34720   1.294   4.693   4.854  0.1811 -0.4672 -0.3792
 7696SOL    HW134721   1.230   0.024   4.877  1.6165  1.0509 -0.8824
 7696SOL    HW234722   1.249   4.610   4.870  0.0570 -0.0233  1.5198
 7697SOL     OW34723   0.786   0.799  10.650 -0.2154  0.5056  0.1573
 7697SOL    HW134724   0.839   0.877  10.636  0.2075 -0.1189 -1.6760
 7697SOL    HW234725   0.795   0.791  10.745 -3.5552  0.5892  0.4880
 7698SOL     OW34726   0.721   2.244   7.652  0.0534  0.3600 -0.1120
 7698SOL    HW134727   0.713   2.216   7.561  1.1115  2.5688 -0.8895
 7698SOL    HW234728   0.629   2.268   7.657 -0.6002 -2.2901  0.3224
 7699SOL     OW34729   2.756   3.635  17.561  0.2524 -0.4278  0.2130
 7699SOL    HW134730   2.698   3.644  17.485  0.6374 -1.9334 -0.2493
 7699SOL    HW234731   2.707   3.575  17.617 -0.3403 -0.9615 -0.8919
 7700SOL     OW34732   3.895   2.758   6.093  0.3825 -0.0676  0.3262
 7700SOL    HW134733   3.905   2.731   6.002 -1.5496 -0.8222  0.3374
 7700SOL    HW234734   3.923   2.677   6.135  1.1904 -0.0403 -0.1684
 7701SOL     OW34735   3.302   0.018   9.435 -0.0544  0.0830  0.4467
 7701SOL    HW134736   3.269   4.734   9.523 -0.4834  0.3710  0.3547
 7701SOL    HW234737   3.365   0.088   9.452 -0.4415  0.4967  0.1840
 7702SOL     OW34738   3.824   0.976   3.454  0.1565  0.0580 -0.2547
 7702SOL    HW134739   3.887   1.047   3.467  2.0322 -1.0094 -3.4820
 7702SOL    HW234740   3.750   1.034   3.474 -0.0637 -0.2843 -0.0763
 7703SOL     OW34741   0.374   4.156  13.473  0.1324 -0.3827 -0.1838
 7703SOL    HW134742   0.416   4.189  13.393 -2.8142  0.8950 -1.2204
 7703SOL    HW234743   0.445   4.101  13.506 -0.6058 -1.0536  0.2926
 7704SOL     OW34744   2.183   3.027   2.076 -0.3640  0.2339  0.0270
 7704SOL    HW134745   2.233   3.045   2.155  0.4575 -1.9794  0.0108
 7704SOL    HW234746   2.251   3.001   2.014 -0.3492 -1.7747  0.8665
 7705SOL     OW34747   3.427   1.460   4.597  0.2540 -0.1402 -0.7149
 7705SOL    HW134748   3.492   1.413   4.651  2.2130  2.4900 -0.7743
 7705SOL    HW234749   3.490   1.519   4.556 -0.6785  3.2432  2.6801
 7706SOL     OW34750   4.138   0.217  16.777  0.1093 -0.0442 -0.7249
 7706SOL    HW134751   4.156   0.132  16.816  1.3072  0.2855 -0.5596
 7706SOL    HW234752   4.046   0.239  16.794  0.2064 -0.4309  0.2643
 7707SOL     OW34753   3.345   1.126   2.779 -0.4260 -0.1658 -0.5944
 7707SOL    HW134754   3.434   1.093   2.769 -0.3113 -0.3112  0.9523
 7707SOL    HW234755   3.311   1.043   2.814 -0.2120  0.5514  1.3067
 7708SOL     OW34756   0.469   2.673   8.593 -0.0596 -0.3575 -0.2356
 7708SOL    HW134757   0.542   2.734   8.584 -0.7563  0.4963 -0.1256
 7708SOL    HW234758   0.486   2.606   8.527  2.6573  0.4758 -0.3897
 7709SOL     OW34759   1.772   0.640   3.297  0.0439  0.0422  0.1875
 7709SOL    HW134760   1.865   0.656   3.312  0.2697 -1.1583  0.0481
 7709SOL    HW234761   1.736   0.715   3.344 -0.9548 -0.2934 -0.0334
 7710SOL     OW34762   1.481   4.047  10.592 -0.1227 -0.7046  0.5885
 7710SOL    HW134763   1.412   4.003  10.543 -0.2055  0.4354 -0.3148
 7710SOL    HW234764   1.492   3.981  10.661 -0.3042 -0.6415  0.6768
 7711SOL     OW34765   3.768   2.338   8.800  0.2359 -0.1787 -0.1445
 7711SOL    HW134766   3.785   2.273   8.867  1.9826  0.2274 -0.1833
 7711SOL    HW234767   3.705   2.392   8.849 -0.1830  0.8761 -1.8403
 7712SOL     OW34768   3.349   0.365   1.245  0.4184 -0.1673 -0.2488
 7712SOL    HW134769   3.300   0.423   1.186 -1.6544 -0.5135  1.1364
 7712SOL    HW234770   3.275   0.320   1.286 -0.8177  1.1659 -1.0045
 7713SOL     OW34771   4.264   1.365  14.173  0.3794  0.2690 -0.8215
 7713SOL    HW134772   4.200   1.296  14.188 -0.1881  0.9053 -0.3276
 7713SOL    HW234773   4.319   1.356  14.251 -0.5806  0.5066 -0.1113
 7714SOL     OW34774   4.453   0.781   0.997 -0.1321  0.2212 -0.7773
 7714SOL    HW134775   4.528   0.840   0.986  0.0509  0.0519 -0.4076
 7714SOL    HW234776   4.486   0.691   0.998  0.1971  0.3401 -0.8636
 7715SOL     OW34777   4.541   3.118   4.703 -0.3011  0.0339 -0.4180
 7715SOL    HW134778   4.623   3.092   4.745 -0.7245 -0.7329 -0.0701
 7715SOL    HW234779   4.582   3.133   4.618 -1.0124  1.6141 -0.4827
 7716SOL     OW34780   1.816   0.737   7.074  0.1737  0.0129 -0.3951
 7716SOL    HW134781   1.882   0.712   7.139  1.6954 -0.2506 -2.0385
 7716SOL    HW234782   1.799   0.658   7.022  3.0189 -0.5401 -0.4705
 7717SOL     OW34783   1.702   3.355   3.092  0.0561  0.2917 -0.0829
 7717SOL    HW134784   1.715   3.443   3.128  0.1963 -0.3256  1.3706
 7717SOL    HW234785   1.767   3.296   3.129 -2.1036 -1.5768  0.7014
 7718SOL     OW34786   0.857   4.709   8.570  0.0782  0.0314  0.1779
 7718SOL    HW134787   0.920   4.638   8.578  0.1718 -0.0786 -1.4257
 7718SOL    HW234788   0.873   0.020   8.651  1.4139  2.1205 -1.3040
 7719SOL     OW34789   2.247   4.324   9.543 -0.3146  0.0950 -0.3235
 7719SOL    HW134790   2.279   4.396   9.598  2.2507 -0.2548 -1.3471
 7719SOL    HW234791   2.249   4.250   9.605 -1.7783  1.9762  1.9444
 7720SOL     OW34792   1.250   1.313  15.986 -0.0373 -0.3188  0.2645
 7720SOL    HW134793   1.264   1.219  15.976  0.6610 -0.2231  0.2860
 7720SOL    HW234794   1.155   1.319  15.988  0.0081  0.7618 -0.6654
 7721SOL     OW34795   2.048   3.606   0.656  0.4657  0.4065  0.2773
 7721SOL    HW134796   2.113   3.674   0.671  0.9314 -0.2238  1.0831
 7721SOL    HW234797   1.995   3.617   0.735  0.6545 -1.2070  0.6190
 7722SOL     OW34798   4.187   4.719   9.560 -0.6074 -0.1126 -0.6924
 7722SOL    HW134799   4.253   4.689   9.497  0.1275  0.9361 -0.4115
 7722SOL    HW234800   4.166   4.637   9.605  0.1196 -1.1363 -2.2047
 7723SOL     OW34801   4.066   4.632   5.985  0.2893  0.0934  0.5220
 7723SOL    HW134802   4.024   4.635   5.898  0.2683 -1.2351  0.4839
 7723SOL    HW234803   4.034   4.548   6.018 -0.9294  0.5223  0.4582
 7724SOL     OW34804   0.465   3.634   2.994 -0.3071  0.4629 -0.1135
 7724SOL    HW134805   0.506   3.581   2.925  0.0463  1.9582 -1.0391
 7724SOL    HW234806   0.410   3.567   3.035 -2.2146  1.4431 -1.0545
 7725SOL     OW34807   3.089   2.278   4.413 -0.0394  0.3600 -0.0768
 7725SOL    HW134808   3.015   2.308   4.466  0.6867 -0.5807  1.4355
 7725SOL    HW234809   3.035   2.223   4.357  1.6032 -0.6008 -0.7193
 7726SOL     OW34810   3.077   0.371   5.163 -0.5047 -0.0524  0.4786
 7726SOL    HW134811   3.046   0.427   5.093 -0.4102  0.8601  1.1750
 7726SOL    HW234812   3.120   0.301   5.112 -0.3144 -0.4555  1.1869
 7727SOL     OW34813   4.304   1.438  15.665 -0.1737 -0.1716 -0.1370
 7727SOL    HW134814   4.319   1.457  15.758 -2.4797  0.1476  0.1594
 7727SOL    HW234815   4.266   1.519  15.632  1.5315  1.1273  1.0698
 7728SOL     OW34816   3.066   0.055   9.626 -0.3233 -0.2201 -0.4262
 7728SOL    HW134817   3.104   0.066   9.713 -2.1692  2.5491  0.0311
 7728SOL    HW234818   2.993   4.731   9.643 -0.9512  0.8256  0.5946
 7729SOL     OW34819   1.014   0.331   0.644 -0.1106  0.5219 -0.2561
 7729SOL    HW134820   1.006   0.331   0.548  2.8415  0.6734 -0.4894
 7729SOL    HW234821   0.923   0.339   0.672 -0.1812  0.0279 -0.3416
 7730SOL     OW34822   2.249   0.748   3.600  0.3566 -0.4906  0.4623
 7730SOL    HW134823   2.310   0.775   3.668  0.7090 -1.5179  0.5515
 7730SOL    HW234824   2.255   0.652   3.599  1.2304 -0.4494  1.3509
 7731SOL     OW34825   3.219   0.968   1.797  0.1310 -0.2365 -0.2280
 7731SOL    HW134826   3.165   1.008   1.864  1.1471  0.6734  0.0435
 7731SOL    HW234827   3.308   0.970   1.832 -0.1041 -0.7590  0.3913
 7732SOL     OW34828   1.295   1.703  13.729  0.7246  0.1269 -0.0863
 7732SOL    HW134829   1.366   1.644  13.704  1.2564  0.7840 -0.1417
 7732SOL    HW234830   1.331   1.750  13.804  1.9655 -1.2077  0.1641
 7733SOL     OW34831   3.516   3.902  15.672  0.5054  0.2472  0.5163
 7733SOL    HW134832   3.551   3.869  15.755 -0.4528 -2.4743 -0.1759
 7733SOL    HW234833   3.514   3.821  15.620  1.2671  1.4616 -1.3904
 7734SOL     OW34834   3.329   0.644   9.290 -0.3162  0.5521 -0.5552
 7734SOL    HW134835   3.397   0.577   9.288 -1.3610 -0.4884 -1.2439
 7734SOL    HW234836   3.247   0.598   9.309  1.3698 -1.7973  0.8782
 7735SOL     OW34837   2.570   0.405   8.560  0.9581  0.4836  0.2104
 7735SOL    HW134838   2.581   0.341   8.490  0.3556 -1.2340  1.6711
 7735SOL    HW234839   2.510   0.351   8.612 -0.3727  0.0164 -1.8505
 7736SOL     OW34840   2.675   4.406   5.113  0.3234 -0.0969  0.3088
 7736SOL    HW134841   2.623   4.484   5.097  0.9533  0.1733 -0.4282
 7736SOL    HW234842   2.743   4.444   5.168 -1.2568  0.4633  1.8789
 7737SOL     OW34843   1.762   0.826   6.330  0.1472 -0.2691 -1.1270
 7737SOL    HW134844   1.747   0.731   6.328 -1.0848 -0.1298  2.4129
 7737SOL    HW234845   1.845   0.828   6.283  1.5373  0.7709  1.3868
 7738SOL     OW34846   3.469   2.106   4.384 -0.2189  0.0318 -0.3931
 7738SOL    HW134847   3.406   2.105   4.455  1.2702 -0.6511  0.9284
 7738SOL    HW234848   3.502   2.196   4.388 -0.1471 -0.0056 -0.1692
 7739SOL     OW34849   0.612   0.831   8.335  0.2101 -0.1273 -0.0475
 7739SOL    HW134850   0.684   0.822   8.272 -0.3674 -1.8201 -0.4633
 7739SOL    HW234851   0.642   0.784   8.412  1.1497  1.4443  0.5364
 7740SOL     OW34852   0.112   1.382  13.313  0.7326  0.0895  0.1262
 7740SOL    HW134853   0.187   1.323  13.303  1.4583  1.2968 -1.6087
 7740SOL    HW234854   0.047   1.320  13.346  1.3461 -1.0099 -0.6954
 7741SOL     OW34855   4.573   3.335   7.387 -0.1920 -0.3444  0.6391
 7741SOL    HW134856   4.491   3.384   7.386 -0.4684 -0.7962  1.9343
 7741SOL    HW234857   4.621   3.357   7.307 -1.8923 -1.3057 -0.6445
 7742SOL     OW34858   0.539   1.113   5.545 -0.4953 -0.6422  0.3957
 7742SOL    HW134859   0.594   1.055   5.597  1.2071 -0.7717 -1.5649
 7742SOL    HW234860   0.497   1.159   5.618 -1.9381 -2.0749  0.4532
 7743SOL     OW34861   1.081   4.067   3.078 -0.0123  0.4046 -0.6336
 7743SOL    HW134862   1.121   4.154   3.077  0.5716  0.0911 -3.6979
 7743SOL    HW234863   1.147   4.006   3.042 -0.9847 -0.0505 -1.6424
 7744SOL     OW34864   0.067   1.100   5.601 -0.2839 -0.4176 -0.4456
 7744SOL    HW134865   0.120   1.084   5.679  0.0355  0.2276 -0.5211
 7744SOL    HW234866   0.124   1.067   5.532  1.2324  0.7275  0.2360
 7745SOL     OW34867   1.917   3.743   9.061 -0.3663 -0.1014 -0.6708
 7745SOL    HW134868   1.831   3.701   9.053 -1.0643  1.4454 -1.3041
 7745SOL    HW234869   1.937   3.772   9.150 -0.8507  1.3699 -1.0516
 7746SOL     OW34870   4.205   3.741  16.988 -0.1336  0.4241  0.1921
 7746SOL    HW134871   4.214   3.806  17.058 -0.2798  0.8128 -0.1462
 7746SOL    HW234872   4.110   3.729  16.990 -0.0187 -0.5051  0.0018
 7747SOL     OW34873   0.585   0.286   0.274  0.1141  0.1154 -0.2305
 7747SOL    HW134874   0.618   0.205   0.233  0.5626  0.5856 -0.7906
 7747SOL    HW234875   0.604   0.353   0.208  0.4466  0.9080  0.6904
 7748SOL     OW34876   1.325   3.054  16.224  0.8381 -0.0981  0.0405
 7748SOL    HW134877   1.238   3.020  16.205  0.1904  1.8759 -0.4895
 7748SOL    HW234878   1.315   3.143  16.192 -0.7404 -0.6607 -1.0116
 7749SOL     OW34879   2.077   2.795   8.584 -0.0242 -0.1051  0.0073
 7749SOL    HW134880   2.048   2.884   8.567  1.2529  0.3520  0.2960
 7749SOL    HW234881   1.996   2.750   8.607 -0.6552  1.0471  0.0167
 7750SOL     OW34882   2.900   2.648   8.646 -0.2022 -0.0639  0.2259
 7750SOL    HW134883   2.872   2.719   8.703 -0.5376 -0.2465  0.2825
 7750SOL    HW234884   2.822   2.630   8.594 -0.6154 -2.5567  1.6880
 7751SOL     OW34885   4.357   2.122   3.496 -0.2257  0.1222  0.0644
 7751SOL    HW134886   4.373   2.217   3.497  2.4954 -0.3194 -0.4274
 7751SOL    HW234887   4.283   2.104   3.553 -0.6175 -0.5514 -0.6638
 7752SOL     OW34888   0.052   0.035  14.330 -0.6548  0.4986 -0.4039
 7752SOL    HW134889   4.717   0.079  14.284  0.0608  2.5924  0.4878
 7752SOL    HW234890   0.065   4.692  14.278  1.7758  0.2313  0.6253
 7753SOL     OW34891   3.885   1.495   4.609  0.5510 -0.3604  0.0703
 7753SOL    HW134892   3.808   1.518   4.661 -0.4705  2.5138 -2.8161
 7753SOL    HW234893   3.882   1.559   4.539 -2.2548  0.7051  1.1838
 7754SOL     OW34894   4.403   2.231  10.807 -0.0809 -0.0952 -0.0969
 7754SOL    HW134895   4.375   2.221  10.716 -1.2311  1.9692  0.0213
 7754SOL    HW234896   4.343   2.300  10.835  1.4770  1.3662 -0.3163
 7755SOL     OW34897   4.025   2.154   6.894 -0.0117  0.1116  0.0403
 7755SOL    HW134898   4.105   2.192   6.858  0.0497  0.1947  0.2691
 7755SOL    HW234899   3.958   2.212   6.859  0.9942  0.8665 -0.6447
 7756SOL     OW34900   1.347   4.734   9.105  0.2758  0.5620 -0.3810
 7756SOL    HW134901   1.349   4.664   9.170  2.2136 -0.4052 -1.4715
 7756SOL    HW234902   1.253   0.018   9.106  0.1414  0.0149 -1.3354
 7757SOL     OW34903   2.281   4.538   3.617  0.3213 -0.1215  0.7723
 7757SOL    HW134904   2.312   4.461   3.570 -2.6653 -1.0680  0.3625
 7757SOL    HW234905   2.224   4.497   3.682 -0.3505  1.2011  1.0334
 7758SOL     OW34906   1.041   2.997   1.508 -0.1054 -0.2132 -0.7476
 7758SOL    HW134907   1.088   2.920   1.476 -1.0806 -1.9540  2.0248
 7758SOL    HW234908   1.084   3.000   1.593  0.4060  1.2484 -1.0655
 7759SOL     OW34909   0.325   0.432   5.762  0.5363 -0.2395 -0.0158
 7759SOL    HW134910   0.389   0.502   5.774 -2.9095  2.4842  2.4850
 7759SOL    HW234911   0.250   0.478   5.724  0.8967 -0.8971 -1.5529
 7760SOL     OW34912   0.199   2.424   9.085  0.2275  0.2547  0.2529
 7760SOL    HW134913   0.118   2.475   9.084  0.2530  0.2923 -0.1924
 7760SOL    HW234914   0.167   2.335   9.101  0.4298  0.0607 -0.3982
 7761SOL     OW34915   0.272   3.787   3.880  0.5633  0.2541  0.6794
 7761SOL    HW134916   0.258   3.696   3.852 -0.3011  0.9648 -1.2106
 7761SOL    HW234917   0.345   3.812   3.823  2.3202  2.4269  3.9004
 7762SOL     OW34918   2.912   0.953   2.474 -0.2622  0.3806  0.2172
 7762SOL    HW134919   2.916   0.959   2.569  1.2560  1.7816  0.0468
 7762SOL    HW234920   2.924   0.860   2.454  0.4756  0.5214  0.0100
 7763SOL     OW34921   3.105   2.766  16.179 -0.0982 -0.2801  0.0475
 7763SOL    HW134922   3.192   2.728  16.173  0.3136  0.8531 -1.3040
 7763SOL    HW234923   3.116   2.836  16.243  1.5486  1.1372 -1.7812
 7764SOL     OW34924   3.926   0.817   1.883 -0.0170 -0.3471  0.6056
 7764SOL    HW134925   3.996   0.752   1.891  0.2319 -0.2313 -0.6133
 7764SOL    HW234926   3.971   0.901   1.892  0.5776 -0.4349 -1.6312
 7765SOL     OW34927   0.861   0.217  10.208 -0.1591  0.7601 -0.8394
 7765SOL    HW134928   0.928   0.285  10.202  1.9145 -1.0366  1.7670
 7765SOL    HW234929   0.806   0.262  10.272 -1.0773  0.4866 -1.4407
 7766SOL     OW34930   0.441   3.774  11.917  0.2465 -0.3417 -0.2222
 7766SOL    HW134931   0.375   3.841  11.933 -0.0879 -1.0434  1.3523
 7766SOL    HW234932   0.402   3.747  11.834 -0.7778 -0.5312  0.3217
 7767SOL     OW34933   2.586   2.241   5.647  0.0173 -0.1924 -0.7008
 7767SOL    HW134934   2.632   2.258   5.565 -3.8091  0.8080 -2.6555
 7767SOL    HW234935   2.613   2.151   5.664 -1.1159 -1.0407 -3.3110
 7768SOL     OW34936   2.717   3.036   2.903 -0.7540  0.1840  0.6781
 7768SOL    HW134937   2.643   2.983   2.933  0.9621 -1.5933  1.8038
 7768SOL    HW234938   2.749   3.087   2.977 -0.2435  0.2541  0.4080
 7769SOL     OW34939   1.859   2.732   9.446  0.5849 -0.1601  0.3816
 7769SOL    HW134940   1.892   2.734   9.357 -0.8208  1.6939 -0.1073
 7769SOL    HW234941   1.863   2.824   9.473 -0.5861 -0.5591  1.9899
 7770SOL     OW34942   0.085   1.062   8.588 -0.5005  0.1769  0.3013
 7770SOL    HW134943   0.036   1.094   8.664  0.2876  1.9180  0.0649
 7770SOL    HW234944   0.017   1.052   8.522  1.3905  0.7590 -1.7163
 7771SOL     OW34945   2.533   0.253  13.908  0.0648  0.1808  0.0951
 7771SOL    HW134946   2.457   0.240  13.852 -1.1465  1.4354  1.4443
 7771SOL    HW234947   2.507   0.215  13.993  1.6738  1.9435  1.3761
 7772SOL     OW34948   3.865   3.075  10.434 -0.4845 -0.4253 -0.2187
 7772SOL    HW134949   3.811   2.996  10.430 -0.4537 -0.5745  2.6393
 7772SOL    HW234950   3.913   3.067  10.516 -0.7678  1.5871  0.1490
 7773SOL     OW34951   1.417   2.088   7.441 -0.3913  0.3382  0.1893
 7773SOL    HW134952   1.504   2.074   7.402 -0.0438 -0.0619  1.1079
 7773SOL    HW234953   1.391   2.163   7.387 -1.0766 -0.8559 -1.1449
 7774SOL     OW34954   0.288   0.437   6.490 -0.0020  0.3305  0.1844
 7774SOL    HW134955   0.311   0.354   6.449  0.9418  0.9767 -0.5915
 7774SOL    HW234956   0.279   0.487   6.409  2.4283  1.9099  0.8759
 7775SOL     OW34957   2.993   2.521   4.691 -0.0179  0.2025  0.0063
 7775SOL    HW134958   3.010   2.606   4.649  1.3194 -0.2257 -0.3338
 7775SOL    HW234959   2.956   2.478   4.614 -1.7475  1.6405  0.0290
 7776SOL     OW34960   0.285   1.390   4.205 -0.0045  0.1817  0.5103
 7776SOL    HW134961   0.306   1.397   4.298  0.7275 -1.8897  0.5117
 7776SOL    HW234962   0.367   1.419   4.165 -0.3765 -0.5389 -0.7770
 7777SOL     OW34963   1.123   3.686   4.606 -0.4300 -1.1594  0.3775
 7777SOL    HW134964   1.122   3.662   4.698  0.8113  1.6660  1.1242
 7777SOL    HW234965   1.064   3.761   4.597 -0.1088 -0.6369  2.8007
 7778SOL     OW34966   4.375   2.906   7.018 -0.9046  0.2748  0.1800
 7778SOL    HW134967   4.296   2.855   6.997 -1.9322  1.7841  0.4045
 7778SOL    HW234968   4.387   2.951   6.934  2.6199 -1.7872 -0.4162
 7779SOL     OW34969   3.428   2.555  11.325 -0.0870  0.5335  0.8500
 7779SOL    HW134970   3.386   2.518  11.402 -1.9021 -0.8372 -0.7946
 7779SOL    HW234971   3.492   2.617  11.359  1.5776 -0.2835 -0.7931
 7780SOL     OW34972   3.530   0.412   9.295 -0.2112 -0.1642 -0.4752
 7780SOL    HW134973   3.623   0.404   9.276  0.2997  2.2390  1.0613
 7780SOL    HW234974   3.483   0.356   9.234 -0.0765  0.9651 -1.6084
 7781SOL     OW34975   4.212   1.895  16.053  0.1069 -0.2434  0.4160
 7781SOL    HW134976   4.163   1.829  16.004  2.0854 -0.7112 -0.9693
 7781SOL    HW234977   4.259   1.931  15.977 -2.2707 -1.3875 -1.5814
 7782SOL     OW34978   3.100   2.143   9.013 -0.4218 -0.2858  0.6260
 7782SOL    HW134979   3.112   2.179   8.925 -2.6710  2.4846  1.4788
 7782SOL    HW234980   3.171   2.079   9.013 -0.2279 -0.0837 -1.1571
 7783SOL     OW34981   1.365   0.754   2.727  0.2869 -0.0095 -0.2448
 7783SOL    HW134982   1.364   0.686   2.794  0.3635 -1.3314 -1.5766
 7783SOL    HW234983   1.283   0.792   2.759 -0.6820 -2.0113 -0.3984
 7784SOL     OW34984   1.589   2.358   7.579  0.4233 -0.4299 -0.2574
 7784SOL    HW134985   1.585   2.398   7.492  0.4381 -0.6302 -0.3479
 7784SOL    HW234986   1.610   2.265   7.574  0.9353 -0.4020  1.4753
 7785SOL     OW34987   4.157   0.329   5.541 -0.1219 -0.3647 -0.0578
 7785SOL    HW134988   4.091   0.281   5.590  0.0943 -0.8105 -0.1979
 7785SOL    HW234989   4.133   0.421   5.551 -1.7873 -0.7544 -0.6027
 7786SOL     OW34990   0.685   2.154   3.821  0.3884  0.0703 -0.3671
 7786SOL    HW134991   0.752   2.197   3.768  1.3006  0.9640  1.5209
 7786SOL    HW234992   0.711   2.172   3.912  0.0198  2.4173 -0.7340
 7787SOL     OW34993   1.189   3.682   9.298  0.2560  0.1666 -0.2229
 7787SOL    HW134994   1.263   3.661   9.240  0.3427 -0.4971  0.1175
 7787SOL    HW234995   1.233   3.658   9.381 -2.0949  0.7480  1.1853
 7788SOL     OW34996   3.416   1.024   5.626  0.1364 -0.8304  0.0908
 7788SOL    HW134997   3.371   0.978   5.556  1.4051  1.9936 -2.5925
 7788SOL    HW234998   3.456   0.952   5.675  2.6830  0.5143 -0.0436
 7789SOL     OW34999   2.042   2.311   4.616  0.7494  0.2726  0.2089
 7789SOL    HW135000   1.991   2.270   4.686 -1.7352  2.6213 -0.2273
 7789SOL    HW235001   2.007   2.400   4.605  0.9701  0.5963  2.2406
 7790SOL     OW35002   2.087   3.977   7.498  0.2517  0.2828  0.0194
 7790SOL    HW135003   2.159   3.977   7.562  0.0826 -0.4337  0.2077
 7790SOL    HW235004   2.099   4.058   7.449  1.7994 -0.0706 -0.1915
 7791SOL     OW35005   3.931   1.558   3.458 -0.2208  0.7810 -0.1895
 7791SOL    HW135006   3.869   1.619   3.498  0.6897  0.6826  1.3621
 7791SOL    HW235007   4.013   1.584   3.500  0.3280 -0.6639 -0.3652
 7792SOL     OW35008   3.933   0.725   2.214  0.2060 -0.1695 -0.0495
 7792SOL    HW135009   3.999   0.729   2.144 -1.7237 -1.7249 -1.9552
 7792SOL    HW235010   3.988   0.754   2.287  2.0912 -1.3431 -0.9999
 7793SOL     OW35011   1.086   2.370   5.528 -0.1123 -0.1293 -0.0158
 7793SOL    HW135012   1.136   2.448   5.507  1.1459 -0.3319  2.1869
 7793SOL    HW235013   1.002   2.390   5.487 -0.1741  0.5180  0.4307
 7794SOL     OW35014   0.490   4.210   4.732 -0.7294  0.1038  0.5776
 7794SOL    HW135015   0.409   4.239   4.690  0.1241  1.6544  0.0408
 7794SOL    HW235016   0.559   4.261   4.690  1.6234 -1.0325  3.0431
 7795SOL     OW35017   4.433   3.963   3.090 -0.2965 -0.0220 -0.1415
 7795SOL    HW135018   4.356   4.006   3.054 -1.2697 -0.6110  1.2342
 7795SOL    HW235019   4.505   4.026   3.095  0.8577 -1.3744  0.5618
 7796SOL     OW35020   4.104   1.644   8.080  0.2748  0.1924 -0.8089
 7796SOL    HW135021   4.125   1.552   8.097 -2.2900 -0.3384 -0.4328
 7796SOL    HW235022   4.010   1.643   8.098  0.6178  0.3551  0.9372
 7797SOL     OW35023   2.748   2.206   3.580 -0.5491  0.1132 -0.0027
 7797SOL    HW135024   2.694   2.159   3.515 -0.9174 -0.7654  0.9358
 7797SOL    HW235025   2.820   2.143   3.591 -0.4873  0.4517  1.5102
 7798SOL     OW35026   0.769   2.262   3.596 -0.2803  0.2921 -0.9117
 7798SOL    HW135027   0.684   2.299   3.571 -1.1083 -0.3844  0.8815
 7798SOL    HW235028   0.824   2.335   3.570  2.6381 -0.4920  2.9670
 7799SOL     OW35029   1.286   3.385   1.888 -0.1956 -0.2591  0.4217
 7799SOL    HW135030   1.270   3.476   1.863 -2.0354 -0.7529 -0.2087
 7799SOL    HW235031   1.382   3.379   1.887 -0.1926 -0.2237  0.6959
 7800SOL     OW35032   3.326   3.003  15.206  0.1818  0.8265 -0.1143
 7800SOL    HW135033   3.274   2.988  15.284 -0.7515  1.3428 -0.6406
 7800SOL    HW235034   3.409   3.018  15.250 -0.0337  1.7201 -0.0254
 7801SOL     OW35035   0.307   2.828   9.344 -0.0060  0.0433 -0.6595
 7801SOL    HW135036   0.289   2.734   9.345 -1.2735  0.2867 -1.6931
 7801SOL    HW235037   0.220   2.864   9.359  0.2630 -0.3826  1.9205
 7802SOL     OW35038   4.095   4.725  11.446 -0.1084 -0.3603 -0.1570
 7802SOL    HW135039   4.177   4.718  11.495 -2.2423 -0.7549  3.3289
 7802SOL    HW235040   4.037   4.664  11.491 -1.2406  0.3194 -0.7204
 7803SOL     OW35041   1.441   2.859  14.746 -0.0509  0.4859  0.1572
 7803SOL    HW135042   1.481   2.773  14.731  1.8700  1.5053 -0.5437
 7803SOL    HW235043   1.435   2.851  14.841 -1.0514 -1.5030 -0.0659
 7804SOL     OW35044   2.743   1.341  10.866 -0.6247 -0.1787 -0.0727
 7804SOL    HW135045   2.749   1.386  10.781 -1.6112  1.1411  0.5645
 7804SOL    HW235046   2.704   1.413  10.915 -0.9435  0.3285 -1.0812
 7805SOL     OW35047   1.342   1.856   1.707 -0.4263  0.0761 -0.2960
 7805SOL    HW135048   1.333   1.816   1.794 -2.0897 -1.0204 -0.9572
 7805SOL    HW235049   1.370   1.783   1.652 -0.7057  0.5381 -1.0556
 7806SOL     OW35050   4.590   1.464  15.109  0.0976 -0.5454 -0.3270
 7806SOL    HW135051   4.558   1.460  15.199 -1.1298  0.5634 -0.7164
 7806SOL    HW235052   4.523   1.410  15.066 -0.3157  1.2543 -1.9250
 7807SOL     OW35053   4.281   3.321   3.659 -0.1016 -0.2202  0.0519
 7807SOL    HW135054   4.347   3.361   3.715 -0.6842 -0.2910  0.7818
 7807SOL    HW235055   4.226   3.396   3.640 -1.2823 -1.5943 -1.9822
 7808SOL     OW35056   2.765   0.072  14.630  0.6674  0.0780 -0.0275
 7808SOL    HW135057   2.710   0.029  14.697 -0.7912 -0.3286 -1.4737
 7808SOL    HW235058   2.699   0.107  14.570  0.3521  0.8416  0.7655
 7809SOL     OW35059   0.964   4.463   6.286 -0.1661 -0.0653 -0.0656
 7809SOL    HW135060   0.877   4.458   6.245 -1.2413  1.6478  2.0070
 7809SOL    HW235061   0.955   4.402   6.359  1.9144 -2.4601 -1.8562
 7810SOL     OW35062   0.917   2.063   8.098  0.1123 -0.1418 -0.3132
 7810SOL    HW135063   0.916   2.070   8.002  2.0771 -2.2515 -0.4989
 7810SOL    HW235064   1.008   2.036   8.109 -0.3931 -1.4227  0.6941
 7811SOL     OW35065   1.619   0.332   9.100  0.2900  0.7423  0.2228
 7811SOL    HW135066   1.695   0.376   9.062  2.0854 -1.6300  1.0454
 7811SOL    HW235067   1.676   0.288   9.163  1.5145 -0.1964 -1.5062
 7812SOL     OW35068   4.348   2.095   9.017 -0.6808 -0.0869 -0.5975
 7812SOL    HW135069   4.348   2.024   9.082  1.5709  0.1016 -0.4014
 7812SOL    HW235070   4.340   2.059   8.929 -2.0048 -1.3041  0.0155
 7813SOL     OW35071   3.482   3.828  15.955 -0.5611 -0.6047  0.3085
 7813SOL    HW135072   3.441   3.824  16.042  1.4891  1.5457  1.3780
 7813SOL    HW235073   3.533   3.748  15.953 -0.1278 -0.3265  0.3329
 7814SOL     OW35074   0.969   1.651   3.158 -0.1092 -0.5654  0.1001
 7814SOL    HW135075   0.904   1.658   3.088  0.3153  1.0547 -0.1311
 7814SOL    HW235076   0.910   1.679   3.228 -0.1750  0.4014 -0.3475
 7815SOL     OW35077   4.526   0.682   3.867 -0.6768 -0.0640 -0.2439
 7815SOL    HW135078   4.583   0.628   3.922 -0.0125 -0.1125 -0.9776
 7815SOL    HW235079   4.488   0.742   3.931  0.6096 -0.8614  1.2865
 7816SOL     OW35080   3.482   0.721   9.645  0.2127  0.0370 -0.2218
 7816SOL    HW135081   3.528   0.657   9.590  0.1596  0.8851 -1.2345
 7816SOL    HW235082   3.535   0.711   9.725  1.1724 -1.4849 -1.0407
 7817SOL     OW35083   2.612   0.164   4.604  0.2675 -0.6475  0.0174
 7817SOL    HW135084   2.626   0.172   4.509 -0.2743 -0.2545 -0.0308
 7817SOL    HW235085   2.517   0.153   4.607  0.5953 -3.0375  1.2098
 7818SOL     OW35086   2.670   1.611   2.620  0.0782 -0.7518  0.1272
 7818SOL    HW135087   2.657   1.545   2.552  0.7643  0.0451 -0.7775
 7818SOL    HW235088   2.748   1.580   2.667  0.0297 -1.5505 -0.3217
 7819SOL     OW35089   4.726   2.485   8.539  0.3095  0.3251  0.0171
 7819SOL    HW135090   4.725   2.522   8.450  1.1826  2.7886  1.0358
 7819SOL    HW235091   4.684   2.553   8.591  0.9480 -0.0284  0.9855
 7820SOL     OW35092   1.441   3.214   5.733 -0.6502  0.9180 -0.5973
 7820SOL    HW135093   1.490   3.134   5.749  0.1893  1.3886 -0.7936
 7820SOL    HW235094   1.400   3.227   5.818 -1.0111 -0.6685 -0.5352
 7821SOL     OW35095   1.387   2.812   8.428  0.3761  0.0472 -0.2084
 7821SOL    HW135096   1.426   2.727   8.412  1.3262  0.1682  1.4175
 7821SOL    HW235097   1.460   2.866   8.397 -1.7817 -0.2351 -5.6914
 7822SOL     OW35098   3.365   3.684   5.862 -0.2467  0.7104 -0.4655
 7822SOL    HW135099   3.325   3.679   5.949  0.4082 -2.3118 -0.3486
 7822SOL    HW235100   3.335   3.771   5.835 -0.1255  0.5793 -1.0184
 7823SOL     OW35101   3.119   0.599   5.332  0.1924 -0.0306  0.3070
 7823SOL    HW135102   3.152   0.513   5.303  0.9344  0.3827 -0.0838
 7823SOL    HW235103   3.025   0.585   5.338  0.2244 -0.3871  0.0242
 7824SOL     OW35104   3.786   1.901   1.777 -0.2498 -0.5758 -0.0089
 7824SOL    HW135105   3.855   1.842   1.808 -1.6604 -0.8781  2.5955
 7824SOL    HW235106   3.774   1.882   1.684  3.0461  1.0474 -0.7728
 7825SOL     OW35107   2.464   0.873   4.578 -0.3657  0.2173 -0.8126
 7825SOL    HW135108   2.488   0.847   4.489  0.1724  2.0515 -1.2047
 7825SOL    HW235109   2.395   0.814   4.610 -1.3413  0.4425 -2.5361
 7826SOL     OW35110   4.347   4.525   4.868  0.1810 -0.5784  0.9585
 7826SOL    HW135111   4.326   4.479   4.949  1.4670  0.5413  1.9247
 7826SOL    HW235112   4.266   4.539   4.818 -0.3726  0.2890  2.0851
 7827SOL     OW35113   0.521   0.106   1.111 -0.6339 -0.5809  0.2459
 7827SOL    HW135114   0.457   0.176   1.119 -1.2085 -1.3029  1.9020
 7827SOL    HW235115   0.579   0.125   1.184 -2.1662  0.7851  1.0894
 7828SOL     OW35116   2.611   4.072   5.430  0.5357 -0.0436  0.0366
 7828SOL    HW135117   2.653   4.112   5.355  2.9141  0.7744  1.7948
 7828SOL    HW235118   2.689   4.039   5.476  2.0528  1.6294 -1.3821
 7829SOL     OW35119   4.401   4.319   8.535  0.4144  0.0395 -0.5342
 7829SOL    HW135120   4.466   4.283   8.596  2.6710  0.9926 -2.3530
 7829SOL    HW235121   4.378   4.399   8.584  1.5942 -1.5665  2.6667
 7830SOL     OW35122   1.546   3.090   9.729  0.0770  0.1906 -0.1229
 7830SOL    HW135123   1.475   3.087   9.665 -0.8325  2.6440  0.7703
 7830SOL    HW235124   1.491   3.121   9.801  2.3839 -0.2254  1.8159
 7831SOL     OW35125   3.443   3.364   9.017 -0.5318  0.4670 -0.3460
 7831SOL    HW135126   3.419   3.433   8.955 -4.9242  2.0668  3.0541
 7831SOL    HW235127   3.380   3.400   9.080 -3.4858 -1.3554 -2.2707
 7832SOL     OW35128   2.316   0.912   5.702  0.5295  0.4972 -0.6221
 7832SOL    HW135129   2.402   0.953   5.693  1.1807 -0.8561 -0.6101
 7832SOL    HW235130   2.260   0.984   5.732  2.3935  1.6618  0.0804
 7833SOL     OW35131   3.996   3.734   3.108  0.5181 -0.2778 -0.8427
 7833SOL    HW135132   3.947   3.652   3.099 -1.3732  0.4656  2.6881
 7833SOL    HW235133   4.064   3.702   3.048  1.0191 -1.0740  0.1615
 7834SOL     OW35134   3.651   2.432   2.626 -0.0668  0.7086  0.9383
 7834SOL    HW135135   3.582   2.376   2.661  1.0569  0.6630  3.0992
 7834SOL    HW235136   3.622   2.519   2.652  1.3581  0.6815  2.6619
 7835SOL     OW35137   4.233   3.040   2.472 -0.2079 -0.0691  0.5993
 7835SOL    HW135138   4.210   2.949   2.492  1.8907 -0.1674  2.5334
 7835SOL    HW235139   4.151   3.068   2.431 -0.0393 -1.0858 -0.4508
 7836SOL     OW35140   1.907   2.180   7.967 -0.1582  0.2979 -0.2278
 7836SOL    HW135141   1.845   2.220   8.029 -0.5319 -0.6256 -0.0031
 7836SOL    HW235142   1.911   2.247   7.899  0.5863  1.3144  0.8034
 7837SOL     OW35143   3.852   4.084   5.750 -0.3032  0.2800 -0.3291
 7837SOL    HW135144   3.777   4.084   5.690 -0.5545  1.5024 -0.0190
 7837SOL    HW235145   3.818   4.144   5.816  0.4850 -1.9679  2.0776
 7838SOL     OW35146   2.335   3.926   4.527  0.0004 -0.3600  0.6416
 7838SOL    HW135147   2.375   3.898   4.610  2.7543 -0.4012 -0.6893
 7838SOL    HW235148   2.291   4.004   4.560 -1.3079 -1.0087  0.4303
 7839SOL     OW35149   2.729   2.304   4.729 -0.1886  0.1223 -0.2825
 7839SOL    HW135150   2.760   2.324   4.817 -1.6770 -0.1109  0.3018
 7839SOL    HW235151   2.634   2.305   4.741 -0.2874  0.4187 -1.0767
 7840SOL     OW35152   3.620   2.073   7.281  0.3804  0.7136  0.2802
 7840SOL    HW135153   3.565   2.002   7.315  1.7671  0.5100  2.0534
 7840SOL    HW235154   3.587   2.078   7.191 -0.8250  3.0344  0.8633
 7841SOL     OW35155   2.054   4.441   7.091 -0.5704  0.4189  0.4494
 7841SOL    HW135156   2.081   4.489   7.169 -0.6844  0.2961  0.5653
 7841SOL    HW235157   1.968   4.482   7.078  0.5210  2.1514 -1.3333
 7842SOL     OW35158   4.003   3.220   8.695 -0.0909 -0.0607 -0.2520
 7842SOL    HW135159   3.936   3.176   8.642 -1.4296 -1.0537  2.2497
 7842SOL    HW235160   4.078   3.165   8.674 -1.0510 -1.9694  1.2813
 7843SOL     OW35161   2.965   4.548   9.798  0.1434 -0.1352 -0.1778
 7843SOL    HW135162   2.950   4.571   9.890  1.1559  1.2435 -0.3559
 7843SOL    HW235163   2.901   4.477   9.795  0.4146 -0.4520  1.4551
 7844SOL     OW35164   3.026   0.500   8.237  0.3540  0.1149 -0.3890
 7844SOL    HW135165   2.994   0.496   8.327 -1.1849 -0.7186 -0.9786
 7844SOL    HW235166   3.003   0.585   8.200  1.7395 -0.4690 -2.6675
 7845SOL     OW35167   0.289   2.442   8.685 -0.2531  0.1202  0.1145
 7845SOL    HW135168   0.214   2.489   8.723 -1.0943  1.6506 -3.5148
 7845SOL    HW235169   0.348   2.512   8.658  0.4680  0.2891  2.0908
 7846SOL     OW35170   1.504   4.438   0.471 -0.0239  0.3673  0.3983
 7846SOL    HW135171   1.546   4.373   0.415  1.1600  1.0535  0.4911
 7846SOL    HW235172   1.572   4.504   0.486  0.5075 -0.0116 -0.3478
 7847SOL     OW35173   4.618   3.892  10.633 -0.2997 -0.5859  0.5740
 7847SOL    HW135174   4.656   3.959  10.688 -1.6015 -0.9524  1.9171
 7847SOL    HW235175   4.692   3.861  10.581 -1.3235 -0.9887 -0.6571
 7848SOL     OW35176   4.186   0.632   7.065 -0.1622 -0.1202  0.1576
 7848SOL    HW135177   4.220   0.591   6.986  0.4678  0.7213 -0.0142
 7848SOL    HW235178   4.133   0.556   7.088 -0.9586 -0.3915 -2.6830
 7849SOL     OW35179   2.347   1.434   1.550  0.1651 -0.6182 -0.1520
 7849SOL    HW135180   2.431   1.405   1.586 -0.3558 -0.7761  0.9284
 7849SOL    HW235181   2.283   1.402   1.612  1.3916 -0.5105  1.1805
 7850SOL     OW35182   2.692   3.434   9.454 -0.5393 -0.1198 -0.3896
 7850SOL    HW135183   2.698   3.403   9.545  0.2712 -1.7295 -0.9940
 7850SOL    HW235184   2.726   3.358   9.406  0.0724 -0.8276  1.1618
 7851SOL     OW35185   1.822   4.286   4.208 -0.0564  0.0650 -0.1926
 7851SOL    HW135186   1.750   4.223   4.215 -1.6447  1.7366 -1.2421
 7851SOL    HW235187   1.774   4.365   4.181  1.8870  1.3417  0.1057
 7852SOL     OW35188   3.147   2.635   6.000 -0.0176 -0.0554  0.3850
 7852SOL    HW135189   3.190   2.670   5.922  0.0249  0.4622  0.6449
 7852SOL    HW235190   3.225   2.636   6.055 -0.5012  0.2848  1.0624
 7853SOL     OW35191   4.620   1.242   0.477  0.2294  0.2604  0.1764
 7853SOL    HW135192   4.694   1.211   0.425  2.0549  3.4755  0.8942
 7853SOL    HW235193   4.615   1.188   0.556  1.2280 -0.6736 -0.4080
 7854SOL     OW35194   3.979   1.321   1.826  0.3228  0.8462 -0.4677
 7854SOL    HW135195   3.980   1.417   1.828 -0.4491  0.8567 -0.6885
 7854SOL    HW235196   3.888   1.310   1.798  0.4855 -1.6960 -0.0320
 7855SOL     OW35197   1.681   0.399   8.100 -0.0713 -0.6147  0.8894
 7855SOL    HW135198   1.591   0.377   8.074  0.0547  0.2152 -0.2181
 7855SOL    HW235199   1.687   0.350   8.182 -0.4063  0.3674  1.5018
 7856SOL     OW35200   2.582   1.264   7.777 -0.3360  0.2475  0.5346
 7856SOL    HW135201   2.549   1.346   7.740  0.7075  0.1816 -0.5341
 7856SOL    HW235202   2.544   1.265   7.865  1.5090 -1.6185  1.3415
 7857SOL     OW35203   0.435   0.225   7.739 -0.4523 -0.1894  0.2934
 7857SOL    HW135204   0.516   0.275   7.745 -1.3451  1.2544  0.6133
 7857SOL    HW235205   0.366   0.290   7.757 -0.9299 -0.8025  0.6528
 7858SOL     OW35206   4.446   1.195   8.457  0.3660 -0.0167 -0.3386
 7858SOL    HW135207   4.370   1.226   8.507 -0.9807 -1.7278 -1.2788
 7858SOL    HW235208   4.489   1.279   8.446  0.6256 -0.1121 -0.0274
 7859SOL     OW35209   2.440   1.379   0.724 -1.0757  0.2936 -0.1697
 7859SOL    HW135210   2.370   1.379   0.658 -1.9664 -2.6063  0.7914
 7859SOL    HW235211   2.383   1.405   0.796 -0.8682  2.9976 -0.9782
 7860SOL     OW35212   2.104   2.402   2.101 -0.1601 -0.4099  0.2806
 7860SOL    HW135213   2.049   2.459   2.047  0.3104  0.4148  0.6847
 7860SOL    HW235214   2.075   2.433   2.186  3.2905  0.7077  1.0395
 7861SOL     OW35215   0.810   0.139   5.793 -0.2878 -0.1749 -0.1638
 7861SOL    HW135216   0.742   0.100   5.738  0.2981  0.0039 -1.0171
 7861SOL    HW235217   0.882   0.122   5.732  0.2117  0.1953  0.3168
 7862SOL     OW35218   0.863   0.956   7.417  0.0044  0.4575 -0.4055
 7862SOL    HW135219   0.779   1.002   7.419  0.0346  0.3909  2.2529
 7862SOL    HW235220   0.920   1.025   7.383 -1.2338  2.1100  0.8312
 7863SOL     OW35221   2.485   3.036   9.438  0.2342 -0.3738 -1.0682
 7863SOL    HW135222   2.549   2.979   9.397  0.4287 -0.7259 -0.2684
 7863SOL    HW235223   2.408   3.023   9.383 -2.3001 -2.7100  3.0014
 7864SOL     OW35224   1.254   2.598   5.465  0.0651 -0.6651  0.3761
 7864SOL    HW135225   1.178   2.653   5.447 -0.6544 -2.2170 -1.2836
 7864SOL    HW235226   1.284   2.565   5.381  1.7785  0.0907  0.6844
 7865SOL     OW35227   4.176   2.106   1.827  0.0297 -0.2690  0.2358
 7865SOL    HW135228   4.225   2.041   1.776  0.8865  2.2185 -2.1267
 7865SOL    HW235229   4.239   2.118   1.898  0.6508  0.4778 -0.4349
 7866SOL     OW35230   2.575   1.221  13.368  0.3918  0.1769  0.9281
 7866SOL    HW135231   2.654   1.206  13.420  0.8982 -0.9586 -0.1696
 7866SOL    HW235232   2.577   1.129  13.341 -0.0711  0.4408 -0.0164
 7867SOL     OW35233   3.725   0.454  14.312  0.0840 -0.6209 -0.1454
 7867SOL    HW135234   3.725   0.550  14.320 -1.4678 -0.6121 -0.1515
 7867SOL    HW235235   3.685   0.435  14.227  1.1702  1.0569 -1.0315
 7868SOL     OW35236   4.615   0.475   9.517  0.0920 -0.1252  0.0520
 7868SOL    HW135237   4.578   0.550   9.470  2.0998 -0.0825 -1.4620
 7868SOL    HW235238   4.548   0.465   9.584  0.1798 -0.7026  0.0559
 7869SOL     OW35239   4.025   2.340   7.808  0.0731 -0.3430 -0.3467
 7869SOL    HW135240   4.091   2.381   7.864 -0.0994  0.9434 -1.0708
 7869SOL    HW235241   4.092   2.286   7.766 -0.6759  0.9461 -3.2652
 7870SOL     OW35242   2.081   3.266  14.868  0.0011 -0.1476 -0.5446
 7870SOL    HW135243   2.063   3.343  14.813  0.9578  0.2805 -0.2561
 7870SOL    HW235244   2.007   3.277  14.928 -1.3153 -2.1630 -1.8111
 7871SOL     OW35245   2.501   4.203   5.028 -0.2296 -0.0572  0.2039
 7871SOL    HW135246   2.443   4.204   5.104  0.6486  1.0890  0.8701
 7871SOL    HW235247   2.540   4.290   5.039 -0.8759  0.1571  0.8355
 7872SOL     OW35248   2.149   0.595  17.577 -0.2882 -0.2972  0.2423
 7872SOL    HW135249   2.189   0.553  17.653  2.4212 -0.8127 -1.4690
 7872SOL    HW235250   2.080   0.648  17.617 -0.9461  0.4029 -1.8425
 7873SOL     OW35251   0.898   1.131  10.149  0.1466  0.1380 -0.2427
 7873SOL    HW135252   0.859   1.183  10.220 -3.4016 -0.9387 -1.3604
 7873SOL    HW235253   0.832   1.144  10.080  1.4029 -2.0202 -1.8237
 7874SOL     OW35254   2.408   0.849   1.792  0.2282 -0.4939  0.2789
 7874SOL    HW135255   2.486   0.802   1.763  0.7770 -0.5551  1.8279
 7874SOL    HW235256   2.346   0.817   1.726  0.0585 -0.2143  0.3038
 7875SOL     OW35257   0.058   2.198   2.115 -0.4255 -0.3806 -0.2248
 7875SOL    HW135258   0.006   2.278   2.120  1.0602  0.4507  1.7832
 7875SOL    HW235259   4.720   2.139   2.107 -2.4393  2.2251 -0.4801
 7876SOL     OW35260   2.505   3.716   6.828 -0.4135 -0.4134 -0.1393
 7876SOL    HW135261   2.515   3.706   6.734  0.5427 -1.8691  0.1178
 7876SOL    HW235262   2.484   3.623   6.835 -2.3056  0.0782  0.5941
 7877SOL     OW35263   2.176   3.077  11.503  0.4935 -0.4718 -0.2583
 7877SOL    HW135264   2.211   3.027  11.576  0.8643 -0.0787 -0.1692
 7877SOL    HW235265   2.241   3.062  11.434  0.7535  0.7272 -0.2648
 7878SOL     OW35266   1.695   3.843   7.060 -0.1761  0.1016 -0.0296
 7878SOL    HW135267   1.685   3.783   6.986 -2.4251 -0.1415  0.4614
 7878SOL    HW235268   1.784   3.818   7.082  0.0361  0.5634 -0.3587
 7879SOL     OW35269   4.554   3.656   5.016  0.3799  0.1376 -0.3083
 7879SOL    HW135270   4.645   3.666   5.045  0.5619  0.0969 -0.8674
 7879SOL    HW235271   4.558   3.565   4.988 -1.7749 -0.0889  0.0696
 7880SOL     OW35272   3.780   4.098   6.159  0.3007 -0.2055 -0.0876
 7880SOL    HW135273   3.699   4.142   6.184  0.8121  1.0012 -0.5568
 7880SOL    HW235274   3.750   4.027   6.103 -0.7098 -0.0475  0.2609
 7881SOL     OW35275   0.559   3.161   1.733  0.1256  0.2133  0.3790
 7881SOL    HW135276   0.524   3.119   1.812 -0.4066  1.1531  0.6473
 7881SOL    HW235277   0.512   3.115   1.663  2.3821 -2.2124  0.4576
 7882SOL     OW35278   2.958   3.643   3.322  0.0163 -0.3092 -0.0172
 7882SOL    HW135279   2.900   3.662   3.249  0.7335  1.4835 -0.1321
 7882SOL    HW235280   2.895   3.644   3.394 -0.0703 -0.5472 -0.0897
 7883SOL     OW35281   4.590   0.770   5.563  0.1931  0.5712  0.0663
 7883SOL    HW135282   4.577   0.687   5.516  0.5162  0.3738  0.3230
 7883SOL    HW235283   4.628   0.818   5.489  2.6020 -0.7678  0.4131
 7884SOL     OW35284   2.671   2.519  15.834  0.2773  0.2431 -0.0705
 7884SOL    HW135285   2.596   2.578  15.831 -0.4255 -0.7857 -2.8491
 7884SOL    HW235286   2.695   2.534  15.743 -0.2875  0.9666 -0.1002
 7885SOL     OW35287   3.948   0.470   7.535 -0.0561 -0.8745  0.1508
 7885SOL    HW135288   3.991   0.523   7.603  2.1103 -2.0102 -0.3119
 7885SOL    HW235289   3.991   0.388   7.563 -0.7729 -0.3621  2.8066
 7886SOL     OW35290   3.094   1.417   9.406  0.2442  0.0775  0.1357
 7886SOL    HW135291   3.098   1.331   9.363  0.4068  0.5375 -0.7757
 7886SOL    HW235292   3.118   1.389   9.494 -0.7707  0.9096  0.6661
 7887SOL     OW35293   1.401   0.766   4.154  0.1309  0.3661  0.0468
 7887SOL    HW135294   1.407   0.861   4.166  0.4044  0.3214  0.2589
 7887SOL    HW235295   1.325   0.728   4.198  0.6838  0.8437  1.3895
 7888SOL     OW35296   4.561   3.768   3.807 -0.2406  0.4580 -0.3914
 7888SOL    HW135297   4.616   3.756   3.885 -0.0437 -1.6960 -0.8523
 7888SOL    HW235298   4.615   3.729   3.738  1.3320 -0.3498  1.2829
 7889SOL     OW35299   2.608   2.300   7.930  0.0468 -0.1926  0.2966
 7889SOL    HW135300   2.602   2.276   7.838 -0.0356  2.0879 -0.2961
 7889SOL    HW235301   2.526   2.263   7.961 -0.5518  0.0887 -0.9451
 7890SOL     OW35302   1.365   1.395  12.488 -0.3353 -0.5777  0.3215
 7890SOL    HW135303   1.332   1.306  12.502  1.9920 -1.6149 -0.7390
 7890SOL    HW235304   1.452   1.364  12.463 -1.1815 -1.9377 -0.9224
 7891SOL     OW35305   4.668   2.457   5.900  0.1172 -0.7495 -0.3855
 7891SOL    HW135306   4.619   2.504   5.967  1.1174  0.4771 -0.4999
 7891SOL    HW235307   0.010   2.513   5.901 -1.8522  1.9874  0.9048
 7892SOL     OW35308   2.493   4.285   5.708 -0.0859  0.0669  0.0641
 7892SOL    HW135309   2.445   4.267   5.789  1.4392  0.7465  1.1102
 7892SOL    HW235310   2.580   4.310   5.738 -0.4454 -1.0188  2.0541
 7893SOL     OW35311   1.159   2.239   5.755  0.2254 -0.2602  0.4277
 7893SOL    HW135312   1.145   2.146   5.737 -0.0655 -0.5535  2.1138
 7893SOL    HW235313   1.150   2.285   5.672  1.3525  0.2584  0.5906
 7894SOL     OW35314   0.814   1.552   9.671  0.8546  0.1034  0.0924
 7894SOL    HW135315   0.826   1.511   9.586  0.1204 -0.5360  0.2993
 7894SOL    HW235316   0.903   1.535   9.705  0.2846  0.2805  1.7020
 7895SOL     OW35317   1.187   1.399   6.072 -0.2174 -0.8685 -0.2422
 7895SOL    HW135318   1.254   1.415   6.139 -0.8631  1.4183 -0.1492
 7895SOL    HW235319   1.113   1.380   6.130  1.1276  2.1405  2.5182
 7896SOL     OW35320   2.116   3.108  16.119 -0.3209  0.0282 -0.4690
 7896SOL    HW135321   2.024   3.125  16.100  0.1129 -0.8761 -3.2364
 7896SOL    HW235322   2.111   3.026  16.168 -1.5309  0.9090  0.8948
 7897SOL     OW35323   1.239   1.060   7.306 -1.3120 -0.4790  0.6467
 7897SOL    HW135324   1.248   1.011   7.225  1.5514  2.7491 -0.9639
 7897SOL    HW235325   1.320   1.108   7.291  0.2068 -2.3701  2.7130
 7898SOL     OW35326   0.100   0.625  14.403  0.5125 -0.7646 -0.1549
 7898SOL    HW135327   0.184   0.586  14.428  1.0287 -0.0813 -0.7991
 7898SOL    HW235328   0.048   0.591  14.475 -0.6494 -1.6991 -1.4524
 7899SOL     OW35329   3.559   3.107  10.989  0.6778 -0.0917  0.0345
 7899SOL    HW135330   3.483   3.067  10.947  1.6572 -2.2032  0.2167
 7899SOL    HW235331   3.520   3.192  11.007 -3.7541 -2.0117 -0.5139
 7900SOL     OW35332   1.239   2.594   6.774 -0.4000  0.1718  0.4643
 7900SOL    HW135333   1.170   2.541   6.734  0.6039  0.8098 -2.1458
 7900SOL    HW235334   1.267   2.648   6.700  0.0692  1.0254  1.2622
 7901SOL     OW35335   1.878   1.128   9.206  0.2388 -1.0275 -0.3887
 7901SOL    HW135336   1.879   1.083   9.290  2.6999 -1.4040 -0.6355
 7901SOL    HW235337   1.814   1.196   9.230  0.7593  0.0250 -1.9459
 7902SOL     OW35338   2.067   0.152  10.138 -0.0415 -0.4314  0.1021
 7902SOL    HW135339   2.123   0.228  10.149  0.1572 -0.6256  0.4401
 7902SOL    HW235340   2.143   0.094  10.138  1.0697  1.0543  2.5026
 7903SOL     OW35341   1.625   4.647   3.532 -0.1874 -0.3738 -0.1417
 7903SOL    HW135342   1.691   4.697   3.483  0.6128  0.4191  1.7119
 7903SOL    HW235343   1.558   4.714   3.546  0.9857  1.2325 -2.1543
 7904SOL     OW35344   3.629   0.113   8.099 -0.1408  0.5935  0.4240
 7904SOL    HW135345   3.544   0.071   8.088 -0.1341  1.0805 -1.6002
 7904SOL    HW235346   3.683   0.034   8.093 -1.2447 -0.2006  1.0767
 7905SOL     OW35347   1.841   2.661   1.089 -0.3232 -0.4268 -0.1664
 7905SOL    HW135348   1.896   2.740   1.086 -1.2668  0.2047 -0.7107
 7905SOL    HW235349   1.814   2.661   0.998 -0.4608  0.8992 -0.1182
 7906SOL     OW35350   1.979   4.051   3.925 -0.5594  0.2409 -0.9352
 7906SOL    HW135351   2.045   3.996   3.966 -0.5138  1.3714  0.4994
 7906SOL    HW235352   2.037   4.112   3.879  0.2744 -0.4145 -0.7516
 7907SOL     OW35353   0.230   2.793   8.120  0.0792 -0.4043  0.0315
 7907SOL    HW135354   0.313   2.784   8.166  0.4603 -0.9608 -0.7589
 7907SOL    HW235355   0.241   2.724   8.055 -1.0978  0.2275 -0.8433
 7908SOL     OW35356   1.768   4.003   7.346 -0.2420 -0.3644 -0.2091
 7908SOL    HW135357   1.795   4.008   7.438  2.4442 -1.7794 -0.9250
 7908SOL    HW235358   1.774   3.908   7.334 -0.0501 -0.3657 -0.1174
 7909SOL     OW35359   3.473   1.078   6.565 -0.3314 -0.0235  0.0787
 7909SOL    HW135360   3.545   1.126   6.604  0.3108 -0.4073 -0.6418
 7909SOL    HW235361   3.511   1.026   6.494  1.6608  0.0382  1.1216
 7910SOL     OW35362   2.970   4.214   5.087 -0.3535 -0.3618 -0.7722
 7910SOL    HW135363   2.893   4.158   5.093 -2.3070  2.4025  0.1363
 7910SOL    HW235364   3.036   4.145   5.095  0.2062  0.0976 -1.3987
 7911SOL     OW35365   2.809   3.676   7.982 -0.3901  0.1769 -0.0355
 7911SOL    HW135366   2.809   3.771   7.976 -0.4657  0.1346 -0.7725
 7911SOL    HW235367   2.891   3.663   7.933 -0.0309  0.3626  0.5200
 7912SOL     OW35368   2.041   2.079   7.305 -0.0266 -0.2159  0.7723
 7912SOL    HW135369   2.134   2.056   7.309 -0.0590 -0.7947 -1.7820
 7912SOL    HW235370   2.007   1.990   7.314  0.6029 -0.7769 -2.1934
 7913SOL     OW35371   4.095   2.051   4.353 -0.5181 -0.2463  0.0004
 7913SOL    HW135372   4.057   1.970   4.320  1.4351 -1.2968  0.3257
 7913SOL    HW235373   4.159   2.069   4.284 -1.3634  0.1484 -0.6842
 7914SOL     OW35374   3.031   3.199  14.219 -0.0496 -0.1208 -0.0988
 7914SOL    HW135375   3.050   3.222  14.128 -1.4407  0.8108 -0.1506
 7914SOL    HW235376   2.945   3.239  14.231 -0.4503 -0.6294 -1.3261
 7915SOL     OW35377   2.798   3.038   5.008 -0.1033 -0.0131  1.0991
 7915SOL    HW135378   2.888   3.013   4.992 -0.5306 -0.3981 -0.6291
 7915SOL    HW235379   2.776   2.978   5.080  0.6691  0.5075  1.7629
 7916SOL     OW35380   3.837   0.685   7.389  0.5738  0.4860 -0.0211
 7916SOL    HW135381   3.876   0.601   7.411 -1.0077  0.5292  2.9341
 7916SOL    HW235382   3.889   0.749   7.438 -0.7858  2.2453 -0.8568
 7917SOL     OW35383   4.012   2.899   8.226  0.3483  0.5492 -0.0417
 7917SOL    HW135384   3.969   2.877   8.143  0.9442  0.1063 -0.2367
 7917SOL    HW235385   3.952   2.968   8.253 -0.3233  0.9095 -2.4184
 7918SOL     OW35386   2.591   0.767  11.896 -0.2917  0.5821 -0.1961
 7918SOL    HW135387   2.667   0.804  11.942  0.2217  0.0222 -0.5985
 7918SOL    HW235388   2.632   0.708  11.833 -0.8357 -0.6690  0.6210
 7919SOL     OW35389   2.713   0.653   2.818  0.2726  0.1278  0.1140
 7919SOL    HW135390   2.705   0.574   2.764 -0.0733  0.0639  0.2609
 7919SOL    HW235391   2.652   0.713   2.774  0.3420 -1.1272 -1.7199
 7920SOL     OW35392   3.857   1.274   8.038  0.3005  0.5829  0.2141
 7920SOL    HW135393   3.815   1.197   7.999 -0.7346  1.4545 -0.3836
 7920SOL    HW235394   3.928   1.237   8.090  0.5891  2.4530  1.1486
 7921SOL     OW35395   2.534   3.308   5.634 -0.3312  0.0446  0.4303
 7921SOL    HW135396   2.500   3.396   5.651  4.1638  2.1003 -1.2927
 7921SOL    HW235397   2.571   3.306   5.546 -0.0580  0.9793  0.5187
 7922SOL     OW35398   3.582   0.922  13.669  0.0843  0.7165 -0.5554
 7922SOL    HW135399   3.524   0.981  13.621 -2.4926 -0.9729  0.4917
 7922SOL    HW235400   3.553   0.837  13.638 -1.6063  1.2995 -0.5538
 7923SOL     OW35401   0.780   4.606   5.486 -0.2631  0.3619 -0.0876
 7923SOL    HW135402   0.739   4.692   5.496  1.4891  1.2841 -0.8765
 7923SOL    HW235403   0.728   4.580   5.411  0.2873 -1.5689  0.2123
 7924SOL     OW35404   0.691   2.108   9.568 -0.4381  0.5808 -0.1485
 7924SOL    HW135405   0.689   2.047   9.494  0.5289  1.4125 -0.8612
 7924SOL    HW235406   0.780   2.094   9.600 -0.1961  0.5624 -0.8431
 7925SOL     OW35407   2.317   2.640   5.319 -0.0435  0.2925  0.0027
 7925SOL    HW135408   2.336   2.548   5.299  0.6430  0.0487  1.8007
 7925SOL    HW235409   2.382   2.686   5.265  0.3764 -0.2579  0.0400
 7926SOL     OW35410   2.115   4.419   3.790  0.4431 -0.1333 -0.1591
 7926SOL    HW135411   2.043   4.428   3.728  1.8016  0.0622 -1.7300
 7926SOL    HW235412   2.151   4.334   3.765  1.3751  0.1054  0.3613
 7927SOL     OW35413   0.588   4.273   0.436 -0.0192  0.2763  0.0733
 7927SOL    HW135414   0.666   4.232   0.475  1.0286  2.3021  0.0982
 7927SOL    HW235415   0.530   4.266   0.512 -2.6307  0.5863 -1.9049
 7928SOL     OW35416   0.705   2.928   3.888  0.2548 -0.2363  0.3471
 7928SOL    HW135417   0.658   3.009   3.903  0.5431  0.0066 -0.0739
 7928SOL    HW235418   0.728   2.918   3.980  0.2381  3.5884  0.7604
 7929SOL     OW35419   3.345   1.909   2.418 -0.2906  0.4697 -0.0224
 7929SOL    HW135420   3.295   1.840   2.464 -2.2753  0.6979 -1.8437
 7929SOL    HW235421   3.378   1.957   2.493  1.4686 -2.3494  1.0276
 7930SOL     OW35422   4.470   3.864   2.733  0.3180  0.6095  0.1359
 7930SOL    HW135423   4.419   3.915   2.670  0.3594  1.5047  0.8334
 7930SOL    HW235424   4.524   3.806   2.679  0.4469  0.6648  0.2073
 7931SOL     OW35425   0.591   3.089   4.959  0.0444 -0.5400  0.0108
 7931SOL    HW135426   0.522   3.027   4.934 -0.5157 -0.2450  0.8295
 7931SOL    HW235427   0.651   3.085   4.885  0.2649 -0.2099  0.1737
 7932SOL     OW35428   1.443   3.730   2.776 -0.2259 -0.0658  0.0912
 7932SOL    HW135429   1.379   3.757   2.710  0.3465 -2.5143 -1.4669
 7932SOL    HW235430   1.425   3.638   2.795  0.7609 -0.3444 -0.3059
 7933SOL     OW35431   2.926   1.344   4.664 -0.1938  0.4859 -0.0370
 7933SOL    HW135432   2.977   1.270   4.696  1.0871  1.6926  0.6860
 7933SOL    HW235433   2.998   1.395   4.627  0.3671 -0.1684  0.1410
 7934SOL     OW35434   4.024   4.559   2.423  0.5248  0.5010  0.1357
 7934SOL    HW135435   3.966   4.635   2.431 -0.0598  0.3237 -2.6743
 7934SOL    HW235436   4.089   4.597   2.365 -0.3761  2.8830  0.6677
 7935SOL     OW35437   0.808   3.929   9.967  0.5111 -0.2831  0.5094
 7935SOL    HW135438   0.877   3.945   9.903 -2.0440 -0.4743 -2.3457
 7935SOL    HW235439   0.814   4.005  10.024 -1.3704 -0.6965  1.2596
 7936SOL     OW35440   2.779   0.497  16.387  0.3664 -0.5699 -0.3737
 7936SOL    HW135441   2.802   0.411  16.351 -2.7235 -1.2129 -0.8560
 7936SOL    HW235442   2.804   0.560  16.320 -2.0770  1.6169  0.7604
 7937SOL     OW35443   4.194   1.195   7.761  0.1418  0.5186 -0.0555
 7937SOL    HW135444   4.135   1.120   7.753  0.5181 -0.0734  2.6496
 7937SOL    HW235445   4.263   1.151   7.812 -1.7886 -3.5060 -0.9133
 7938SOL     OW35446   2.768   1.604   2.248  0.2830 -0.2532  0.4289
 7938SOL    HW135447   2.790   1.511   2.234  0.9392  0.0005 -0.2341
 7938SOL    HW235448   2.855   1.629   2.279 -0.3218  1.9940  0.3104
 7939SOL     OW35449   4.024   2.061   4.609 -0.1697 -0.2278  0.1235
 7939SOL    HW135450   4.046   2.073   4.517  1.8422 -1.6449  0.4303
 7939SOL    HW235451   3.957   1.996   4.586  1.2643 -1.2830 -1.0242
 7940SOL     OW35452   1.527   2.762   7.559  0.5018 -0.5481 -0.4123
 7940SOL    HW135453   1.617   2.734   7.543  1.2488  0.4786  2.0248
 7940SOL    HW235454   1.489   2.723   7.480 -0.1144 -1.1492  0.1772
 7941SOL     OW35455   3.194   0.828   8.871  0.5060 -0.1411  0.5881
 7941SOL    HW135456   3.147   0.867   8.797 -0.6215 -1.1082  0.7902
 7941SOL    HW235457   3.271   0.884   8.881 -0.8442  1.6704  0.8856
 7942SOL     OW35458   0.622   2.896  12.712  0.3257 -0.4405  0.0203
 7942SOL    HW135459   0.535   2.869  12.741 -0.2885 -0.3453 -1.7418
 7942SOL    HW235460   0.593   2.965  12.652  0.6849  0.7295  1.2003
 7943SOL     OW35461   1.286   0.662   5.886  0.2494  0.1155  0.2737
 7943SOL    HW135462   1.368   0.701   5.918  0.5032 -0.5568  0.4466
 7943SOL    HW235463   1.252   0.619   5.964  3.1988  0.8125  1.9639
 7944SOL     OW35464   0.325   3.291   3.801 -0.4387  0.3328  0.0653
 7944SOL    HW135465   0.265   3.228   3.840 -2.0200  2.7434  1.4986
 7944SOL    HW235466   0.371   3.241   3.733  1.6015 -0.0470  1.6974
 7945SOL     OW35467   2.352   2.332   6.919 -0.3469  0.2562  0.4687
 7945SOL    HW135468   2.277   2.311   6.862 -0.7145 -2.2777  1.8815
 7945SOL    HW235469   2.420   2.281   6.875  0.0740 -0.1819  1.6199
 7946SOL     OW35470   0.484   1.917   7.695  0.2992  0.2405  0.0829
 7946SOL    HW135471   0.399   1.884   7.724 -0.5268  0.9756 -1.4415
 7946SOL    HW235472   0.505   1.986   7.757 -0.1743  0.5532 -0.1040
 7947SOL     OW35473   3.993   0.507   0.879 -0.0173 -0.1020 -0.8403
 7947SOL    HW135474   4.087   0.490   0.890 -0.4995 -1.6283  0.8252
 7947SOL    HW235475   3.963   0.514   0.970 -2.5511 -4.9462 -1.3125
 7948SOL     OW35476   0.116   1.786  17.204 -0.8259  0.8602 -0.2848
 7948SOL    HW135477   0.137   1.715  17.265  1.5751  1.1104 -0.8206
 7948SOL    HW235478   0.103   1.726  17.130 -0.8880  1.8329 -1.0522
 7949SOL     OW35479   1.001   0.657   7.958 -0.1784  1.1482 -0.5337
 7949SOL    HW135480   1.009   0.614   7.873 -1.2265 -0.4413  0.1641
 7949SOL    HW235481   1.061   0.596   8.001 -1.2488  0.2894 -0.2582
 7950SOL     OW35482   1.891   3.653   4.461 -0.3076 -0.1176 -0.8232
 7950SOL    HW135483   1.979   3.615   4.455 -0.0166  0.5673 -0.8547
 7950SOL    HW235484   1.913   3.713   4.533  1.5951 -0.0454 -1.4568
 7951SOL     OW35485   3.370   3.354   0.347 -0.2231  1.0959  0.3259
 7951SOL    HW135486   3.415   3.434   0.372 -0.2690  0.8110  1.3088
 7951SOL    HW235487   3.449   3.301   0.343  0.4129  2.0307  0.5067
 7952SOL     OW35488   4.442   0.259   2.704 -0.2735  0.1476  0.6670
 7952SOL    HW135489   4.406   0.245   2.616  0.2728  1.2277  0.2674
 7952SOL    HW235490   4.362   0.251   2.756  0.4219  2.3780  2.0691
 7953SOL     OW35491   1.484   0.185  17.084 -0.2363 -0.3889  0.3609
 7953SOL    HW135492   1.472   0.279  17.093 -0.4896 -0.5552  1.8451
 7953SOL    HW235493   1.577   0.176  17.065 -0.2505 -1.0449  0.6010
 7954SOL     OW35494   0.830   2.231   2.132  1.0357 -0.9031 -0.1494
 7954SOL    HW135495   0.750   2.199   2.091  0.3845 -0.8327  1.0662
 7954SOL    HW235496   0.799   2.269   2.214 -1.1307 -1.1825 -0.8426
 7955SOL     OW35497   0.871   0.786   7.172  0.8542 -0.0408  0.1874
 7955SOL    HW135498   0.777   0.766   7.167  0.5297  1.3890  0.3764
 7955SOL    HW235499   0.883   0.813   7.263 -0.6142  1.3533 -0.0316
 7956SOL     OW35500   4.328   1.058   8.963 -0.0235 -0.0613 -0.0174
 7956SOL    HW135501   4.294   1.071   8.875  2.7251  1.1399 -0.8884
 7956SOL    HW235502   4.270   0.989   8.998 -0.3133 -0.1373 -0.6472
 7957SOL     OW35503   1.303   3.563   6.737 -0.3534 -0.0349 -0.1315
 7957SOL    HW135504   1.393   3.551   6.705 -0.8027  1.8924 -2.1381
 7957SOL    HW235505   1.257   3.549   6.654 -1.8615  0.2754  0.6442
 7958SOL     OW35506   4.497   2.728  13.958  0.1478  0.2785  0.3709
 7958SOL    HW135507   4.428   2.742  13.893 -1.5967  1.2074  2.4286
 7958SOL    HW235508   4.575   2.778  13.930  1.2361 -0.2104  2.5729
 7959SOL     OW35509   2.832   2.768   6.620 -0.5921  0.2306 -0.0935
 7959SOL    HW135510   2.769   2.708   6.579 -2.4907  1.6590  0.7687
 7959SOL    HW235511   2.770   2.823   6.667  0.4436  1.6012 -0.3631
 7960SOL     OW35512   2.038   1.376   8.633  0.6809 -0.2654 -0.3042
 7960SOL    HW135513   2.102   1.445   8.650 -0.2102  0.2543  0.8740
 7960SOL    HW235514   1.973   1.428   8.588 -0.0199  1.8284  3.1298
 7961SOL     OW35515   0.061   3.119   3.759  0.4475 -0.3790  0.0787
 7961SOL    HW135516   0.095   3.185   3.700  2.0452 -1.0733  0.2373
 7961SOL    HW235517   4.724   3.171   3.790  0.7987 -0.4885  1.1026
 7962SOL     OW35518   2.730   0.282   1.180  0.7903  0.1635  0.0471
 7962SOL    HW135519   2.731   0.203   1.233  0.8723 -0.2619 -0.5894
 7962SOL    HW235520   2.755   0.356   1.236  1.2459  0.9099 -1.1441
 7963SOL     OW35521   1.527   4.634   7.098  0.4749 -0.1224 -0.0247
 7963SOL    HW135522   1.440   4.599   7.118  0.5723 -0.2284  0.2165
 7963SOL    HW235523   1.566   4.644   7.184 -0.8014 -1.3083  0.7098
 7964SOL     OW35524   3.847   4.525   7.740 -0.1989  0.4623 -0.2914
 7964SOL    HW135525   3.778   4.579   7.702 -1.5804 -0.8210  0.3808
 7964SOL    HW235526   3.785   4.471   7.789 -0.2498  0.3080 -0.5243
 7965SOL     OW35527   3.756   3.047   6.215 -0.3525  0.0467  0.1463
 7965SOL    HW135528   3.754   2.997   6.133 -0.5620 -0.3168  0.3745
 7965SOL    HW235529   3.745   3.139   6.191 -2.2625 -1.0595 -3.2807
 7966SOL     OW35530   1.246   4.159  10.115 -0.4217 -0.0667  0.1543
 7966SOL    HW135531   1.282   4.125  10.197 -0.3656  0.9298  0.5422
 7966SOL    HW235532   1.252   4.253  10.134  0.5137 -0.4682  1.8530
 7967SOL     OW35533   0.725   0.442   8.510  0.0042 -0.1430  0.1235
 7967SOL    HW135534   0.791   0.441   8.580  1.2522  1.9922 -1.0405
 7967SOL    HW235535   0.704   0.534   8.521 -0.5637 -0.2698  0.0933
 7968SOL     OW35536   1.618   1.015   9.321  0.2613 -0.1498 -0.7489
 7968SOL    HW135537   1.611   0.948   9.253 -0.2022 -0.7027 -0.1571
 7968SOL    HW235538   1.528   1.042   9.334  0.0816 -1.1286  0.0047
 7969SOL     OW35539   1.681   3.288  17.502 -0.5597 -0.0954  0.0036
 7969SOL    HW135540   1.634   3.366  17.474 -0.2123  0.0413 -0.1967
 7969SOL    HW235541   1.688   3.237  17.421  1.5412 -0.5019  0.4442
 7970SOL     OW35542   2.400   4.311   3.029  0.0470  0.1947 -0.5612
 7970SOL    HW135543   2.485   4.267   3.027  0.0001  0.0920 -0.2859
 7970SOL    HW235544   2.348   4.231   3.042  0.3054 -0.3623 -3.0044
 7971SOL     OW35545   1.241   0.969   4.863  0.0764 -0.0729  0.3434
 7971SOL    HW135546   1.222   1.043   4.921  2.2787  0.1991  0.7307
 7971SOL    HW235547   1.166   0.974   4.804  0.7644  1.9210 -0.3899
 7972SOL     OW35548   1.586   1.352   2.626  0.0469  0.3772  0.5063
 7972SOL    HW135549   1.675   1.364   2.593 -0.0112 -0.5974 -0.0103
 7972SOL    HW235550   1.576   1.424   2.687  2.9234  1.9961 -0.9225
 7973SOL     OW35551   2.073   4.344   7.961  0.3753  0.4883 -0.2805
 7973SOL    HW135552   2.062   4.420   8.017 -0.5388 -0.1564  0.4119
 7973SOL    HW235553   2.041   4.271   8.015  1.9211 -1.0380 -1.4161
 7974SOL     OW35554   1.783   4.184   7.910 -0.5201 -0.2394  0.2989
 7974SOL    HW135555   1.696   4.188   7.871 -0.0492 -0.9996 -0.8464
 7974SOL    HW235556   1.778   4.257   7.971  2.6589  0.2811 -0.0631
 7975SOL     OW35557   0.747   3.291   5.991  0.5343  0.2039 -0.4910
 7975SOL    HW135558   0.805   3.314   6.063  1.3850 -1.7624 -0.5633
 7975SOL    HW235559   0.791   3.212   5.960  0.8563 -0.4155  1.5522
 7976SOL     OW35560   4.663   2.700   1.934  0.0929  0.2897  0.9212
 7976SOL    HW135561   4.680   2.628   1.873  0.4378  1.4343 -0.3112
 7976SOL    HW235562   4.567   2.703   1.937 -0.0206 -1.3859 -0.8299
 7977SOL     OW35563   2.047   2.096   4.955 -0.4818 -0.0648  0.1652
 7977SOL    HW135564   2.053   2.137   4.869 -0.8574 -1.8045 -0.6816
 7977SOL    HW235565   2.073   2.008   4.927  0.1045  0.1364  0.0647
 7978SOL     OW35566   2.984   1.330   8.674  0.0856 -0.4609 -0.2449
 7978SOL    HW135567   2.942   1.246   8.653 -0.8470  0.0338 -0.3827
 7978SOL    HW235568   2.947   1.381   8.602 -4.2065  1.1248  3.0502
 7979SOL     OW35569   4.304   1.888   5.310 -0.3820  0.2775  0.0761
 7979SOL    HW135570   4.396   1.902   5.333 -0.5071  0.5914  0.3813
 7979SOL    HW235571   4.256   1.935   5.378 -1.8693  2.3276 -2.4434
 7980SOL     OW35572   3.702   0.683   8.326 -0.0831 -0.1162  0.2799
 7980SOL    HW135573   3.609   0.661   8.335  0.3537 -1.9468  0.3331
 7980SOL    HW235574   3.734   0.592   8.330 -0.1401 -0.1704 -0.3794
 7981SOL     OW35575   3.320   2.669   5.767 -0.3349  0.7829  0.0109
 7981SOL    HW135576   3.414   2.664   5.782 -0.4493  0.6159  0.6610
 7981SOL    HW235577   3.317   2.734   5.697 -1.6138  2.7924  1.9187
 7982SOL     OW35578   2.179   0.964   8.965 -0.0450 -0.3090  0.1197
 7982SOL    HW135579   2.138   1.051   8.971  1.5147  0.3807  0.8749
 7982SOL    HW235580   2.171   0.929   9.054  1.8316  0.1039  0.4608
 7983SOL     OW35581   0.840   4.295   9.031 -0.1488  0.3531 -0.3921
 7983SOL    HW135582   0.819   4.389   9.026 -2.9362 -0.1752  1.2571
 7983SOL    HW235583   0.772   4.260   9.089 -0.2263  0.3028 -0.5130
 7984SOL     OW35584   0.713   2.814   4.602  0.2252 -0.8270 -0.9079
 7984SOL    HW135585   0.709   2.879   4.672 -1.7589 -0.2945 -1.5024
 7984SOL    HW235586   0.636   2.829   4.546 -0.5189  1.0245  0.6417
 7985SOL     OW35587   4.313   4.283   8.267 -0.3216 -0.0786  0.1964
 7985SOL    HW135588   4.256   4.359   8.269  0.1186  0.3064 -1.5477
 7985SOL    HW235589   4.342   4.275   8.358  0.8090 -2.7810 -0.3899
 7986SOL     OW35590   1.029   2.970   7.045  0.9917 -0.1049  0.0344
 7986SOL    HW135591   1.020   2.886   7.000 -2.1570  0.5572 -0.5660
 7986SOL    HW235592   1.056   3.012   6.963 -2.1054 -1.8721 -1.9139
 7987SOL     OW35593   0.970   0.503   6.666 -0.1574  0.3676 -0.5002
 7987SOL    HW135594   0.993   0.411   6.680 -0.4311  0.2039 -1.1039
 7987SOL    HW235595   0.979   0.503   6.571  1.1312 -0.9180 -0.3743
 7988SOL     OW35596   0.450   3.827   8.785  0.2760  0.8060  0.0755
 7988SOL    HW135597   0.449   3.868   8.698  0.6443 -0.9778 -0.7726
 7988SOL    HW235598   0.393   3.754   8.759  0.6188  1.0519 -1.3808
 7989SOL     OW35599   3.112   3.943   3.069 -0.0565 -0.3434 -0.0916
 7989SOL    HW135600   3.184   4.002   3.088  2.0633 -2.7353 -0.6447
 7989SOL    HW235601   3.156   3.859   3.055  0.4950 -0.5062  2.6710
 7990SOL     OW35602   1.728   0.940  15.045 -0.8702 -0.0478  0.0034
 7990SOL    HW135603   1.786   0.922  15.119 -3.2661 -3.1235  1.1321
 7990SOL    HW235604   1.770   1.018  15.010  0.0704 -0.4229  0.3138
 7991SOL     OW35605   0.066   4.067   4.088 -0.6780  0.0244 -0.1438
 7991SOL    HW135606   0.092   4.038   4.175  0.3134 -2.1904 -1.1753
 7991SOL    HW235607   0.095   4.157   4.101  0.5881 -0.3440 -0.4432
 7992SOL     OW35608   0.728   3.789   6.944 -0.1691 -0.1490 -0.1652
 7992SOL    HW135609   0.753   3.780   7.036 -1.8842 -0.3482  0.2671
 7992SOL    HW235610   0.689   3.876   6.937  0.0634 -0.0680 -0.4448
 7993SOL     OW35611   1.484   1.700   8.522  0.2067  0.4897  0.0622
 7993SOL    HW135612   1.441   1.633   8.576 -1.0556 -0.0201 -1.5871
 7993SOL    HW235613   1.413   1.749   8.482  1.0585  3.0789  1.7665
 7994SOL     OW35614   0.472   3.478   4.027  0.2370  0.6240  0.1742
 7994SOL    HW135615   0.504   3.430   3.950  1.3654  0.6024  0.6500
 7994SOL    HW235616   0.545   3.477   4.089  0.8490 -1.0681 -0.5586
 7995SOL     OW35617   1.541   1.351   9.469 -0.5255 -0.2161 -0.0477
 7995SOL    HW135618   1.491   1.309   9.538 -1.3504 -1.0849 -1.1731
 7995SOL    HW235619   1.489   1.431   9.482 -0.5191 -0.8542  3.8879
 7996SOL     OW35620   3.354   3.218   4.230  0.1752  0.0819  0.2295
 7996SOL    HW135621   3.336   3.211   4.137  1.3898  0.3078 -0.0244
 7996SOL    HW235622   3.333   3.309   4.252 -1.9839  0.2759 -2.7566
 7997SOL     OW35623   1.913   0.517   6.823  0.8213 -0.2755  0.2532
 7997SOL    HW135624   1.944   0.597   6.779 -0.3511  0.2283  0.3422
 7997SOL    HW235625   1.993   0.471   6.849  1.3072 -0.0412 -0.8194
 7998SOL     OW35626   0.570   3.691  10.872 -0.0539 -0.0669 -0.0241
 7998SOL    HW135627   0.643   3.664  10.928  0.0142 -0.0614 -0.1095
 7998SOL    HW235628   0.527   3.608  10.855 -1.0224  0.4902 -0.3247
 7999SOL     OW35629   2.127   2.128   2.496 -0.2630 -0.3969  0.2879
 7999SOL    HW135630   2.079   2.065   2.443 -1.6562 -1.1066  2.3986
 7999SOL    HW235631   2.075   2.205   2.475  3.4447  1.9735 -0.2695
 8000SOL     OW35632   3.540   1.900   6.785  0.2745  0.2711 -0.1791
 8000SOL    HW135633   3.501   1.962   6.723 -1.4815 -1.4509 -0.8000
 8000SOL    HW235634   3.627   1.893   6.747  1.4742  0.8892  2.4891
 8001SOL     OW35635   1.763   1.647  16.020 -0.3995  0.4053  0.1703
 8001SOL    HW135636   1.807   1.644  15.936  0.3920 -0.5597  0.6192
 8001SOL    HW235637   1.809   1.581  16.072 -0.0574  0.7409  0.2985
 8002SOL     OW35638   3.489   0.998   0.222  0.5094  0.2950  0.1824
 8002SOL    HW135639   3.511   0.907   0.243  1.8029  0.0724 -2.1580
 8002SOL    HW235640   3.397   0.990   0.195 -0.0302  0.8902  1.8640
 8003SOL     OW35641   4.608   3.160  15.439  0.3985  0.3262  0.0150
 8003SOL    HW135642   4.669   3.211  15.493  0.3864 -0.8771  1.1715
 8003SOL    HW235643   4.531   3.217  15.445 -0.8213 -1.4518  0.9413
 8004SOL     OW35644   1.133   1.717   8.867 -0.5029  0.2249 -0.8340
 8004SOL    HW135645   1.098   1.640   8.912  0.0377  1.1464  1.1903
 8004SOL    HW235646   1.122   1.704   8.773  0.4947 -1.6868 -0.7000
 8005SOL     OW35647   0.536   2.706   3.988 -0.0434 -0.1432 -1.0152
 8005SOL    HW135648   0.585   2.624   3.983 -0.9522 -0.7046 -0.6740
 8005SOL    HW235649   0.592   2.767   3.940  0.2984 -1.2165 -1.9751
 8006SOL     OW35650   3.436   0.546  12.305 -0.6951 -0.6060  0.0838
 8006SOL    HW135651   3.406   0.634  12.281  2.8131  0.3843 -0.6684
 8006SOL    HW235652   3.531   0.557  12.296 -0.7190 -0.3641  0.1393
 8007SOL     OW35653   2.376   2.530   4.407  0.0786 -0.0917  0.2154
 8007SOL    HW135654   2.330   2.584   4.343  1.3658 -0.7772 -1.2779
 8007SOL    HW235655   2.435   2.595   4.445 -0.7097  1.4742 -1.2649
 8008SOL     OW35656   4.506   1.974   6.092  0.5565  0.3838 -0.1554
 8008SOL    HW135657   4.545   2.058   6.117  1.3977  0.5852 -2.1896
 8008SOL    HW235658   4.578   1.925   6.054 -1.4605 -0.4672 -2.9186
 8009SOL     OW35659   0.858   4.069  13.430  0.4060  0.3828 -0.0844
 8009SOL    HW135660   0.839   4.092  13.339 -2.4684  0.0887  0.4336
 8009SOL    HW235661   0.932   4.129  13.437 -1.5848  3.0073 -1.6891
 8010SOL     OW35662   3.444   3.082  16.495  0.1997  0.5699  0.5349
 8010SOL    HW135663   3.511   3.129  16.544  1.5221 -1.7414  0.9685
 8010SOL    HW235664   3.455   2.995  16.533  1.2433  0.4751  0.0176
 8011SOL     OW35665   4.041   3.018  10.642 -0.2796 -0.1169 -0.0296
 8011SOL    HW135666   4.098   3.066  10.703  0.4113 -1.8353  0.6897
 8011SOL    HW235667   4.111   3.006  10.577 -1.7839 -3.3540 -1.0569
 8012SOL     OW35668   2.621   0.915   7.219  0.0850 -0.6437 -0.0766
 8012SOL    HW135669   2.599   0.866   7.299  2.4609 -2.9925 -0.8379
 8012SOL    HW235670   2.535   0.917   7.178 -1.4927 -1.1786  3.2483
 8013SOL     OW35671   3.684   1.650   7.927 -0.0014  0.3791 -0.9587
 8013SOL    HW135672   3.694   1.591   8.002 -1.9215 -0.7942 -1.6289
 8013SOL    HW235673   3.599   1.691   7.938 -0.9060 -1.1177 -2.2945
 8014SOL     OW35674   0.723   2.218  14.651  0.4171 -0.1984  0.1558
 8014SOL    HW135675   0.674   2.190  14.573 -0.9947  1.7345  0.3365
 8014SOL    HW235676   0.750   2.133  14.685 -0.9446 -1.3073 -1.5183
 8015SOL     OW35677   1.579   3.498  15.340  0.3878 -0.8243 -0.4234
 8015SOL    HW135678   1.560   3.473  15.430 -1.6143  1.9440 -0.0897
 8015SOL    HW235679   1.491   3.522  15.311  0.5908  0.6730  0.1794
 8016SOL     OW35680   2.972   2.202   6.455 -0.3920 -0.4956 -0.3230
 8016SOL    HW135681   2.985   2.233   6.544  0.3177 -1.3823 -0.1182
 8016SOL    HW235682   3.055   2.223   6.413 -0.3076  2.2787  1.2960
 8017SOL     OW35683   1.890   3.644   2.768 -0.7001  0.8787  0.2980
 8017SOL    HW135684   1.965   3.584   2.761 -0.4013  1.3099 -0.2090
 8017SOL    HW235685   1.821   3.584   2.740  0.3835 -0.0290 -0.4949
 8018SOL     OW35686   1.179   2.996   7.823  0.2876 -0.0952 -0.2575
 8018SOL    HW135687   1.175   2.951   7.739 -1.3970 -0.6549  0.1362
 8018SOL    HW235688   1.246   2.944   7.868 -1.8816 -1.8700  0.9112
 8019SOL     OW35689   1.962   3.486   1.963  0.4104 -0.1060  0.7156
 8019SOL    HW135690   1.980   3.399   1.999  1.9816 -0.4926 -1.0276
 8019SOL    HW235691   1.868   3.498   1.973  0.5510  2.0209 -0.4377
 8020SOL     OW35692   2.639   1.513   0.791  0.0003 -0.7318  0.0801
 8020SOL    HW135693   2.678   1.436   0.833  0.6723  0.9181  2.5495
 8020SOL    HW235694   2.576   1.470   0.734  0.7943  0.5772 -1.7924
 8021SOL     OW35695   4.328   3.395   4.045  0.1940 -0.1149 -0.5528
 8021SOL    HW135696   4.313   3.480   4.003  1.4865  0.1442 -0.4717
 8021SOL    HW235697   4.285   3.400   4.130  0.9029 -0.5663 -0.1742
 8022SOL     OW35698   0.621   4.136   3.154  0.2151  0.2531  0.3509
 8022SOL    HW135699   0.623   4.042   3.173 -0.2101  0.0381 -0.6558
 8022SOL    HW235700   0.535   4.157   3.117  0.8477 -0.8227 -1.7474
 8023SOL     OW35701   2.351   4.270  14.753 -0.1691  0.5018  0.3410
 8023SOL    HW135702   2.271   4.275  14.804 -1.8412 -0.5544 -2.1512
 8023SOL    HW235703   2.332   4.199  14.692 -2.3625  1.1139  0.3331
 8024SOL     OW35704   1.990   2.618   6.978 -0.1805  0.4676  0.1439
 8024SOL    HW135705   2.006   2.686   6.912 -1.9448  2.5786  1.9101
 8024SOL    HW235706   2.001   2.546   6.916 -0.2869  1.6975 -1.3008
 8025SOL     OW35707   0.650   1.255   6.125 -0.0760  0.2268 -0.0234
 8025SOL    HW135708   0.647   1.325   6.059 -0.0396 -0.1849 -0.4611
 8025SOL    HW235709   0.692   1.181   6.081  0.7712  1.2933 -1.0030
 8026SOL     OW35710   4.109   3.882   1.209  0.0506  0.2702  0.3241
 8026SOL    HW135711   4.166   3.880   1.132  0.4080  2.2334  0.5295
 8026SOL    HW235712   4.042   3.825   1.173  1.1305 -1.4780  1.0846
 8027SOL     OW35713   1.169   2.104   7.684 -0.2791 -0.1856  0.1410
 8027SOL    HW135714   1.241   2.167   7.676 -0.3565  0.0049  1.0527
 8027SOL    HW235715   1.201   2.019   7.713  2.0884  1.3110  1.9268
 8028SOL     OW35716   4.612   2.954   2.103  0.1747  0.2489  0.2037
 8028SOL    HW135717   4.525   2.993   2.112  0.4361  0.2929  2.4827
 8028SOL    HW235718   4.626   2.965   2.009 -0.1739 -0.4520  0.0718
 8029SOL     OW35719   1.299   1.355   1.343 -0.1075 -0.3432 -1.1127
 8029SOL    HW135720   1.317   1.269   1.306 -2.9433 -2.0579  1.5306
 8029SOL    HW235721   1.209   1.381   1.323 -0.9158 -1.4261  1.1639
 8030SOL     OW35722   1.639   0.424   7.237  0.1346  0.5379  0.2555
 8030SOL    HW135723   1.560   0.462   7.276  0.3292  1.5293 -0.3060
 8030SOL    HW235724   1.592   0.401   7.157 -2.5682  1.0151  1.6957
 8031SOL     OW35725   0.859   4.068   6.438 -0.1865  0.0497  0.6326
 8031SOL    HW135726   0.790   4.133   6.452  2.1255  2.7722 -0.4448
 8031SOL    HW235727   0.846   4.000   6.504  0.5603  0.9563  1.7127
 8032SOL     OW35728   0.140   3.582   8.428  0.1904  0.0882  0.3889
 8032SOL    HW135729   0.053   3.597   8.466 -0.9180 -1.4895 -1.5240
 8032SOL    HW235730   0.155   3.675   8.412  1.1503  0.1875  1.8484
 8033SOL     OW35731   1.471   2.177   4.087  0.1585 -0.1779 -0.0276
 8033SOL    HW135732   1.417   2.246   4.125  1.6818  0.6513  0.6170
 8033SOL    HW235733   1.402   2.121   4.053  0.9492 -0.7460 -0.6941
 8034SOL     OW35734   3.570   3.190   5.906 -0.3909  0.1398 -0.6057
 8034SOL    HW135735   3.541   3.274   5.871 -0.3368 -0.1160 -1.2647
 8034SOL    HW235736   3.634   3.162   5.840 -0.7129 -2.1083  0.0347
 8035SOL     OW35737   0.052   0.378  11.742 -0.3772  0.5527 -0.1854
 8035SOL    HW135738   4.725   0.306  11.740  0.4750 -0.1800 -0.8888
 8035SOL    HW235739   0.023   0.421  11.822 -1.9897  0.5338 -0.7579
 8036SOL     OW35740   0.648   0.140  16.779 -0.1298 -0.7004  0.2906
 8036SOL    HW135741   0.697   0.114  16.700  1.2017 -1.8838  1.5156
 8036SOL    HW235742   0.644   0.060  16.831 -2.5121 -0.0120  1.1624
 8037SOL     OW35743   4.280   3.194  16.371  0.3476 -0.0851  0.0348
 8037SOL    HW135744   4.348   3.245  16.415 -0.8209  0.6795  0.9406
 8037SOL    HW235745   4.240   3.247  16.301  0.0241  0.1463  0.3980
 8038SOL     OW35746   0.041   2.577  15.765 -0.5766  0.7719 -0.1260
 8038SOL    HW135747   0.046   2.667  15.797 -1.7083  0.8880 -0.3104
 8038SOL    HW235748   4.697   2.545  15.806 -0.6701 -0.2157 -1.0636
 8039SOL     OW35749   4.225   3.991   5.967  0.1015  0.0957 -0.1853
 8039SOL    HW135750   4.311   4.028   5.950 -0.6316  2.0005  0.2228
 8039SOL    HW235751   4.213   3.946   5.883  1.8611  0.3381 -0.5586
 8040SOL     OW35752   2.556   0.932  12.300  0.2738  0.5408  0.5476
 8040SOL    HW135753   2.505   0.945  12.220  1.1670 -0.5645 -0.1876
 8040SOL    HW235754   2.491   0.958  12.366  0.7859 -0.2690  1.3733
 8041SOL     OW35755   2.741   0.841   5.090  0.1988  0.2696 -0.0789
 8041SOL    HW135756   2.670   0.825   5.153  1.8318  2.1698  2.2572
 8041SOL    HW235757   2.702   0.885   5.014 -0.1685 -2.4619 -1.4634
 8042SOL     OW35758   0.573   3.722   3.492  0.5164 -0.4878  0.0050
 8042SOL    HW135759   0.593   3.630   3.472  0.2717 -0.5382 -0.0116
 8042SOL    HW235760   0.499   3.740   3.435 -0.0530 -1.2642  0.4941
 8043SOL     OW35761   1.686   3.996  11.776 -0.0081  0.4814 -0.4108
 8043SOL    HW135762   1.763   3.981  11.721 -0.4451 -1.2561 -0.5493
 8043SOL    HW235763   1.672   4.086  11.750  1.0492  0.6811 -0.2826
 8044SOL     OW35764   1.821   2.246   4.809  0.1652 -0.4918  0.4787
 8044SOL    HW135765   1.764   2.318   4.782  1.2862  0.0439 -0.4641
 8044SOL    HW235766   1.781   2.216   4.891 -1.9969 -1.2649 -0.8332
 8045SOL     OW35767   3.195   0.540  10.276  0.0472 -0.3191  0.2696
 8045SOL    HW135768   3.235   0.602  10.336 -0.7691  0.2443  0.2360
 8045SOL    HW235769   3.136   0.498  10.339  0.7636  2.5324  2.8632
 8046SOL     OW35770   1.622   3.891  10.364  0.1736  0.1482  0.1484
 8046SOL    HW135771   1.545   3.836  10.347  0.1469  0.4543 -0.7399
 8046SOL    HW235772   1.587   3.968  10.409  1.1731  0.6259  0.1156
 8047SOL     OW35773   3.258   1.347   6.584 -0.0730 -0.1835  0.0554
 8047SOL    HW135774   3.323   1.418   6.585  3.1374 -3.1007 -0.7304
 8047SOL    HW235775   3.249   1.331   6.678 -0.5908  0.5855  0.1366
 8048SOL     OW35776   0.824   1.361   0.898 -0.7267 -0.5537  0.5583
 8048SOL    HW135777   0.789   1.429   0.955 -0.3192 -1.4332  1.8347
 8048SOL    HW235778   0.913   1.349   0.932 -0.9342  1.1486  1.6791
 8049SOL     OW35779   3.007   1.043  13.734  0.4171 -0.2253  0.0928
 8049SOL    HW135780   3.032   1.013  13.647  1.5226 -0.1857  0.3927
 8049SOL    HW235781   2.912   1.037  13.740  0.3175  0.5222 -0.6874
 8050SOL     OW35782   3.332   4.605   8.914  0.5983  0.3263  0.0313
 8050SOL    HW135783   3.412   4.553   8.907  0.5955  0.7239 -2.8413
 8050SOL    HW235784   3.354   4.646   8.998  1.7355 -0.5118  0.1498
 8051SOL     OW35785   2.559   1.540   5.862 -0.0437  0.1011 -0.5304
 8051SOL    HW135786   2.622   1.532   5.934 -0.7146  1.8297  0.2534
 8051SOL    HW235787   2.493   1.579   5.919  1.5877  1.4133  0.4619
 8052SOL     OW35788   4.182   0.730   2.048 -0.3127  0.3044 -0.3191
 8052SOL    HW135789   4.146   0.661   1.992 -2.1021 -0.7952  2.2146
 8052SOL    HW235790   4.270   0.703   2.075  0.4138  1.5946 -1.3711
 8053SOL     OW35791   2.445   4.147   8.532  0.7048  0.4233  0.2209
 8053SOL    HW135792   2.498   4.067   8.524 -0.2555 -0.1533 -0.4124
 8053SOL    HW235793   2.418   4.134   8.623 -3.4709 -2.3335 -1.4122
 8054SOL     OW35794   3.687   3.368   4.079 -0.0563  0.3617  1.5194
 8054SOL    HW135795   3.614   3.311   4.057  0.7985 -0.7948  1.6358
 8054SOL    HW235796   3.713   3.400   3.993  0.5830 -2.3364  0.6999
 8055SOL     OW35797   2.690   3.419   8.937 -0.0374  0.2492 -0.1963
 8055SOL    HW135798   2.674   3.366   9.015  1.4875  1.4736  0.9426
 8055SOL    HW235799   2.616   3.480   8.938 -0.1101  0.1598 -0.0352
 8056SOL     OW35800   4.367   3.792   4.219  0.0893  0.2433 -0.5806
 8056SOL    HW135801   4.342   3.854   4.150 -0.2156  0.0327 -0.6617
 8056SOL    HW235802   4.300   3.811   4.284  0.3879  0.6378 -0.3888
 8057SOL     OW35803   2.206   2.590   7.192 -0.4596  0.1270  0.1522
 8057SOL    HW135804   2.288   2.562   7.150  0.1365  0.6535  0.9507
 8057SOL    HW235805   2.147   2.601   7.118  1.0109  4.8837 -0.2913
 8058SOL     OW35806   2.292   2.611   0.446 -0.0657 -0.2476  0.3582
 8058SOL    HW135807   2.327   2.692   0.410 -1.1803  0.2067  0.2922
 8058SOL    HW235808   2.360   2.553   0.415 -0.2907 -1.3230  1.8578
 8059SOL     OW35809   3.433   1.360   8.162 -0.2116 -0.4742  0.6802
 8059SOL    HW135810   3.449   1.273   8.198  1.1374 -0.3162  0.4498
 8059SOL    HW235811   3.518   1.385   8.126 -0.4890  2.0369  1.7643
 8060SOL     OW35812   0.891   2.513   8.311 -0.0673  0.6778  1.0322
 8060SOL    HW135813   0.898   2.450   8.240 -0.2086 -0.5697  2.1291
 8060SOL    HW235814   0.887   2.450   8.382 -1.0809 -1.0023 -0.5301
 8061SOL     OW35815   4.629   0.315   7.565  0.2596  0.1246  0.5227
 8061SOL    HW135816   4.665   0.234   7.528  1.1089  0.8515 -0.2546
 8061SOL    HW235817   4.546   0.315   7.517  0.1200  1.0218  0.7632
 8062SOL     OW35818   1.215   1.497   5.109 -0.0214 -0.1769  0.5989
 8062SOL    HW135819   1.268   1.573   5.084 -1.5933  1.0324  0.9138
 8062SOL    HW235820   1.227   1.492   5.203  0.6652 -0.6655  0.4822
 8063SOL     OW35821   4.605   1.627  15.730  0.1470 -0.3179 -0.9867
 8063SOL    HW135822   4.627   1.712  15.769 -0.6783  0.4886 -2.2521
 8063SOL    HW235823   4.565   1.591  15.809 -0.7392  0.4775 -1.0675
 8064SOL     OW35824   0.070   1.816   7.246 -0.2425  0.1328  0.1836
 8064SOL    HW135825   0.064   1.910   7.232 -0.0110  0.0271 -0.6005
 8064SOL    HW235826   4.716   1.786   7.254 -0.0709 -0.3074  0.5049
 8065SOL     OW35827   4.248   1.532  16.421 -0.5683  0.1966  0.4201
 8065SOL    HW135828   4.256   1.603  16.484  1.5509  2.1270 -2.0134
 8065SOL    HW235829   4.306   1.464  16.454 -1.2529  0.3023  1.8350
 8066SOL     OW35830   0.703   2.513   1.619 -0.1883  0.3418  0.4921
 8066SOL    HW135831   0.695   2.480   1.530  1.4287 -0.9153  0.8250
 8066SOL    HW235832   0.717   2.607   1.604  0.5752  0.3460  1.2377
 8067SOL     OW35833   3.689   0.795   6.582  0.3267 -0.0412 -0.2635
 8067SOL    HW135834   3.617   0.757   6.632  0.3020 -1.2105 -1.1705
 8067SOL    HW235835   3.741   0.718   6.559 -0.0278 -0.3030 -0.1865
 8068SOL     OW35836   4.145   2.322   4.899 -0.1791 -0.5658  0.7017
 8068SOL    HW135837   4.204   2.249   4.881 -1.7646 -2.1191  1.7076
 8068SOL    HW235838   4.203   2.395   4.919 -1.3069 -0.0203  2.0333
 8069SOL     OW35839   4.160   4.474   7.588  0.1671 -0.1279  0.5341
 8069SOL    HW135840   4.180   4.383   7.608 -0.8860 -0.3760  0.4515
 8069SOL    HW235841   4.073   4.481   7.628  0.7270  4.7416  0.8860
 8070SOL     OW35842   3.047   1.224   4.087 -0.1398  0.0520  0.0422
 8070SOL    HW135843   3.020   1.163   4.155 -0.4871  1.1093  0.8523
 8070SOL    HW235844   3.086   1.164   4.024  2.6837  2.6493 -0.7375
 8071SOL     OW35845   1.248   1.854   4.770  0.1426  0.0436 -0.3326
 8071SOL    HW135846   1.271   1.836   4.861 -0.3829  4.5486  0.6912
 8071SOL    HW235847   1.305   1.930   4.758 -0.2508  0.5389  0.9444
 8072SOL     OW35848   1.680   1.709   7.972  0.2510 -0.1596  0.2285
 8072SOL    HW135849   1.669   1.804   7.970  0.0823 -0.2168 -1.8706
 8072SOL    HW235850   1.774   1.707   7.990  0.1708  0.1056  0.6903
 8073SOL     OW35851   2.460   1.893   4.052  0.0479 -0.0507 -0.4295
 8073SOL    HW135852   2.481   1.842   3.974 -0.6613  1.7656 -1.8232
 8073SOL    HW235853   2.506   1.837   4.114 -1.6563  2.4927  3.1861
 8074SOL     OW35854   3.276   1.605   7.239  0.5602  0.0088  0.2504
 8074SOL    HW135855   3.261   1.602   7.333 -0.5652  0.1533  0.0738
 8074SOL    HW235856   3.371   1.614   7.243  0.6527 -1.0398  0.4855
 8075SOL     OW35857   2.005   0.058   0.958  0.1181 -0.3033  0.4528
 8075SOL    HW135858   1.924   0.011   0.937 -1.9267  3.1849  0.5884
 8075SOL    HW235859   1.979   0.150   0.958  0.0712 -0.3118 -0.7779
 8076SOL     OW35860   2.263   1.449  12.649  0.5236  0.4451 -0.5447
 8076SOL    HW135861   2.213   1.505  12.590  0.2255  0.4555 -0.2754
 8076SOL    HW235862   2.236   1.491  12.731  0.2615 -0.0750 -0.3666
 8077SOL     OW35863   1.085   3.746   2.040  1.0510  0.0117 -0.0923
 8077SOL    HW135864   1.056   3.657   2.023 -0.1933  0.6193 -1.2214
 8077SOL    HW235865   1.002   3.795   2.035 -0.2699 -2.2082  0.3087
 8078SOL     OW35866   3.533   0.646   7.826 -0.2165 -0.0540 -0.8239
 8078SOL    HW135867   3.473   0.714   7.856  0.0467  0.4535 -1.4613
 8078SOL    HW235868   3.568   0.680   7.744 -1.0991  0.9653 -0.7701
 8079SOL     OW35869   3.678   2.420  15.878  0.0001 -0.0314  0.2856
 8079SOL    HW135870   3.651   2.363  15.805  1.7290  0.5498 -0.7897
 8079SOL    HW235871   3.594   2.453  15.911  0.9250  0.1885  2.4036
 8080SOL     OW35872   3.902   2.266   4.285  0.3410 -0.3456  0.5272
 8080SOL    HW135873   3.902   2.331   4.355  0.5172 -1.3325  1.4447
 8080SOL    HW235874   3.972   2.206   4.310 -0.1099 -0.8559  0.5812
 8081SOL     OW35875   1.419   4.411   2.312 -1.2663 -0.5786 -0.1068
 8081SOL    HW135876   1.452   4.337   2.363 -0.6130 -0.4656 -0.3667
 8081SOL    HW235877   1.424   4.482   2.377  0.2414 -0.9127  0.1443
 8082SOL     OW35878   2.118   0.524   2.389  0.1044  0.1936 -0.0752
 8082SOL    HW135879   2.197   0.520   2.335 -0.2846 -1.2690 -0.5423
 8082SOL    HW235880   2.160   0.522   2.475  1.0330  0.8918 -0.5115
 8083SOL     OW35881   1.319   0.171  14.769  0.8230 -0.2602 -1.0304
 8083SOL    HW135882   1.391   0.177  14.707  1.7542  0.6453  0.1361
 8083SOL    HW235883   1.246   0.157  14.708 -0.7541 -0.7592  0.9835
 8084SOL     OW35884   0.576   1.380  10.792  0.4594 -0.0972  1.0579
 8084SOL    HW135885   0.528   1.363  10.873 -1.6897  2.0845  0.2301
 8084SOL    HW235886   0.564   1.301  10.738 -0.4870  0.3994  0.5563
 8085SOL     OW35887   1.959   4.231  11.836 -0.0051  0.6968  0.4680
 8085SOL    HW135888   1.886   4.200  11.890 -0.7397  1.0474 -0.3291
 8085SOL    HW235889   1.906   4.251  11.759 -0.3163 -2.3048 -0.0968
 8086SOL     OW35890   2.452   1.056   2.242 -0.0684 -0.0620 -0.0833
 8086SOL    HW135891   2.456   1.149   2.262  1.0223 -0.7763  2.9116
 8086SOL    HW235892   2.459   1.057   2.146 -0.2273  2.1351 -0.0659
 8087SOL     OW35893   3.210   3.788  13.423  0.2570 -0.2550  0.0283
 8087SOL    HW135894   3.130   3.835  13.445  0.0471 -1.4897  1.9240
 8087SOL    HW235895   3.186   3.748  13.340  0.4035 -3.6512  1.6148
 8088SOL     OW35896   2.657   1.822   7.113  0.1275  0.2323  0.9166
 8088SOL    HW135897   2.634   1.915   7.119  0.4392  0.2408  1.8760
 8088SOL    HW235898   2.683   1.799   7.202  0.1704 -1.2321  0.5333
 8089SOL     OW35899   0.009   4.648   7.880 -0.8302  0.4477 -0.1390
 8089SOL    HW135900   4.729   4.720   7.941 -1.9554 -0.1667  0.2756
 8089SOL    HW235901   0.093   4.614   7.911 -1.5074 -0.1086  1.1104
 8090SOL     OW35902   2.439   1.054  13.783  0.0684  0.1679  0.4968
 8090SOL    HW135903   2.370   0.989  13.783 -0.2578  0.5330 -2.0059
 8090SOL    HW235904   2.407   1.109  13.712  0.6593  0.3850  0.3933
 8091SOL     OW35905   4.642   2.959  16.488  0.2295  0.1843 -0.5934
 8091SOL    HW135906   4.561   2.946  16.537  0.1885  2.1395 -0.1538
 8091SOL    HW235907   4.665   3.050  16.504  0.6491  0.2105 -1.3349
 8092SOL     OW35908   0.377   1.075   7.203 -0.5419  0.0034 -0.4057
 8092SOL    HW135909   0.348   0.999   7.152 -0.1750  0.4340 -1.2644
 8092SOL    HW235910   0.304   1.136   7.200 -1.0519 -0.5951 -0.0601
 8093SOL     OW35911   4.492   4.308   2.179  0.6508 -0.1433  0.5853
 8093SOL    HW135912   4.498   4.354   2.095  0.4499  2.2208  1.8699
 8093SOL    HW235913   4.500   4.219   2.143 -1.3345 -0.5488  1.1332
 8094SOL     OW35914   2.740   3.928  10.054  0.4666  0.8360  0.0704
 8094SOL    HW135915   2.703   3.872  10.123  3.2250 -0.9029  0.1449
 8094SOL    HW235916   2.774   3.860   9.996  2.1518  1.2000  0.6171
 8095SOL     OW35917   4.004   3.019   5.050 -0.1821  0.4120  0.6952
 8095SOL    HW135918   4.005   2.924   5.061  0.9663  0.1952 -1.2577
 8095SOL    HW235919   4.092   3.042   5.082 -0.4573  0.8419  1.1380
 8096SOL     OW35920   0.863   3.856   8.955 -0.3971  0.0056 -0.2709
 8096SOL    HW135921   0.898   3.867   9.043  1.7307  0.0077 -1.1064
 8096SOL    HW235922   0.785   3.911   8.960  0.5025  1.3513 -0.8237
 8097SOL     OW35923   2.440   4.166   3.295  0.8756 -0.3398 -0.0478
 8097SOL    HW135924   2.394   4.091   3.331  0.1654 -0.4304 -1.1526
 8097SOL    HW235925   2.469   4.144   3.207  0.7440  2.2136 -0.7393
 8098SOL     OW35926   1.198   2.774   1.434  0.1552  0.6436  0.5903
 8098SOL    HW135927   1.265   2.740   1.492 -0.6823 -1.4047  0.3378
 8098SOL    HW235928   1.202   2.713   1.361 -2.7617 -0.5210  1.3694
 8099SOL     OW35929   0.978   3.653   4.382  0.7339  1.0382  0.0396
 8099SOL    HW135930   1.047   3.642   4.446 -0.4891  0.0335  1.1892
 8099SOL    HW235931   0.925   3.722   4.421 -0.8578  0.3324 -0.8379
 8100SOL     OW35932   0.952   0.452   1.934  0.0247  0.3241  0.9095
 8100SOL    HW135933   0.923   0.434   2.023 -0.4124 -1.4189  0.4023
 8100SOL    HW235934   0.917   0.381   1.881  1.1751 -0.2638  0.9376
 8101SOL     OW35935   2.399   1.414   4.722  0.8708  0.4368  0.2371
 8101SOL    HW135936   2.385   1.496   4.674 -1.9319  0.1943  0.6126
 8101SOL    HW235937   2.448   1.363   4.657 -0.3078  0.7290 -0.8769
 8102SOL     OW35938   4.480   4.180   5.492  0.4556  0.0904 -0.7309
 8102SOL    HW135939   4.510   4.269   5.512  1.7477  0.0582 -2.6441
 8102SOL    HW235940   4.551   4.149   5.437  0.3938  0.3258 -0.9404
 8103SOL     OW35941   1.432   2.318   1.641 -0.1429 -0.0749 -0.0237
 8103SOL    HW135942   1.381   2.370   1.704 -1.4471 -1.3714 -0.0386
 8103SOL    HW235943   1.501   2.375   1.606  1.2427  0.2629  3.1561
 8104SOL     OW35944   1.462   3.621   5.583 -0.1720  0.2805  0.0511
 8104SOL    HW135945   1.428   3.700   5.542  2.3118  0.3916 -1.7761
 8104SOL    HW235946   1.395   3.554   5.570 -1.7002  1.4863  1.7108
 8105SOL     OW35947   4.257   1.586   8.794  0.2796 -0.1624 -0.0631
 8105SOL    HW135948   4.346   1.584   8.830 -0.1023 -2.8587  0.7413
 8105SOL    HW235949   4.256   1.660   8.734 -0.3354  1.1638  1.5952
 8106SOL     OW35950   4.516   1.698  12.216  0.1031  0.3582 -0.3733
 8106SOL    HW135951   4.555   1.702  12.129  0.5913 -1.3191 -0.2277
 8106SOL    HW235952   4.479   1.610  12.218  1.8123 -0.3350  1.2171
 8107SOL     OW35953   2.877   4.710   4.650  0.5442 -0.2686 -0.0453
 8107SOL    HW135954   2.953   4.735   4.597  1.1027 -3.3461 -0.7164
 8107SOL    HW235955   2.824   4.688   4.574  2.5098 -0.2161 -1.4299
 8108SOL     OW35956   1.610   4.500  10.328  0.0592  0.5233  0.2262
 8108SOL    HW135957   1.617   4.483  10.422 -0.1356 -2.9421 -0.4003
 8108SOL    HW235958   1.696   4.541  10.316  0.5434 -0.5712 -0.0207
 8109SOL     OW35959   4.106   2.815  15.159  0.6575 -0.1354  0.5817
 8109SOL    HW135960   4.140   2.888  15.210 -0.8076  1.0231 -0.0996
 8109SOL    HW235961   4.167   2.747  15.187  0.2007 -1.4587 -1.6025
 8110SOL     OW35962   1.649   2.413   8.704 -0.0435 -0.8126 -0.5605
 8110SOL    HW135963   1.626   2.367   8.784 -0.8836 -0.4079 -0.5772
 8110SOL    HW235964   1.732   2.370   8.679  0.1490 -1.6880  1.5459
 8111SOL     OW35965   1.319   2.985   0.808  0.1384 -0.3966 -0.1120
 8111SOL    HW135966   1.277   2.918   0.754  0.2277 -0.1299 -0.5099
 8111SOL    HW235967   1.272   3.062   0.775  0.9086 -0.1325 -0.5871
 8112SOL     OW35968   1.424   0.729  15.725 -0.3992 -0.3337 -0.2183
 8112SOL    HW135969   1.449   0.696  15.811  3.6518  0.1784 -1.2004
 8112SOL    HW235970   1.450   0.654  15.671 -1.4893 -1.6258  1.0518
 8113SOL     OW35971   4.497   3.998   3.650  0.2221  0.3022 -0.0079
 8113SOL    HW135972   4.422   3.983   3.592  0.4147 -1.1389  0.1076
 8113SOL    HW235973   4.490   3.932   3.720  2.9380 -0.1680 -0.1826
 8114SOL     OW35974   3.277   3.248   1.495  0.3622  0.0981  0.0529
 8114SOL    HW135975   3.353   3.289   1.452 -0.2836  1.1346 -0.1143
 8114SOL    HW235976   3.323   3.203   1.566 -0.0709  0.8051  0.7835
 8115SOL     OW35977   2.698   0.105   3.161 -0.5886 -0.5263 -0.4342
 8115SOL    HW135978   2.666   0.017   3.146 -1.5655 -0.1602 -0.4802
 8115SOL    HW235979   2.717   0.127   3.070  0.7566 -0.6209 -0.1888
 8116SOL     OW35980   2.881   2.660   7.528  0.0754 -0.3075 -0.6337
 8116SOL    HW135981   2.824   2.737   7.530  1.7096  0.8647  1.8720
 8116SOL    HW235982   2.953   2.693   7.582 -0.7240  1.9444 -0.9206
 8117SOL     OW35983   0.912   0.484   8.738  0.7018 -0.0906 -0.1633
 8117SOL    HW135984   0.922   0.436   8.820 -0.2148  0.4334  0.2464
 8117SOL    HW235985   0.946   0.570   8.760 -3.2441  1.1755  0.8911
 8118SOL     OW35986   4.077   1.979   2.235  0.4584  0.4672  0.4058
 8118SOL    HW135987   4.078   1.949   2.326  0.3940 -2.2190 -0.4983
 8118SOL    HW235988   4.046   2.069   2.251  0.5772  0.2597  1.8194
 8119SOL     OW35989   0.028   0.081   9.568 -0.5427  0.3702  0.3168
 8119SOL    HW135990   0.006   0.102   9.659  1.3961  1.4471  0.5421
 8119SOL    HW235991   4.696   0.019   9.542 -2.0644  2.5235 -0.8700
 8120SOL     OW35992   1.671   4.019  17.053 -0.2091  0.0436  0.0850
 8120SOL    HW135993   1.737   3.954  17.028  0.8129  1.0124  0.2486
 8120SOL    HW235994   1.695   4.081  16.984 -2.1123 -0.8893 -1.3835
 8121SOL     OW35995   1.030   2.540   3.107  0.4976  0.4481  0.3978
 8121SOL    HW135996   1.034   2.496   3.192 -1.3437 -0.9049 -0.2197
 8121SOL    HW235997   0.963   2.605   3.125 -1.2195 -0.9978 -0.7517
 8122SOL     OW35998   1.091   1.746   7.925  0.2926  0.2227  0.0656
 8122SOL    HW135999   1.081   1.782   8.014  0.1482  1.3092 -0.3830
 8122SOL    HW236000   1.174   1.783   7.894 -0.0707  1.2243  0.2643
 8123SOL     OW36001   3.902   0.704  11.078  0.4819 -0.4993 -0.6741
 8123SOL    HW136002   3.887   0.746  11.163  0.6256 -2.3930  0.3125
 8123SOL    HW236003   3.956   0.634  11.117 -0.0106 -0.5065 -0.0016
 8124SOL     OW36004   0.095   0.569   5.636  0.1960  0.0312  0.1143
 8124SOL    HW136005   0.052   0.486   5.615 -0.1273  0.2320 -0.0159
 8124SOL    HW236006   0.129   0.592   5.550  0.1006  2.5125  0.7581
 8125SOL     OW36007   2.154   0.577   4.905  0.3919 -0.3002 -0.3255
 8125SOL    HW136008   2.122   0.663   4.933  0.2610  0.7429 -3.6231
 8125SOL    HW236009   2.115   0.569   4.818  0.7014  1.8160 -0.6659
 8126SOL     OW36010   3.788   2.692   4.604  0.0115 -0.3493 -0.3314
 8126SOL    HW136011   3.743   2.755   4.548 -0.4047  0.8718  1.3835
 8126SOL    HW236012   3.727   2.620   4.621  0.4766 -0.5397  0.5658
 8127SOL     OW36013   1.357   0.856   4.629 -0.1101 -0.1512 -0.4334
 8127SOL    HW136014   1.384   0.935   4.583  0.5380 -0.9004 -1.3579
 8127SOL    HW236015   1.316   0.890   4.709  0.1437 -0.8419 -0.0015
 8128SOL     OW36016   3.307   0.729  10.453  0.0468 -0.0809  0.2080
 8128SOL    HW136017   3.311   0.683  10.536  1.3833  1.5668  1.0643
 8128SOL    HW236018   3.366   0.804  10.460  1.3081 -0.9739 -0.7322
 8129SOL     OW36019   3.557   4.240   6.911  0.4668  0.1405 -0.1989
 8129SOL    HW136020   3.598   4.271   6.992  1.4964  0.7545 -0.9584
 8129SOL    HW236021   3.575   4.147   6.924  1.8094  0.1968 -1.6707
 8130SOL     OW36022   0.775   1.918   7.387 -0.2290 -0.2368  0.1766
 8130SOL    HW136023   0.770   1.858   7.462  3.2766 -0.0570  0.5411
 8130SOL    HW236024   0.718   1.873   7.326  0.8759 -2.5043  0.8137
 8131SOL     OW36025   4.454   1.671   3.356  0.2679  0.5627 -0.2582
 8131SOL    HW136026   4.539   1.703   3.325 -0.0397  1.4992 -0.1246
 8131SOL    HW236027   4.445   1.591   3.305  2.2271  0.6151 -0.6970
 8132SOL     OW36028   0.291   3.542   8.672 -0.2797 -0.0791  0.2871
 8132SOL    HW136029   0.240   3.462   8.680 -1.4630  0.5438 -1.1377
 8132SOL    HW236030   0.264   3.567   8.584 -3.1677  0.8072  1.4403
 8133SOL     OW36031   0.177   2.823   7.750  0.0406 -0.2046 -0.4991
 8133SOL    HW136032   0.238   2.852   7.818  0.8212 -0.6980 -0.9834
 8133SOL    HW236033   0.240   2.829   7.678  1.2077  1.1189  0.6257
 8134SOL     OW36034   0.155   1.253   6.838 -0.1170  0.0968  0.1258
 8134SOL    HW136035   0.241   1.291   6.818 -0.6379  0.9551 -0.4759
 8134SOL    HW236036   0.171   1.165   6.804 -1.4260 -0.3752  0.7280
 8135SOL     OW36037   2.868   4.679   8.380 -0.1125 -0.2053 -0.6850
 8135SOL    HW136038   2.891   4.734   8.305 -0.8295 -1.5276 -1.8617
 8135SOL    HW236039   2.781   4.649   8.353  0.5870 -2.5855 -0.2654
 8136SOL     OW36040   2.241   2.655   0.716 -0.2991  0.4834 -0.1525
 8136SOL    HW136041   2.285   2.649   0.631 -1.8040  0.9009 -0.9600
 8136SOL    HW236042   2.274   2.580   0.764 -1.1631  0.1587 -0.0692
 8137SOL     OW36043   1.169   4.442   4.908 -0.1583 -0.2914  0.0757
 8137SOL    HW136044   1.182   4.412   4.819 -0.2468  1.5191 -0.5562
 8137SOL    HW236045   1.075   4.425   4.912 -0.1876 -0.0294  0.5881
 8138SOL     OW36046   0.548   1.078   8.334 -0.6500  0.3835 -0.5226
 8138SOL    HW136047   0.571   0.986   8.350 -1.3846  0.5083  1.1648
 8138SOL    HW236048   0.481   1.072   8.266 -0.8050 -1.1867 -0.2347
 8139SOL     OW36049   2.739   0.466  13.394  0.0064  0.3286 -0.1916
 8139SOL    HW136050   2.656   0.439  13.435 -1.2494  0.1753 -2.8270
 8139SOL    HW236051   2.707   0.425  13.313 -0.7215  1.1730 -0.3417
 8140SOL     OW36052   4.563   3.460   3.084  0.3630 -0.3759 -0.0797
 8140SOL    HW136053   4.549   3.552   3.062  2.3528 -0.1623 -0.4120
 8140SOL    HW236054   4.507   3.406   3.027 -0.3989  1.2033 -0.8357
 8141SOL     OW36055   2.473   2.126   5.261 -0.0891  0.0249  0.1964
 8141SOL    HW136056   2.414   2.050   5.262 -0.4650  0.3250  1.0067
 8141SOL    HW236057   2.537   2.102   5.328 -0.1469 -0.5984  0.0331
 8142SOL     OW36058   3.292   2.889   7.594 -0.2568  0.6416  0.4166
 8142SOL    HW136059   3.294   2.858   7.503 -0.6160  2.6340 -0.2780
 8142SOL    HW236060   3.380   2.926   7.596 -0.1332  0.2748  1.9143
 8143SOL     OW36061   0.852   1.210   8.995  0.5621  0.0035  0.3004
 8143SOL    HW136062   0.774   1.245   8.950 -0.7782 -2.7569  0.4689
 8143SOL    HW236063   0.817   1.209   9.084  2.4559  1.2626  1.0730
 8144SOL     OW36064   1.817   2.944   4.668 -0.2954 -0.5159 -0.4494
 8144SOL    HW136065   1.864   2.870   4.706 -0.9335  0.3256  1.9911
 8144SOL    HW236066   1.798   2.921   4.577 -0.4392  2.4019 -1.1637
 8145SOL     OW36067   4.690   0.785   9.579 -0.1123 -0.0540  0.2460
 8145SOL    HW136068   0.016   0.833   9.634  0.4281 -0.8302  0.3045
 8145SOL    HW236069   4.635   0.860   9.555  1.5187  1.4048  1.0061
 8146SOL     OW36070   2.302   3.181   4.496 -0.0233 -0.0836  0.3092
 8146SOL    HW136071   2.347   3.147   4.419  0.0412 -2.2828  1.3183
 8146SOL    HW236072   2.300   3.276   4.485 -2.5064 -0.4601 -2.6776
 8147SOL     OW36073   3.231   0.652   1.327 -0.0221  0.4859  0.6581
 8147SOL    HW136074   3.229   0.605   1.410  0.2201  0.4147  0.6217
 8147SOL    HW236075   3.179   0.592   1.274  1.5743  0.5684 -1.0161
 8148SOL     OW36076   0.117   1.208  13.703 -0.2579 -0.1820  0.0278
 8148SOL    HW136077   0.199   1.165  13.727 -0.7830 -0.9012  0.5038
 8148SOL    HW236078   0.078   1.141  13.647 -0.2761 -1.0271  1.0451
 8149SOL     OW36079   4.612   4.053   6.928  0.5613  0.1407  0.3411
 8149SOL    HW136080   4.562   4.073   6.849  1.4035 -1.5825 -0.6347
 8149SOL    HW236081   4.671   3.982   6.902  0.5784  0.2025  0.2157
 8150SOL     OW36082   4.409   2.672  17.376  0.5624 -0.1023 -0.0087
 8150SOL    HW136083   4.392   2.746  17.435  0.5057 -1.1196  1.2301
 8150SOL    HW236084   4.474   2.630  17.431 -0.2658 -1.5090 -0.1104
 8151SOL     OW36085   3.242   2.593  10.376  0.5584 -0.7791  0.1220
 8151SOL    HW136086   3.292   2.675  10.377 -0.9894  0.1598 -0.3285
 8151SOL    HW236087   3.156   2.634  10.380  1.8591  2.0789 -1.2763
 8152SOL     OW36088   1.622   3.438  17.727  0.3053  0.0617 -0.2758
 8152SOL    HW136089   1.645   3.359  17.679  0.9591 -0.4379  0.8566
 8152SOL    HW236090   1.695   3.453   0.042  0.0730 -1.4347  0.3809
 8153SOL     OW36091   2.786   3.408   0.930  0.1117 -0.4612  0.3181
 8153SOL    HW136092   2.779   3.414   1.025  2.5866 -2.6328  0.6302
 8153SOL    HW236093   2.880   3.392   0.921  0.1208 -0.3771  0.2643
 8154SOL     OW36094   3.645   0.643   4.669  0.3008 -0.6773 -0.3969
 8154SOL    HW136095   3.638   0.577   4.601  0.5674 -1.2279  0.1042
 8154SOL    HW236096   3.603   0.713   4.620  3.2141 -0.0727 -1.9683
 8155SOL     OW36097   2.986   3.477   3.821  0.1482  0.8278 -0.1654
 8155SOL    HW136098   3.010   3.564   3.791  1.9276 -0.4787 -2.4579
 8155SOL    HW236099   2.979   3.421   3.744 -1.3779 -1.3734  1.5393
 8156SOL     OW36100   3.398   1.940   6.042 -0.4813 -0.0738 -0.2238
 8156SOL    HW136101   3.449   1.888   5.980  1.9293  0.8184  0.9828
 8156SOL    HW236102   3.469   1.990   6.082 -1.5283  1.6896 -0.6053
 8157SOL     OW36103   4.096   0.190   3.697  0.6375 -0.2112  0.0008
 8157SOL    HW136104   4.006   0.223   3.697 -0.4141 -2.9795 -1.6090
 8157SOL    HW236105   4.103   0.120   3.762 -1.6145  0.9182  1.4526
 8158SOL     OW36106   1.894   4.664   8.381 -0.1388 -0.1959  0.2127
 8158SOL    HW136107   1.967   4.609   8.409  1.2126  1.1916 -0.5731
 8158SOL    HW236108   1.878   4.713   8.462 -0.8566 -1.4437  0.8138
 8159SOL     OW36109   4.050   4.165   1.488  0.1324  0.1262 -0.7552
 8159SOL    HW136110   4.087   4.079   1.469  1.7556  0.6755 -0.1240
 8159SOL    HW236111   4.064   4.199   1.400  1.0478 -3.7577 -2.0985
 8160SOL     OW36112   3.790   0.474   1.781 -0.3052 -0.4233  0.3674
 8160SOL    HW136113   3.802   0.381   1.763 -0.4849 -0.1448 -1.1768
 8160SOL    HW236114   3.879   0.501   1.756 -2.0587  0.9525 -4.3235
 8161SOL     OW36115   2.629   3.798   9.637  0.1043 -0.3937 -0.3714
 8161SOL    HW136116   2.580   3.879   9.618 -1.5907 -1.4316 -0.4355
 8161SOL    HW236117   2.576   3.738   9.585 -0.5302 -0.7304  0.6549
 8162SOL     OW36118   0.758   3.496   2.253 -0.3595  0.2656  0.0995
 8162SOL    HW136119   0.780   3.576   2.301  1.6937 -0.4592  0.3825
 8162SOL    HW236120   0.744   3.443   2.332 -0.7613  0.6658  0.2949
 8163SOL     OW36121   4.465   0.710   3.417 -0.4907  0.5668 -0.3631
 8163SOL    HW136122   4.458   0.766   3.494  1.8989 -0.9126  0.9250
 8163SOL    HW236123   4.458   0.624   3.458 -0.0719 -0.2343 -1.9530
 8164SOL     OW36124   2.500   2.501   7.460 -0.4104  0.0231 -0.4188
 8164SOL    HW136125   2.524   2.453   7.539  1.5140  1.3641 -0.1858
 8164SOL    HW236126   2.415   2.464   7.435  0.8574 -1.1529 -2.9623
 8165SOL     OW36127   3.304   0.750   6.368  0.6568 -0.0078 -0.0735
 8165SOL    HW136128   3.386   0.739   6.321 -0.3252  0.7147 -1.9371
 8165SOL    HW236129   3.256   0.687   6.315  0.5200  1.4928 -1.7369
 8166SOL     OW36130   1.318   3.272  12.897 -0.0843  0.2874 -0.1247
 8166SOL    HW136131   1.400   3.319  12.913 -0.0264  0.4048 -0.7823
 8166SOL    HW236132   1.347   3.181  12.889 -0.8628  0.0768 -0.4761
 8167SOL     OW36133   4.121   2.559   8.824 -0.0895 -0.1838 -0.2569
 8167SOL    HW136134   4.190   2.591   8.883 -1.0280  1.3416 -0.0037
 8167SOL    HW236135   4.141   2.612   8.747 -0.3032 -1.7653 -1.4048
 8168SOL     OW36136   0.700   2.346  16.550 -0.6987  0.3616 -0.1137
 8168SOL    HW136137   0.687   2.310  16.637  0.0649 -3.3605 -1.5228
 8168SOL    HW236138   0.795   2.357  16.552 -0.8549  0.7266  4.1823
 8169SOL     OW36139   3.310   2.963   4.330 -0.1390 -0.2263 -0.5916
 8169SOL    HW136140   3.233   2.946   4.276 -1.8394  1.9675  1.1301
 8169SOL    HW236141   3.334   3.055   4.315 -1.3324  0.2443  0.4790
 8170SOL     OW36142   1.399   0.638   7.092 -0.2267 -0.2150 -0.0436
 8170SOL    HW136143   1.421   0.714   7.145 -1.3488  0.1902 -0.1583
 8170SOL    HW236144   1.339   0.680   7.031 -0.1696  0.1392  0.1474
 8171SOL     OW36145   3.848   1.856   4.572  0.3318 -0.4992  0.4668
 8171SOL    HW136146   3.775   1.875   4.513  1.4516  1.4736 -0.2543
 8171SOL    HW236147   3.801   1.838   4.653  0.3906  0.6194  0.7359
 8172SOL     OW36148   2.138   2.111   0.851 -0.3519  0.0267  0.9353
 8172SOL    HW136149   2.179   2.069   0.926 -0.3311 -0.7336  0.5052
 8172SOL    HW236150   2.057   2.141   0.893 -0.7032  0.4688 -0.0305
 8173SOL     OW36151   3.722   1.796   0.229  0.6613  0.6844  0.1926
 8173SOL    HW136152   3.647   1.796   0.170  0.5421  1.6347  0.3328
 8173SOL    HW236153   3.687   1.849   0.301  1.9428 -0.2978  1.5393
 8174SOL     OW36154   1.400   0.207   7.218  0.2208  0.9643  0.1409
 8174SOL    HW136155   1.483   0.170   7.249  0.4645  0.2502 -1.3835
 8174SOL    HW236156   1.427   0.281   7.164 -2.1082 -0.5911 -3.0982
 8175SOL     OW36157   4.642   4.230  12.210  0.5862  0.4362  0.5152
 8175SOL    HW136158   4.626   4.316  12.249 -1.8148  0.6743 -1.0044
 8175SOL    HW236159   4.733   4.224  12.238  0.7926 -4.0820 -1.0461
 8176SOL     OW36160   3.023   0.271   5.418  0.1157 -0.7164 -0.1368
 8176SOL    HW136161   3.110   0.253   5.381  0.5498  3.5088 -1.2037
 8176SOL    HW236162   2.983   0.323   5.349  0.0519  0.4346  0.7592
 8177SOL     OW36163   1.493   2.710   4.115  0.5673  0.0759  0.1768
 8177SOL    HW136164   1.408   2.745   4.138  0.5652  0.0486  0.2100
 8177SOL    HW236165   1.493   2.724   4.020  2.4288 -1.7223 -0.1052
 8178SOL     OW36166   2.528   0.453   6.921 -0.3484 -0.4055  0.1254
 8178SOL    HW136167   2.612   0.499   6.909  0.4279 -1.7107  0.5957
 8178SOL    HW236168   2.472   0.529   6.935  0.1380  0.4122 -2.3198
 8179SOL     OW36169   3.381   1.650   8.593 -0.2543  0.3571 -0.6443
 8179SOL    HW136170   3.347   1.560   8.598  0.2443  0.3294  2.3707
 8179SOL    HW236171   3.370   1.675   8.685 -0.3340 -1.0644 -0.2519
 8180SOL     OW36172   4.074   4.317   7.865 -0.1233 -0.3646  0.1507
 8180SOL    HW136173   3.988   4.339   7.829  0.6530 -1.2662 -2.2847
 8180SOL    HW236174   4.122   4.265   7.801  2.3999  1.7494  0.3401
 8181SOL     OW36175   1.198   1.494  17.676 -0.0401 -0.1473 -0.7332
 8181SOL    HW136176   1.284   1.482  17.716 -0.2293 -0.2343 -0.3598
 8181SOL    HW236177   1.218   1.474  17.584 -0.3532 -1.9632 -0.3961
 8182SOL     OW36178   0.812   3.662   4.112  0.3459 -0.6101 -0.3341
 8182SOL    HW136179   0.736   3.623   4.155  0.3144 -1.0879 -0.8209
 8182SOL    HW236180   0.766   3.724   4.056  2.1926  1.4956  0.4563
 8183SOL     OW36181   1.676   0.277  13.245  0.8863 -0.3586  0.6881
 8183SOL    HW136182   1.663   0.368  13.222  1.7140 -0.7592 -1.3783
 8183SOL    HW236183   1.672   0.274  13.341 -0.8592 -0.3929  0.6111
 8184SOL     OW36184   0.029   2.473  17.644 -0.2003 -0.2181 -0.1409
 8184SOL    HW136185   4.701   2.538  17.617 -1.3000 -0.8795  0.8934
 8184SOL    HW236186   4.723   2.388  17.656  0.6520 -0.4726  1.0654
 8185SOL     OW36187   2.152   1.496  14.795 -0.1722  0.3155  0.4829
 8185SOL    HW136188   2.136   1.496  14.700 -0.5722  0.6866  0.5492
 8185SOL    HW236189   2.197   1.412  14.798  0.1805  0.4810 -0.2392
 8186SOL     OW36190   0.984   2.355   4.693 -0.0781 -0.1386  0.0005
 8186SOL    HW136191   0.925   2.395   4.757 -0.9663  2.3071 -2.3222
 8186SOL    HW236192   1.061   2.406   4.714  0.3767  0.2825 -2.6504
 8187SOL     OW36193   1.013   2.713   6.417  0.4356 -0.2813 -0.2287
 8187SOL    HW136194   1.061   2.740   6.339  1.3671 -3.2799 -0.7100
 8187SOL    HW236195   0.923   2.693   6.392 -0.0529 -0.7826  1.8804
 8188SOL     OW36196   4.439   3.015   5.530 -0.0492 -0.1032  0.9148
 8188SOL    HW136197   4.348   3.019   5.498 -0.0100 -0.0540  0.8101
 8188SOL    HW236198   4.442   3.090   5.589  2.3940  0.2189  0.3677
 8189SOL     OW36199   4.396   0.787   8.077  0.1977  0.1222  0.9842
 8189SOL    HW136200   4.476   0.832   8.102  0.1324  0.1798  1.0887
 8189SOL    HW236201   4.437   0.719   8.024 -0.0815  0.4259  0.3846
 8190SOL     OW36202   3.154   0.135   9.968  0.2236  0.4458 -0.1590
 8190SOL    HW136203   3.198   0.206  10.014  0.2291  0.5462 -0.3186
 8190SOL    HW236204   3.093   0.104  10.035  1.7178 -2.7356 -0.2557
 8191SOL     OW36205   4.231   4.100   2.957  0.5276 -0.4859 -0.3365
 8191SOL    HW136206   4.224   4.187   2.995  0.7230 -0.7292  0.2515
 8191SOL    HW236207   4.239   4.117   2.863 -0.7691  1.6849 -0.0462
 8192SOL     OW36208   2.851   3.132  17.227  0.0386  0.2022 -0.2015
 8192SOL    HW136209   2.871   3.224  17.210 -0.8185  0.6556  1.2180
 8192SOL    HW236210   2.921   3.114  17.289 -0.2174 -2.4489 -0.6713
 8193SOL     OW36211   1.069   0.194   8.374 -0.1054  0.2414  0.7466
 8193SOL    HW136212   1.121   0.120   8.406  0.8152  0.5075 -0.1225
 8193SOL    HW236213   1.018   0.221   8.449 -3.6798 -2.7303 -0.5922
 8194SOL     OW36214   2.368   3.070   9.996  0.1237  0.6834 -0.1867
 8194SOL    HW136215   2.293   3.091   9.939  1.4028  0.1049 -2.0836
 8194SOL    HW236216   2.342   2.983  10.025  1.6093  0.4014  0.2726
 8195SOL     OW36217   1.756   1.790   4.662 -0.1592  0.0631  0.0458
 8195SOL    HW136218   1.704   1.757   4.735 -2.0903  0.9878 -0.9050
 8195SOL    HW236219   1.832   1.735   4.678 -0.9139 -1.3818 -1.3543
 8196SOL     OW36220   0.212   3.109  15.062  0.6171  0.4149  0.8058
 8196SOL    HW136221   0.155   3.126  14.987  1.0794 -2.4166 -0.2076
 8196SOL    HW236222   0.295   3.134  15.020 -0.4342  3.1767  0.4024
 8197SOL     OW36223   4.382   1.108   4.701 -0.2083  0.2924  0.2320
 8197SOL    HW136224   4.468   1.090   4.664 -1.1024 -0.4809 -1.4600
 8197SOL    HW236225   4.394   1.200   4.723 -0.4960  0.5047 -0.5042
 8198SOL     OW36226   1.845   2.672   7.210 -0.4436  0.3599  0.1653
 8198SOL    HW136227   1.875   2.591   7.250  1.1892  0.3389 -1.0907
 8198SOL    HW236228   1.882   2.678   7.122  1.1151 -0.2206  0.7668
 8199SOL     OW36229   2.722   3.164  12.423  0.4670 -0.8479  0.5907
 8199SOL    HW136230   2.685   3.086  12.383  2.9120 -1.8050  0.2267
 8199SOL    HW236231   2.808   3.142  12.458  1.7062  0.9548 -1.2847
 8200SOL     OW36232   4.257   1.323   6.450  0.4804  0.5151 -0.8601
 8200SOL    HW136233   4.248   1.419   6.445 -0.3442  0.5061  0.7387
 8200SOL    HW236234   4.352   1.317   6.456  0.3754 -3.0174 -2.5317
 8201SOL     OW36235   1.140   4.316   9.070  0.3850 -0.3980 -0.5677
 8201SOL    HW136236   1.093   4.295   8.989 -0.6540 -1.6130  0.3488
 8201SOL    HW236237   1.105   4.242   9.120 -2.0553 -0.5513 -2.4546
 8202SOL     OW36238   0.210   4.655  14.537 -0.1560 -0.0870  1.0882
 8202SOL    HW136239   0.160   4.690  14.463  0.1526  2.5664  2.1484
 8202SOL    HW236240   0.299   4.687  14.521 -0.7990  2.6227  2.9313
 8203SOL     OW36241   3.995   3.472   5.435 -0.1927  0.4640  0.2411
 8203SOL    HW136242   3.971   3.382   5.413 -2.7294  0.8335  1.4825
 8203SOL    HW236243   3.948   3.521   5.368  1.3329 -0.4773 -1.5204
 8204SOL     OW36244   1.626   2.058   3.209 -0.1671  0.1004 -0.1670
 8204SOL    HW136245   1.553   2.073   3.269  1.3496  1.6617  1.2738
 8204SOL    HW236246   1.579   2.032   3.129 -2.1784  0.5713  0.8675
 8205SOL     OW36247   4.580   1.441   2.665 -0.0075 -0.6845  0.0677
 8205SOL    HW136248   4.525   1.471   2.593  1.9212 -1.3047 -1.6657
 8205SOL    HW236249   4.589   1.347   2.647 -1.0147 -0.6028 -0.7953
 8206SOL     OW36250   4.463   3.786  10.811  0.4825 -0.1506  0.1336
 8206SOL    HW136251   4.511   3.824  10.737 -0.6505 -1.9725 -1.5242
 8206SOL    HW236252   4.374   3.817  10.796  1.2251  1.4671 -0.9847
 8207SOL     OW36253   3.123   0.169   7.760  0.0489 -0.4596 -0.2105
 8207SOL    HW136254   3.196   0.228   7.779 -0.4006  0.0279 -0.0106
 8207SOL    HW236255   3.054   0.200   7.819 -0.3121  0.9735 -1.3870
 8208SOL     OW36256   1.795   3.963   8.116  0.3897  0.3173  0.0072
 8208SOL    HW136257   1.718   3.997   8.161 -0.7908 -1.5725 -0.5569
 8208SOL    HW236258   1.759   3.959   8.027 -2.0278 -0.8630  1.0359
 8209SOL     OW36259   3.229   0.406   7.238  0.4134 -0.0910  0.0267
 8209SOL    HW136260   3.256   0.409   7.330  0.5420 -2.9725  0.0797
 8209SOL    HW236261   3.281   0.329   7.218  0.5010 -0.2491  0.8689
 8210SOL     OW36262   0.892   0.423   0.166  0.0293 -0.0662  0.6246
 8210SOL    HW136263   0.983   0.396   0.152 -0.0979 -1.0525  1.7041
 8210SOL    HW236264   0.881   0.411   0.260 -0.1259  3.1890  1.0197
 8211SOL     OW36265   2.528   0.620   9.698  0.0607 -0.0559 -0.3503
 8211SOL    HW136266   2.565   0.538   9.731 -1.5429  0.1719  1.9782
 8211SOL    HW236267   2.442   0.608   9.737  1.1870  0.3997  2.2708
 8212SOL     OW36268   3.562   3.888   8.178  0.1372 -0.3633  0.4280
 8212SOL    HW136269   3.648   3.848   8.192  0.0217 -0.8330 -0.2278
 8212SOL    HW236270   3.517   3.818   8.225  0.8224  0.5505  2.4578
 8213SOL     OW36271   4.281   1.024   2.814  0.0336 -0.3859  0.6679
 8213SOL    HW136272   4.317   1.059   2.896  0.3466  1.0145 -0.0773
 8213SOL    HW236273   4.349   1.049   2.752 -0.4282  0.0353  0.3377
 8214SOL     OW36274   3.851   1.161   2.377 -0.2007  0.0591 -0.2367
 8214SOL    HW136275   3.756   1.151   2.365 -0.0775 -0.7558 -0.4845
 8214SOL    HW236276   3.874   1.071   2.396  1.8045  0.9520  1.5507
 8215SOL     OW36277   3.168   3.277  13.980 -0.3987 -0.6886 -0.2501
 8215SOL    HW136278   3.182   3.328  13.900 -0.1518 -0.4418 -0.0536
 8215SOL    HW236279   3.247   3.223  13.982 -0.5279 -0.8470  0.4744
 8216SOL     OW36280   2.415   1.954   0.859 -0.0038  0.1434 -0.2070
 8216SOL    HW136281   2.460   1.871   0.843 -0.7394 -0.7390  2.2909
 8216SOL    HW236282   2.374   1.970   0.774 -0.2462 -2.7343 -0.6139
 8217SOL     OW36283   2.190   0.036  14.141  0.1390  0.1753  0.1927
 8217SOL    HW136284   2.233   0.053  14.057  0.3969 -1.3183  0.0112
 8217SOL    HW236285   2.211   4.679  14.137  1.4561  0.4661  0.3106
 8218SOL     OW36286   3.244   1.757   6.807 -0.4319  0.4885  0.1519
 8218SOL    HW136287   3.312   1.693   6.828 -0.5572  0.0919 -0.6673
 8218SOL    HW236288   3.193   1.726   6.732 -1.1709 -3.1555  2.1793
 8219SOL     OW36289   4.430   2.131  16.852  0.2536 -0.0143  0.5746
 8219SOL    HW136290   4.511   2.112  16.805 -0.6202 -0.9328 -0.5407
 8219SOL    HW236291   4.444   2.083  16.934 -0.0409 -1.2244 -0.0872
 8220SOL     OW36292   1.853   3.540   7.041 -0.7169  0.5430 -0.7087
 8220SOL    HW136293   1.878   3.451   7.062  0.3893  1.2279  0.8452
 8220SOL    HW236294   1.788   3.508   6.977 -1.2123 -1.4521  0.8088
 8221SOL     OW36295   2.670   0.453   2.576  0.5506 -0.4471  0.5644
 8221SOL    HW136296   2.587   0.484   2.540  2.0104  0.3517 -2.0918
 8221SOL    HW236297   2.732   0.475   2.507 -0.8853  0.0754 -0.5456
 8222SOL     OW36298   3.345   0.143   9.747  0.2940  0.1961 -0.1703
 8222SOL    HW136299   3.285   0.144   9.821  0.3390 -1.2585 -0.1228
 8222SOL    HW236300   3.385   0.230   9.757 -0.1865  0.4234 -0.1788
 8223SOL     OW36301   3.777   1.432   1.504  0.2072 -0.9501 -0.1865
 8223SOL    HW136302   3.702   1.483   1.538  0.7221 -0.9270  0.9257
 8223SOL    HW236303   3.786   1.358   1.564  0.0369  0.9393  2.2139
 8224SOL     OW36304   4.414   3.011   8.247  0.0636 -0.1996 -0.2329
 8224SOL    HW136305   4.379   2.930   8.210  1.0480 -1.3351  1.3357
 8224SOL    HW236306   4.400   3.077   8.180 -0.1555  0.9940  0.9864
 8225SOL     OW36307   1.273   2.183  16.675 -0.1437  0.2078  0.0366
 8225SOL    HW136308   1.270   2.208  16.583 -1.0293  0.8643  0.2439
 8225SOL    HW236309   1.320   2.252  16.724 -2.9006  0.6544  2.0307
 8226SOL     OW36310   3.661   1.337   5.230 -0.1913  0.5785  0.8085
 8226SOL    HW136311   3.615   1.331   5.314  0.2992  1.3254  1.1271
 8226SOL    HW236312   3.750   1.323   5.263  0.1357  0.1526 -0.2657
 8227SOL     OW36313   0.037   3.092   1.878 -0.3003  0.2435 -0.0521
 8227SOL    HW136314   0.004   3.156   1.816  0.0671 -0.4154 -0.9190
 8227SOL    HW236315   0.083   3.147   1.942  0.2122  2.9527 -2.7605
 8228SOL     OW36316   3.852   3.068   0.846 -0.1502 -0.2363 -0.5650
 8228SOL    HW136317   3.904   3.128   0.899  1.0088 -0.8402 -1.0220
 8228SOL    HW236318   3.807   3.134   0.793 -0.2337 -0.7997 -1.1979
 8229SOL     OW36319   1.646   3.609   7.722 -0.0145  0.2469  0.3546
 8229SOL    HW136320   1.632   3.626   7.628  1.5846 -3.3588 -0.5290
 8229SOL    HW236321   1.727   3.558   7.729  1.2639  2.2930  0.4381
 8230SOL     OW36322   0.447   3.872   6.394 -0.1125 -0.3682 -0.0514
 8230SOL    HW136323   0.508   3.834   6.458  0.1818 -1.4544 -0.9659
 8230SOL    HW236324   0.384   3.801   6.377  0.6626 -0.7468 -1.3373
 8231SOL     OW36325   3.490   2.207   8.607 -0.0087  0.6892 -0.5888
 8231SOL    HW136326   3.558   2.267   8.578 -0.8240  2.2504  0.6851
 8231SOL    HW236327   3.417   2.243   8.557 -1.1253  0.0015  0.5403
 8232SOL     OW36328   3.300   4.688   2.159  0.6002 -0.4246 -0.3252
 8232SOL    HW136329   3.231   4.633   2.122  0.4153  0.9550 -2.0289
 8232SOL    HW236330   3.257   4.693   2.244  2.6721 -1.5265  0.7939
 8233SOL     OW36331   4.024   1.831   1.611 -0.1178  0.2966  0.3081
 8233SOL    HW136332   4.095   1.889   1.585  0.5060 -0.6179 -0.0212
 8233SOL    HW236333   4.037   1.810   1.704  3.1219  4.0567  0.6853
 8234SOL     OW36334   4.374   2.005  17.584 -0.1410  0.7075 -0.1376
 8234SOL    HW136335   4.355   2.005  17.677 -1.1163 -1.0627 -0.3221
 8234SOL    HW236336   4.287   1.977  17.554  0.8310  0.8634 -3.1170
 8235SOL     OW36337   3.252   1.964   7.189 -0.5024  0.5002  0.8055
 8235SOL    HW136338   3.254   2.016   7.108 -1.2871 -1.4683 -0.4891
 8235SOL    HW236339   3.344   1.939   7.193 -0.7339 -0.2944  1.1005
 8236SOL     OW36340   0.504   4.299   8.749 -0.3119 -0.0098 -0.2652
 8236SOL    HW136341   0.574   4.265   8.805 -0.8942 -0.7907 -0.0057
 8236SOL    HW236342   0.561   4.330   8.679  0.6293 -1.8131 -0.2947
 8237SOL     OW36343   2.361   0.176   3.426  0.4142 -0.3979  0.4731
 8237SOL    HW136344   2.269   0.180   3.400  0.4692 -0.6271  0.2507
 8237SOL    HW236345   2.360   0.214   3.514 -1.0108  2.2757 -0.6807
 8238SOL     OW36346   0.233   1.258   5.905  0.3429 -0.1608 -0.4075
 8238SOL    HW136347   0.154   1.280   5.854  1.8838 -1.0930 -3.2091
 8238SOL    HW236348   0.213   1.319   5.976  2.4130 -0.2904  0.2805
 8239SOL     OW36349   0.696   4.143   6.038  0.1434  0.0334  0.4534
 8239SOL    HW136350   0.656   4.102   5.962  0.2720  1.2515 -0.2839
 8239SOL    HW236351   0.656   4.230   6.032 -1.7399 -1.0159 -2.1020
 8240SOL     OW36352   1.849   1.908   7.163  0.0224  0.0160 -0.2980
 8240SOL    HW136353   1.889   1.844   7.104  1.9383 -0.1648  1.2010
 8240SOL    HW236354   1.865   1.862   7.246  1.0505  0.8998 -0.0046
 8241SOL     OW36355   2.126   3.921   1.475  0.2342  0.4054  0.6130
 8241SOL    HW136356   2.119   3.826   1.473 -2.5459  0.6397 -0.8361
 8241SOL    HW236357   2.135   3.935   1.569  1.4353  1.2128  0.3708
 8242SOL     OW36358   0.876   2.135   8.359 -0.3425 -0.2014  0.0209
 8242SOL    HW136359   0.862   2.041   8.372 -0.1658 -0.3103 -0.5674
 8242SOL    HW236360   0.894   2.140   8.265 -1.7816 -0.5934 -0.2796
 8243SOL     OW36361   4.460   3.421  12.034  0.0125  0.3562  0.0989
 8243SOL    HW136362   4.417   3.452  12.114  0.5627  1.7831 -0.1543
 8243SOL    HW236363   4.453   3.326  12.044 -4.2385  0.4490 -1.8058
 8244SOL     OW36364   1.966   3.703   7.735 -0.5066  0.3453 -0.9095
 8244SOL    HW136365   1.942   3.611   7.746  0.3695  0.2798  0.3657
 8244SOL    HW236366   2.037   3.714   7.798  0.5564 -1.0974 -1.8724
 8245SOL     OW36367   3.042   3.803   2.134  0.4729 -0.4248 -0.2885
 8245SOL    HW136368   3.028   3.859   2.058  1.4637 -0.4698 -0.5122
 8245SOL    HW236369   3.137   3.785   2.133  0.1715 -2.1168  0.5810
 8246SOL     OW36370   0.679   4.255   3.383 -0.2680 -0.3575 -0.4058
 8246SOL    HW136371   0.654   4.194   3.313 -0.2372 -1.0753  0.2140
 8246SOL    HW236372   0.730   4.317   3.331 -2.4194 -0.2906 -2.4553
 8247SOL     OW36373   4.158   1.566  17.117 -0.0453  0.0570  0.3584
 8247SOL    HW136374   4.065   1.544  17.108 -0.2508  1.1061 -0.0994
 8247SOL    HW236375   4.191   1.537  17.032  0.7861  1.4632  0.2016
 8248SOL     OW36376   1.817   0.689   9.403 -0.2603  0.3242 -0.6715
 8248SOL    HW136377   1.831   0.783   9.408 -0.4820  0.3222 -0.0312
 8248SOL    HW236378   1.822   0.681   9.307 -0.2625 -0.1885 -0.6306
 8249SOL     OW36379   1.068   1.531  10.527 -0.2312  0.1268 -0.2316
 8249SOL    HW136380   1.050   1.624  10.534 -0.1423  0.0391  1.2600
 8249SOL    HW236381   1.082   1.522  10.433  1.3311 -0.4566  0.0549
 8250SOL     OW36382   4.614   0.579  11.875  0.2110  0.0490 -0.0872
 8250SOL    HW136383   4.655   0.580  11.962 -0.5468  2.9789  0.2348
 8250SOL    HW236384   4.634   0.666  11.840  0.3988  0.3876  0.8584
 8251SOL     OW36385   2.510   2.717   2.320  0.3934 -0.5744  0.1968
 8251SOL    HW136386   2.482   2.723   2.228  0.5164 -1.7818  0.0763
 8251SOL    HW236387   2.594   2.673   2.306  0.1182 -1.9550  2.8327
 8252SOL     OW36388   3.917   2.653   9.145 -0.0516  0.2472 -0.2044
 8252SOL    HW136389   3.888   2.718   9.210  0.9299  0.5444 -0.0602
 8252SOL    HW236390   3.971   2.703   9.083 -1.2977  3.2462  1.1279
 8253SOL     OW36391   3.678   2.683   2.363  0.8229 -0.4368  0.2982
 8253SOL    HW136392   3.586   2.706   2.379  1.1833  0.7004  0.6848
 8253SOL    HW236393   3.701   2.770   2.331 -1.3776 -0.2977 -0.9200
 8254SOL     OW36394   0.975   1.294   5.444 -0.3342  0.4296  0.6050
 8254SOL    HW136395   0.881   1.298   5.431 -0.2070  1.0945 -0.1612
 8254SOL    HW236396   0.973   1.308   5.538  0.3441  1.4699  0.4724
 8255SOL     OW36397   2.836   2.038   9.099  0.4783 -0.2063 -0.2926
 8255SOL    HW136398   2.875   1.954   9.124 -1.3808 -1.0714 -0.2578
 8255SOL    HW236399   2.908   2.067   9.043  0.7491  0.4057  0.3755
 8256SOL     OW36400   2.982   2.088   0.267  0.2117  0.2251 -0.1034
 8256SOL    HW136401   2.961   2.106   0.358 -0.6850  2.6470 -0.7738
 8256SOL    HW236402   2.899   2.042   0.253 -0.5027  1.1711  0.9726
 8257SOL     OW36403   4.631   2.746   3.187  0.5022  0.1204  0.4700
 8257SOL    HW136404   4.551   2.795   3.207  1.1433  1.6165 -0.6128
 8257SOL    HW236405   4.627   2.745   3.092 -1.2837  0.1234  0.5500
 8258SOL     OW36406   0.326   4.461   5.101  0.0395  0.2545  0.0628
 8258SOL    HW136407   0.270   4.387   5.077  0.1805 -0.3644  1.6265
 8258SOL    HW236408   0.412   4.440   5.065  0.8708  2.0339  0.9825
 8259SOL     OW36409   4.359   4.280   0.615  0.3755  0.5699  0.2376
 8259SOL    HW136410   4.329   4.190   0.603  0.6804  0.6626 -1.1843
 8259SOL    HW236411   4.280   4.329   0.591  0.3746 -0.0703 -1.0536
 8260SOL     OW36412   3.565   0.515   3.086 -0.0649  0.1134  0.4735
 8260SOL    HW136413   3.508   0.465   3.027 -1.3378  1.4472  0.5735
 8260SOL    HW236414   3.645   0.463   3.092  1.4889  2.3640 -0.8185
 8261SOL     OW36415   3.240   3.308   3.357  0.0134 -0.6539 -0.1980
 8261SOL    HW136416   3.153   3.288   3.321  0.3577  0.5048 -1.6912
 8261SOL    HW236417   3.224   3.390   3.404  2.2323  1.5486 -3.2589
 8262SOL     OW36418   2.970   3.409  14.960  0.3011  0.5558 -0.3820
 8262SOL    HW136419   2.993   3.349  14.889 -0.1860 -0.0065 -0.0661
 8262SOL    HW236420   2.988   3.349  15.032 -1.0165 -0.5227 -0.9545
 8263SOL     OW36421   4.433   2.456  14.406  0.2692  0.2991 -0.6934
 8263SOL    HW136422   4.504   2.397  14.430  0.1454  0.8113  0.9831
 8263SOL    HW236423   4.359   2.398  14.391 -1.8644  2.4776  1.2947
 8264SOL     OW36424   3.801   0.172   3.991 -0.1241  0.1904  0.8286
 8264SOL    HW136425   3.713   0.207   4.008 -0.4676 -1.1226  1.7498
 8264SOL    HW236426   3.822   0.214   3.907  0.5078  1.3021  1.5373
 8265SOL     OW36427   0.987   1.607   1.633 -0.1324  0.0416  0.2532
 8265SOL    HW136428   1.070   1.561   1.616 -0.2758 -0.3669  0.6637
 8265SOL    HW236429   0.999   1.677   1.697  0.6325 -0.5716  0.7796
 8266SOL     OW36430   1.101   0.643   9.984  0.2482 -0.4093 -0.3804
 8266SOL    HW136431   1.067   0.630  10.073  0.6163  1.7566  0.0872
 8266SOL    HW236432   1.067   0.568   9.935 -1.1583 -0.1048  0.1327
 8267SOL     OW36433   1.890   1.565  14.760 -0.2201  0.4827  0.0313
 8267SOL    HW136434   1.905   1.653  14.724 -1.8644  1.4180  1.6671
 8267SOL    HW236435   1.978   1.536  14.784 -1.5407 -2.7285  0.8652
 8268SOL     OW36436   2.758   3.257   4.734  0.1969  0.1671  0.0657
 8268SOL    HW136437   2.724   3.302   4.657  1.2318 -0.3114 -0.6726
 8268SOL    HW236438   2.760   3.325   4.801 -2.2933 -0.6070  0.9111
 8269SOL     OW36439   1.427   4.420   8.762 -0.0046  0.1124  0.2191
 8269SOL    HW136440   1.372   4.344   8.739 -0.5460  0.6024 -0.0938
 8269SOL    HW236441   1.519   4.394   8.765 -0.1770 -0.3299  1.6628
 8270SOL     OW36442   1.120   0.376   8.006 -0.2221 -0.2503 -0.0900
 8270SOL    HW136443   1.185   0.329   7.955  1.3789  1.2452  0.5679
 8270SOL    HW236444   1.051   0.309   8.010 -2.2397  1.8493  0.0644
 8271SOL     OW36445   1.978   2.040   5.205 -0.6893  0.3393 -0.3991
 8271SOL    HW136446   2.039   2.095   5.253 -1.7122  2.4316 -1.4822
 8271SOL    HW236447   2.033   2.054   5.128  0.4572 -0.8369  0.2280
 8272SOL     OW36448   2.327   3.151  15.671  0.4995 -0.1301 -0.0424
 8272SOL    HW136449   2.339   3.130  15.763 -0.3274  0.7751  0.2689
 8272SOL    HW236450   2.233   3.157  15.655  0.3718  0.5842  1.0452
 8273SOL     OW36451   4.685   0.082   1.477  0.3580  0.1147 -0.6091
 8273SOL    HW136452   4.611   0.026   1.456 -1.0326 -0.2527  5.2678
 8273SOL    HW236453   0.020   0.019   1.460  1.0566  1.2588 -1.9424
 8274SOL     OW36454   2.778   2.071   6.701  0.0196  0.0624  0.2272
 8274SOL    HW136455   2.838   2.138   6.669 -1.4460  1.3643  0.2446
 8274SOL    HW236456   2.843   2.029   6.758  0.7163  1.0022  0.1316
 8275SOL     OW36457   0.093   0.562   3.994  0.1131 -0.5831 -0.3829
 8275SOL    HW136458   0.187   0.543   3.991  0.4622  1.2550 -1.5647
 8275SOL    HW236459   0.089   0.644   4.043  0.9916  0.2470 -1.6845
 8276SOL     OW36460   2.768   2.354   0.874 -0.0355 -0.2703 -0.2422
 8276SOL    HW136461   2.776   2.433   0.929 -0.4878 -0.2430 -0.2202
 8276SOL    HW236462   2.693   2.315   0.918  0.1211  0.0778  0.3516
 8277SOL     OW36463   4.010   0.810   5.744  0.0243 -0.1737 -0.1646
 8277SOL    HW136464   4.007   0.763   5.661  1.3098  1.8573 -1.3660
 8277SOL    HW236465   4.050   0.893   5.718 -1.2233  0.6366  0.4667
 8278SOL     OW36466   0.801   0.798   3.416 -0.0113 -0.6349 -0.4538
 8278SOL    HW136467   0.755   0.757   3.489  1.6813 -0.0662  0.9180
 8278SOL    HW236468   0.873   0.737   3.401  0.0189 -1.2281  2.0784
 8279SOL     OW36469   1.318   1.751   5.081 -0.0066 -0.1258 -0.4097
 8279SOL    HW136470   1.362   1.750   5.166 -0.6677 -0.1163 -0.0689
 8279SOL    HW236471   1.290   1.842   5.077  1.9726  0.4897 -0.2062
 8280SOL     OW36472   3.798   3.912  16.205 -0.8862 -0.2812  0.6432
 8280SOL    HW136473   3.876   3.917  16.261 -0.8068 -1.7334  0.6633
 8280SOL    HW236474   3.807   3.839  16.144 -0.0629 -1.7462  2.5395
 8281SOL     OW36475   1.741   4.137   5.415  0.1208  0.0650  0.0217
 8281SOL    HW136476   1.764   4.213   5.468  1.6262 -0.3985  0.0205
 8281SOL    HW236477   1.816   4.078   5.428  0.2513  0.1056 -0.5547
 8282SOL     OW36478   2.091   4.449  11.885 -0.3707  0.7590  0.5041
 8282SOL    HW136479   2.048   4.365  11.873 -0.7621  0.5522  3.5705
 8282SOL    HW236480   2.150   4.427  11.957  0.3222  2.1598  0.3842
 8283SOL     OW36481   2.151   3.947   6.162  0.0142 -0.2019  0.4606
 8283SOL    HW136482   2.173   4.026   6.211  0.9165  0.5578 -1.1528
 8283SOL    HW236483   2.089   3.918   6.228  0.4537  1.2595  1.5155
 8284SOL     OW36484   0.926   2.852  12.703 -0.4287 -0.6200  0.0322
 8284SOL    HW136485   0.955   2.928  12.652 -3.1684 -0.0424 -0.6926
 8284SOL    HW236486   0.831   2.858  12.693 -0.4457  0.2499  0.7309
 8285SOL     OW36487   1.433   1.223   7.254 -0.1865 -0.1531 -0.3255
 8285SOL    HW136488   1.410   1.315   7.243 -1.3310 -0.0202  2.9730
 8285SOL    HW236489   1.479   1.230   7.338 -2.7404 -0.8388  1.1293
 8286SOL     OW36490   3.181   4.356   2.554  0.5121 -0.3266  0.1016
 8286SOL    HW136491   3.242   4.283   2.557 -0.2155 -0.9699 -0.6653
 8286SOL    HW236492   3.132   4.340   2.634 -0.4770 -3.3458 -1.1106
 8287SOL     OW36493   2.562   2.226   6.757  0.1970 -0.4720  0.3030
 8287SOL    HW136494   2.599   2.301   6.710 -0.0593 -0.9080 -0.5856
 8287SOL    HW236495   2.641   2.172   6.761  1.6290  1.5822 -0.0446
 8288SOL     OW36496   1.793   0.233   9.268 -0.2455 -0.1551 -0.2049
 8288SOL    HW136497   1.731   0.171   9.305 -1.8095  0.9931 -0.8538
 8288SOL    HW236498   1.876   0.189   9.284  0.8367  1.1016 -2.3711
 8289SOL     OW36499   4.690   2.785  12.719 -0.7137 -0.3621  0.2781
 8289SOL    HW136500   4.709   2.879  12.719 -2.0275 -0.1062  0.6632
 8289SOL    HW236501   4.595   2.779  12.707 -0.6282  1.0222 -1.0655
 8290SOL     OW36502   1.871   1.603   7.751  0.3431 -0.3068  0.9665
 8290SOL    HW136503   1.816   1.591   7.829 -0.6698 -1.4252  0.0995
 8290SOL    HW236504   1.934   1.657   7.798 -1.0976  1.0642  1.3207
 8291SOL     OW36505   0.498   3.049   3.692  0.3087  0.2208 -0.2593
 8291SOL    HW136506   0.511   3.052   3.787 -1.6064 -1.0511  0.0311
 8291SOL    HW236507   0.469   2.959   3.680 -2.5742  1.0779  0.4341
 8292SOL     OW36508   2.443   4.671   6.930 -0.1077 -0.6807  0.2912
 8292SOL    HW136509   2.371   4.611   6.915 -1.0172  0.2188  1.0345
 8292SOL    HW236510   2.445   4.670   7.026  1.4981  0.6059  0.2896
 8293SOL     OW36511   2.107   0.200   9.059 -0.3122  0.2925  0.5080
 8293SOL    HW136512   2.046   0.127   9.056 -0.9401  0.9053 -1.6780
 8293SOL    HW236513   2.191   0.157   9.076  0.2262  1.7418  1.5604
 8294SOL     OW36514   0.111   3.636   5.043  0.6172  0.0082  0.0933
 8294SOL    HW136515   0.082   3.553   5.082 -0.1329 -0.2822 -1.0881
 8294SOL    HW236516   0.205   3.618   5.044  0.7202  0.5977  3.3517
 8295SOL     OW36517   2.808   4.052   8.558 -0.1880  0.0007 -0.1767
 8295SOL    HW136518   2.830   4.040   8.465 -1.2360  2.2772 -0.7367
 8295SOL    HW236519   2.740   3.987   8.571  0.9777 -0.9007  1.4492
 8296SOL     OW36520   0.370   1.727  17.109  0.5202  0.2013  0.2795
 8296SOL    HW136521   0.299   1.764  17.162  0.6763  0.6236  0.1883
 8296SOL    HW236522   0.419   1.804  17.080 -2.0072  2.7693  2.7512
 8297SOL     OW36523   1.558   4.350   7.044  0.0972  0.6157  0.0530
 8297SOL    HW136524   1.537   4.347   7.137 -0.8539  1.8468 -0.1223
 8297SOL    HW236525   1.515   4.432   7.016  0.7286  1.6733  2.1915
 8298SOL     OW36526   0.271   0.186   6.388  0.6537  0.0782  0.0587
 8298SOL    HW136527   0.280   0.099   6.348 -0.1205  0.1963 -0.3782
 8298SOL    HW236528   0.349   0.227   6.351  1.3246 -0.9658  0.3313
 8299SOL     OW36529   0.176   2.789   3.512  0.1953  0.5420 -0.0123
 8299SOL    HW136530   0.095   2.833   3.536 -0.1830 -1.3316  2.0541
 8299SOL    HW236531   0.146   2.739   3.436  1.1388  0.0801 -0.0835
 8300SOL     OW36532   3.346   3.711   3.309 -0.2104  0.3817  0.1931
 8300SOL    HW136533   3.367   3.787   3.364 -2.2372  1.8260 -1.0478
 8300SOL    HW236534   3.258   3.700   3.345 -0.7865  1.8471 -0.7607
 8301SOL     OW36535   2.241   1.681   7.776 -0.3723  0.7119 -0.5311
 8301SOL    HW136536   2.272   1.769   7.797  1.2337  0.0428 -0.1191
 8301SOL    HW236537   2.187   1.700   7.699 -1.1375 -0.1107 -0.1954
 8302SOL     OW36538   2.899   2.262   4.958  0.5775  0.1550 -0.7865
 8302SOL    HW136539   2.966   2.284   5.022 -0.1228 -0.7144  0.2437
 8302SOL    HW236540   2.817   2.260   5.007  1.6196  2.1932  1.0535
 8303SOL     OW36541   1.065   0.175   3.212 -0.1777  0.0547  0.3171
 8303SOL    HW136542   1.108   0.231   3.147 -1.0438 -0.0189 -0.3261
 8303SOL    HW236543   1.046   0.250   3.269  2.3758  1.2004 -0.3107
 8304SOL     OW36544   0.516   0.867  15.104 -0.3890 -0.1568 -0.3584
 8304SOL    HW136545   0.420   0.865  15.109 -0.2764 -0.7503  1.3867
 8304SOL    HW236546   0.538   0.826  15.187 -2.0657  2.9842  1.6142
 8305SOL     OW36547   1.611   2.742  13.141  0.2035  0.3479  0.4040
 8305SOL    HW136548   1.580   2.722  13.053 -1.1163 -1.8430  1.3553
 8305SOL    HW236549   1.547   2.810  13.156  1.3929  1.0159  2.3877
 8306SOL     OW36550   3.035   0.696   4.476 -0.2547  0.6076 -0.1796
 8306SOL    HW136551   3.126   0.716   4.498 -0.2104  2.2475 -1.9186
 8306SOL    HW236552   2.997   0.680   4.563 -0.4461  2.0842  0.0108
 8307SOL     OW36553   1.553   2.819   6.658 -0.1764 -0.0741 -0.0365
 8307SOL    HW136554   1.572   2.901   6.703 -1.4522 -0.2798  0.8815
 8307SOL    HW236555   1.624   2.814   6.594  0.2264  0.1340  0.3934
 8308SOL     OW36556   3.702   3.301   0.749 -0.0903 -0.3113  0.1266
 8308SOL    HW136557   3.726   3.386   0.712 -3.1226  0.6291  0.3608
 8308SOL    HW236558   3.609   3.289   0.727 -0.3373  1.6231  0.1534
 8309SOL     OW36559   4.109   3.396   2.260  0.1281  0.3313 -0.1720
 8309SOL    HW136560   4.063   3.419   2.341  1.0430  1.2981  0.0650
 8309SOL    HW236561   4.198   3.373   2.289 -0.2811  0.8079  1.4339
 8310SOL     OW36562   4.160   1.393   4.161 -0.3952  0.1220 -0.0330
 8310SOL    HW136563   4.110   1.331   4.214  0.9998  0.5664  1.7916
 8310SOL    HW236564   4.160   1.468   4.220  0.2786 -1.2449  1.6816
 8311SOL     OW36565   1.777   1.541  14.486 -0.5700 -0.8704  0.4023
 8311SOL    HW136566   1.830   1.521  14.563  0.8744  1.6186  0.0689
 8311SOL    HW236567   1.737   1.624  14.514  2.8573  1.1243 -0.5835
 8312SOL     OW36568   3.872   4.534   0.340  0.0391  0.1777 -0.3334
 8312SOL    HW136569   3.959   4.545   0.302  0.2288 -0.4969 -0.0919
 8312SOL    HW236570   3.834   4.622   0.335  0.0820  0.3494  2.7240
 8313SOL     OW36571   3.392   4.339   2.250  0.1047 -0.1253 -0.2602
 8313SOL    HW136572   3.398   4.253   2.207  1.3084 -0.7970  1.2539
 8313SOL    HW236573   3.300   4.349   2.275  0.1346  0.1912 -0.2873
 8314SOL     OW36574   4.476   1.084   9.723  0.0158 -0.1662  0.7136
 8314SOL    HW136575   4.553   1.107   9.775  0.0214  0.3472  0.4752
 8314SOL    HW236576   4.517   1.073   9.637 -1.5138  0.3344 -0.0676
 8315SOL     OW36577   2.064   3.577   2.201  0.0411  0.2148 -0.4117
 8315SOL    HW136578   2.003   3.543   2.135 -0.1187 -1.0575  0.3982
 8315SOL    HW236579   2.072   3.668   2.173 -0.7330 -0.1942 -1.9735
 8316SOL     OW36580   1.968   3.329   8.993  0.1884  0.6337 -0.8880
 8316SOL    HW136581   1.887   3.362   8.954 -0.7766 -2.5055 -1.5789
 8316SOL    HW236582   1.936   3.259   9.050 -1.9580  1.5401 -1.0160
 8317SOL     OW36583   4.729   2.105  15.928 -0.2021 -0.2325  0.3338
 8317SOL    HW136584   4.651   2.159  15.920  0.2171  0.1956 -0.8513
 8317SOL    HW236585   0.065   2.167  15.924 -0.9558  0.6883  1.1208
 8318SOL     OW36586   2.626   4.512   4.669 -0.3519  0.4060 -0.8913
 8318SOL    HW136587   2.596   4.552   4.588  0.6856  0.2572 -1.3607
 8318SOL    HW236588   2.577   4.430   4.671  1.7691 -0.8219  0.9648
 8319SOL     OW36589   3.800   2.141   3.632  0.0228 -0.1699  0.4319
 8319SOL    HW136590   3.705   2.131   3.635 -0.1633  1.1860 -0.9062
 8319SOL    HW236591   3.812   2.177   3.544 -1.2490 -2.2535 -0.5695
 8320SOL     OW36592   3.842   3.676   5.923 -0.1752 -1.0154 -0.6379
 8320SOL    HW136593   3.926   3.638   5.898 -0.2677 -0.3275 -2.0085
 8320SOL    HW236594   3.780   3.604   5.911 -0.6863 -0.9843  1.7816
 8321SOL     OW36595   2.102   1.090   8.557  0.0811  0.1528  0.0448
 8321SOL    HW136596   2.193   1.060   8.548 -0.1803 -1.0727  1.4761
 8321SOL    HW236597   2.127   1.180   8.578  0.1004 -0.0009  0.6665
 8322SOL     OW36598   4.036   3.923  16.313 -0.1353  0.6091 -0.4938
 8322SOL    HW136599   4.076   3.927  16.227 -2.8319  1.9572 -1.6929
 8322SOL    HW236600   4.109   3.958  16.363 -0.6984 -0.4882  1.1124
 8323SOL     OW36601   4.241   1.455   9.587 -0.0312  0.1257 -0.2406
 8323SOL    HW136602   4.182   1.383   9.604 -1.2953  0.8216 -1.7700
 8323SOL    HW236603   4.198   1.529   9.630 -1.0402 -1.2985  1.2128
 8324SOL     OW36604   4.693   3.455   6.173  0.0224 -0.2088  0.2876
 8324SOL    HW136605   4.733   3.387   6.228  0.0452 -0.8777 -0.5556
 8324SOL    HW236606   4.600   3.448   6.195  0.3450  2.9549  2.6181
 8325SOL     OW36607   2.347   1.795   5.063 -0.1943  0.6267  0.0903
 8325SOL    HW136608   2.337   1.857   5.135 -1.2160 -0.8229  1.1927
 8325SOL    HW236609   2.349   1.708   5.102 -1.5889  1.1260  1.2332
 8326SOL     OW36610   4.121   0.952  14.839 -0.3013 -0.3830  0.3095
 8326SOL    HW136611   4.083   0.875  14.798  1.1629 -1.1668  0.4296
 8326SOL    HW236612   4.068   1.016  14.791  1.4521  0.8675  0.0706
 8327SOL     OW36613   4.652   1.934  14.981 -0.0973  0.3461  0.1526
 8327SOL    HW136614   4.609   1.849  14.982 -0.8669  0.7295 -0.1126
 8327SOL    HW236615   4.697   1.937  15.066 -1.8022 -2.7711  1.1661
 8328SOL     OW36616   4.265   1.701   6.094 -0.2502  0.3148  0.3647
 8328SOL    HW136617   4.308   1.705   6.009  0.8587  1.7930  1.0126
 8328SOL    HW236618   4.230   1.611   6.093 -0.5125  0.4109  0.9138
 8329SOL     OW36619   0.736   3.799  13.703 -0.1050 -0.2316  0.1037
 8329SOL    HW136620   0.644   3.796  13.731 -0.4963  0.6346 -1.1403
 8329SOL    HW236621   0.768   3.749  13.779 -4.3914 -0.6484  1.6904
 8330SOL     OW36622   2.329   1.180   5.890  0.1564 -0.3203 -0.1586
 8330SOL    HW136623   2.282   1.180   5.807  2.8014  1.6561 -1.6298
 8330SOL    HW236624   2.412   1.213   5.856 -0.5697  2.0767  0.4523
 8331SOL     OW36625   3.273   2.828   6.998 -0.5896  0.1109  0.2524
 8331SOL    HW136626   3.230   2.910   7.021  1.7616  1.0606  1.2669
 8331SOL    HW236627   3.308   2.846   6.910 -2.5726  1.5592 -0.2352
 8332SOL     OW36628   1.036   2.757  11.106 -0.4482 -0.1606  0.1230
 8332SOL    HW136629   1.107   2.821  11.106 -2.6948  2.3222 -2.9065
 8332SOL    HW236630   1.068   2.678  11.149  0.2582  0.3186  0.4779
 8333SOL     OW36631   0.035   4.734  12.997  0.4699 -0.5516 -0.3635
 8333SOL    HW136632   0.022   4.663  13.061  2.1452 -2.1202 -1.7617
 8333SOL    HW236633   4.682   0.002  12.965 -0.4734 -1.2356  2.1621
 8334SOL     OW36634   1.161   1.565  12.446 -0.6419 -0.4841 -0.0784
 8334SOL    HW136635   1.243   1.516  12.440  0.2596  0.6990  2.4234
 8334SOL    HW236636   1.098   1.494  12.438 -1.2771 -0.0169  0.7319
 8335SOL     OW36637   0.207   3.277   7.612 -0.1100  0.3381  0.0131
 8335SOL    HW136638   0.270   3.226   7.664  1.1019  0.0405 -1.7376
 8335SOL    HW236639   0.226   3.244   7.525 -1.2826 -0.3736  0.0366
 8336SOL     OW36640   2.451   4.200  13.407  0.4233 -0.2528  0.0087
 8336SOL    HW136641   2.463   4.111  13.440 -0.2512 -0.2704  0.2083
 8336SOL    HW236642   2.449   4.174  13.315 -0.5748  0.4637 -0.1812
 8337SOL     OW36643   0.933   4.638   9.218 -0.3747  0.1610  0.1060
 8337SOL    HW136644   0.884   4.615   9.139  2.8971  2.3240 -2.5444
 8337SOL    HW236645   0.874   4.616   9.291 -0.4406  0.1291  0.0424
 8338SOL     OW36646   4.695   0.821   5.817  0.3451  0.6127 -0.3677
 8338SOL    HW136647   4.637   0.807   5.743  1.1251 -0.9423 -0.6985
 8338SOL    HW236648   0.043   0.795   5.780  0.8792 -1.4473  2.3093
 8339SOL     OW36649   3.427   1.247   5.059  0.7616 -0.3127  0.3477
 8339SOL    HW136650   3.398   1.215   5.144 -1.8985  0.9216 -0.1099
 8339SOL    HW236651   3.507   1.283   5.097  0.6241  1.6620 -1.1944
 8340SOL     OW36652   4.287   3.882   6.823 -0.4297  0.2224  0.1903
 8340SOL    HW136653   4.257   3.970   6.799 -0.0233  0.1375 -0.6340
 8340SOL    HW236654   4.345   3.868   6.748 -2.1853 -1.3315 -0.8847
 8341SOL     OW36655   4.664   1.905   2.165  0.5502  0.4973  0.0054
 8341SOL    HW136656   4.670   1.885   2.072  1.6500 -0.8551  0.3609
 8341SOL    HW236657   4.665   1.815   2.197  1.2554  1.0566  1.5795
 8342SOL     OW36658   2.101   1.409   4.824  0.0523 -0.0981 -0.1054
 8342SOL    HW136659   2.190   1.377   4.807  0.6955  1.7588 -0.1786
 8342SOL    HW236660   2.090   1.466   4.748 -0.5555  0.8902  0.7265
 8343SOL     OW36661   1.051   3.372   5.589  0.1898  0.3227 -0.1367
 8343SOL    HW136662   0.983   3.309   5.565  1.5898 -0.8072 -1.2000
 8343SOL    HW236663   1.019   3.456   5.557 -1.6881  0.0343  1.0012
 8344SOL     OW36664   1.293   3.191  10.307 -0.4055  0.6566 -0.3389
 8344SOL    HW136665   1.249   3.154  10.383 -2.0421  0.2204 -1.5040
 8344SOL    HW236666   1.301   3.114  10.251  1.5128  1.0599 -0.6340
 8345SOL     OW36667   3.542   2.527   0.275  0.6924  0.2797 -0.2808
 8345SOL    HW136668   3.605   2.579   0.224  0.2838 -0.7353 -1.8506
 8345SOL    HW236669   3.516   2.459   0.212  0.0309 -1.3118  1.7125
 8346SOL     OW36670   3.671   4.266   5.863  0.1391  0.3696  1.0173
 8346SOL    HW136671   3.706   4.322   5.933  0.7541  0.0122  0.9907
 8346SOL    HW236672   3.577   4.285   5.867  0.0747 -0.1425  1.9272
 8347SOL     OW36673   1.799   2.625   5.576 -0.3265  0.1838 -0.6285
 8347SOL    HW136674   1.882   2.578   5.569 -1.3751 -1.7990  0.1694
 8347SOL    HW236675   1.736   2.554   5.563 -1.6242  1.0902  0.6950
 8348SOL     OW36676   1.855   1.591   7.280  0.8011  0.3475 -0.0173
 8348SOL    HW136677   1.776   1.635   7.248  1.3396  0.9612 -0.5020
 8348SOL    HW236678   1.891   1.549   7.202 -0.2698 -0.7532  0.0977
 8349SOL     OW36679   4.539   1.603   4.610  0.2942  0.1387 -0.4841
 8349SOL    HW136680   4.523   1.696   4.623 -0.6155 -0.0953  0.0599
 8349SOL    HW236681   4.493   1.576   4.531 -1.3475 -0.1039  0.5498
 8350SOL     OW36682   3.431   0.700   0.238 -0.4944 -0.1871 -0.8743
 8350SOL    HW136683   3.348   0.700   0.285  0.4427  1.8875  0.7939
 8350SOL    HW236684   3.473   0.689   0.324 -0.7579  0.6465 -0.6393
 8351SOL     OW36685   2.054   2.735   5.820 -0.6367 -0.2776 -0.4397
 8351SOL    HW136686   2.049   2.688   5.737 -2.1975  1.5972 -1.3958
 8351SOL    HW236687   2.113   2.679   5.871 -0.2492  1.5422  1.1179
 8352SOL     OW36688   0.681   1.844   2.411 -0.1049  0.0930 -0.7387
 8352SOL    HW136689   0.591   1.835   2.443  0.0793  2.8830  0.5565
 8352SOL    HW236690   0.672   1.829   2.317  0.4723 -0.7046 -0.6579
 8353SOL     OW36691   1.372   0.222   3.301  0.4675  0.2231  0.2482
 8353SOL    HW136692   1.282   0.237   3.271  0.8533 -0.6076 -1.2873
 8353SOL    HW236693   1.412   0.199   3.217 -1.3004  0.6698 -0.7233
 8354SOL     OW36694   0.171   1.113   2.546 -0.0166 -0.0361 -0.1791
 8354SOL    HW136695   0.180   1.178   2.477 -1.6839  0.5028  0.1283
 8354SOL    HW236696   0.260   1.079   2.557 -0.2384 -1.4154 -2.7922
 8355SOL     OW36697   0.826   2.614   6.743 -0.7169  0.0328 -0.4885
 8355SOL    HW136698   0.770   2.646   6.672 -0.1942  0.1223 -0.8696
 8355SOL    HW236699   0.894   2.572   6.690  0.6388 -0.4860  1.6706
 8356SOL     OW36700   4.039   1.724  13.533  0.1980  0.1619 -0.2663
 8356SOL    HW136701   4.131   1.746  13.526  0.3756 -0.8707 -1.1079
 8356SOL    HW236702   4.032   1.663  13.606  0.6981 -4.0057 -3.7091
 8357SOL     OW36703   4.728   1.362   4.991  0.2535 -0.6655  0.0447
 8357SOL    HW136704   4.685   1.401   5.067  0.3093 -0.0016 -0.2641
 8357SOL    HW236705   0.080   1.396   5.007 -0.3090 -0.4612  2.7432
 8358SOL     OW36706   1.056   0.704   3.325 -0.4567  0.4884  0.2346
 8358SOL    HW136707   1.138   0.664   3.352  1.0207  1.8403 -2.2706
 8358SOL    HW236708   1.066   0.701   3.230  1.8034 -0.4893  0.5155
 8359SOL     OW36709   3.676   0.316   7.177  0.4212  0.1162 -0.3916
 8359SOL    HW136710   3.727   0.256   7.124 -1.1764 -2.1727  0.6483
 8359SOL    HW236711   3.703   0.404   7.149  1.2618  0.4509  1.4459
 8360SOL     OW36712   3.591   1.836   9.150  0.1175  0.0760 -0.5468
 8360SOL    HW136713   3.639   1.824   9.068  0.4611  1.2717 -0.5307
 8360SOL    HW236714   3.598   1.931   9.163 -0.9448  0.0371  0.3471
 8361SOL     OW36715   3.039   4.604   8.027 -0.9581  0.5060 -0.1432
 8361SOL    HW136716   2.968   4.546   7.999 -0.6747 -0.4657  1.1439
 8361SOL    HW236717   2.992   4.678   8.064  0.2914  0.8015  0.8316
 8362SOL     OW36718   0.582   3.149   3.941 -0.2121  0.5246  0.3507
 8362SOL    HW136719   0.601   3.229   3.893 -1.5456  0.7084  0.1279
 8362SOL    HW236720   0.547   3.186   4.022 -0.3838 -0.7614  0.8734
 8363SOL     OW36721   4.600   3.931   6.466  0.5211  0.1380 -0.0757
 8363SOL    HW136722   4.542   4.003   6.443 -0.0377  0.1960  1.5027
 8363SOL    HW236723   4.555   3.891   6.540  1.1890  1.2115  0.9037
 8364SOL     OW36724   2.637   1.216   2.024  0.5647  0.6146  0.0009
 8364SOL    HW136725   2.576   1.159   1.978  2.1247 -0.7884 -0.3416
 8364SOL    HW236726   2.578   1.271   2.077  0.3777  2.0965 -1.7517
 8365SOL     OW36727   0.558   2.421   7.146 -0.0205  0.6256  0.1168
 8365SOL    HW136728   0.616   2.451   7.075  0.3875  0.1849  0.2637
 8365SOL    HW236729   0.477   2.426   7.096  0.9244 -0.7816 -1.5628
 8366SOL     OW36730   2.748   2.894   6.221  0.1744  0.9579  0.3039
 8366SOL    HW136731   2.773   2.886   6.129  1.1446  0.4177  0.6098
 8366SOL    HW236732   2.833   2.905   6.263  0.5831  2.7155 -1.0016
 8367SOL     OW36733   3.594   1.388   0.140 -0.1525  0.3148  0.1465
 8367SOL    HW136734   3.562   1.407   0.052 -0.3725  2.0249  0.5924
 8367SOL    HW236735   3.522   1.340   0.181 -0.3542  0.9224  0.5121
 8368SOL     OW36736   0.670   2.428   6.871  0.7990 -0.9699  0.2742
 8368SOL    HW136737   0.594   2.445   6.814 -1.9030 -1.9621  3.5826
 8368SOL    HW236738   0.736   2.476   6.822 -1.8189  3.6311  1.2339
 8369SOL     OW36739   1.149   2.780   0.607 -0.3157  0.2996 -0.5160
 8369SOL    HW136740   1.232   2.768   0.562 -0.3511 -2.5964  0.1727
 8369SOL    HW236741   1.104   2.698   0.584 -0.4152  0.9503 -2.7079
 8370SOL     OW36742   4.242   3.066   5.153 -0.0968  0.0726 -0.2553
 8370SOL    HW136743   4.300   3.012   5.099 -0.2926  0.3792 -0.7697
 8370SOL    HW236744   4.283   3.053   5.239 -0.3626  0.4560 -0.0733
 8371SOL     OW36745   2.446   2.991  11.551 -0.3249  0.4383 -0.1273
 8371SOL    HW136746   2.477   3.073  11.590  0.2226 -0.2129  0.8230
 8371SOL    HW236747   2.533   2.952  11.543 -0.3659  0.1323  0.9017
 8372SOL     OW36748   1.689   2.063   1.851  0.4506 -0.1762 -0.4811
 8372SOL    HW136749   1.771   2.017   1.865  0.5989  0.3255  0.2964
 8372SOL    HW236750   1.680   2.052   1.757  1.7831 -1.8703 -0.4160
 8373SOL     OW36751   3.524   3.280  12.412  0.4958  0.4108 -0.3057
 8373SOL    HW136752   3.448   3.254  12.360  0.7670 -1.3869  0.2092
 8373SOL    HW236753   3.583   3.331  12.356  2.0298 -1.0709 -0.0447
 8374SOL     OW36754   2.216   4.545   7.836  0.0902 -0.2270 -0.3532
 8374SOL    HW136755   2.135   4.579   7.799  0.8131 -0.4429 -2.1242
 8374SOL    HW236756   2.192   4.454   7.848  1.0874 -0.5007 -0.4132
 8375SOL     OW36757   1.222   2.057   3.301  0.5692  0.1434 -0.5948
 8375SOL    HW136758   1.202   2.022   3.388 -1.4497  2.5691 -0.0887
 8375SOL    HW236759   1.298   2.115   3.310  0.8294 -0.9205  3.9496
 8376SOL     OW36760   1.928   4.730  11.036  0.5808 -0.0654  0.0506
 8376SOL    HW136761   1.876   4.661  11.075 -0.5008 -0.6074 -2.3130
 8376SOL    HW236762   1.880   0.070  11.067  0.8750  0.0966  0.1027
 8377SOL     OW36763   0.808   3.246   9.468  0.1446 -0.2372 -0.4030
 8377SOL    HW136764   0.871   3.226   9.399 -0.0764  0.1549 -0.7155
 8377SOL    HW236765   0.722   3.220   9.436 -0.8373  0.0752  1.9822
 8378SOL     OW36766   2.078   2.354   5.171  0.1566  0.5059 -0.3699
 8378SOL    HW136767   2.023   2.431   5.154 -1.0039 -0.6783 -1.9740
 8378SOL    HW236768   2.068   2.322   5.081  0.4521 -2.6178  0.7109
 8379SOL     OW36769   0.635   3.367   5.106 -0.3933 -0.1223 -0.6267
 8379SOL    HW136770   0.667   3.289   5.060  2.2125  0.1039  0.7663
 8379SOL    HW236771   0.706   3.367   5.171 -2.0547 -0.0929  1.1957
 8380SOL     OW36772   3.608   4.009   8.460  0.2169 -0.0305  0.0350
 8380SOL    HW136773   3.577   3.989   8.372 -1.6650  1.4751  0.3544
 8380SOL    HW236774   3.643   4.096   8.443 -3.4915  0.6590 -4.0479
 8381SOL     OW36775   3.059   2.235   9.289 -0.1586  0.4865  0.4520
 8381SOL    HW136776   3.048   2.150   9.331 -1.1565 -1.3245 -3.5011
 8381SOL    HW236777   3.098   2.205   9.208  0.5451 -0.0581  0.9999
 8382SOL     OW36778   3.415   2.637   7.132 -0.5042  0.5073  0.2754
 8382SOL    HW136779   3.380   2.567   7.077 -3.0556  1.1836  1.0429
 8382SOL    HW236780   3.379   2.707   7.077 -1.3294  0.6029  0.9414
 8383SOL     OW36781   2.293   1.915   5.316 -0.5071  0.9076 -0.1963
 8383SOL    HW136782   2.215   1.960   5.346 -0.2059  0.6808  0.9111
 8383SOL    HW236783   2.336   1.899   5.400 -0.6269 -0.0103 -0.3118
 8384SOL     OW36784   3.286   2.905   8.631 -0.2129 -0.3550 -0.2652
 8384SOL    HW136785   3.356   2.970   8.639 -1.2008  0.9530 -2.3176
 8384SOL    HW236786   3.206   2.956   8.617  0.4472  1.4024  2.3989
 8385SOL     OW36787   0.699   4.664   6.292  0.5080  0.0183  0.1272
 8385SOL    HW136788   0.707   4.720   6.215 -1.2390  0.3224  0.1690
 8385SOL    HW236789   0.778   4.697   6.334 -0.7272  0.7937  1.8464
 8386SOL     OW36790   1.042   1.349   1.023 -0.0660  0.1749 -0.2961
 8386SOL    HW136791   1.030   1.333   1.116  0.3843 -2.0029 -0.6242
 8386SOL    HW236792   1.102   1.423   1.011 -1.0049  0.9549 -0.2019
 8387SOL     OW36793   2.138   0.383  12.592  0.1261  0.2329 -0.6822
 8387SOL    HW136794   2.214   0.438  12.574 -1.9158  2.8699 -1.2817
 8387SOL    HW236795   2.096   0.365  12.507  1.3220 -2.2414 -0.7618
 8388SOL     OW36796   1.680   0.981   5.005  0.2101 -0.5500  0.2721
 8388SOL    HW136797   1.604   0.924   4.996 -0.8693  0.7169  1.3700
 8388SOL    HW236798   1.673   1.013   5.095 -2.3694  0.6281 -0.3343
 8389SOL     OW36799   1.654   1.766  11.249 -0.0154  0.3447  0.0321
 8389SOL    HW136800   1.652   1.763  11.154  0.1628  1.1234  0.0056
 8389SOL    HW236801   1.738   1.804  11.274  1.0625 -1.2081 -1.1814
 8390SOL     OW36802   1.661   3.111   7.078  0.3189 -0.2330 -0.1033
 8390SOL    HW136803   1.606   3.061   7.139  0.9537  0.5051  1.0646
 8390SOL    HW236804   1.745   3.074   7.106  0.9378  1.6548  0.5000
 8391SOL     OW36805   2.988   3.604   6.733 -0.4517 -0.2334 -0.6760
 8391SOL    HW136806   2.940   3.613   6.815  1.7949 -1.4329  0.7391
 8391SOL    HW236807   3.000   3.509   6.724 -0.0502  0.0045 -2.6160
 8392SOL     OW36808   0.691   4.190   7.709  0.0133  0.4007 -0.1034
 8392SOL    HW136809   0.721   4.247   7.779  2.3427 -0.7424 -0.1889
 8392SOL    HW236810   0.626   4.242   7.662  2.0506  1.0544 -2.1856
 8393SOL     OW36811   0.463   4.354   4.074  0.1491  0.1831 -0.2186
 8393SOL    HW136812   0.463   4.449   4.064  0.3903 -0.0587 -2.4633
 8393SOL    HW236813   0.454   4.341   4.169 -3.1004 -0.5049 -0.6304
 8394SOL     OW36814   1.058   1.851   3.869  0.0347  0.4316  0.2514
 8394SOL    HW136815   1.118   1.877   3.939 -1.5290 -2.0027  2.4550
 8394SOL    HW236816   1.097   1.904   3.799  0.2642 -1.3838 -0.9987
 8395SOL     OW36817   3.626   4.426  12.000 -0.3747  0.2756  0.3926
 8395SOL    HW136818   3.673   4.364  11.945  0.2857  0.1100  1.1524
 8395SOL    HW236819   3.541   4.422  11.957  0.0368 -0.9820 -0.2955
 8396SOL     OW36820   2.255   3.973   9.238  0.3793 -0.3936  0.1663
 8396SOL    HW136821   2.260   4.068   9.242 -4.7252 -0.1101  0.1790
 8396SOL    HW236822   2.193   3.949   9.306  2.3419  0.2565  2.1809
 8397SOL     OW36823   2.607   3.359   3.038 -0.0853 -0.1129  0.8101
 8397SOL    HW136824   2.537   3.294   3.049 -1.4970  1.2255 -0.5193
 8397SOL    HW236825   2.643   3.372   3.126  3.5027 -3.6570 -0.1188
 8398SOL     OW36826   4.292   4.517  14.432  0.4595  0.5264 -0.1582
 8398SOL    HW136827   4.325   4.431  14.406  0.8839 -0.1998  2.7460
 8398SOL    HW236828   4.346   4.582  14.388  0.5421 -1.4753 -3.0032
 8399SOL     OW36829   3.592   4.101   2.610  0.3121  0.0365 -0.3684
 8399SOL    HW136830   3.504   4.118   2.576  1.0958 -0.5598 -2.6920
 8399SOL    HW236831   3.579   4.118   2.704  1.6616 -0.9773  0.0062
 8400SOL     OW36832   4.034   3.110   7.379  0.3076  0.5382  0.1944
 8400SOL    HW136833   4.077   3.146   7.301  0.2083 -1.0950 -0.6168
 8400SOL    HW236834   3.955   3.164   7.383  0.8821  1.3712  0.2305
 8401SOL     OW36835   0.216   3.377   7.923 -0.3739 -0.1202 -0.5655
 8401SOL    HW136836   0.177   3.295   7.892  0.1338 -0.4925 -0.2210
 8401SOL    HW236837   0.190   3.367   8.015  1.6571  1.0488  0.1305
 8402SOL     OW36838   3.507   4.590  11.661 -0.0682  0.3388  0.2076
 8402SOL    HW136839   3.431   4.552  11.618  0.1739 -0.1885  0.2487
 8402SOL    HW236840   3.579   4.555  11.608 -0.3172  0.0439  0.0667
 8403SOL     OW36841   1.808   4.348   9.730  0.7132  0.1600 -0.2508
 8403SOL    HW136842   1.812   4.444   9.731  0.7721  0.1937 -2.9832
 8403SOL    HW236843   1.763   4.334   9.813  0.1769 -1.8801 -0.9044
 8404SOL     OW36844   0.649   3.472   4.250 -0.7206 -0.4725  0.1554
 8404SOL    HW136845   0.636   3.428   4.334 -1.6036  3.9431  2.3214
 8404SOL    HW236846   0.738   3.440   4.232 -1.0177 -2.0657  1.5370
 8405SOL     OW36847   1.851   3.797   3.003  0.3253  0.7118  0.8589
 8405SOL    HW136848   1.840   3.766   2.913 -0.3879  1.4312  0.6945
 8405SOL    HW236849   1.946   3.807   3.007  0.5838 -1.9621  1.0747
 8406SOL     OW36850   4.395   0.681  15.730 -0.2716 -0.0181 -0.0274
 8406SOL    HW136851   4.418   0.770  15.703  1.2067 -0.6242 -0.7791
 8406SOL    HW236852   4.434   0.629  15.660 -1.4391 -0.9335 -0.0054
 8407SOL     OW36853   0.321   0.392  16.713  0.1310  0.1310 -0.1019
 8407SOL    HW136854   0.305   0.479  16.749  0.2783  1.0862 -2.2885
 8407SOL    HW236855   0.417   0.395  16.709  0.1311  0.0745 -0.1297
 8408SOL     OW36856   3.819   1.176   8.547  0.1358  0.1438 -0.0668
 8408SOL    HW136857   3.780   1.094   8.519  0.5589  0.8388 -2.7061
 8408SOL    HW236858   3.854   1.135   8.626 -0.1024  1.6458  0.8238
 8409SOL     OW36859   0.111   3.330   6.847 -0.4275  0.2911 -0.2555
 8409SOL    HW136860   0.138   3.419   6.871 -0.0572 -0.0316  0.5465
 8409SOL    HW236861   0.160   3.275   6.909 -2.0581  0.1005  0.8491
 8410SOL     OW36862   3.335   2.360   6.025 -0.2403  0.2350  0.2714
 8410SOL    HW136863   3.303   2.382   6.112 -0.2421  2.2042 -0.2169
 8410SOL    HW236864   3.254   2.313   6.007  0.8802 -0.6051 -2.5636
 8411SOL     OW36865   0.032   1.087  17.538 -0.0970 -0.4612  0.3381
 8411SOL    HW136866   0.040   1.154  17.469  0.4432 -1.4170 -0.5395
 8411SOL    HW236867   0.010   1.011  17.484  0.8801 -0.1253 -0.5587
 8412SOL     OW36868   4.392   0.345   7.424  0.5487  0.3038 -0.5345
 8412SOL    HW136869   4.372   0.280   7.356  1.4119  2.4265 -2.8452
 8412SOL    HW236870   4.411   0.420   7.367  4.0484  0.3930  0.7576
 8413SOL     OW36871   0.403   0.275   6.812 -0.7055 -0.4661 -0.0320
 8413SOL    HW136872   0.453   0.245   6.736 -0.5442  2.2360 -0.9745
 8413SOL    HW236873   0.407   0.369   6.792 -0.2999 -0.2464  1.1130
 8414SOL     OW36874   3.774   2.365  13.145  0.1711  0.1740  0.1603
 8414SOL    HW136875   3.702   2.382  13.085  3.6547 -0.6645 -4.3195
 8414SOL    HW236876   3.721   2.308  13.199 -0.2042  1.4858  1.1546
 8415SOL     OW36877   4.555   2.169   7.882  0.0838 -0.3527  0.3403
 8415SOL    HW136878   4.542   2.262   7.895  0.9025  0.0213 -1.4871
 8415SOL    HW236879   4.569   2.145   7.974 -2.8544  1.1822  1.1744
 8416SOL     OW36880   1.567   0.663   6.004  0.7021  0.3798  0.0602
 8416SOL    HW136881   1.597   0.754   5.997 -0.4836  0.6020 -2.0695
 8416SOL    HW236882   1.604   0.640   6.090  1.1842  0.8407 -0.0206
 8417SOL     OW36883   0.964   0.554   3.840  0.4448  0.0002 -0.2461
 8417SOL    HW136884   0.915   0.525   3.764  1.0564 -0.2027 -0.5599
 8417SOL    HW236885   0.880   0.583   3.878  0.5955 -0.9624  0.8066
 8418SOL     OW36886   0.946   2.941   6.125 -0.5803  0.3009  0.8341
 8418SOL    HW136887   0.855   2.911   6.126 -1.0428  1.7353  1.9672
 8418SOL    HW236888   0.950   2.998   6.201  2.1714 -0.3538  1.1736
 8419SOL     OW36889   3.352   1.969   0.061  0.1700 -0.3147 -0.2293
 8419SOL    HW136890   3.394   2.033   0.003 -2.1546 -0.2917 -1.9316
 8419SOL    HW236891   3.401   1.890   0.042 -1.5525 -1.1516 -1.2191
 8420SOL     OW36892   3.506   1.758  17.740  0.2993  0.0974  0.0215
 8420SOL    HW136893   3.573   1.719  17.684  1.4715  0.7768  0.9632
 8420SOL    HW236894   3.457   1.678   0.014 -0.3118 -0.1029 -2.4292
 8421SOL     OW36895   0.809   3.199   9.733 -0.1867 -0.0979 -0.1809
 8421SOL    HW136896   0.788   3.222   9.643 -0.4327  0.5716  0.0414
 8421SOL    HW236897   0.763   3.116   9.744  1.2799 -0.7724  0.9704
 8422SOL     OW36898   2.181   2.250   8.211  0.0202  0.2424  0.0227
 8422SOL    HW136899   2.230   2.233   8.291 -0.2154 -0.2415  0.0629
 8422SOL    HW236900   2.104   2.201   8.238  0.7008 -0.8674 -0.0327
 8423SOL     OW36901   4.327   0.936   5.098 -0.5523  0.0079  0.1104
 8423SOL    HW136902   4.374   1.019   5.106  0.4154 -0.3048 -2.1872
 8423SOL    HW236903   4.314   0.932   5.003  0.7889  2.6510 -0.1825
 8424SOL     OW36904   2.699   2.593   5.776  0.0948 -0.2410 -0.6229
 8424SOL    HW136905   2.675   2.587   5.684 -0.5125  3.0891 -0.6583
 8424SOL    HW236906   2.615   2.619   5.813 -0.3440 -0.7894 -1.2326
 8425SOL     OW36907   0.634   0.357   9.167 -0.1338 -0.6090  0.0793
 8425SOL    HW136908   0.566   0.363   9.099 -1.1400 -1.2535  1.0292
 8425SOL    HW236909   0.685   0.425   9.123  1.3153 -0.5744  1.8563
 8426SOL     OW36910   1.682   4.431  10.589  0.2633 -0.2812 -0.6767
 8426SOL    HW136911   1.763   4.473  10.615 -0.1342 -0.7049  1.2562
 8426SOL    HW236912   1.705   4.339  10.574 -0.4639 -0.7429  1.0077
 8427SOL     OW36913   1.276   4.308   9.659 -0.1532  0.0429 -0.2465
 8427SOL    HW136914   1.314   4.392   9.686 -0.3483 -1.0722  3.4883
 8427SOL    HW236915   1.258   4.258   9.738  0.9940  0.8547  0.5325
 8428SOL     OW36916   3.888   0.805   6.007 -0.3458  0.1765 -0.4432
 8428SOL    HW136917   3.957   0.870   6.020  0.2590 -0.3807 -0.9160
 8428SOL    HW236918   3.878   0.805   5.912 -1.1625 -0.4477 -0.3538
 8429SOL     OW36919   1.142   1.048  15.219  0.4606  0.5428  0.1957
 8429SOL    HW136920   1.230   1.071  15.188  0.5552 -1.5946 -1.0967
 8429SOL    HW236921   1.143   1.070  15.313  0.5967  0.3943  0.2278
 8430SOL     OW36922   3.804   3.697   2.477 -0.4849 -0.1736  0.3966
 8430SOL    HW136923   3.800   3.738   2.563  0.4633 -3.6486  2.0970
 8430SOL    HW236924   3.775   3.771   2.423  1.1543  0.5638  0.5265
 8431SOL     OW36925   1.511   0.672   9.269  0.1931  0.2886  0.0404
 8431SOL    HW136926   1.492   0.589   9.313  0.1260  1.0060  1.3611
 8431SOL    HW236927   1.583   0.707   9.322 -1.0057  0.0470  1.8022
 8432SOL     OW36928   4.054   0.814   0.388 -0.3357 -0.5273  0.2675
 8432SOL    HW136929   3.988   0.831   0.320 -0.6217 -0.7421  0.4887
 8432SOL    HW236930   4.011   0.735   0.423 -0.3807 -1.3421 -1.6364
 8433SOL     OW36931   1.892   1.884  16.412 -0.6432  0.0959  0.5484
 8433SOL    HW136932   1.836   1.959  16.432 -1.9489 -0.9929  1.0099
 8433SOL    HW236933   1.914   1.896  16.320  0.9258  1.0858  1.0567
 8434SOL     OW36934   0.475   2.278   6.511 -0.4863  0.8442 -0.5187
 8434SOL    HW136935   0.408   2.210   6.516  0.8836 -0.5158 -0.8996
 8434SOL    HW236936   0.506   2.275   6.601 -1.6356  0.9970 -0.1142
 8435SOL     OW36937   3.511   4.508   1.730  0.4246  0.2331  0.0584
 8435SOL    HW136938   3.589   4.557   1.755 -1.1369  2.3989  0.6948
 8435SOL    HW236939   3.563   4.444   1.681 -2.7072 -3.0006  0.9443
 8436SOL     OW36940   0.705   2.849   9.916  0.1323  0.4316  0.3341
 8436SOL    HW136941   0.687   2.767   9.963 -1.1884  0.7847  0.4325
 8436SOL    HW236942   0.693   2.915   9.985 -1.0669  0.8786 -0.3117
 8437SOL     OW36943   4.298   3.230   8.939  0.2461 -0.2430 -0.5537
 8437SOL    HW136944   4.303   3.281   9.020 -1.5865  0.1865 -0.7033
 8437SOL    HW236945   4.306   3.297   8.872  1.2027 -1.2862 -1.4757
 8438SOL     OW36946   4.714   2.778   6.476 -0.1230  0.5114  0.2533
 8438SOL    HW136947   4.710   2.731   6.560  1.1684  0.7911  0.4711
 8438SOL    HW236948   4.652   2.847   6.498  0.3775  0.6627  1.1947
 8439SOL     OW36949   0.567   4.734   6.796  0.1254  0.1117  0.3301
 8439SOL    HW136950   0.524   4.721   6.711 -1.6312 -1.2709  1.4489
 8439SOL    HW236951   0.492   0.004   6.854  0.9637 -1.6784  1.6094
 8440SOL     OW36952   0.888   1.070   2.050  0.4624 -0.5029  0.7044
 8440SOL    HW136953   0.909   1.136   1.984  1.5922  0.6377  2.1915
 8440SOL    HW236954   0.794   1.064   2.066  0.4527 -1.2014  0.3704
 8441SOL     OW36955   4.166   3.099   7.121  0.3917  0.1790 -0.2105
 8441SOL    HW136956   4.243   3.042   7.119  0.0250 -0.3224 -0.1607
 8441SOL    HW236957   4.215   3.180   7.112  1.9733 -0.8871 -1.2705
 8442SOL     OW36958   2.780   3.709   2.081 -0.0951 -0.0949  0.1817
 8442SOL    HW136959   2.751   3.794   2.050 -3.2990  0.0142  3.5018
 8442SOL    HW236960   2.872   3.726   2.102  0.1191 -3.5383  2.0487
 8443SOL     OW36961   1.895   1.968   6.148 -0.1921 -0.1551  0.1106
 8443SOL    HW136962   1.899   1.959   6.243  0.1419 -3.2944 -0.1847
 8443SOL    HW236963   1.824   2.029   6.133 -0.8076 -0.7528  0.5954
 8444SOL     OW36964   0.790   1.633   8.887 -0.5018 -0.3676  0.6048
 8444SOL    HW136965   0.699   1.629   8.915 -0.2635 -0.7149  1.3502
 8444SOL    HW236966   0.781   1.667   8.798 -2.2395 -0.9564  0.5741
 8445SOL     OW36967   0.608   3.535  14.140 -0.0214  1.0192  0.1492
 8445SOL    HW136968   0.527   3.585  14.132  1.2985  2.7387 -2.2896
 8445SOL    HW236969   0.598   3.498  14.228 -0.1028  1.7221  0.4357
 8446SOL     OW36970   0.050   3.619  15.488 -0.0384  0.0120  0.1333
 8446SOL    HW136971   0.101   3.540  15.468  0.2270  0.7282 -2.0366
 8446SOL    HW236972   4.714   3.602  15.429 -1.0614 -0.0666  1.3993
 8447SOL     OW36973   1.439   3.099   0.165  0.1113  0.2212 -0.2066
 8447SOL    HW136974   1.411   3.035   0.230  1.0236  0.6633  0.6314
 8447SOL    HW236975   1.527   3.071   0.139 -0.5022 -1.1051 -0.8590
 8448SOL     OW36976   4.348   0.952  10.755  0.1229 -0.0588  0.2011
 8448SOL    HW136977   4.299   0.903  10.821 -1.4929  1.2692  0.0045
 8448SOL    HW236978   4.276   1.015  10.749  0.8595  0.6160 -1.6964
 8449SOL     OW36979   0.747   0.607   5.662 -0.6341  0.2961 -0.2122
 8449SOL    HW136980   0.790   0.656   5.593  1.0009 -0.2043  0.4608
 8449SOL    HW236981   0.815   0.600   5.729  0.9859 -3.2987 -2.2487
 8450SOL     OW36982   3.509   3.666   1.931 -0.0711  0.1957 -0.0925
 8450SOL    HW136983   3.539   3.699   1.846 -0.3772  1.5983  0.3517
 8450SOL    HW236984   3.495   3.572   1.916 -2.0172  0.5281 -0.3525
 8451SOL     OW36985   3.554   0.965  13.934 -0.4515 -0.0675  0.1376
 8451SOL    HW136986   3.500   1.043  13.943 -0.0666 -0.3560  4.9510
 8451SOL    HW236987   3.544   0.954  13.839  1.2000  0.5984 -0.0975
 8452SOL     OW36988   0.476   3.745   5.746 -0.2083 -0.1677 -0.0739
 8452SOL    HW136989   0.533   3.772   5.674  1.4611 -1.0981  0.8756
 8452SOL    HW236990   0.551   3.720   5.801 -0.8698 -1.5469  0.2044
 8453SOL     OW36991   3.227   3.911   9.350 -0.0733 -0.3504  0.4803
 8453SOL    HW136992   3.202   3.829   9.392  1.7555 -2.0053 -1.6326
 8453SOL    HW236993   3.232   3.959   9.433  1.4509  1.1038 -0.4393
 8454SOL     OW36994   0.340   1.471   2.929 -0.2087 -0.5740  0.2923
 8454SOL    HW136995   0.278   1.398   2.916  0.6355 -1.5890  2.0000
 8454SOL    HW236996   0.288   1.543   2.892 -1.0706 -0.6604  1.3352
 8455SOL     OW36997   4.564   2.871   4.002  0.3631  0.1109  0.2313
 8455SOL    HW136998   4.472   2.849   3.987  0.0673  1.1135  0.5483
 8455SOL    HW236999   4.601   2.870   3.914 -0.5988 -4.1493 -0.1108
 8456SOL     OW37000   3.527   3.852  11.364  0.4266  0.1358  0.0721
 8456SOL    HW137001   3.612   3.826  11.328 -0.1894 -1.3564 -0.2983
 8456SOL    HW237002   3.533   3.802  11.445  0.2784  0.4105  0.2514
 8457SOL     OW37003   4.173   1.694  16.795 -0.5296  0.6453 -0.3994
 8457SOL    HW137004   4.209   1.606  16.799 -1.8657  0.0350 -1.8776
 8457SOL    HW237005   4.086   1.687  16.835  1.1306 -2.1218  2.7451
 8458SOL     OW37006   3.618   1.230  15.529 -0.3524  0.1383  0.2965
 8458SOL    HW137007   3.645   1.295  15.594 -2.4603  1.1913  0.1139
 8458SOL    HW237008   3.524   1.245  15.536 -0.3387  0.7657 -0.8472
 8459SOL     OW37009   2.550   1.495  17.736  0.9282  1.0349 -0.0601
 8459SOL    HW137010   2.524   1.512  17.646 -2.4757  1.4592  1.0276
 8459SOL    HW237011   2.638   1.531   0.003  0.1546  2.5700  1.0420
 8460SOL     OW37012   3.877   2.026   9.879 -0.2836  0.5052  0.0070
 8460SOL    HW137013   3.787   2.019   9.846 -0.4664 -1.8649  1.0209
 8460SOL    HW237014   3.940   1.989   9.817 -0.3307  0.4910 -0.0320
 8461SOL     OW37015   1.453   3.945   5.078  0.0437  0.0922 -0.4345
 8461SOL    HW137016   1.528   3.940   5.019  1.0826  1.6821  0.7578
 8461SOL    HW237017   1.439   3.853   5.099  1.1770 -0.3963 -1.8239
 8462SOL     OW37018   2.008   2.269   7.542 -0.2275 -0.3604  0.6157
 8462SOL    HW137019   1.999   2.299   7.632  1.1148  0.2195  0.5427
 8462SOL    HW237020   2.098   2.239   7.538 -0.5301 -1.0263 -1.2520
 8463SOL     OW37021   4.683   1.119   0.163 -0.6304 -0.2511  0.3891
 8463SOL    HW137022   4.624   1.104   0.237 -0.9630 -0.2818  0.1147
 8463SOL    HW237023   4.708   1.030   0.140  1.8086  0.5053  0.1709
 8464SOL     OW37024   2.125   1.699   6.414  0.0433 -0.5406 -0.2516
 8464SOL    HW137025   2.216   1.683   6.388 -0.1695 -0.7459 -0.8576
 8464SOL    HW237026   2.126   1.698   6.510  1.0300  1.3689 -0.2437
 8465SOL     OW37027   1.907   0.872  15.247  0.3395  0.3685 -0.1826
 8465SOL    HW137028   1.931   0.793  15.295 -0.5883  0.0264 -0.2808
 8465SOL    HW237029   1.986   0.920  15.273  0.3275 -0.2836  1.0661
 8466SOL     OW37030   2.752   4.151   8.089 -0.1225 -0.0558  0.5075
 8466SOL    HW137031   2.668   4.148   8.135 -0.4338 -0.7084 -0.1187
 8466SOL    HW237032   2.739   4.240   8.057 -0.8006 -0.2408  0.2744
 8467SOL     OW37033   2.294   2.967  10.752 -0.1745 -0.2247 -0.5248
 8467SOL    HW137034   2.311   3.021  10.675  0.1123 -0.5313 -0.6726
 8467SOL    HW237035   2.329   3.018  10.825 -0.4736 -0.1988 -0.3970
 8468SOL     OW37036   1.831   4.026   5.942  0.3832 -0.0272 -0.3473
 8468SOL    HW137037   1.900   3.970   5.908 -0.6810 -1.9675  0.6995
 8468SOL    HW237038   1.864   4.094   6.001  0.9091 -1.4480  1.0142
 8469SOL     OW37039   1.479   1.809  15.625 -0.8024  0.0327  0.6228
 8469SOL    HW137040   1.432   1.803  15.708 -0.2244  0.5156  0.9879
 8469SOL    HW237041   1.498   1.718  15.603 -0.3641  0.6624 -1.5719
 8470SOL     OW37042   0.503   3.540   9.143  0.0318 -0.5286 -0.3134
 8470SOL    HW137043   0.499   3.445   9.153 -2.6421 -0.3304  0.2650
 8470SOL    HW237044   0.538   3.569   9.227 -1.0762 -1.2543  0.3871
 8471SOL     OW37045   0.453   2.990   8.917 -0.1944 -0.3027  0.3386
 8471SOL    HW137046   0.359   2.984   8.930 -0.0451 -1.5261  0.8739
 8471SOL    HW237047   0.451   3.030   8.830  0.3530  0.6910  0.7818
 8472SOL     OW37048   1.794   2.837   4.404 -0.2469 -0.1698  0.1865
 8472SOL    HW137049   1.878   2.791   4.405 -1.2744 -2.0795 -0.7215
 8472SOL    HW237050   1.740   2.772   4.359 -1.2201  0.9783 -0.3096
 8473SOL     OW37051   0.608   3.459   1.803  0.0407 -0.1934  0.2952
 8473SOL    HW137052   0.638   3.368   1.790  0.1369 -0.0499 -0.5336
 8473SOL    HW237053   0.538   3.453   1.738  0.7704 -1.6049 -0.3714
 8474SOL     OW37054   4.318   3.417   6.555  0.4995  0.2171 -0.0521
 8474SOL    HW137055   4.266   3.446   6.480 -0.6667 -1.0156  0.2648
 8474SOL    HW237056   4.406   3.408   6.519  0.4622  1.6535 -0.4732
 8475SOL     OW37057   3.548   0.288   2.219 -0.2551 -0.1802 -0.1367
 8475SOL    HW137058   3.585   0.210   2.178 -0.5117 -0.2454 -0.2432
 8475SOL    HW237059   3.603   0.360   2.189 -0.5403  0.1109  0.0339
 8476SOL     OW37060   3.276   4.122   9.537 -0.4688  0.0062 -0.3339
 8476SOL    HW137061   3.306   4.111   9.627 -1.9152 -1.6640 -0.0745
 8476SOL    HW237062   3.344   4.185   9.512  0.1815 -1.2192 -1.5781
 8477SOL     OW37063   2.281   2.973  12.826  0.0451 -0.4430 -0.1146
 8477SOL    HW137064   2.377   2.965  12.824  0.2123  1.2060  1.8580
 8477SOL    HW237065   2.256   3.002  12.914 -1.6033  1.6975 -1.2837
 8478SOL     OW37066   2.394   0.195   9.077 -0.5527 -0.2262 -0.3625
 8478SOL    HW137067   2.435   0.209   9.162 -3.4241 -2.0196  1.3645
 8478SOL    HW237068   2.443   0.123   9.039 -1.2273 -1.2345  0.6612
 8479SOL     OW37069   2.970   1.838   3.255  0.1825 -0.4901  0.3928
 8479SOL    HW137070   3.002   1.754   3.222  0.7400 -0.3664  0.6296
 8479SOL    HW237071   2.885   1.854   3.213  0.0843  1.7055  1.4619
 8480SOL     OW37072   3.580   4.178   2.902 -0.1847 -0.1379  0.0796
 8480SOL    HW137073   3.644   4.184   2.973 -1.0708  1.3482  0.7427
 8480SOL    HW237074   3.587   4.258   2.849  0.5217 -0.1306  0.1894
 8481SOL     OW37075   0.306   1.219   1.434  0.2219 -0.1894 -0.0993
 8481SOL    HW137076   0.236   1.240   1.372  2.1006  2.9341 -1.1542
 8481SOL    HW237077   0.244   1.211   1.506 -2.1120 -1.4027 -2.2068
 8482SOL     OW37078   0.863   3.573   5.770  0.5730 -0.4596  0.4323
 8482SOL    HW137079   0.843   3.516   5.845  0.8756 -1.0193  0.0900
 8482SOL    HW237080   0.808   3.649   5.789  0.7690 -0.0520 -0.6675
 8483SOL     OW37081   3.276   3.278   7.302  0.3632 -0.5007 -0.6036
 8483SOL    HW137082   3.208   3.300   7.238 -1.0281  2.9469  2.0535
 8483SOL    HW237083   3.281   3.359   7.353 -0.7265 -0.7229 -0.1614
 8484SOL     OW37084   1.417   3.363   5.289  0.1074  0.2607  0.4508
 8484SOL    HW137085   1.395   3.349   5.381  1.3841  1.2821  0.9142
 8484SOL    HW237086   1.473   3.287   5.270  1.4560  1.6031 -1.0082
 8485SOL     OW37087   0.797   4.277  17.382 -0.1348 -0.1131  0.3770
 8485SOL    HW137088   0.865   4.217  17.351 -0.9944 -0.4430 -0.9056
 8485SOL    HW237089   0.721   4.232  17.345  1.4176 -0.2566 -2.6171
 8486SOL     OW37090   3.976   3.584   4.881 -0.4933  0.5294 -0.0983
 8486SOL    HW137091   3.934   3.570   4.796 -0.6040 -0.5226  0.1372
 8486SOL    HW237092   3.914   3.530   4.929  1.1222 -1.0120  0.2315
 8487SOL     OW37093   0.293   4.300  16.665  0.2094 -0.5758 -0.2143
 8487SOL    HW137094   0.235   4.376  16.658  0.8244 -0.1987 -1.4576
 8487SOL    HW237095   0.272   4.268  16.577  0.8285  0.4504 -0.7436
 8488SOL     OW37096   3.247   0.996  13.358 -0.3606 -0.3861 -0.2539
 8488SOL    HW137097   3.300   0.987  13.437 -2.0877 -0.6708  0.8679
 8488SOL    HW237098   3.314   1.031  13.299 -2.4488  0.3983 -2.1305
 8489SOL     OW37099   3.954   2.070   0.428 -0.5886 -0.5973  0.5391
 8489SOL    HW137100   3.968   1.978   0.405 -0.1819  0.1197 -2.1236
 8489SOL    HW237101   3.868   2.088   0.389 -0.1050  0.1261 -0.1863
 8490SOL     OW37102   3.549   3.682   2.219  0.0482  0.1845 -0.2328
 8490SOL    HW137103   3.568   3.635   2.138  1.3515  2.4040 -1.2110
 8490SOL    HW237104   3.608   3.756   2.205  0.5627 -0.4319 -1.2939
 8491SOL     OW37105   4.689   1.574   4.303  0.2009 -0.3203 -0.2169
 8491SOL    HW137106   4.695   1.662   4.338 -1.0241 -0.9694  1.6520
 8491SOL    HW237107   0.017   1.584   4.233  0.1303 -1.2861 -0.4231
 8492SOL     OW37108   1.193   4.507  17.579  0.5257  0.1701  0.0141
 8492SOL    HW137109   1.225   4.476  17.664  0.2792  1.1701  0.4700
 8492SOL    HW237110   1.169   4.597  17.599 -1.3297 -0.0933 -1.0500
 8493SOL     OW37111   1.711   3.473   5.232  0.3390 -0.8669  0.3377
 8493SOL    HW137112   1.643   3.524   5.276  0.4637  0.2010 -0.7154
 8493SOL    HW237113   1.784   3.483   5.293 -0.3239 -1.0007  1.1461
 8494SOL     OW37114   3.143   2.242  12.054 -0.1783 -0.0123 -0.0887
 8494SOL    HW137115   3.122   2.232  12.147  0.2128  0.6158  0.0732
 8494SOL    HW237116   3.239   2.242  12.059  0.0074 -0.8573 -4.2441
 8495SOL     OW37117   3.642   3.351   8.001  0.1882 -0.5247  0.2089
 8495SOL    HW137118   3.708   3.354   8.070 -0.6630 -1.5417  1.0601
 8495SOL    HW237119   3.696   3.316   7.929 -0.9580  2.0914 -1.9168
 8496SOL     OW37120   4.464   3.239   6.195 -0.8849 -0.1277 -0.2099
 8496SOL    HW137121   4.410   3.317   6.208 -1.2130 -0.3093 -0.4856
 8496SOL    HW237122   4.410   3.176   6.242  0.5317 -1.1123  0.0995
 8497SOL     OW37123   4.008   2.209  17.445  0.3306  0.1380  0.0979
 8497SOL    HW137124   4.082   2.180  17.391  0.4889  1.6556 -0.5306
 8497SOL    HW237125   3.976   2.120  17.458  1.4372  0.2157  3.2470
 8498SOL     OW37126   0.294   0.950   4.291  0.2745 -0.5165  0.4885
 8498SOL    HW137127   0.235   1.025   4.298  1.5274  0.6619 -1.9630
 8498SOL    HW237128   0.372   1.000   4.269 -0.6153  0.3679 -0.6113
 8499SOL     OW37129   1.499   3.580  16.093 -0.5598 -0.6636  0.2533
 8499SOL    HW137130   1.496   3.536  16.178  2.1481 -0.6430  0.3430
 8499SOL    HW237131   1.411   3.616  16.080  0.1771  1.4879  1.2686
 8500SOL     OW37132   3.347   3.307  15.289 -0.0709  0.1077  0.1091
 8500SOL    HW137133   3.364   3.233  15.348 -0.5219 -0.2379 -0.1928
 8500SOL    HW237134   3.354   3.385  15.344 -0.5807  1.4008 -1.6740
 8501SOL     OW37135   2.630   2.260   0.367  0.1603 -0.2808 -0.2934
 8501SOL    HW137136   2.568   2.188   0.376  0.9975 -1.1617 -1.7453
 8501SOL    HW237137   2.661   2.257   0.458  0.5705  0.1377 -0.4218
 8502SOL     OW37138   2.234   1.491   4.381  0.4694 -0.2614 -0.0196
 8502SOL    HW137139   2.288   1.419   4.414 -1.0345 -0.7309  1.4262
 8502SOL    HW237140   2.166   1.431   4.348 -1.1900  1.5563  0.0710
 8503SOL     OW37141   3.774   0.037   4.401  0.0116  0.7584  0.4758
 8503SOL    HW137142   3.834   0.106   4.426 -1.0330  1.3681  1.3331
 8503SOL    HW237143   3.704   0.051   4.465 -1.3726  0.0121 -0.8708
 8504SOL     OW37144   0.645   2.569   9.200  0.3489 -0.1684  0.7587
 8504SOL    HW137145   0.723   2.516   9.216 -1.0196 -1.5801  2.7919
 8504SOL    HW237146   0.669   2.660   9.215  3.0080 -0.8379  0.4884
 8505SOL     OW37147   2.427   4.590   6.514 -0.0955 -0.5199 -1.2735
 8505SOL    HW137148   2.486   4.665   6.509 -0.8640 -0.0066 -2.6533
 8505SOL    HW237149   2.363   4.618   6.449 -1.3142  0.4087  0.3157
 8506SOL     OW37150   2.997   1.637   7.849 -0.3372  0.0279 -0.4481
 8506SOL    HW137151   3.070   1.576   7.856  1.2197  1.7930 -1.4426
 8506SOL    HW237152   3.018   1.702   7.915 -0.4671  0.0405 -0.4184
 8507SOL     OW37153   0.077   0.997   7.239  0.6850  0.1743 -0.1571
 8507SOL    HW137154   0.110   0.929   7.181 -0.5010 -0.1394 -0.4553
 8507SOL    HW237155   0.008   1.019   7.177  1.0617  0.9087 -0.3182
 8508SOL     OW37156   1.581   3.749   9.668  0.0513  0.1728 -0.0699
 8508SOL    HW137157   1.572   3.797   9.585  1.4355  0.7841  0.1344
 8508SOL    HW237158   1.575   3.823   9.727 -0.3013  2.8057 -3.3816
 8509SOL     OW37159   4.256   2.354  13.162 -0.2211 -0.4296 -0.4008
 8509SOL    HW137160   4.351   2.343  13.162 -0.3104 -1.2006 -0.2455
 8509SOL    HW237161   4.227   2.264  13.172 -1.4029  0.0002  0.0793
 8510SOL     OW37162   0.323   2.882  16.293  0.0722  0.0028 -0.1297
 8510SOL    HW137163   0.283   2.958  16.334  0.8530  0.5136 -0.3206
 8510SOL    HW237164   0.250   2.836  16.252 -1.5417  0.4491  2.2610
 8511SOL     OW37165   4.536   1.513   6.017  0.1562 -0.0675  0.0208
 8511SOL    HW137166   4.507   1.531   6.106  0.0434  1.2154 -0.2668
 8511SOL    HW237167   4.455   1.494   5.971 -0.2896  0.5227  0.5666
 8512SOL     OW37168   2.447   2.886  11.841 -0.0581 -0.0686  0.0839
 8512SOL    HW137169   2.468   2.837  11.761  1.5036  0.9505 -0.1245
 8512SOL    HW237170   2.537   2.909  11.865 -0.5644  1.9598 -0.0182
 8513SOL     OW37171   3.165   3.266   4.674  0.3113  0.3392 -0.0765
 8513SOL    HW137172   3.177   3.319   4.596  0.7786 -0.4699 -0.5573
 8513SOL    HW237173   3.103   3.314   4.728  1.9286  0.9738  1.2403
 8514SOL     OW37174   4.650   3.274   2.831 -0.6220  0.2731 -0.0096
 8514SOL    HW137175   4.627   3.219   2.756  0.9294  0.6474 -0.7458
 8514SOL    HW237176   4.666   3.206   2.896  0.0212  0.6645  0.2444
 8515SOL     OW37177   4.597   2.446  15.932  0.5739 -0.1304 -0.1598
 8515SOL    HW137178   4.614   2.376  15.869  0.6910  0.5269 -0.8715
 8515SOL    HW237179   4.503   2.432  15.932  0.1109  2.9676 -2.7243
 8516SOL     OW37180   1.051   3.542   8.524  0.2426 -0.5472 -0.1404
 8516SOL    HW137181   1.068   3.465   8.577 -1.3054 -0.3213  0.6848
 8516SOL    HW237182   0.960   3.561   8.547  1.1494 -0.4402  3.2935
 8517SOL     OW37183   4.148   1.815   8.902 -0.4677  0.6673 -0.0025
 8517SOL    HW137184   4.169   1.724   8.884 -1.0714  1.1251 -3.1053
 8517SOL    HW237185   4.058   1.803   8.934 -1.0212 -1.6364 -2.4433
 8518SOL     OW37186   3.995   1.110   5.108 -0.0844 -0.3546 -0.2441
 8518SOL    HW137187   3.982   1.172   5.180 -0.0385 -1.1563  0.4524
 8518SOL    HW237188   4.084   1.079   5.125  1.0575  2.0871 -1.7419
 8519SOL     OW37189   4.286   1.976  11.584  0.3104  0.4459 -0.0738
 8519SOL    HW137190   4.252   1.967  11.495  0.0057  0.1817  0.0667
 8519SOL    HW237191   4.361   1.917  11.580 -1.3992 -1.6731 -0.7010
 8520SOL     OW37192   0.304   2.119   0.363  0.6363 -0.0922  0.0985
 8520SOL    HW137193   0.251   2.166   0.298  1.9460  2.7672  1.0893
 8520SOL    HW237194   0.257   2.036   0.366  2.7183 -1.3092 -0.7279
 8521SOL     OW37195   0.769   3.514   9.558 -0.1713 -0.1309  0.2382
 8521SOL    HW137196   0.804   3.430   9.587  0.6500  0.3725  0.6865
 8521SOL    HW237197   0.849   3.565   9.567  0.0262 -0.2805 -0.6271
 8522SOL     OW37198   2.409   3.420   5.930  0.0699  0.0030 -0.0961
 8522SOL    HW137199   2.431   3.466   5.849 -0.7625  0.2434 -0.1876
 8522SOL    HW237200   2.456   3.337   5.924  0.3934  0.2614 -1.1393
 8523SOL     OW37201   1.108   0.616   7.463 -0.1521  0.0823  0.3614
 8523SOL    HW137202   1.127   0.569   7.381  0.5676  2.1245 -0.6321
 8523SOL    HW237203   1.177   0.681   7.461  0.7115 -0.8757 -0.9412
 8524SOL     OW37204   2.832   4.642   8.696 -0.2296 -0.3788 -0.4481
 8524SOL    HW137205   2.860   4.619   8.607 -1.6009  0.9777 -1.2328
 8524SOL    HW237206   2.917   4.630   8.738  0.3579  0.7730 -1.2944
 8525SOL     OW37207   0.380   2.528   6.047  0.3259  0.0931 -0.2894
 8525SOL    HW137208   0.358   2.469   6.119 -0.0268  0.8591  0.2448
 8525SOL    HW237209   0.456   2.487   6.006 -0.3550 -0.3170 -1.1458
 8526SOL     OW37210   4.012   2.383  12.992 -0.3874  0.2388 -0.2553
 8526SOL    HW137211   4.098   2.371  13.033 -0.1389  1.2937 -0.4659
 8526SOL    HW237212   3.951   2.374  13.065  0.7040 -0.1600  0.6066
 8527SOL     OW37213   1.980   1.075   5.285 -0.3909 -0.2361 -0.0006
 8527SOL    HW137214   1.950   1.106   5.199 -0.1947 -0.1379 -0.0350
 8527SOL    HW237215   2.072   1.070   5.261 -0.2684 -2.7482  1.1017
 8528SOL     OW37216   0.394   1.964   4.790  0.2823  0.4783 -0.7845
 8528SOL    HW137217   0.410   2.001   4.877  0.1303  0.5826 -0.7999
 8528SOL    HW237218   0.477   1.918   4.781  0.5644  1.1484 -1.6785
 8529SOL     OW37219   3.560   1.477   9.105  0.2999  0.1934  0.1797
 8529SOL    HW137220   3.550   1.412   9.174 -0.7831 -0.2579 -0.4074
 8529SOL    HW237221   3.571   1.557   9.157 -1.9055  1.9627 -2.0329
 8530SOL     OW37222   2.363   3.872  15.612  0.1961  0.0218  0.5638
 8530SOL    HW137223   2.452   3.841  15.630 -0.0687 -0.4068  1.1401
 8530SOL    HW237224   2.365   3.950  15.666 -2.0734  0.6398 -0.2328
 8531SOL     OW37225   0.383   1.093   1.941 -0.0176  0.1983  0.0162
 8531SOL    HW137226   0.407   1.038   1.867 -1.8091  0.8654 -1.0262
 8531SOL    HW237227   0.289   1.103   1.929 -0.1084 -1.4817 -0.6895
 8532SOL     OW37228   1.934   1.559  15.777 -0.3876  0.3729  0.1634
 8532SOL    HW137229   1.895   1.526  15.696 -2.2909  0.3906  1.0717
 8532SOL    HW237230   2.008   1.498  15.779 -0.5192  0.2082  0.0054
 8533SOL     OW37231   2.840   3.946   0.976  0.0796 -0.0213  0.1107
 8533SOL    HW137232   2.804   4.023   0.932 -0.5265 -0.2083  0.2739
 8533SOL    HW237233   2.807   3.881   0.914  0.1651  2.2992 -2.3599
 8534SOL     OW37234   2.424   3.554   7.230 -0.3393 -0.0198 -0.0949
 8534SOL    HW137235   2.388   3.489   7.170 -1.7802 -0.3950  1.1830
 8534SOL    HW237236   2.384   3.637   7.203  3.2721  1.9467  0.6220
 8535SOL     OW37237   3.889   2.964   8.612 -0.5087  0.0992  0.1008
 8535SOL    HW137238   3.857   2.973   8.523  0.7139  0.6358 -0.2875
 8535SOL    HW237239   3.970   2.913   8.605  0.9205  2.3311  0.1960
 8536SOL     OW37240   1.587   3.427   7.047  0.0830 -0.6393 -0.2270
 8536SOL    HW137241   1.616   3.337   7.034  0.7390 -0.3830 -0.5436
 8536SOL    HW237242   1.500   3.421   7.009 -0.2894  2.0824  0.1813
 8537SOL     OW37243   0.389   3.781   9.067  0.2291  0.7985 -0.2110
 8537SOL    HW137244   0.409   3.801   8.975  1.6744 -0.2148 -0.1074
 8537SOL    HW237245   0.432   3.697   9.083 -0.1719  0.3451 -1.4757
 8538SOL     OW37246   2.078   2.979   5.030 -0.2512  0.1968 -0.1190
 8538SOL    HW137247   2.059   3.000   4.938  0.6954 -1.1528 -0.6321
 8538SOL    HW237248   1.996   2.938   5.059  0.9304 -0.6370  2.0450
 8539SOL     OW37249   0.070   2.598   5.181 -0.5817  0.5452  0.4895
 8539SOL    HW137250   4.729   2.605   5.235 -0.2734  2.3881  0.6807
 8539SOL    HW237251   0.121   2.676   5.200 -0.2562  0.1054  1.4165
 8540SOL     OW37252   4.577   0.743   8.736  0.3468 -0.0689 -0.1850
 8540SOL    HW137253   4.502   0.799   8.720  2.6176  2.1828 -2.8870
 8540SOL    HW237254   4.550   0.673   8.796  1.2310 -1.7920 -1.7776
 8541SOL     OW37255   0.904   0.767  16.098  0.3098 -0.1018 -0.0545
 8541SOL    HW137256   0.963   0.842  16.090  2.0880 -1.2272  2.5656
 8541SOL    HW237257   0.822   0.807  16.069  1.0181 -0.3509 -2.3564
 8542SOL     OW37258   3.818   3.646   9.175  0.0976 -0.0802 -0.0993
 8542SOL    HW137259   3.807   3.730   9.130 -0.6732  0.2406  0.6906
 8542SOL    HW237260   3.747   3.595   9.137 -0.9039  0.6249  0.8110
 8543SOL     OW37261   1.891   1.630   5.891  0.4311  0.5047  0.4164
 8543SOL    HW137262   1.902   1.658   5.981  1.1124 -1.4079  0.9133
 8543SOL    HW237263   1.796   1.616   5.898  0.0738  2.4368 -0.2792
 8544SOL     OW37264   1.131   1.366   4.753  0.5561  0.0572  0.7265
 8544SOL    HW137265   1.085   1.341   4.833  1.2938 -0.7758  0.8870
 8544SOL    HW237266   1.078   1.324   4.685  0.9261 -0.5971  0.8471
 8545SOL     OW37267   3.967   3.133   2.432  0.1302 -0.1746 -0.4912
 8545SOL    HW137268   3.890   3.106   2.381 -0.5609  0.5161  0.1897
 8545SOL    HW237269   3.952   3.227   2.430 -1.9453 -0.5526 -3.5047
 8546SOL     OW37270   1.302   2.023  15.207 -0.0828  0.1705  0.2634
 8546SOL    HW137271   1.388   2.046  15.241 -0.2085 -0.0610  0.7409
 8546SOL    HW237272   1.261   2.109  15.200  1.7411  1.0830  0.7119
 8547SOL     OW37273   0.781   3.876   7.196  0.0525 -0.1631  0.2475
 8547SOL    HW137274   0.718   3.902   7.262 -0.5157  0.6822 -0.6290
 8547SOL    HW237275   0.845   3.947   7.201  0.6727 -0.7662  0.9436
 8548SOL     OW37276   2.896   3.605   6.051 -0.1152 -0.4715 -0.5258
 8548SOL    HW137277   2.948   3.637   5.977  2.0511 -0.4749  1.0333
 8548SOL    HW237278   2.817   3.658   6.039 -0.2867 -0.0089  2.7028
 8549SOL     OW37279   4.557   1.372   2.346 -0.1734 -0.3528  0.0871
 8549SOL    HW137280   4.539   1.296   2.291  0.5389 -0.2729 -0.2546
 8549SOL    HW237281   4.485   1.375   2.410 -0.2916 -0.0178 -0.0638
 8550SOL     OW37282   0.649   0.430   7.839 -0.3589  0.4398 -0.8472
 8550SOL    HW137283   0.728   0.392   7.800  0.4821 -0.1633  1.4586
 8550SOL    HW237284   0.685   0.484   7.909 -1.4145  0.2655 -0.1695
 8551SOL     OW37285   3.171   1.134   9.512  0.0876 -0.5600 -0.2386
 8551SOL    HW137286   3.192   1.204   9.573 -0.6771 -1.9276  1.6066
 8551SOL    HW237287   3.248   1.077   9.508  2.8749  3.2032  0.7225
 8552SOL     OW37288   0.713   0.224   6.686 -0.0208 -0.4006  0.2465
 8552SOL    HW137289   0.708   0.138   6.728  1.2954 -0.3054  0.5961
 8552SOL    HW237290   0.758   0.214   6.603 -0.6653 -2.2208  0.1171
 8553SOL     OW37291   1.548   2.915   0.920  0.6443  0.0365 -0.2430
 8553SOL    HW137292   1.603   2.929   0.843  1.4933 -2.0887 -0.0204
 8553SOL    HW237293   1.462   2.935   0.882  0.7609 -1.2759 -1.1963
 8554SOL     OW37294   1.029   1.794  10.482  0.5669  0.1544 -0.1524
 8554SOL    HW137295   0.935   1.777  10.468  1.1828 -0.4336 -3.5102
 8554SOL    HW237296   1.068   1.778  10.397 -0.8481 -0.6699 -0.6584
 8555SOL     OW37297   1.924   4.136   6.815 -0.1941 -0.1288 -0.7153
 8555SOL    HW137298   1.848   4.142   6.873 -0.5868  1.6914 -1.4273
 8555SOL    HW237299   1.940   4.043   6.829  0.9394  0.0067 -1.0474
 8556SOL     OW37300   3.127   3.962   6.982  0.0499 -0.1217 -0.0683
 8556SOL    HW137301   3.119   4.046   7.027  1.1814  0.5977 -1.2120
 8556SOL    HW237302   3.067   3.974   6.909  1.2775 -1.4850 -1.3203
 8557SOL     OW37303   2.808   0.315   2.027  0.2353  0.1263 -0.2077
 8557SOL    HW137304   2.843   0.282   1.945  2.4249 -1.7052  1.5031
 8557SOL    HW237305   2.762   0.395   2.000  0.1536 -0.3883 -1.6273
 8558SOL     OW37306   0.627   4.691   4.266  0.0296 -0.1358  0.2674
 8558SOL    HW137307   0.589   4.706   4.352 -0.0852  0.1146  0.1720
 8558SOL    HW237308   0.705   4.646   4.299 -0.5727  0.1540  2.0511
 8559SOL     OW37309   1.036   0.902   7.903  0.2930  0.8607 -0.0907
 8559SOL    HW137310   1.022   0.811   7.929  1.6579  0.5362 -0.5435
 8559SOL    HW237311   1.036   0.895   7.807  2.5497 -1.8985  0.1361
 8560SOL     OW37312   3.138   4.522   5.100 -0.0299 -0.1016 -0.0891
 8560SOL    HW137313   3.121   4.431   5.074 -1.3577 -0.1225  0.8558
 8560SOL    HW237314   3.232   4.521   5.118 -0.2015 -0.8700  0.7867
 8561SOL     OW37315   2.472   1.073  12.537 -0.1687 -0.0268  0.2838
 8561SOL    HW137316   2.497   1.163  12.516 -1.8642  0.4405  0.3137
 8561SOL    HW237317   2.502   1.053  12.626 -0.2966  3.5092  1.1428
 8562SOL     OW37318   0.105   3.025   9.348 -0.1384 -0.5519 -0.4880
 8562SOL    HW137319   0.072   3.093   9.407  0.3096  1.3382 -2.4278
 8562SOL    HW237320   0.041   2.954   9.352 -1.4411  0.6283 -0.3911
 8563SOL     OW37321   1.730   3.159  11.391 -0.3863  0.1735 -0.5499
 8563SOL    HW137322   1.740   3.156  11.487 -2.8021 -2.3407 -0.3843
 8563SOL    HW237323   1.770   3.243  11.367 -1.7170  0.7618 -0.7201
 8564SOL     OW37324   1.741   1.714   2.656 -0.2397  0.1094 -0.0950
 8564SOL    HW137325   1.712   1.711   2.565  1.1755 -0.5265 -0.5204
 8564SOL    HW237326   1.690   1.781   2.701  2.0681  1.8689 -0.1686
 8565SOL     OW37327   4.126   3.301   1.475  0.0922  0.7955  0.1262
 8565SOL    HW137328   4.219   3.283   1.465 -0.0718 -0.3812  0.6848
 8565SOL    HW237329   4.089   3.304   1.387  0.2352  0.5462  0.0576
 8566SOL     OW37330   3.391   4.163   9.796  0.1575 -0.2239  0.3938
 8566SOL    HW137331   3.481   4.167   9.828 -0.1922 -0.9578  1.4771
 8566SOL    HW237332   3.351   4.216   9.865 -1.3427  0.6679 -1.1518
 8567SOL     OW37333   2.497   2.468   8.336  0.0640 -0.3529  0.3418
 8567SOL    HW137334   2.432   2.535   8.359  0.0485  0.4896 -2.1178
 8567SOL    HW237335   2.446   2.425   8.267 -3.4028  2.5047  1.0863
 8568SOL     OW37336   3.300   2.287   2.185 -0.0239  0.0408  0.2510
 8568SOL    HW137337   3.373   2.264   2.243 -0.1861 -2.4646 -0.5447
 8568SOL    HW237338   3.298   2.224   2.114  0.8441 -0.2417  0.4801
 8569SOL     OW37339   2.498   3.628   9.445  0.0678 -0.1846 -0.2082
 8569SOL    HW137340   2.553   3.554   9.417 -0.6034 -0.6843 -0.2056
 8569SOL    HW237341   2.469   3.661   9.360 -1.8980  0.6515  0.7966
 8570SOL     OW37342   2.853   2.743   7.161 -0.0800 -0.1484  0.3079
 8570SOL    HW137343   2.936   2.697   7.173  0.6318  1.0054 -0.1926
 8570SOL    HW237344   2.792   2.679   7.197  0.6747 -1.1113 -0.1270
 8571SOL     OW37345   2.229   2.870  12.582  0.8370  0.2401 -0.3760
 8571SOL    HW137346   2.239   2.938  12.648 -0.5255  2.6092 -2.6260
 8571SOL    HW237347   2.181   2.804  12.633  0.0572  1.3577  0.3277
 8572SOL     OW37348   1.630   0.339   3.371 -0.1603 -0.5378 -0.1517
 8572SOL    HW137349   1.540   0.308   3.362 -0.7238 -0.0831  4.1621
 8572SOL    HW237350   1.660   0.352   3.281  2.4901  0.3067  0.8356
 8573SOL     OW37351   4.098   0.052  12.015  0.3456  0.0910 -0.5158
 8573SOL    HW137352   4.030   0.106  11.974 -2.0663 -2.7615 -0.2355
 8573SOL    HW237353   4.048   4.729  12.070  0.6022  0.9646  0.6578
 8574SOL     OW37354   4.024   1.279  16.008  0.3388  0.0389  0.2173
 8574SOL    HW137355   4.036   1.369  15.981  0.3238  0.7403  2.5202
 8574SOL    HW237356   3.975   1.293  16.089 -2.5473  1.0261 -1.7216
 8575SOL     OW37357   3.949   4.515   5.413 -0.6813  0.0350 -0.0536
 8575SOL    HW137358   3.959   4.533   5.320 -0.8256 -0.6076 -0.1946
 8575SOL    HW237359   3.892   4.438   5.402 -1.0905  0.0492  1.9591
 8576SOL     OW37360   0.117   2.622  14.075 -0.0900 -0.2093 -0.3282
 8576SOL    HW137361   0.036   2.641  14.122  0.4395  0.3867  0.3450
 8576SOL    HW237362   0.085   2.622  13.984 -0.2610 -0.6100 -0.2683
 8577SOL     OW37363   4.008   0.843   6.856  0.2435 -0.0868  0.2098
 8577SOL    HW137364   4.104   0.846   6.853  0.2267 -0.4569 -0.5415
 8577SOL    HW237365   3.991   0.921   6.803 -6.1357 -0.8013  1.3220
 8578SOL     OW37366   4.598   1.276   7.385  0.6081  0.2509  0.2661
 8578SOL    HW137367   4.570   1.191   7.417 -0.7140  1.0847  1.3558
 8578SOL    HW237368   4.691   1.262   7.370  0.3057 -0.0761 -1.2978
 8579SOL     OW37369   0.929   2.851   4.409  0.6757  0.1583 -0.2968
 8579SOL    HW137370   0.866   2.816   4.472 -0.8369  2.3186 -0.6069
 8579SOL    HW237371   1.007   2.821   4.456 -0.3370 -1.1493  0.5291
 8580SOL     OW37372   3.183   3.707   6.588 -0.1031 -0.4077 -0.1008
 8580SOL    HW137373   3.218   3.691   6.676 -0.2220 -0.2249 -0.0221
 8580SOL    HW237374   3.093   3.684   6.612  0.1023 -0.7770  0.3275
 8581SOL     OW37375   1.204   2.278   5.121 -0.1940 -0.2678  0.0558
 8581SOL    HW137376   1.109   2.285   5.131 -0.2090 -0.1252 -0.2007
 8581SOL    HW237377   1.226   2.222   5.196  1.3841  0.3624  0.0575
 8582SOL     OW37378   3.896   1.093   7.124  0.1376  0.0689  0.0117
 8582SOL    HW137379   3.873   1.101   7.217 -2.9764 -3.2048 -0.4599
 8582SOL    HW237380   3.908   0.998   7.118  1.0469  0.0630  1.8376
 8583SOL     OW37381   2.654   3.246   2.181  0.4282  0.6075 -0.0248
 8583SOL    HW137382   2.675   3.246   2.275  0.3848 -0.2253 -0.0106
 8583SOL    HW237383   2.582   3.308   2.181  1.2437  1.5449  1.1858
 8584SOL     OW37384   2.340   0.581   2.235 -0.0026  0.5144  0.0236
 8584SOL    HW137385   2.408   0.649   2.239  0.3065  0.2802 -1.1908
 8584SOL    HW237386   2.283   0.614   2.165 -0.6966 -0.4479  0.1371
 8585SOL     OW37387   1.652   0.867   3.904  0.1648 -0.0275 -0.2668
 8585SOL    HW137388   1.700   0.862   3.822 -1.4349 -0.5581 -1.1828
 8585SOL    HW237389   1.697   0.926   3.964  2.0297 -1.7115 -0.0117
 8586SOL     OW37390   3.502   3.118   3.695  0.0971 -0.0659  0.5248
 8586SOL    HW137391   3.480   3.190   3.755  1.6247  0.9813 -0.1568
 8586SOL    HW237392   3.423   3.066   3.710 -0.4137  1.1462  1.9955
 8587SOL     OW37393   1.820   0.783   2.135 -0.0042 -0.5352  0.1222
 8587SOL    HW137394   1.803   0.853   2.197 -1.2298  0.5082 -1.3887
 8587SOL    HW237395   1.855   0.716   2.194 -1.1782  0.1099  1.5524
 8588SOL     OW37396   2.672   3.555  10.368 -0.4815 -0.3752  0.3671
 8588SOL    HW137397   2.635   3.538  10.454 -0.9741 -3.3047 -0.4429
 8588SOL    HW237398   2.734   3.484  10.355 -0.4332  0.0815 -1.9728
 8589SOL     OW37399   0.359   4.191  14.791  0.0959 -0.0666 -0.1012
 8589SOL    HW137400   0.265   4.188  14.773  0.4420  1.5085 -2.2732
 8589SOL    HW237401   0.360   4.267  14.850 -2.0936  0.7899 -1.1719
 8590SOL     OW37402   0.698   1.220   3.242  0.1621 -0.6609  0.4401
 8590SOL    HW137403   0.707   1.227   3.147  2.0894 -1.5631  0.5476
 8590SOL    HW237404   0.666   1.131   3.249  1.8148 -1.1274  2.1748
 8591SOL     OW37405   2.702   4.397   9.037 -0.6112 -0.3676 -0.0299
 8591SOL    HW137406   2.793   4.372   9.051  0.3213  3.6356  1.2193
 8591SOL    HW237407   2.704   4.470   9.099  1.4974  0.0462 -0.5764
 8592SOL     OW37408   1.536   4.271   4.449 -0.4247 -0.3771 -0.2690
 8592SOL    HW137409   1.491   4.353   4.429 -1.4710 -0.8349  0.2412
 8592SOL    HW237410   1.470   4.203   4.430  0.6228 -1.5892  0.4424
 8593SOL     OW37411   0.325   0.985  13.445 -0.7649  0.2404 -0.5394
 8593SOL    HW137412   0.316   1.053  13.378  1.3533  0.0257 -1.0222
 8593SOL    HW237413   0.357   0.917  13.386 -0.5395  3.2422 -3.8650
 8594SOL     OW37414   3.994   3.425   8.963  0.0026  0.2551 -0.0160
 8594SOL    HW137415   4.019   3.501   8.911 -1.9644  0.1486 -1.1108
 8594SOL    HW237416   3.921   3.393   8.910  1.1956 -0.4862 -1.1968
 8595SOL     OW37417   3.306   4.683   1.612 -0.0382 -0.3322  0.6550
 8595SOL    HW137418   3.331   4.599   1.573 -0.0130  0.0844 -0.2112
 8595SOL    HW237419   3.350   4.670   1.696 -0.4550  1.8458  1.2117
 8596SOL     OW37420   0.444   2.389   4.201  0.4455 -0.4302 -0.9802
 8596SOL    HW137421   0.485   2.333   4.134 -1.0461 -1.1064 -1.3269
 8596SOL    HW237422   0.384   2.437   4.144 -1.9929  0.5118  2.3640
 8597SOL     OW37423   2.389   3.916   5.876 -0.2739 -0.6553 -0.1680
 8597SOL    HW137424   2.355   3.879   5.794 -2.9319 -0.4196  0.8027
 8597SOL    HW237425   2.325   3.984   5.898 -1.3088 -1.1506 -1.6271
 8598SOL     OW37426   0.195   2.808   8.501  0.0521 -0.1685  0.0813
 8598SOL    HW137427   0.287   2.780   8.498  0.0029 -0.6323  2.2008
 8598SOL    HW237428   0.194   2.885   8.558  0.6598  0.3376 -0.5990
 8599SOL     OW37429   1.184   0.563   2.008 -0.7020  0.1330  0.0011
 8599SOL    HW137430   1.218   0.620   1.939 -0.5732  0.2212  0.1366
 8599SOL    HW237431   1.099   0.536   1.974 -1.5408  0.0112  2.1980
 8600SOL     OW37432   1.172   4.523  16.498 -0.3881 -0.2078 -0.4850
 8600SOL    HW137433   1.135   4.584  16.562 -0.7351  0.7317 -1.5832
 8600SOL    HW237434   1.148   4.442  16.543  5.1599 -0.5248  1.9345
 8601SOL     OW37435   3.195   4.092  15.484  0.3432 -0.0259 -0.1060
 8601SOL    HW137436   3.161   4.006  15.506 -1.6309  1.2564  1.9675
 8601SOL    HW237437   3.134   4.154  15.525 -0.0730 -0.9322  0.6413
 8602SOL     OW37438   2.988   1.263  10.236  0.4453  0.1571 -0.1352
 8602SOL    HW137439   2.999   1.201  10.163  3.1275  0.9423 -0.4049
 8602SOL    HW237440   2.919   1.218  10.285 -0.5485  2.2791  0.4183
 8603SOL     OW37441   1.543   3.044   6.443  0.2250 -0.0463  0.1590
 8603SOL    HW137442   1.448   3.042   6.429  0.6259  0.8679 -2.7146
 8603SOL    HW237443   1.586   3.008   6.366  0.0289 -2.0941  1.0234
 8604SOL     OW37444   3.375   0.037   4.424  0.4285 -0.0508 -0.0811
 8604SOL    HW137445   3.281   0.022   4.422  0.5742 -1.2035  2.1177
 8604SOL    HW237446   3.375   0.114   4.367 -0.5012 -1.0227 -1.3725
 8605SOL     OW37447   3.725   2.573   1.732 -0.1965 -0.1323 -0.2012
 8605SOL    HW137448   3.789   2.609   1.671 -0.3300  0.2314 -0.1250
 8605SOL    HW237449   3.645   2.614   1.698  1.0658  2.9530  0.5953
 8606SOL     OW37450   1.634   4.440  17.329  0.1285 -0.0891  0.0129
 8606SOL    HW137451   1.566   4.497  17.367  0.4554 -1.0816  2.1243
 8606SOL    HW237452   1.606   4.418  17.241  0.4198  0.6724 -0.2705
 8607SOL     OW37453   3.001   3.866   2.690 -0.0542 -0.1671  0.1173
 8607SOL    HW137454   2.931   3.923   2.656  0.7025 -1.1042 -3.0516
 8607SOL    HW237455   2.996   3.784   2.641 -0.3154  0.1625 -0.4136
 8608SOL     OW37456   4.595   4.227   2.790 -0.1251  0.8891  0.3985
 8608SOL    HW137457   4.572   4.139   2.818 -0.0548  0.3690 -1.1923
 8608SOL    HW237458   4.525   4.264   2.736 -0.2513  0.4450  0.2628
 8609SOL     OW37459   4.640   3.601  12.383 -0.1522 -0.2915  0.4233
 8609SOL    HW137460   4.712   3.661  12.366  0.7839 -2.1281 -2.0957
 8609SOL    HW237461   4.571   3.663  12.405  0.3487  0.9970 -1.6076
 8610SOL     OW37462   0.564   3.007   3.145 -0.3942  0.0962 -0.4031
 8610SOL    HW137463   0.658   3.010   3.128 -0.1581 -1.8639  0.5429
 8610SOL    HW237464   0.533   3.092   3.114  1.2209  0.8878  0.1614
 8611SOL     OW37465   3.989   4.442  11.503  0.5634  0.3792  0.3022
 8611SOL    HW137466   4.041   4.474  11.576  1.8485 -0.3803 -0.2774
 8611SOL    HW237467   4.041   4.367  11.473  0.4579  1.0166 -1.4876
 8612SOL     OW37468   2.762   3.815   7.716  0.5758  0.0635 -0.1430
 8612SOL    HW137469   2.796   3.879   7.779  1.2175 -1.3828  0.9732
 8612SOL    HW237470   2.667   3.812   7.731  0.7325  0.7324  0.9406
 8613SOL     OW37471   2.771   3.872   6.257 -0.2091 -0.3966 -0.2799
 8613SOL    HW137472   2.736   3.961   6.256  2.7976  0.7930 -0.8115
 8613SOL    HW237473   2.704   3.820   6.211 -0.5969 -1.5926  1.6605
 8614SOL     OW37474   4.361   4.665   7.632 -0.1820 -0.1391  0.4176
 8614SOL    HW137475   4.299   4.598   7.605  0.5586  0.1785 -2.0447
 8614SOL    HW237476   4.385   4.625   7.716 -1.1481 -2.8438 -0.6328
 8615SOL     OW37477   3.882   4.129  11.644 -0.4637 -0.1954 -0.1056
 8615SOL    HW137478   3.936   4.167  11.575 -0.2062  0.3017  0.3700
 8615SOL    HW237479   3.940   4.077  11.701  0.2911  1.6403  0.8133
 8616SOL     OW37480   3.106   0.521   9.394 -0.2644  0.1421  0.3399
 8616SOL    HW137481   3.076   0.594   9.449  0.5636  1.0002 -0.3600
 8616SOL    HW237482   3.069   0.446   9.441  2.7939 -0.4065  1.8537
 8617SOL     OW37483   2.327   3.811   2.168  0.0454  0.0463 -0.2162
 8617SOL    HW137484   2.296   3.901   2.156  2.3076  0.5919 -2.0658
 8617SOL    HW237485   2.357   3.816   2.259 -1.5439 -0.0298  0.3142
 8618SOL     OW37486   0.273   1.593   8.723  0.2615 -0.4008  0.2774
 8618SOL    HW137487   0.198   1.647   8.698  2.1739  1.6082 -1.1161
 8618SOL    HW237488   0.231   1.539   8.790 -0.6180  1.2993  1.0956
 8619SOL     OW37489   2.086   0.647  10.087  0.5341  0.9741 -0.0174
 8619SOL    HW137490   2.026   0.693  10.145 -0.7804  0.4922 -0.9716
 8619SOL    HW237491   2.101   0.575  10.148  1.4238  0.6065 -0.6620
 8620SOL     OW37492   1.572   2.683   1.866 -0.0064  0.0657 -0.0767
 8620SOL    HW137493   1.642   2.622   1.843 -0.6470 -0.8107  0.3267
 8620SOL    HW237494   1.564   2.668   1.960 -1.2027  0.9437 -0.0385
 8621SOL     OW37495   4.509   3.710  16.973  0.1013 -0.0555  0.3538
 8621SOL    HW137496   4.416   3.685  16.980 -0.0082  0.0970 -0.5347
 8621SOL    HW237497   4.558   3.628  16.976  0.6456  0.2758  0.6108
 8622SOL     OW37498   0.223   1.065   2.833 -0.5104 -0.1414  0.2295
 8622SOL    HW137499   0.205   1.124   2.759 -2.4931  0.8419  1.4932
 8622SOL    HW237500   0.226   0.978   2.793  0.1525 -0.5477  1.1795
 8623SOL     OW37501   1.754   2.891   9.746  0.7428 -0.0032  0.1943
 8623SOL    HW137502   1.779   2.914   9.656  0.1567  1.9817  0.5218
 8623SOL    HW237503   1.681   2.953   9.750  1.1834  0.4593  1.2567
 8624SOL     OW37504   4.089   0.467  17.391 -0.0428 -0.4615  0.4880
 8624SOL    HW137505   4.154   0.479  17.461  0.9819 -4.1623  0.1639
 8624SOL    HW237506   4.117   0.544  17.342 -1.5275 -1.1036 -1.3646
 8625SOL     OW37507   0.471   0.355   2.859 -0.7136 -0.0684 -0.8212
 8625SOL    HW137508   0.476   0.300   2.937 -2.0977  0.3247 -0.4502
 8625SOL    HW237509   0.532   0.316   2.796 -2.2696 -0.9272 -1.7986
 8626SOL     OW37510   2.050   1.974  11.162  0.0641  0.3090  0.1019
 8626SOL    HW137511   2.011   1.896  11.123  2.2196 -0.3236 -0.7653
 8626SOL    HW237512   1.971   1.999  11.210 -1.3960 -1.6580 -1.3051
 8627SOL     OW37513   3.740   1.720   8.613  0.1952  0.1599 -0.1484
 8627SOL    HW137514   3.706   1.644   8.567  1.6337  0.0663 -1.0555
 8627SOL    HW237515   3.667   1.782   8.622  0.6569  0.8184 -1.0078
 8628SOL     OW37516   3.298   4.378   8.548 -0.3433  0.1990 -0.0067
 8628SOL    HW137517   3.313   4.298   8.498 -2.2399  0.3607 -0.8491
 8628SOL    HW237518   3.212   4.409   8.521 -1.3237 -1.8976  0.7078
 8629SOL     OW37519   2.732   4.236  11.331  0.0765  0.6446  0.1098
 8629SOL    HW137520   2.805   4.184  11.366 -1.4436 -0.9626  0.8933
 8629SOL    HW237521   2.660   4.178  11.357 -0.4724  1.3309  0.1079
 8630SOL     OW37522   1.845   0.757   2.592  0.0450 -0.1305 -0.1281
 8630SOL    HW137523   1.802   0.842   2.602  3.1037  1.3809  0.0803
 8630SOL    HW237524   1.774   0.703   2.626 -0.0390 -1.8528 -2.9990
 8631SOL     OW37525   0.559   2.555   9.823  0.5357 -0.3584  0.4874
 8631SOL    HW137526   0.479   2.572   9.873 -0.1100 -1.2167 -0.2764
 8631SOL    HW237527   0.516   2.537   9.740 -0.2976  1.0476  0.6080
 8632SOL     OW37528   3.726   0.211   6.807 -0.1637  0.3273  0.3242
 8632SOL    HW137529   3.676   0.139   6.769 -1.0264  1.8544 -1.4257
 8632SOL    HW237530   3.760   0.186   6.893  0.1652  1.0769  0.4092
 8633SOL     OW37531   0.585   3.026   7.420  0.3981  0.0963  0.3945
 8633SOL    HW137532   0.650   3.086   7.383 -1.8170  1.7004 -0.9100
 8633SOL    HW237533   0.639   2.952   7.449 -0.1669 -0.5255 -0.1285
 8634SOL     OW37534   4.401   0.439   5.084 -0.5894 -0.1887 -0.5303
 8634SOL    HW137535   4.338   0.403   5.145  0.5258  1.2848  1.4722
 8634SOL    HW237536   4.347   0.513   5.056  1.3005  1.2901 -0.2411
 8635SOL     OW37537   3.632   2.446   2.927  0.3436  0.0147  0.0812
 8635SOL    HW137538   3.673   2.460   2.842 -1.8868 -0.2985 -1.0143
 8635SOL    HW237539   3.554   2.397   2.902 -1.5406  2.7431  0.7107
 8636SOL     OW37540   2.209   1.015  10.183  0.4330  0.0920  0.2550
 8636SOL    HW137541   2.197   1.086  10.120  2.7891 -0.6265 -1.0506
 8636SOL    HW237542   2.255   1.056  10.256 -1.4533 -0.5387  1.7865
 8637SOL     OW37543   0.715   1.757   7.601 -0.1948 -0.1004  0.2510
 8637SOL    HW137544   0.659   1.687   7.566 -1.5319  1.2573 -0.3272
 8637SOL    HW237545   0.650   1.807   7.649  0.5304 -0.7397  1.9153
 8638SOL     OW37546   1.256   4.540   3.159  0.4997  0.1666 -0.1981
 8638SOL    HW137547   1.171   4.559   3.118 -0.3573 -1.7947  0.7013
 8638SOL    HW237548   1.216   4.542   3.246 -3.5271  0.4722 -2.0489
 8639SOL     OW37549   4.243   3.807   7.837  0.4721  0.3128 -0.3820
 8639SOL    HW137550   4.200   3.806   7.922 -1.1101  1.8009 -1.1747
 8639SOL    HW237551   4.235   3.714   7.815 -1.4280 -0.2537  2.6221
 8640SOL     OW37552   4.723   1.395   7.693  0.0979 -0.0363 -0.3295
 8640SOL    HW137553   4.708   1.387   7.788 -0.2130  0.4046 -0.3424
 8640SOL    HW237554   4.674   1.318   7.664 -0.8259  1.4905 -2.8303
 8641SOL     OW37555   2.951   3.140  11.687  0.4156  0.5318  0.2111
 8641SOL    HW137556   3.012   3.091  11.633 -0.3027  0.7164 -0.7761
 8641SOL    HW237557   2.980   3.116  11.774 -0.7068  1.8432  0.9453
 8642SOL     OW37558   0.704   3.573   4.946  0.7668 -0.1500  0.0423
 8642SOL    HW137559   0.626   3.628   4.941  1.3713  0.3748 -3.1612
 8642SOL    HW237560   0.680   3.508   5.013  2.2811 -1.5446 -0.7435
 8643SOL     OW37561   0.092   2.228   8.492 -0.0253  0.0960 -0.1137
 8643SOL    HW137562   0.054   2.315   8.507  0.5834  0.4273 -0.4774
 8643SOL    HW237563   0.077   2.190   8.579  0.2214  0.8239  0.2447
 8644SOL     OW37564   4.696   2.034   3.003 -0.1986 -0.0762 -0.2962
 8644SOL    HW137565   4.607   2.060   2.981 -0.6209 -1.4875 -0.2402
 8644SOL    HW237566   4.677   1.983   3.082  0.2506  0.5230  0.2067
 8645SOL     OW37567   2.241   0.189   4.564 -0.1280  0.6169  0.1299
 8645SOL    HW137568   2.159   0.238   4.555 -0.0422  1.1409  2.2377
 8645SOL    HW237569   2.297   0.255   4.522  0.4862 -0.1572 -0.2625
 8646SOL     OW37570   1.384   1.586   9.462  0.5127 -0.2264 -0.0294
 8646SOL    HW137571   1.425   1.671   9.479  3.8601 -1.7817 -0.3539
 8646SOL    HW237572   1.308   1.596   9.519 -0.1487 -0.3600 -0.8833
 8647SOL     OW37573   3.329   4.077   3.187 -0.5990 -0.8935 -0.0330
 8647SOL    HW137574   3.419   4.066   3.217 -0.2214  0.0752 -0.8008
 8647SOL    HW237575   3.281   4.062   3.269 -2.6656 -0.6656 -1.1885
 8648SOL     OW37576   3.892   2.749   5.789  0.0973  0.1145  0.2275
 8648SOL    HW137577   3.981   2.734   5.756  0.4750 -1.3123  1.9243
 8648SOL    HW237578   3.843   2.703   5.721  0.2099 -0.7450  0.7277
 8649SOL     OW37579   2.065   1.797   5.719  0.3691 -0.1525 -0.4537
 8649SOL    HW137580   2.001   1.769   5.785  0.8547  2.4598  1.1525
 8649SOL    HW237581   2.141   1.812   5.775  0.6723  2.0413 -1.4550
 8650SOL     OW37582   1.170   3.518   2.276  0.0625 -0.0404  0.5653
 8650SOL    HW137583   1.104   3.490   2.213 -1.4854 -1.2434  2.7380
 8650SOL    HW237584   1.196   3.436   2.317  0.4169  0.7572  1.9512
 8651SOL     OW37585   2.506   1.582   3.499  0.0006  0.5408  0.8732
 8651SOL    HW137586   2.472   1.666   3.531 -0.3389  1.4396 -1.9023
 8651SOL    HW237587   2.590   1.579   3.546  0.4046 -0.0042  0.1241
 8652SOL     OW37588   1.761   0.644  16.433  0.2459  0.1765  0.5912
 8652SOL    HW137589   1.766   0.650  16.528  2.5353  1.9985  0.3643
 8652SOL    HW237590   1.703   0.568  16.429 -1.1084  1.2262  0.3124
 8653SOL     OW37591   1.231   4.041   8.935  0.1060  0.0457 -0.0588
 8653SOL    HW137592   1.301   4.059   8.998 -0.7667  1.7786  0.4209
 8653SOL    HW237593   1.265   4.098   8.867 -1.1889  0.8991  0.0004
 8654SOL     OW37594   1.053   4.002   5.089 -0.1192  0.1034  1.1470
 8654SOL    HW137595   1.091   4.090   5.090 -2.2408  1.0221 -0.7357
 8654SOL    HW237596   1.035   3.983   4.997 -1.1117  2.0983  0.9504
 8655SOL     OW37597   1.283   4.306  13.863  0.0717  0.8039 -0.3984
 8655SOL    HW137598   1.194   4.313  13.898  0.9089  1.5464  1.5863
 8655SOL    HW237599   1.324   4.231  13.905  0.4155  0.4242 -1.4208
 8656SOL     OW37600   4.646   1.893   3.228  0.2072  0.2410  0.0598
 8656SOL    HW137601   4.700   1.824   3.265 -0.0345 -0.5009 -0.9773
 8656SOL    HW237602   4.597   1.929   3.302  0.6750  0.4762  0.2559
 8657SOL     OW37603   4.667   3.924   0.831 -0.0562 -0.0070 -0.8584
 8657SOL    HW137604   4.678   3.941   0.925  1.1048  0.2034 -1.0348
 8657SOL    HW237605   4.667   4.009   0.789 -2.3108 -0.3572 -1.5481
 8658SOL     OW37606   1.015   1.443   7.985  0.3275  0.4273 -0.2276
 8658SOL    HW137607   0.950   1.373   7.986  1.1793 -0.3902 -2.8116
 8658SOL    HW237608   1.023   1.468   8.077 -0.8936 -0.0875  0.0259
 8659SOL     OW37609   1.618   3.033   6.823 -0.9102 -0.5970 -0.5428
 8659SOL    HW137610   1.702   3.054   6.783 -0.9270 -0.4607 -0.5056
 8659SOL    HW237611   1.629   3.082   6.904  0.4059 -1.1289 -0.4107
 8660SOL     OW37612   1.603   0.174   5.911 -0.0090 -0.0825 -0.4583
 8660SOL    HW137613   1.568   0.244   5.966  0.5166 -0.7238  0.6862
 8660SOL    HW237614   1.579   0.183   5.819 -2.4652  1.8752  0.3584
 8661SOL     OW37615   4.005   1.801  16.496  0.0958  0.0242 -0.1454
 8661SOL    HW137616   4.093   1.783  16.528  0.6318  2.2390 -0.3596
 8661SOL    HW237617   3.955   1.826  16.573 -0.4359 -1.9317  0.1343
 8662SOL     OW37618   1.063   1.900   1.722 -0.6193 -0.7946  0.0585
 8662SOL    HW137619   1.158   1.905   1.732 -0.5628 -1.0297 -0.3213
 8662SOL    HW237620   1.050   1.980   1.672 -3.5815 -1.7715 -0.7128
 8663SOL     OW37621   2.271   4.185   5.953 -0.4454 -0.6949 -0.7304
 8663SOL    HW137622   2.226   4.245   6.012  1.5281  1.5480 -1.4820
 8663SOL    HW237623   2.202   4.157   5.893 -0.8681  2.4303 -1.7204
 8664SOL     OW37624   3.551   1.568   4.386 -0.2929 -0.4260 -0.0654
 8664SOL    HW137625   3.526   1.619   4.310 -3.2190 -1.6611  0.0791
 8664SOL    HW237626   3.625   1.619   4.421  1.5830 -1.7556 -2.0609
 8665SOL     OW37627   0.055   1.974   5.236 -0.0897  0.1196 -0.1217
 8665SOL    HW137628   0.030   2.010   5.151  2.5146  2.0776 -0.0504
 8665SOL    HW237629   4.728   1.904   5.247 -1.8385  1.6552 -0.4690
 8666SOL     OW37630   3.385   1.120   3.461  0.3349  0.0237 -0.1684
 8666SOL    HW137631   3.295   1.148   3.445  1.0541  1.1973 -2.0726
 8666SOL    HW237632   3.393   1.027   3.482  1.1207  0.2550  0.5525
 8667SOL     OW37633   1.634   3.893   9.161  0.7880  0.1780 -0.4392
 8667SOL    HW137634   1.553   3.943   9.170  1.8052  1.4077  1.6755
 8667SOL    HW237635   1.703   3.953   9.189  1.2287 -0.0846 -0.9567
 8668SOL     OW37636   0.175   2.821   1.963 -0.3408  0.5756  0.0202
 8668SOL    HW137637   0.099   2.768   1.941 -2.0797  2.7239  0.9182
 8668SOL    HW237638   0.146   2.911   1.949 -3.9784 -0.4887  0.6729
 8669SOL     OW37639   3.530   4.680   0.232  0.0993 -0.0020 -0.4285
 8669SOL    HW137640   3.576   4.650   0.153  1.7076 -1.8976  1.2274
 8669SOL    HW237641   3.605   4.727   0.269 -1.4629  0.2724  2.3254
 8670SOL     OW37642   4.707   0.661  15.364  0.2157 -0.2523 -0.1013
 8670SOL    HW137643   0.063   0.674  15.343 -0.1238  0.2997 -1.2860
 8670SOL    HW237644   4.693   0.731  15.427  0.2274 -0.3500  0.0091
 8671SOL     OW37645   3.725   1.484   4.993 -0.8288 -0.0309  0.1469
 8671SOL    HW137646   3.639   1.490   4.950 -0.8395  1.1457  0.3453
 8671SOL    HW237647   3.697   1.443   5.075  1.5902  0.3607  1.1670
 8672SOL     OW37648   3.241   3.531   3.520  0.0394  0.2284  0.3951
 8672SOL    HW137649   3.177   3.576   3.575  1.3096  1.4831  0.8264
 8672SOL    HW237650   3.323   3.574   3.542  0.8538 -2.1417  2.0152
 8673SOL     OW37651   2.275   0.918   6.192  0.1051  0.4196  0.4849
 8673SOL    HW137652   2.225   0.987   6.148  0.7651 -0.4138 -1.5610
 8673SOL    HW237653   2.320   0.976   6.253 -0.0964 -0.0259  1.0550
 8674SOL     OW37654   0.810   1.964   5.808 -0.4410  0.4031  0.2388
 8674SOL    HW137655   0.744   1.922   5.753  0.9728  1.0475 -1.9497
 8674SOL    HW237656   0.882   1.901   5.805  0.2988  1.1698  1.6743
 8675SOL     OW37657   0.883   3.357   5.274  0.8426  0.3851  0.0116
 8675SOL    HW137658   0.893   3.342   5.368 -1.1697 -2.2042 -0.1948
 8675SOL    HW237659   0.903   3.451   5.277  2.9669 -0.0253 -1.1212
 8676SOL     OW37660   3.997   1.220  14.271  0.6126 -0.1357  0.3467
 8676SOL    HW137661   4.033   1.132  14.276 -1.8336 -1.1769 -0.0654
 8676SOL    HW237662   3.967   1.221  14.362 -0.9697 -1.8370 -0.1526
 8677SOL     OW37663   2.645   0.500   5.813  0.6269 -0.0494 -0.0241
 8677SOL    HW137664   2.648   0.595   5.806  1.2687  0.0168  1.3563
 8677SOL    HW237665   2.608   0.478   5.898 -1.4733  0.9735 -0.6780
 8678SOL     OW37666   1.568   3.122   9.404 -0.1136 -0.0543 -0.1593
 8678SOL    HW137667   1.493   3.082   9.448 -1.7941  2.2072 -0.9510
 8678SOL    HW237668   1.541   3.146   9.315 -1.6594  0.3553  0.4045
 8679SOL     OW37669   1.000   1.209   3.245  1.0015  0.5107  0.9818
 8679SOL    HW137670   1.058   1.151   3.294  0.4825 -0.2966  0.6366
 8679SOL    HW237671   0.933   1.145   3.220  0.4674  2.1060 -1.6453
 8680SOL     OW37672   1.451   1.377   9.998 -0.5885 -0.0195  0.2690
 8680SOL    HW137673   1.362   1.403  10.021 -0.2579  0.7082  0.7404
 8680SOL    HW237674   1.446   1.382   9.903  1.2234  1.4460  0.2555
 8681SOL     OW37675   4.371   1.616   5.298 -0.2189  0.0400  0.2079
 8681SOL    HW137676   4.374   1.707   5.268 -1.0412  0.2098  0.6274
 8681SOL    HW237677   4.447   1.618   5.355 -0.8722  1.3565  1.0227
 8682SOL     OW37678   0.498   0.642   7.720  0.9363  0.2763  0.2246
 8682SOL    HW137679   0.556   0.577   7.760  0.2055 -1.0143 -0.7880
 8682SOL    HW237680   0.516   0.634   7.626 -1.1877  0.4441 -0.2036
 8683SOL     OW37681   1.456   4.681  10.208  0.7655 -0.0805 -0.5193
 8683SOL    HW137682   1.516   4.733  10.154  0.5368  1.3784  0.6279
 8683SOL    HW237683   1.520   4.647  10.270  0.5721  1.2011  0.3768
 8684SOL     OW37684   2.712   2.517  14.428 -0.0185  0.1446 -0.1464
 8684SOL    HW137685   2.754   2.562  14.501 -1.6660  0.2941  0.7050
 8684SOL    HW237686   2.673   2.577  14.365  2.0571  0.0709 -1.5137
 8685SOL     OW37687   4.481   3.691   4.732 -0.0124 -0.2415  0.5020
 8685SOL    HW137688   4.492   3.670   4.824  0.9657 -1.9762 -0.0015
 8685SOL    HW237689   4.431   3.618   4.694  0.3074  0.3621 -1.1117
 8686SOL     OW37690   2.627   0.126   5.305 -0.3440  0.3435 -0.1483
 8686SOL    HW137691   2.553   0.154   5.359 -0.0127  1.9344 -0.5132
 8686SOL    HW237692   2.677   0.203   5.277 -0.5566 -0.2086 -2.0650
 8687SOL     OW37693   2.044   3.015   5.838  0.1022 -0.1312 -0.3442
 8687SOL    HW137694   2.039   2.922   5.818  3.4066 -0.3334 -0.0971
 8687SOL    HW237695   2.103   3.057   5.775  0.5588 -1.2567 -0.6594
 8688SOL     OW37696   3.552   0.166  16.132  0.2569  0.2911 -0.5445
 8688SOL    HW137697   3.610   0.100  16.094  1.8495  2.2821 -1.5858
 8688SOL    HW237698   3.573   0.246  16.083  0.6292  1.3473  1.3490
 8689SOL     OW37699   4.272   2.107   4.764  0.0395 -0.0948 -0.4243
 8689SOL    HW137700   4.188   2.069   4.739  0.1366 -0.3196 -0.4167
 8689SOL    HW237701   4.311   2.123   4.678 -2.3905  0.5109 -1.4144
 8690SOL     OW37702   2.700   1.500   6.109  0.0827 -0.1621 -0.2308
 8690SOL    HW137703   2.697   1.563   6.181  2.3571 -0.1521 -0.1420
 8690SOL    HW237704   2.636   1.435   6.137 -0.9364  0.9874  0.1452
 8691SOL     OW37705   0.133   1.253   0.893  0.3013 -0.0435 -0.0471
 8691SOL    HW137706   0.102   1.343   0.899 -0.7930 -0.4524  0.5018
 8691SOL    HW237707   0.076   1.210   0.957  1.8477 -0.6347  0.9314
 8692SOL     OW37708   2.656   4.109   7.565  0.6097  0.3039 -0.8835
 8692SOL    HW137709   2.612   4.037   7.520 -0.0186  1.4404 -2.0535
 8692SOL    HW237710   2.602   4.168   7.617 -2.0153 -1.3019 -1.8196
 8693SOL     OW37711   1.341   0.247  14.134 -0.1676 -0.1003 -0.6271
 8693SOL    HW137712   1.318   0.323  14.081  2.5300 -0.5345 -2.4092
 8693SOL    HW237713   1.423   0.230  14.088 -0.8787 -5.4968  0.1752
 8694SOL     OW37714   1.970   3.761   7.080 -0.7931 -0.3380 -0.0076
 8694SOL    HW137715   2.043   3.756   7.141 -0.3180 -1.3202 -0.6525
 8694SOL    HW237716   1.945   3.669   7.081  1.8553 -1.0514 -0.4479
 8695SOL     OW37717   1.630   1.654   7.527 -0.7431 -0.4510 -0.0519
 8695SOL    HW137718   1.613   1.613   7.612  1.4280 -1.1593  0.0460
 8695SOL    HW237719   1.648   1.741   7.561 -1.2609 -0.4410  0.1856
 8696SOL     OW37720   1.117   1.977   8.919  0.0010 -0.0028 -0.1785
 8696SOL    HW137721   1.090   2.009   8.833  3.1208  0.7012 -0.8727
 8696SOL    HW237722   1.135   1.886   8.895 -0.8627 -0.7898  2.1257
 8697SOL     OW37723   3.193   3.560   9.049  0.1267 -0.2244 -0.2243
 8697SOL    HW137724   3.135   3.611   9.106  0.0899 -1.0577  0.4834
 8697SOL    HW237725   3.148   3.476   9.057 -1.3240  0.3182 -2.7807
 8698SOL     OW37726   2.077   4.511  14.982  0.3767 -0.4090  0.2617
 8698SOL    HW137727   2.046   4.520  15.072  2.2058  2.8274  0.5487
 8698SOL    HW237728   2.093   4.417  14.975  0.7347 -0.3075 -0.2811
 8699SOL     OW37729   1.967   1.869  12.113  0.4003  0.2398 -0.8495
 8699SOL    HW137730   2.059   1.895  12.124 -0.2618  2.0097  0.5012
 8699SOL    HW237731   1.921   1.952  12.124  1.1188  0.7461 -1.7377
 8700SOL     OW37732   1.962   2.558  14.908 -0.3205 -0.2955  0.4179
 8700SOL    HW137733   1.963   2.594  14.820  0.8037 -2.1912 -0.3353
 8700SOL    HW237734   2.026   2.617  14.949 -0.2637  1.9554 -2.9055
 8701SOL     OW37735   0.217   1.817   3.058 -0.3505 -0.3697 -0.5049
 8701SOL    HW137736   0.169   1.842   3.137 -0.9401 -1.4827 -0.5119
 8701SOL    HW237737   0.296   1.787   3.103 -1.1322 -1.7394 -0.0485
 8702SOL     OW37738   3.943   0.660   8.661  0.7501  0.1398  0.5734
 8702SOL    HW137739   4.017   0.610   8.625  1.2639  0.9632  0.4826
 8702SOL    HW237740   3.925   0.597   8.731 -0.7782  0.4740  0.4738
 8703SOL     OW37741   2.012   3.600   0.369 -0.4764 -0.1389  0.1328
 8703SOL    HW137742   2.105   3.620   0.358 -0.8612  1.1657 -0.7602
 8703SOL    HW237743   1.999   3.560   0.455  2.9392 -0.6157  0.3995
 8704SOL     OW37744   0.209   1.572   1.497 -0.3910  0.9300 -0.3210
 8704SOL    HW137745   0.300   1.602   1.509 -0.2234  0.4418 -0.3779
 8704SOL    HW237746   0.209   1.484   1.535 -2.5293  0.1922 -2.0059
 8705SOL     OW37747   0.488   1.892  13.005 -0.7776  0.6441  0.0419
 8705SOL    HW137748   0.552   1.867  13.072  1.5401 -2.0413 -3.1604
 8705SOL    HW237749   0.502   1.986  12.997 -1.3961  0.7267 -0.0655
 8706SOL     OW37750   2.706   1.866   2.293 -0.0923 -0.1878  0.1981
 8706SOL    HW137751   2.717   1.775   2.264  0.3143  0.3136 -1.1954
 8706SOL    HW237752   2.684   1.909   2.211 -1.1315  3.4535  2.3878
 8707SOL     OW37753   4.296   3.333   7.138 -0.3485 -0.1786 -0.0829
 8707SOL    HW137754   4.352   3.392   7.087 -2.0999  0.1554 -1.6181
 8707SOL    HW237755   4.208   3.368   7.128 -0.6472 -0.8796  0.1073
 8708SOL     OW37756   0.217   4.552   2.673 -0.1201 -0.2213  0.2000
 8708SOL    HW137757   0.298   4.516   2.709 -1.0740 -2.6512 -0.1279
 8708SOL    HW237758   0.160   4.478   2.692 -0.9614 -0.1761 -2.1533
 8709SOL     OW37759   2.077   3.588   7.491  0.2490  0.2541  0.2952
 8709SOL    HW137760   2.099   3.633   7.410  0.8859  0.0214  0.3326
 8709SOL    HW237761   2.041   3.645   7.559 -0.0583 -3.0222  2.8663
 8710SOL     OW37762   4.589   3.385   4.915  0.4801 -0.1047  0.7381
 8710SOL    HW137763   4.597   3.297   4.953  0.5241 -0.1758  0.5644
 8710SOL    HW237764   4.631   3.375   4.830  0.0095 -0.2300  0.5174
 8711SOL     OW37765   0.803   1.778   4.005 -0.5030  0.1585 -0.0178
 8711SOL    HW137766   0.751   1.715   3.955 -1.1773 -0.4204  1.3902
 8711SOL    HW237767   0.868   1.800   3.938 -1.4861 -2.6599 -1.9025
 8712SOL     OW37768   2.532   3.039   1.804 -0.2669  0.3231 -0.4312
 8712SOL    HW137769   2.562   2.949   1.818 -0.9769 -0.1906 -2.2613
 8712SOL    HW237770   2.572   3.090   1.874 -0.4268  3.4780 -2.6543
 8713SOL     OW37771   2.433   4.493  15.190  0.3105  0.1468 -0.0132
 8713SOL    HW137772   2.379   4.459  15.261  0.9648 -2.5161 -0.7517
 8713SOL    HW237773   2.452   4.583  15.215 -0.7036  0.0766  0.9850
 8714SOL     OW37774   4.548   0.465   6.533  0.7879  0.4148 -0.1719
 8714SOL    HW137775   4.472   0.409   6.519  0.4556  0.8670 -0.1620
 8714SOL    HW237776   4.556   0.526   6.459 -0.9675 -0.0333 -0.7264
 8715SOL     OW37777   1.307   1.295   2.718 -0.3860 -0.5181 -0.1483
 8715SOL    HW137778   1.388   1.334   2.686 -1.3204  0.3754 -1.4297
 8715SOL    HW237779   1.319   1.201   2.730  2.7745 -0.1203 -0.1883
 8716SOL     OW37780   4.316   4.267   3.892  0.1560  0.2181  0.2871
 8716SOL    HW137781   4.238   4.244   3.841 -0.2022 -0.2852  1.0630
 8716SOL    HW237782   4.293   4.222   3.974  2.8882 -1.4667  0.1518
 8717SOL     OW37783   4.068   3.402   1.722 -0.4620 -0.7178 -0.1125
 8717SOL    HW137784   4.094   3.348   1.648  0.2422  1.0394 -1.1332
 8717SOL    HW237785   4.010   3.468   1.683 -0.2309 -0.3617  0.1423
 8718SOL     OW37786   0.603   1.361   6.610 -0.1816 -0.9583  0.4035
 8718SOL    HW137787   0.594   1.275   6.569  1.3576 -0.5276 -0.8109
 8718SOL    HW237788   0.594   1.421   6.536 -1.3000  1.1685  2.2325
 8719SOL     OW37789   2.008   1.840   3.957  0.2905 -0.4665 -0.2184
 8719SOL    HW137790   2.069   1.912   3.939 -1.4192  1.5463  2.1731
 8719SOL    HW237791   2.063   1.761   3.963 -0.3571 -0.9794 -0.9604
 8720SOL     OW37792   2.742   2.203   8.846 -0.1329 -0.2498 -0.1462
 8720SOL    HW137793   2.678   2.251   8.793  2.3172  2.8209 -0.3437
 8720SOL    HW237794   2.740   2.122   8.796 -0.8310  0.4774 -1.2995
 8721SOL     OW37795   1.519   4.469   8.103  0.0270 -0.4063  0.5292
 8721SOL    HW137796   1.613   4.464   8.087 -0.3904 -3.5560 -1.0381
 8721SOL    HW237797   1.501   4.390   8.153  0.7268 -0.8122  0.1391
 8722SOL     OW37798   2.980   0.078  14.478  0.2733  0.5045  0.2859
 8722SOL    HW137799   2.897   0.073  14.526  0.0423 -1.1561 -0.2940
 8722SOL    HW237800   3.041   0.137  14.521  1.4970 -1.5098  1.3166
 8723SOL     OW37801   1.941   4.458   2.123 -0.4064 -0.2894 -0.1394
 8723SOL    HW137802   1.940   4.535   2.180 -1.6972  1.8526 -3.0590
 8723SOL    HW237803   1.854   4.426   2.147 -0.7457 -1.0354 -2.4254
 8724SOL     OW37804   4.173   4.357   6.951  0.0956 -0.3677 -0.2723
 8724SOL    HW137805   4.169   4.406   7.033  0.9158 -1.6364  0.5238
 8724SOL    HW237806   4.264   4.331   6.966 -1.0048 -3.9517  0.3199
 8725SOL     OW37807   1.876   4.288   1.250 -0.1125 -0.3271 -0.4726
 8725SOL    HW137808   1.970   4.295   1.264 -0.4462  2.1215  0.5104
 8725SOL    HW237809   1.840   4.334   1.326 -0.1060  0.9604 -1.2478
 8726SOL     OW37810   2.006   2.430   3.719  0.6231  0.2662 -0.3305
 8726SOL    HW137811   2.070   2.500   3.703  1.4970 -0.3955  0.2317
 8726SOL    HW237812   1.964   2.477   3.791  1.8323  0.5641  0.1866
 8727SOL     OW37813   2.084   4.607   7.315 -0.6760 -0.5866 -0.3045
 8727SOL    HW137814   2.081   4.602   7.411  0.4881 -1.6669 -0.3160
 8727SOL    HW237815   2.132   4.688   7.297  1.1604 -2.0040 -1.7739
 8728SOL     OW37816   4.135   3.748   6.110  0.4465  0.3696  0.2056
 8728SOL    HW137817   4.140   3.691   6.034 -1.6776  1.3440 -0.6465
 8728SOL    HW237818   4.150   3.837   6.077 -1.2021  0.2093 -0.9361
 8729SOL     OW37819   3.370   3.005   2.631 -0.4604 -0.4757  0.2856
 8729SOL    HW137820   3.278   2.994   2.653 -0.7774  0.4969 -0.5149
 8729SOL    HW237821   3.420   3.026   2.710  0.3604 -1.7823  0.0967
 8730SOL     OW37822   0.790   3.052  11.274 -0.1868 -0.0841 -0.1907
 8730SOL    HW137823   0.706   3.063  11.319 -0.3323  1.3028 -0.7931
 8730SOL    HW237824   0.786   2.957  11.263 -0.9107 -0.2547  1.5224
 8731SOL     OW37825   3.326   2.585  12.062 -0.1386 -0.4259 -0.3291
 8731SOL    HW137826   3.343   2.496  12.093 -1.2023 -0.3650  0.4298
 8731SOL    HW237827   3.354   2.639  12.136  0.5602 -0.1521 -0.7880
 8732SOL     OW37828   1.047   0.973   4.667  0.2957 -0.0415 -0.2223
 8732SOL    HW137829   1.010   0.985   4.580 -2.4272 -0.5748  0.8503
 8732SOL    HW237830   0.987   0.910   4.707  0.6520  0.6784  1.4704
 8733SOL     OW37831   3.771   3.804   2.709  0.3624  0.0466 -0.5152
 8733SOL    HW137832   3.693   3.854   2.731  1.5219  2.1433 -1.2174
 8733SOL    HW237833   3.840   3.862   2.740  2.2495 -0.7810 -3.1099
 8734SOL     OW37834   4.525   1.780   2.879 -0.7788  0.2193  0.2641
 8734SOL    HW137835   4.586   1.709   2.897  0.5261  1.0218 -0.9635
 8734SOL    HW237836   4.531   1.790   2.784 -1.3156  1.4481  0.3637
 8735SOL     OW37837   4.074   2.463   4.083  0.1542 -0.0891 -0.1843
 8735SOL    HW137838   4.044   2.478   3.993  0.1400 -0.0709 -0.1765
 8735SOL    HW237839   4.074   2.367   4.077 -0.8212 -0.1052  0.0546
 8736SOL     OW37840   3.746   1.778   1.331 -0.3242  0.2907  0.1677
 8736SOL    HW137841   3.816   1.844   1.326  1.9716 -2.1968 -0.2546
 8736SOL    HW237842   3.808   1.718   1.372 -0.4474 -0.4802 -0.7780
 8737SOL     OW37843   2.565   3.425  13.926  0.1474  0.4605 -0.0431
 8737SOL    HW137844   2.531   3.480  13.997 -0.3507  1.2582 -0.8998
 8737SOL    HW237845   2.498   3.437  13.858  0.3500  0.4270 -0.2468
 8738SOL     OW37846   3.285   1.046   3.156  0.1029  0.4327 -0.2970
 8738SOL    HW137847   3.367   1.092   3.139 -0.5591  1.7653  0.1307
 8738SOL    HW237848   3.320   0.958   3.166  0.0284  0.4924  0.5114
 8739SOL     OW37849   4.577   4.019   3.944 -0.6643 -0.2473  0.2755
 8739SOL    HW137850   4.657   4.050   3.987 -2.1025  1.1459  1.9566
 8739SOL    HW237851   4.608   3.982   3.862 -0.9226  1.1257 -0.4508
 8740SOL     OW37852   2.820   4.674  10.041 -1.0367 -0.1249  0.0889
 8740SOL    HW137853   2.788   4.656  10.129  3.7072  2.7903  2.3935
 8740SOL    HW237854   2.848   0.028  10.043  0.8350 -0.7378  1.2110
 8741SOL     OW37855   0.284   2.324  12.997 -0.5656  0.1137 -0.6916
 8741SOL    HW137856   0.304   2.358  13.085 -1.5671 -0.4904 -0.2268
 8741SOL    HW237857   0.268   2.402  12.944  1.9036  1.1769  0.1151
 8742SOL     OW37858   3.495   4.476  15.750  0.0296  0.3433 -0.2285
 8742SOL    HW137859   3.520   4.384  15.761  0.5801  0.3922 -1.0269
 8742SOL    HW237860   3.454   4.512  15.828 -0.1703  2.1242 -1.1602
 8743SOL     OW37861   3.704   0.603  10.908  0.4822  0.5935  0.2833
 8743SOL    HW137862   3.750   0.536  10.859  0.0910 -0.0044  0.7383
 8743SOL    HW237863   3.759   0.609  10.987 -0.2381  2.8193  0.6320
 8744SOL     OW37864   4.163   3.731   3.340 -0.0417  0.0968 -0.1459
 8744SOL    HW137865   4.109   3.742   3.261  0.7547 -1.5134 -0.8980
 8744SOL    HW237866   4.171   3.637   3.357  0.8398  0.2709  0.4032
 8745SOL     OW37867   3.808   1.846  10.107  0.3976  0.3164  0.4651
 8745SOL    HW137868   3.732   1.905  10.108 -0.1437 -0.3948  1.2971
 8745SOL    HW237869   3.862   1.886  10.038  0.0105 -0.0791 -0.0680
 8746SOL     OW37870   0.849   2.348   8.111  0.8412 -0.3129 -0.2061
 8746SOL    HW137871   0.774   2.326   8.055 -0.3257  3.7458 -0.3012
 8746SOL    HW237872   0.923   2.335   8.051  0.7522  1.5554 -0.7272
 8747SOL     OW37873   4.323   4.308  16.520  0.2114 -0.0634 -0.2087
 8747SOL    HW137874   4.360   4.395  16.535  3.6007 -1.8461  1.6388
 8747SOL    HW237875   4.366   4.273  16.442 -3.9407  0.1877 -2.6090
 8748SOL     OW37876   2.993   4.661   1.863  0.2420  0.1533  0.0660
 8748SOL    HW137877   3.031   0.012   1.855 -1.0055  0.5133 -1.8279
 8748SOL    HW237878   3.000   4.621   1.776  0.1551  0.4587 -0.0823
 8749SOL     OW37879   4.321   2.216   3.119  0.0508 -0.1414 -0.5421
 8749SOL    HW137880   4.348   2.141   3.172 -0.1414  0.6281  0.6262
 8749SOL    HW237881   4.273   2.276   3.175 -0.1236 -0.5169 -0.2915
 8750SOL     OW37882   4.243   3.676   2.175 -0.7738  0.6208 -0.0716
 8750SOL    HW137883   4.228   3.764   2.210 -1.5392  0.1699  0.7361
 8750SOL    HW237884   4.314   3.631   2.222  0.0872  1.9277 -0.1253
 8751SOL     OW37885   0.039   0.772  13.236 -0.5932 -0.4756  0.0483
 8751SOL    HW137886   0.027   0.850  13.182 -1.4870 -0.4902  0.2303
 8751SOL    HW237887   0.114   0.805  13.287 -0.8323 -0.3196  0.2997
 8752SOL     OW37888   2.418   1.096   4.694  0.3009  0.6123  0.0199
 8752SOL    HW137889   2.501   1.092   4.741 -1.0328  0.5455  2.3712
 8752SOL    HW237890   2.418   1.011   4.650  0.5332  0.6106  0.0271
 8753SOL     OW37891   0.565   0.204   8.582  0.4634  0.6260  0.1380
 8753SOL    HW137892   0.572   0.297   8.558 -0.5914  0.1245 -2.1403
 8753SOL    HW237893   0.603   0.167   8.502 -2.2211 -0.0144 -0.8103
 8754SOL     OW37894   3.137   0.660   1.719  0.2925 -0.0213  0.2395
 8754SOL    HW137895   3.227   0.649   1.751 -0.4620  2.3657  3.1771
 8754SOL    HW237896   3.147   0.755   1.709  2.0389 -0.4268 -1.7786
 8755SOL     OW37897   1.409   0.426   1.678 -0.3247  0.0778  0.0841
 8755SOL    HW137898   1.500   0.396   1.677 -0.8992 -1.6674 -0.3385
 8755SOL    HW237899   1.408   0.460   1.768 -0.1610  1.2895 -0.3820
 8756SOL     OW37900   0.736   0.508   9.499  0.1320 -0.1718 -0.1469
 8756SOL    HW137901   0.685   0.428   9.511  1.6305 -0.9545  1.0939
 8756SOL    HW237902   0.820   0.478   9.463 -0.2601  0.7503 -1.8089
 8757SOL     OW37903   3.600   2.538  14.799 -0.7506  0.0800  0.3725
 8757SOL    HW137904   3.690   2.571  14.799 -0.6221 -0.2853  1.5376
 8757SOL    HW237905   3.572   2.578  14.716  0.0249 -0.4489 -0.1448
 8758SOL     OW37906   2.910   1.569  11.789  0.2346 -0.1447  0.1444
 8758SOL    HW137907   2.946   1.617  11.864 -0.3613  0.0245  0.3168
 8758SOL    HW237908   2.964   1.490  11.799 -0.4053 -0.5235  0.5571
 8759SOL     OW37909   1.141   3.762   0.445  0.0531 -0.0937 -0.9689
 8759SOL    HW137910   1.179   3.850   0.449  1.1397 -0.5643 -0.9959
 8759SOL    HW237911   1.179   3.718   0.522  0.7877  0.5073 -0.9846
 8760SOL     OW37912   3.183   3.848   8.692 -0.6111 -0.5301  0.0806
 8760SOL    HW137913   3.269   3.879   8.665  0.6574 -0.8091  3.8913
 8760SOL    HW237914   3.135   3.931   8.692 -1.3703 -0.9707  4.6903
 8761SOL     OW37915   3.165   0.449   6.296 -0.0205 -0.5524 -0.1090
 8761SOL    HW137916   3.259   0.449   6.278  0.2801  0.5717  1.4005
 8761SOL    HW237917   3.135   0.530   6.256  1.1903 -0.4019 -0.7258
 8762SOL     OW37918   0.829   3.208   5.559  0.5669  0.4254  0.2657
 8762SOL    HW137919   0.753   3.164   5.521  0.7591 -0.3997  0.8238
 8762SOL    HW237920   0.873   3.129   5.591 -0.6807  0.1374  1.2720
 8763SOL     OW37921   2.624   1.561  11.767  0.0962  0.6688  0.1497
 8763SOL    HW137922   2.605   1.468  11.783  0.4173  0.5574 -0.1137
 8763SOL    HW237923   2.719   1.556  11.779  0.0390  0.9208  0.7078
 8764SOL     OW37924   2.866   4.118   1.229  0.1210 -0.0425  0.1932
 8764SOL    HW137925   2.835   4.192   1.176 -0.5448 -0.0285  0.6022
 8764SOL    HW237926   2.877   4.054   1.159  2.2263  1.5052 -0.8979
 8765SOL     OW37927   3.540   0.379  10.744  0.0737  0.3757 -0.0259
 8765SOL    HW137928   3.546   0.357  10.837 -0.8246  0.6047  0.0823
 8765SOL    HW237929   3.628   0.412  10.726  0.3653  0.0674  0.8049
 8766SOL     OW37930   0.361   3.940  16.232 -0.0617 -0.5883 -0.1488
 8766SOL    HW137931   0.448   3.905  16.254  0.3475  0.0051 -0.8280
 8766SOL    HW237932   0.389   4.015  16.180  1.7166 -0.2503  1.2798
 8767SOL     OW37933   1.833   2.814   2.531 -0.2018 -0.6291  0.5507
 8767SOL    HW137934   1.906   2.872   2.550  1.0096 -1.7784 -0.6409
 8767SOL    HW237935   1.764   2.872   2.497  1.5165  1.2895  0.3804
 8768SOL     OW37936   3.502   3.972  13.402  0.9042  0.1553  0.4661
 8768SOL    HW137937   3.438   3.909  13.434  1.0145  0.5541  1.4741
 8768SOL    HW237938   3.547   3.993  13.484  2.6616  0.6042 -0.6039
 8769SOL     OW37939   3.940   4.602  12.113  0.0384 -0.1697  0.1695
 8769SOL    HW137940   3.969   4.536  12.176  1.2662 -0.4897 -0.7385
 8769SOL    HW237941   3.950   4.556  12.030 -0.1772  2.1471 -1.1435
 8770SOL     OW37942   3.093   4.134   3.603 -0.3061  0.0036 -0.3745
 8770SOL    HW137943   3.025   4.165   3.543  0.5062 -0.0188 -1.3120
 8770SOL    HW237944   3.033   4.089   3.663  0.5834 -2.2163 -1.1380
 8771SOL     OW37945   1.151   4.200   9.873 -0.0733  0.1135  0.0261
 8771SOL    HW137946   1.118   4.287   9.895  0.2985  0.7920 -2.1269
 8771SOL    HW237947   1.182   4.172   9.960  1.2958 -2.0607 -1.1552
 8772SOL     OW37948   2.659   2.268   3.906  0.3803  0.2678 -0.1231
 8772SOL    HW137949   2.587   2.244   3.965 -0.7009  0.7985 -1.2261
 8772SOL    HW237950   2.700   2.182   3.904  0.8410  0.5325 -1.7882
 8773SOL     OW37951   2.251   2.433   6.340 -0.0993  0.3357 -0.7209
 8773SOL    HW137952   2.249   2.361   6.277 -0.9935 -1.3025  1.2045
 8773SOL    HW237953   2.315   2.495   6.305 -0.3814  0.0843 -1.6942
 8774SOL     OW37954   3.249   3.934  11.654 -0.1714 -0.0346 -0.8341
 8774SOL    HW137955   3.198   3.871  11.603 -2.0141 -0.2653  1.2926
 8774SOL    HW237956   3.254   4.006  11.592 -2.3865 -0.1633 -1.1605
 8775SOL     OW37957   4.640   0.687   9.337  0.1281 -0.3905 -0.5153
 8775SOL    HW137958   4.551   0.721   9.335  0.4991  0.5164 -1.6119
 8775SOL    HW237959   4.675   0.707   9.424 -0.3464  1.2817 -0.7248
 8776SOL     OW37960   4.241   1.115  12.011 -0.2547  0.1278  0.0166
 8776SOL    HW137961   4.332   1.086  12.018  0.3874  1.9737 -0.5845
 8776SOL    HW237962   4.219   1.067  11.932  2.4020  1.0063 -1.2588
 8777SOL     OW37963   1.030   2.703   5.384 -0.3461 -0.1082 -0.0728
 8777SOL    HW137964   1.009   2.792   5.410 -3.7481 -0.2247 -2.3511
 8777SOL    HW237965   0.980   2.688   5.304 -2.0324  2.7182  0.4392
 8778SOL     OW37966   2.743   4.208  10.070 -0.2280 -0.5279 -0.0620
 8778SOL    HW137967   2.719   4.116  10.061 -1.9970 -0.1150  0.4050
 8778SOL    HW237968   2.800   4.225   9.994  0.9701 -0.7146  0.8015
 8779SOL     OW37969   2.110   1.032   7.798  0.0932 -0.4136 -0.0126
 8779SOL    HW137970   2.060   1.067   7.873  0.2163 -0.0604 -0.0921
 8779SOL    HW237971   2.086   1.097   7.731  1.5926  1.6621  1.4452
 8780SOL     OW37972   2.249   0.966   8.233 -0.4497  0.1200  0.1985
 8780SOL    HW137973   2.249   1.057   8.202 -1.3850  0.2465  0.5646
 8780SOL    HW237974   2.273   0.990   8.322  0.7253  0.1243 -0.1236
 8781SOL     OW37975   3.821   0.218   6.155 -1.1138  0.0118  0.1436
 8781SOL    HW137976   3.809   0.130   6.190 -0.1082 -0.3347 -0.4115
 8781SOL    HW237977   3.871   0.212   6.074  2.1110 -1.9938  2.2879
 8782SOL     OW37978   3.406   4.467  13.175 -1.2237 -0.2099 -0.1979
 8782SOL    HW137979   3.321   4.427  13.159 -0.8911 -1.1083  0.2654
 8782SOL    HW237980   3.412   4.478  13.270  0.1472  0.5123 -0.3597
 8783SOL     OW37981   4.677   3.639   8.715 -0.0485 -0.3588 -0.7759
 8783SOL    HW137982   4.607   3.607   8.658 -1.7996  0.4711  0.9700
 8783SOL    HW237983   4.627   3.707   8.759  1.6247  1.0033 -0.9601
 8784SOL     OW37984   0.274   0.504   3.668  0.2098  0.1105  0.5164
 8784SOL    HW137985   0.270   0.409   3.667 -0.7030  0.1606 -0.5135
 8784SOL    HW237986   0.217   0.526   3.594 -0.3953 -3.2562 -0.0052
 8785SOL     OW37987   0.845   0.584  10.459  0.3179  0.1597 -0.4808
 8785SOL    HW137988   0.900   0.621  10.390  0.7984 -1.2592 -0.8453
 8785SOL    HW237989   0.825   0.665  10.506 -0.8162  1.0245 -2.4251
 8786SOL     OW37990   4.125   3.288   5.978  0.0400 -0.7853 -0.4995
 8786SOL    HW137991   4.118   3.260   5.887 -1.3334 -0.3473 -0.5357
 8786SOL    HW237992   4.193   3.352   5.962 -0.7866 -0.1831 -1.5830
 8787SOL     OW37993   4.579   1.377   8.232 -0.3328 -0.3368  0.4454
 8787SOL    HW137994   4.632   1.444   8.277  0.4538 -0.9994  0.5223
 8787SOL    HW237995   4.631   1.296   8.232 -1.6914 -1.1768 -1.6217
 8788SOL     OW37996   3.591   0.131   8.442  0.2233 -0.0061  0.3990
 8788SOL    HW137997   3.562   0.071   8.372 -0.0742 -1.8112  2.0659
 8788SOL    HW237998   3.543   0.208   8.415 -2.3123 -2.1395 -1.1465
 8789SOL     OW37999   4.664   0.484   9.172  0.2568  0.2243 -0.2096
 8789SOL    HW138000   4.657   0.400   9.218  1.2032  1.9537  3.1005
 8789SOL    HW238001   4.674   0.555   9.235  1.5216  0.7324 -0.9612
 8790SOL     OW38002   2.084   4.685   3.504 -0.7079  0.5765 -0.1067
 8790SOL    HW138003   2.016   4.619   3.498 -1.0379  0.8600  0.5425
 8790SOL    HW238004   2.160   4.630   3.524 -1.1015 -0.1234 -0.5613
 8791SOL     OW38005   4.285   3.974   2.562  0.6824 -0.0577  0.3261
 8791SOL    HW138006   4.291   4.021   2.479  0.0421  0.4086  0.5460
 8791SOL    HW238007   4.251   4.046   2.615 -0.1845 -0.9329  0.9484
 8792SOL     OW38008   1.074   1.215   8.850 -0.1459 -0.8397 -0.2302
 8792SOL    HW138009   1.061   1.190   8.758  0.0855  1.5081 -0.8806
 8792SOL    HW238010   0.989   1.218   8.894  0.0790  1.0734  0.0488
 8793SOL     OW38011   1.237   1.193   2.149 -0.2356 -0.4327  0.5548
 8793SOL    HW138012   1.252   1.230   2.062 -0.5557 -0.4602  0.4885
 8793SOL    HW238013   1.158   1.245   2.163  0.7412  1.2774 -0.3620
 8794SOL     OW38014   3.658   1.707   4.053  0.2922  0.0534  0.3487
 8794SOL    HW138015   3.704   1.791   4.067  0.4912  0.0725 -0.4299
 8794SOL    HW238016   3.569   1.731   4.029 -0.0965 -1.9029 -0.1725
 8795SOL     OW38017   1.424   4.355   5.391  0.2204 -0.6349  0.3930
 8795SOL    HW138018   1.421   4.280   5.332  0.1052  0.9784 -1.6383
 8795SOL    HW238019   1.510   4.395   5.378 -0.4952  0.4580 -1.0032
 8796SOL     OW38020   1.309   1.226   5.597 -0.3308 -0.1527  0.4733
 8796SOL    HW138021   1.379   1.273   5.642  0.3582 -1.6306  0.9571
 8796SOL    HW238022   1.251   1.192   5.665 -1.8289  1.2281 -0.1023
 8797SOL     OW38023   3.901   4.619   7.245 -0.1370 -0.2960 -0.0713
 8797SOL    HW138024   3.821   4.650   7.289  0.4842  2.1628 -0.6592
 8797SOL    HW238025   3.967   4.655   7.304 -1.3090  3.3214 -0.9377
 8798SOL     OW38026   1.705   0.383   2.428 -0.2236 -0.4418  0.0276
 8798SOL    HW138027   1.731   0.421   2.345  1.4495 -3.0365 -0.6280
 8798SOL    HW238028   1.656   0.451   2.475 -1.9487 -0.7764 -1.2975
 8799SOL     OW38029   0.885   3.140   7.751 -0.4930 -0.0814 -0.4650
 8799SOL    HW138030   0.895   3.097   7.666 -0.4499 -0.4416 -0.2789
 8799SOL    HW238031   0.951   3.087   7.795 -1.9818 -1.3117  0.2939
 8800SOL     OW38032   1.585   1.878  16.216 -0.4141 -0.3278  0.2401
 8800SOL    HW138033   1.617   1.789  16.199 -1.0686 -0.3097 -1.1431
 8800SOL    HW238034   1.557   1.900  16.127  2.8035  3.6791  0.2286
 8801SOL     OW38035   1.187   0.255  12.139  0.0796  0.9739  0.1598
 8801SOL    HW138036   1.135   0.280  12.063  1.9275  2.7575 -0.5097
 8801SOL    HW238037   1.270   0.297  12.117  0.4869  0.3441  0.5136
 8802SOL     OW38038   3.325   2.922   3.516 -0.3967 -0.5471  0.0660
 8802SOL    HW138039   3.272   2.849   3.483 -0.9203 -0.2830  0.3097
 8802SOL    HW238040   3.298   2.941   3.606 -1.0316  0.2693 -0.2868
 8803SOL     OW38041   1.256   1.208   5.085 -0.1494  0.0494 -0.2759
 8803SOL    HW138042   1.293   1.177   5.168  1.6100 -0.0480 -1.1043
 8803SOL    HW238043   1.252   1.304   5.089 -0.2752  0.0393 -0.1411
 8804SOL     OW38044   0.247   2.204   3.952 -0.7556  0.3890 -0.3493
 8804SOL    HW138045   0.157   2.200   3.919 -1.1030 -1.9090  0.8345
 8804SOL    HW238046   0.246   2.293   3.988  0.7643 -0.5905  2.1274
 8805SOL     OW38047   4.538   2.067   9.490 -0.5586 -0.3497  0.8083
 8805SOL    HW138048   4.576   1.990   9.447  0.2828  1.5569 -1.8836
 8805SOL    HW238049   4.443   2.051   9.485 -0.7496  1.2570 -0.8292
 8806SOL     OW38050   1.551   3.143   7.638 -0.7233  0.4217 -0.1231
 8806SOL    HW138051   1.493   3.155   7.714 -1.8010  3.0123 -1.3577
 8806SOL    HW238052   1.629   3.169   7.687  0.1658 -0.2698 -1.2037
 8807SOL     OW38053   1.516   1.238  16.173 -0.1685 -0.2216 -0.3342
 8807SOL    HW138054   1.591   1.207  16.122 -0.4914 -0.1402 -0.8504
 8807SOL    HW238055   1.454   1.166  16.167  0.7049 -0.9627 -0.4746
 8808SOL     OW38056   1.197   3.138   2.846 -0.3931 -0.6384  0.3389
 8808SOL    HW138057   1.252   3.073   2.889  0.5338  0.1553  0.3547
 8808SOL    HW238058   1.232   3.143   2.757  0.0367 -1.8381  0.4323
 8809SOL     OW38059   1.937   0.989   7.443 -0.0084  0.2615  0.5676
 8809SOL    HW138060   2.012   1.049   7.445 -0.6293  1.0324  0.8775
 8809SOL    HW238061   1.865   1.052   7.437  1.3534  1.9738  2.2775
 8810SOL     OW38062   3.059   4.273   6.675 -0.2051  0.3835 -0.0075
 8810SOL    HW138063   3.000   4.228   6.736  3.2118 -1.3838  2.0418
 8810SOL    HW238064   2.989   4.323   6.635  2.1837  1.7557 -2.4187
 8811SOL     OW38065   1.879   2.808   3.999  0.2527  0.1611  0.2125
 8811SOL    HW138066   1.912   2.886   4.043  0.1111 -0.0939  0.7728
 8811SOL    HW238067   1.807   2.840   3.945 -1.0755 -1.3852  1.0621
 8812SOL     OW38068   4.668   0.178   2.581 -0.1985 -0.1512 -0.1018
 8812SOL    HW138069   4.593   0.201   2.636  0.7028 -0.3255  1.2141
 8812SOL    HW238070   4.735   0.147   2.644  1.2128  1.6418 -0.7281
 8813SOL     OW38071   3.847   0.917  14.766  0.2350  0.4110 -0.5261
 8813SOL    HW138072   3.901   0.866  14.706 -0.1888  0.6054 -1.0687
 8813SOL    HW238073   3.870   1.008  14.749 -2.2232  1.4718  1.8460
 8814SOL     OW38074   2.820   3.196   7.363  0.3640  0.3331 -0.0988
 8814SOL    HW138075   2.729   3.213   7.339  1.5142  3.9717 -1.9848
 8814SOL    HW238076   2.839   3.249   7.441 -0.3996 -1.1226  1.0784
 8815SOL     OW38077   2.706   1.813  10.032  0.0669  0.0180  0.6999
 8815SOL    HW138078   2.739   1.781   9.948  0.6215 -2.2390  1.7876
 8815SOL    HW238079   2.780   1.857  10.073 -0.2842  1.1071  0.1772
 8816SOL     OW38080   1.411   2.261   2.494 -0.3293 -0.3294 -0.7733
 8816SOL    HW138081   1.452   2.176   2.482  0.8941 -0.2334  2.8647
 8816SOL    HW238082   1.332   2.259   2.439 -2.3582  0.9265  2.0784
 8817SOL     OW38083   4.665   2.111   6.739 -0.3284  0.0722  0.0659
 8817SOL    HW138084   4.628   2.134   6.654 -0.1093  0.6124  0.1189
 8817SOL    HW238085   4.614   2.158   6.805 -0.8793 -1.1800  0.5443
 8818SOL     OW38086   2.211   3.695   4.039 -0.2130 -0.3891 -0.7078
 8818SOL    HW138087   2.179   3.738   4.119  0.8854 -0.5093 -0.1992
 8818SOL    HW238088   2.124   3.679   4.003 -0.3178 -0.4964 -0.4122
 8819SOL     OW38089   2.835   0.563   5.374 -0.1038 -0.3209  0.1115
 8819SOL    HW138090   2.744   0.572   5.347  0.0215 -0.2996 -0.3001
 8819SOL    HW238091   2.822   0.508   5.451  0.9806  0.3088  0.7632
 8820SOL     OW38092   4.529   1.049   5.637  0.1845 -0.2592  0.2520
 8820SOL    HW138093   4.535   0.957   5.614 -1.4934 -0.5919  1.2140
 8820SOL    HW238094   4.619   1.075   5.615  0.3500 -1.4088 -0.4324
 8821SOL     OW38095   0.292   3.338   5.969  0.3629 -0.0853 -0.6023
 8821SOL    HW138096   0.373   3.368   5.928  0.0229  0.7557 -0.6454
 8821SOL    HW238097   0.322   3.315   6.058 -1.1522  2.0692  0.4597
 8822SOL     OW38098   3.286   2.024  14.580 -0.4092  0.0350 -0.0093
 8822SOL    HW138099   3.288   2.048  14.488  2.2094  1.2305  0.3267
 8822SOL    HW238100   3.194   1.999  14.584 -0.3299 -0.1379  0.7174
 8823SOL     OW38101   4.219   3.480  17.139  0.6865  0.5220  0.3681
 8823SOL    HW138102   4.191   3.540  17.070 -0.2055 -0.7984 -0.4048
 8823SOL    HW238103   4.184   3.401  17.098  2.7492  0.0661 -0.5361
 8824SOL     OW38104   2.438   0.111  12.441 -0.6287  0.2170 -0.2407
 8824SOL    HW138105   2.418   0.168  12.515  0.1410 -1.6461  1.3766
 8824SOL    HW238106   2.506   0.164  12.398  1.1084 -1.5731  0.2645
 8825SOL     OW38107   1.637   1.066   8.401  0.4203  0.2989  0.0812
 8825SOL    HW138108   1.710   1.099   8.453  0.7638 -0.2216 -0.0630
 8825SOL    HW238109   1.589   1.019   8.469 -0.2632 -0.3265 -0.8285
 8826SOL     OW38110   1.561   3.204   8.357 -0.4498  0.4783  0.4139
 8826SOL    HW138111   1.592   3.120   8.324  3.1974  1.9601 -0.0036
 8826SOL    HW238112   1.469   3.199   8.335 -0.4083 -0.4978  0.4601
 8827SOL     OW38113   0.953   4.340   5.920  0.2071 -0.4006  0.5541
 8827SOL    HW138114   1.001   4.407   5.968 -0.1360  0.5398 -0.4207
 8827SOL    HW238115   0.897   4.381   5.855  0.4445 -0.9360  0.0124
 8828SOL     OW38116   3.476   1.034   9.271  0.0437  0.2428  0.4038
 8828SOL    HW138117   3.425   0.976   9.327  2.0119 -1.7137  0.1950
 8828SOL    HW238118   3.515   0.973   9.207  0.0909 -0.4047  1.0433
 8829SOL     OW38119   2.228   0.160  14.385 -0.3806  0.2221  0.1142
 8829SOL    HW138120   2.232   0.138  14.292  2.3104  1.6044 -0.1034
 8829SOL    HW238121   2.244   0.072  14.420  1.2511 -0.6612 -2.8261
 8830SOL     OW38122   2.313   4.376   0.386 -0.4574 -0.1830  0.1136
 8830SOL    HW138123   2.230   4.358   0.342  1.5276 -0.3505 -3.5359
 8830SOL    HW238124   2.369   4.358   0.310  0.1839  2.7008 -0.0918
 8831SOL     OW38125   1.136   3.769  10.483 -0.3198 -0.0207 -0.1307
 8831SOL    HW138126   1.076   3.822  10.536  0.7437 -1.3980  2.4721
 8831SOL    HW238127   1.130   3.691  10.537  0.3039 -0.2227 -0.3591
 8832SOL     OW38128   1.064   3.552   2.538  0.1452  0.5312  0.2594
 8832SOL    HW138129   1.134   3.553   2.474  1.6476  0.1310  1.8870
 8832SOL    HW238130   1.015   3.634   2.533 -1.7748 -0.5934  0.4430
 8833SOL     OW38131   0.676   0.852  10.099  0.6728 -0.4612  0.7041
 8833SOL    HW138132   0.692   0.896  10.016 -1.0318 -1.3608 -0.0981
 8833SOL    HW238133   0.727   0.909  10.156  1.0041 -1.8801  1.8351
 8834SOL     OW38134   2.910   1.575   5.904 -0.4317  0.2877  0.1533
 8834SOL    HW138135   2.874   1.537   5.984  1.0725  0.5847  0.9627
 8834SOL    HW238136   2.921   1.498   5.849 -1.5384  0.6102 -0.5216
 8835SOL     OW38137   1.195   3.637   4.882 -0.4185 -0.0309 -0.1010
 8835SOL    HW138138   1.232   3.697   4.947 -1.8507  0.3994  0.3208
 8835SOL    HW238139   1.106   3.630   4.915 -0.9481 -0.0283 -1.5143
 8836SOL     OW38140   1.994   4.568   6.060  0.0686 -0.5124  0.6894
 8836SOL    HW138141   2.022   4.637   5.999 -1.8904  1.1303  1.6073
 8836SOL    HW238142   1.910   4.607   6.088  0.7241  0.1603  1.7270
 8837SOL     OW38143   4.078   4.572   9.226  0.6478  0.0744  0.1307
 8837SOL    HW138144   4.044   4.510   9.290  1.3441 -2.3027 -1.8376
 8837SOL    HW238145   3.997   4.582   9.176  1.0953 -1.2333 -0.8341
 8838SOL     OW38146   4.303   3.848   5.509  0.3112 -0.0873  0.4528
 8838SOL    HW138147   4.383   3.803   5.538 -0.2823 -2.7146 -1.9952
 8838SOL    HW238148   4.271   3.771   5.463  0.0923  0.3950 -0.1917
 8839SOL     OW38149   1.193   4.437   2.800  0.1704 -0.4080 -0.0876
 8839SOL    HW138150   1.124   4.390   2.848 -1.4784  3.5060  1.3666
 8839SOL    HW238151   1.150   4.516   2.767  0.2452  0.1802  1.2040
 8840SOL     OW38152   1.418   0.518   7.429 -0.3923 -0.0146 -0.0313
 8840SOL    HW138153   1.464   0.528   7.513  0.5380  0.8591 -0.6566
 8840SOL    HW238154   1.383   0.606   7.416  1.3619  0.9453  1.6470
 8841SOL     OW38155   4.276   3.434   6.247 -0.3176 -0.0301  0.2002
 8841SOL    HW138156   4.180   3.431   6.245 -0.2458 -2.5437  0.1999
 8841SOL    HW238157   4.297   3.523   6.222 -1.9125  0.1291 -0.5549
 8842SOL     OW38158   4.377   2.798   5.821 -0.5527  0.0431 -0.8848
 8842SOL    HW138159   4.309   2.864   5.832 -0.7640 -0.3759  0.4009
 8842SOL    HW238160   4.460   2.838   5.848 -0.6008 -0.3679 -0.1179
 8843SOL     OW38161   3.456   1.502   5.958  0.1831 -0.3774  0.1933
 8843SOL    HW138162   3.419   1.415   5.969  1.1840 -1.2441 -3.0401
 8843SOL    HW238163   3.399   1.547   6.020  0.2728 -1.3833  0.9959
 8844SOL     OW38164   3.718   3.384   3.792 -0.3538  0.0386  0.1749
 8844SOL    HW138165   3.811   3.388   3.770 -0.4925 -0.1706 -0.4489
 8844SOL    HW238166   3.669   3.387   3.710  0.4559 -1.0096 -0.3321
 8845SOL     OW38167   4.615   4.480  12.354  0.6391 -0.6937 -0.3461
 8845SOL    HW138168   4.672   4.520  12.419  0.3995 -2.1441  0.7674
 8845SOL    HW238169   4.640   4.532  12.278  0.5765 -0.8758 -0.4920
 8846SOL     OW38170   4.225   0.946  13.371  0.2609 -0.7381 -0.0480
 8846SOL    HW138171   4.152   0.993  13.412 -0.2474 -0.7169 -0.9822
 8846SOL    HW238172   4.172   0.923  13.295 -1.5286 -0.9294  1.2450
 8847SOL     OW38173   4.693   1.162   7.863 -0.3640 -0.4371 -0.4968
 8847SOL    HW138174   0.047   1.143   7.838 -0.5686 -2.1558  0.0288
 8847SOL    HW238175   4.657   1.074   7.850  3.2391 -1.7713 -1.6079
 8848SOL     OW38176   3.004   1.067   5.443 -0.0366  0.0097  0.0171
 8848SOL    HW138177   2.966   1.046   5.357  1.2143  1.7924 -0.9738
 8848SOL    HW238178   3.064   0.992   5.442  0.4766  0.4047  1.4563
 8849SOL     OW38179   2.792   4.036   2.627 -0.2231  0.2160  0.1389
 8849SOL    HW138180   2.698   4.022   2.642 -0.5707  0.3662 -1.8792
 8849SOL    HW238181   2.790   4.106   2.562 -1.7014  2.2323  2.3423
 8850SOL     OW38182   4.684   2.941   3.459 -0.8077 -0.2856 -0.4629
 8850SOL    HW138183   4.671   2.888   3.380 -0.2015 -4.0702  1.9706
 8850SOL    HW238184   4.626   3.017   3.463 -1.8879 -1.2662  2.6702
 8851SOL     OW38185   1.382   2.007   8.688 -0.1749  0.2270  0.2441
 8851SOL    HW138186   1.477   1.994   8.689  0.0370  1.9071  1.6461
 8851SOL    HW238187   1.371   2.042   8.777  1.5258 -0.8118  0.8657
 8852SOL     OW38188   1.286   2.764   3.716 -0.2474  0.6067  0.2873
 8852SOL    HW138189   1.243   2.680   3.700 -2.3115  0.9666  3.9295
 8852SOL    HW238190   1.350   2.771   3.645  1.0603 -1.2676  1.2917
 8853SOL     OW38191   1.564   2.301   2.148  0.1137 -0.2842 -0.1498
 8853SOL    HW138192   1.502   2.229   2.159 -0.7429  0.2002 -1.7519
 8853SOL    HW238193   1.559   2.353   2.228  0.0461 -1.9558  0.9298
 8854SOL     OW38194   0.658   4.039   6.892  0.1722  0.1409 -0.3101
 8854SOL    HW138195   0.568   4.064   6.912 -0.3342  0.3030 -2.8093
 8854SOL    HW238196   0.717   4.106   6.928 -0.5034  0.0885  0.9012
 8855SOL     OW38197   0.015   1.492   1.218 -0.1424 -0.1720  0.2449
 8855SOL    HW138198   4.722   1.553   1.286 -2.0539  0.8223 -1.4733
 8855SOL    HW238199   4.670   1.475   1.171  1.2586 -1.6702 -1.6244
 8856SOL     OW38200   2.671   3.408   8.005 -0.5084  0.1008  0.0226
 8856SOL    HW138201   2.708   3.489   7.970  1.7261 -0.8020  0.2877
 8856SOL    HW238202   2.599   3.388   7.944  1.2275 -2.3642 -1.2146
 8857SOL     OW38203   4.364   0.462   7.714  0.2172 -0.2508 -0.2995
 8857SOL    HW138204   4.358   0.422   7.627 -2.1109 -0.9530  0.1866
 8857SOL    HW238205   4.330   0.392   7.769 -1.6128 -1.1455 -2.5507
 8858SOL     OW38206   1.838   3.498   9.254  0.4120  0.1016 -0.1182
 8858SOL    HW138207   1.827   3.433   9.324  1.9266 -1.0091 -0.9249
 8858SOL    HW238208   1.867   3.573   9.306  3.8107 -0.7307 -0.8703
 8859SOL     OW38209   2.927   4.422   6.301 -0.2565 -0.1202 -0.1759
 8859SOL    HW138210   2.845   4.453   6.263 -0.6306 -0.0841  0.6540
 8859SOL    HW238211   2.969   4.365   6.237 -1.3889 -2.2834  1.0207
 8860SOL     OW38212   0.690   1.376   5.837 -0.2241  0.1524  0.4999
 8860SOL    HW138213   0.671   1.468   5.819 -0.0864  0.0356 -0.2345
 8860SOL    HW238214   0.607   1.330   5.827 -1.1179  1.8889 -0.2452
 8861SOL     OW38215   4.034   3.284   0.083  0.0325 -0.8618  0.4657
 8861SOL    HW138216   4.081   3.204   0.104 -0.9950 -1.3609  0.8652
 8861SOL    HW238217   4.091   3.342   0.032 -2.1519 -0.6131 -1.7620
 8862SOL     OW38218   1.106   1.511  16.269  0.2477 -0.3564 -0.4772
 8862SOL    HW138219   1.198   1.495  16.249  0.8320 -0.5237  2.3601
 8862SOL    HW238220   1.082   1.550  16.185 -3.0200  0.3685  0.7642
 8863SOL     OW38221   1.353   3.950   8.399  0.2437  0.2430  0.6764
 8863SOL    HW138222   1.330   3.886   8.467  0.3048  1.5513  1.9240
 8863SOL    HW238223   1.293   3.928   8.328 -0.1546 -0.2127  1.1453
 8864SOL     OW38224   0.573   3.833   3.127  0.0029  0.2463  0.0020
 8864SOL    HW138225   0.664   3.804   3.127  0.2748  1.0563  1.4114
 8864SOL    HW238226   0.537   3.748   3.103 -0.5437  0.3721  0.3620
 8865SOL     OW38227   2.612   4.286   6.475  0.5682 -0.0118 -0.3959
 8865SOL    HW138228   2.535   4.323   6.431  0.7183  1.2753  0.4203
 8865SOL    HW238229   2.634   4.225   6.405 -0.6735 -0.1971 -0.6263
 8866SOL     OW38230   3.815   0.694   4.316 -0.2599  0.0849 -0.2975
 8866SOL    HW138231   3.741   0.728   4.266  1.1626 -2.0413 -3.8886
 8866SOL    HW238232   3.848   0.781   4.340 -0.8515 -0.2228  1.5552
 8867SOL     OW38233   2.200   0.825   8.715  0.0282  0.0325  0.3066
 8867SOL    HW138234   2.110   0.852   8.697 -0.3635 -1.0674  0.6122
 8867SOL    HW238235   2.208   0.873   8.797 -0.3398  1.7302 -0.6400
 8868SOL     OW38236   2.933   4.196   6.141  0.6734  0.6272 -0.0465
 8868SOL    HW138237   2.912   4.242   6.059  0.0445 -1.6244 -1.1687
 8868SOL    HW238238   3.021   4.164   6.123  0.0127 -0.7656 -0.8711
 8869SOL     OW38239   4.711   1.968   1.310 -0.1465 -0.4423  0.2297
 8869SOL    HW138240   0.001   1.937   1.224  2.2238  0.8633  0.4786
 8869SOL    HW238241   0.030   1.916   1.368 -1.9320 -2.2691  0.2828
 8870SOL     OW38242   3.364   3.534   5.208  0.3736 -0.7933  0.0600
 8870SOL    HW138243   3.362   3.629   5.199  2.4629 -0.5148  2.5476
 8870SOL    HW238244   3.283   3.521   5.257  1.1466  0.4983  1.6591
 8871SOL     OW38245   0.178   1.803   2.281  0.2259  0.5989  0.5489
 8871SOL    HW138246   0.159   1.822   2.373  0.2805 -1.8218  1.0766
 8871SOL    HW238247   0.204   1.889   2.250 -1.2985  1.0359  0.4812
 8872SOL     OW38248   0.311   0.318   2.133 -0.4961 -0.0442 -0.0152
 8872SOL    HW138249   0.330   0.226   2.150  0.7517  0.0773 -0.7486
 8872SOL    HW238250   0.333   0.323   2.040 -0.1450  3.3964  0.2302
 8873SOL     OW38251   2.214   3.275   4.766  0.2292 -0.1724  0.0995
 8873SOL    HW138252   2.250   3.233   4.688  0.4661 -0.0038  0.1184
 8873SOL    HW238253   2.127   3.304   4.740 -0.6653 -1.0955  2.0298
 8874SOL     OW38254   2.252   4.312   0.812  0.2323  0.0739 -0.1540
 8874SOL    HW138255   2.201   4.278   0.885 -0.1130  0.5763 -0.1631
 8874SOL    HW238256   2.195   4.383   0.784  2.3912  1.6644 -0.5729
 8875SOL     OW38257   0.056   1.082  11.293 -0.3048 -0.0834 -0.1193
 8875SOL    HW138258   0.008   1.159  11.322  1.1890  1.1609 -0.9576
 8875SOL    HW238259   0.054   1.024  11.369 -2.8982 -0.2181 -0.3038
 8876SOL     OW38260   2.526   1.797   8.121 -0.2334  0.0485  0.1240
 8876SOL    HW138261   2.481   1.881   8.119  0.2568  0.3579  1.5995
 8876SOL    HW238262   2.617   1.827   8.127  0.4378 -1.2400 -4.1058
 8877SOL     OW38263   2.236   1.201   6.930  0.5250  0.2924  0.1663
 8877SOL    HW138264   2.204   1.195   7.020  0.4279 -1.2906  0.0286
 8877SOL    HW238265   2.155   1.231   6.889 -0.0831 -1.7349 -0.1208
 8878SOL     OW38266   2.991   4.591  12.430  0.0571  0.5295 -0.3942
 8878SOL    HW138267   3.015   4.522  12.492 -1.2371  1.0496  0.6567
 8878SOL    HW238268   2.922   4.543  12.385  0.6604  0.5971 -1.4088
 8879SOL     OW38269   4.073   0.878  13.142 -0.1686  0.2644  0.0450
 8879SOL    HW138270   4.013   0.889  13.068 -3.0362  2.0148  2.6304
 8879SOL    HW238271   4.142   0.825  13.102 -0.2352  1.1810 -1.2919
 8880SOL     OW38272   1.213   0.213   2.319  0.3141 -0.4268  0.0336
 8880SOL    HW138273   1.294   0.162   2.319  0.1866 -0.6287  0.4855
 8880SOL    HW238274   1.227   0.261   2.238 -0.1727  0.4426  0.4629
 8881SOL     OW38275   3.483   1.235   1.513  0.5773 -0.1128  0.5838
 8881SOL    HW138276   3.522   1.164   1.565  1.4336 -1.2071 -1.5243
 8881SOL    HW238277   3.394   1.234   1.549  0.2333 -1.4731 -0.2900
 8882SOL     OW38278   2.445   0.396   2.405  0.1049 -0.4947  0.1031
 8882SOL    HW138279   2.439   0.311   2.362 -0.6020 -0.6952  0.5798
 8882SOL    HW238280   2.402   0.459   2.348 -0.3347 -0.6250  0.2822
 8883SOL     OW38281   2.894   0.221  17.128  0.3548 -0.5904 -0.0515
 8883SOL    HW138282   2.906   0.305  17.174 -0.9854 -0.4563  0.0522
 8883SOL    HW238283   2.804   0.200  17.153 -0.0058  1.7088  0.6771
 8884SOL     OW38284   1.800   0.951   8.952  0.3779  0.2709 -0.4950
 8884SOL    HW138285   1.817   1.001   9.032 -1.5338  0.5440 -0.2570
 8884SOL    HW238286   1.706   0.965   8.940  0.1643 -0.5457  0.2102
 8885SOL     OW38287   2.043   1.174   8.307 -0.1176 -0.4689  0.1521
 8885SOL    HW138288   1.979   1.244   8.320  1.8189  0.6448  3.8102
 8885SOL    HW238289   2.042   1.127   8.391  1.8766  0.4444  0.6859
 8886SOL     OW38290   4.653   0.168  17.690  0.0890  0.3659  0.0258
 8886SOL    HW138291   4.710   0.094  17.711  2.6146  2.4070  0.3603
 8886SOL    HW238292   4.608   0.133  17.613  2.2770 -0.0056 -1.1014
 8887SOL     OW38293   1.743   3.349   8.202  0.2857  0.4051  0.2897
 8887SOL    HW138294   1.683   3.340   8.276 -1.8788  1.6992 -1.3080
 8887SOL    HW238295   1.819   3.399   8.232  0.0060  0.3315  1.1202
 8888SOL     OW38296   1.885   1.980   8.939  0.7180 -0.6751 -0.1168
 8888SOL    HW138297   1.818   1.918   8.968  1.4446 -0.6996  1.4751
 8888SOL    HW238298   1.926   2.005   9.022 -0.5966  2.1932 -0.3081
 8889SOL     OW38299   0.753   0.180   4.139  0.8976 -0.4203  0.0381
 8889SOL    HW138300   0.835   0.150   4.099  0.8506 -0.5298  0.0214
 8889SOL    HW238301   0.696   0.102   4.135 -0.6157  0.7108 -0.5569
 8890SOL     OW38302   3.194   3.919   1.309 -0.0577 -0.0824  0.2983
 8890SOL    HW138303   3.157   3.854   1.250 -1.1373  1.3206 -0.5733
 8890SOL    HW238304   3.117   3.940   1.362 -0.4269 -1.9103  0.4982
 8891SOL     OW38305   1.578   2.595  14.685  0.4286 -0.3347  0.3885
 8891SOL    HW138306   1.602   2.509  14.719  0.8264 -0.2372  0.3596
 8891SOL    HW238307   1.586   2.581  14.591 -0.2462 -0.6740  0.3812
 8892SOL     OW38308   0.334   0.030   1.339  0.1526  0.2584 -0.3116
 8892SOL    HW138309   0.259   0.033   1.279 -0.0823 -1.5482 -0.1318
 8892SOL    HW238310   0.334   0.112   1.388  1.9717 -0.0827  0.2464
 8893SOL     OW38311   3.508   1.749   6.411  0.5696 -0.4455 -0.5842
 8893SOL    HW138312   3.419   1.784   6.416  1.2642  1.3913 -1.2265
 8893SOL    HW238313   3.503   1.657   6.436 -2.0988 -0.5108 -1.3722
 8894SOL     OW38314   2.727   1.116   2.366 -0.2830  0.2215  0.0711
 8894SOL    HW138315   2.709   1.094   2.275  1.8397 -0.3385 -0.2130
 8894SOL    HW238316   2.773   1.040   2.401  2.1190  0.5059 -2.4386
 8895SOL     OW38317   0.209   3.550   4.160 -0.1664 -0.4863 -0.5364
 8895SOL    HW138318   0.286   3.536   4.106 -0.0344  0.7704 -0.6673
 8895SOL    HW238319   0.240   3.528   4.248 -0.3255 -0.8234 -0.5608
 8896SOL     OW38320   0.826   1.902   8.969 -0.5953  0.2677  0.1477
 8896SOL    HW138321   0.897   1.948   8.924 -0.8564  1.8461  1.3570
 8896SOL    HW238322   0.851   1.811   8.956  1.3068  1.1172 -2.2744
 8897SOL     OW38323   2.467   4.298   8.893 -0.3945  0.3719  0.4842
 8897SOL    HW138324   2.547   4.346   8.915 -0.6201  0.6607  0.6760
 8897SOL    HW238325   2.495   4.206   8.898  0.5315  0.6332  0.0631
 8898SOL     OW38326   0.447   0.838   5.584  0.0560 -0.2551  0.1490
 8898SOL    HW138327   0.469   0.822   5.493  1.6129  0.0329  0.4888
 8898SOL    HW238328   0.534   0.840   5.623  0.9206  0.3252 -1.8658
 8899SOL     OW38329   3.933   2.604   7.729  0.0133  0.4170 -0.0040
 8899SOL    HW138330   3.845   2.568   7.741 -0.6800  2.3393  0.6180
 8899SOL    HW238331   3.987   2.532   7.762 -0.8974 -1.0246 -1.6523
 8900SOL     OW38332   1.626   1.283   7.053 -0.1655  0.3345 -0.6973
 8900SOL    HW138333   1.546   1.260   7.102 -0.6592 -0.7422 -2.0020
 8900SOL    HW238334   1.690   1.298   7.122 -0.5979 -1.4929  0.0983
 8901SOL     OW38335   1.135   4.664   6.775  0.7212 -0.1566 -0.3546
 8901SOL    HW138336   1.183   4.582   6.789  1.2081  0.0505 -0.7818
 8901SOL    HW238337   1.107   4.690   6.862 -1.0324 -0.5036 -0.8175
 8902SOL     OW38338   0.240   4.269   1.757 -0.5649  0.1268  0.1241
 8902SOL    HW138339   0.294   4.268   1.679  0.0099  0.1278  0.5245
 8902SOL    HW238340   0.306   4.265   1.826 -1.9173  0.3138  1.4256
 8903SOL     OW38341   3.519   1.767   8.286  0.0778  0.0073  0.4550
 8903SOL    HW138342   3.585   1.800   8.226 -0.2650 -2.8195 -1.4590
 8903SOL    HW238343   3.538   1.820   8.364 -2.6343  2.8781 -0.8274
 8904SOL     OW38344   4.537   1.897  15.354  0.0875 -0.0934  0.2135
 8904SOL    HW138345   4.465   1.909  15.292 -0.9603 -0.7791  1.3092
 8904SOL    HW238346   4.607   1.877  15.292  0.0923 -1.3843  0.6383
 8905SOL     OW38347   2.466   0.137  16.762  0.6944  0.1600 -0.9106
 8905SOL    HW138348   2.538   0.131  16.699  0.8055 -1.9231 -0.6104
 8905SOL    HW238349   2.513   0.201  16.816 -0.4664  0.3086 -0.0753
 8906SOL     OW38350   0.218   3.565   6.959 -0.3389 -0.4800  0.1454
 8906SOL    HW138351   0.292   3.567   7.019 -0.7043 -0.9370  0.6192
 8906SOL    HW238352   0.180   3.647   6.990  0.6408  0.0003  0.0724
 8907SOL     OW38353   1.090   4.566   8.819  0.6587 -0.3834 -0.7727
 8907SOL    HW138354   1.175   4.584   8.779  2.2975 -0.2174  2.8201
 8907SOL    HW238355   1.076   4.474   8.797 -3.1691  0.7132 -2.9980
 8908SOL     OW38356   0.359   1.416  17.721  0.3611 -0.2290  0.6054
 8908SOL    HW138357   0.412   1.350  17.675  0.6203 -0.4030  1.1554
 8908SOL    HW238358   0.279   1.366  17.734  0.4466 -0.3362  0.7179
 8909SOL     OW38359   3.722   4.348  12.232  0.2501 -0.1936  0.1962
 8909SOL    HW138360   3.693   4.396  12.154  0.4178 -0.1904  0.1367
 8909SOL    HW238361   3.657   4.386  12.292  1.5130  1.6733  0.3873
 8910SOL     OW38362   2.622   3.879   1.848  0.4302  0.9153  0.4572
 8910SOL    HW138363   2.616   3.918   1.936  0.0429  3.1421 -0.5559
 8910SOL    HW238364   2.543   3.825   1.839  0.9430  0.0202  1.2925
 8911SOL     OW38365   0.912   3.895  11.666 -0.1869 -0.1420  0.1386
 8911SOL    HW138366   0.820   3.887  11.694 -0.4790  2.8713 -0.0204
 8911SOL    HW238367   0.920   3.984  11.633  0.6578  0.1904  1.2316
 8912SOL     OW38368   3.795   0.333   0.293  0.0626  0.6873 -0.3876
 8912SOL    HW138369   3.769   0.391   0.222  1.5961  0.8735 -0.7944
 8912SOL    HW238370   3.867   0.386   0.327  0.4469  0.0321 -0.1645
 8913SOL     OW38371   2.762   3.325  14.163 -0.3198  0.3845 -0.1061
 8913SOL    HW138372   2.679   3.323  14.115  0.0569 -1.1643 -0.7221
 8913SOL    HW238373   2.826   3.344  14.094 -0.9535 -0.5934 -0.9808
 8914SOL     OW38374   3.339   4.139   7.164  0.1008  0.0848 -0.3561
 8914SOL    HW138375   3.278   4.156   7.092 -1.0330 -0.1966  0.5403
 8914SOL    HW238376   3.421   4.177   7.134  0.9182  0.8677  2.8686
 8915SOL     OW38377   2.954   0.086   5.760  0.5353 -0.4357 -0.5148
 8915SOL    HW138378   2.970   0.177   5.735 -0.1892 -0.3595 -0.7058
 8915SOL    HW238379   2.877   0.105   5.813 -1.5017 -0.5174 -3.4687
 8916SOL     OW38380   3.663   0.374  16.009 -0.2178  0.4277  0.0882
 8916SOL    HW138381   3.733   0.437  16.027  0.5559 -0.1713 -0.7981
 8916SOL    HW238382   3.718   0.306  15.970 -1.4772  0.2196 -1.3037
 8917SOL     OW38383   3.482   2.871   4.776  0.6110 -0.0227 -0.4644
 8917SOL    HW138384   3.488   2.854   4.870 -0.5013  2.0976 -0.0063
 8917SOL    HW238385   3.405   2.820   4.750 -0.7657  0.8592  1.8563
 8918SOL     OW38386   1.313   3.233   3.729 -0.1383  0.1390 -0.1493
 8918SOL    HW138387   1.357   3.238   3.644 -2.4333 -1.8139 -1.4349
 8918SOL    HW238388   1.243   3.168   3.721  1.2278 -1.5883  1.9270
 8919SOL     OW38389   4.621   3.699  11.514 -0.5073  0.0490  0.1205
 8919SOL    HW138390   4.561   3.745  11.572 -0.8616 -0.8844  0.4984
 8919SOL    HW238391   4.582   3.715  11.428  1.4364 -1.8678 -1.1464
 8920SOL     OW38392   4.734   0.165   0.353  0.3956 -0.4603  0.2757
 8920SOL    HW138393   4.710   0.112   0.429 -1.7192 -0.2333 -0.2254
 8920SOL    HW238394   4.711   0.104   0.283 -1.0657  0.9491 -0.4839
 8921SOL     OW38395   1.914   0.389   9.776  0.4063 -0.1326  0.6404
 8921SOL    HW138396   2.000   0.368   9.741  0.5306  0.2077  0.7402
 8921SOL    HW238397   1.878   0.407   9.689 -0.7182  0.4894  1.2339
 8922SOL     OW38398   0.081   0.713   7.357  0.1185 -0.0760 -0.2187
 8922SOL    HW138399   0.024   0.674   7.291 -1.0416 -0.4800  1.0264
 8922SOL    HW238400   0.036   0.789   7.393 -0.4532 -0.0777 -0.9342
 8923SOL     OW38401   0.988   3.164  12.208  0.0835  0.0738  0.1468
 8923SOL    HW138402   0.903   3.168  12.163  0.5974 -0.0845 -0.8380
 8923SOL    HW238403   1.035   3.204  12.134 -3.0339  0.6085 -1.5900
 8924SOL     OW38404   2.763   2.646   2.254 -0.6455  0.2975  0.1786
 8924SOL    HW138405   2.838   2.597   2.220 -0.6742  0.3424  0.0492
 8924SOL    HW238406   2.814   2.713   2.299 -0.1124  0.0544 -0.0515
 8925SOL     OW38407   3.519   4.224  16.752  0.4830 -0.8107  0.2174
 8925SOL    HW138408   3.573   4.160  16.798  0.5936 -0.7053  0.2311
 8925SOL    HW238409   3.586   4.255  16.691  1.9070 -0.0233  2.1949
 8926SOL     OW38410   3.557   1.347   7.406 -0.0756  0.6163  0.0544
 8926SOL    HW138411   3.600   1.320   7.487 -2.9689 -2.1237  0.6709
 8926SOL    HW238412   3.596   1.286   7.343  2.0616 -0.4401  2.3946
 8927SOL     OW38413   2.289   2.952   5.629  0.2569 -0.1055  0.6974
 8927SOL    HW138414   2.242   2.875   5.594  1.3456 -0.3026 -0.3554
 8927SOL    HW238415   2.328   2.993   5.552 -1.0552 -0.2765 -0.0629
 8928SOL     OW38416   3.530   1.284   9.287  0.5675  1.0596 -0.2743
 8928SOL    HW138417   3.533   1.273   9.382  1.4814  1.1836 -0.2818
 8928SOL    HW238418   3.498   1.195   9.270  1.1031  0.7166  0.5201
 8929SOL     OW38419   3.892   4.185   4.049 -0.2123 -0.1229 -0.2057
 8929SOL    HW138420   3.812   4.182   4.102 -0.1991  0.2947 -0.1591
 8929SOL    HW238421   3.939   4.109   4.083 -1.7875 -0.5781  0.9123
 8930SOL     OW38422   0.187   0.045   8.085  0.0240  0.1280 -0.4059
 8930SOL    HW138423   0.107   0.091   8.061  0.5194 -0.2628 -2.7246
 8930SOL    HW238424   0.217   0.108   8.151  2.8931 -0.5302 -1.0676
 8931SOL     OW38425   1.854   3.422  14.216 -0.1202  0.1440 -0.0893
 8931SOL    HW138426   1.786   3.488  14.231  0.4575  0.6867  0.1206
 8931SOL    HW238427   1.826   3.394  14.129 -0.4526  1.2105 -0.3278
 8932SOL     OW38428   0.427   2.339   2.760  0.5629 -0.3682  0.6680
 8932SOL    HW138429   0.398   2.275   2.824 -1.2086  0.7466  0.9876
 8932SOL    HW238430   0.388   2.307   2.678 -2.4772 -1.0335  2.3871
 8933SOL     OW38431   4.642   2.861   8.595 -0.3012  0.0719  0.0405
 8933SOL    HW138432   4.554   2.860   8.556 -0.1337  1.3425 -0.3676
 8933SOL    HW238433   4.695   2.892   8.522 -0.4376  0.2397  0.0125
 8934SOL     OW38434   0.681   2.224  12.617 -0.3021  0.0508  0.2890
 8934SOL    HW138435   0.690   2.213  12.522 -0.2677 -1.3906  0.4723
 8934SOL    HW238436   0.750   2.289  12.630  0.4430 -0.8763  0.9344
 8935SOL     OW38437   3.282   2.521   3.873  0.2801 -0.2925  0.1504
 8935SOL    HW138438   3.258   2.440   3.919 -1.2527  0.2552  0.3223
 8935SOL    HW238439   3.200   2.547   3.830 -0.2401 -1.6980  0.2624
 8936SOL     OW38440   0.281   3.575   5.663 -0.7064  0.0209 -0.0601
 8936SOL    HW138441   0.355   3.635   5.674 -0.6134 -0.1989  0.5127
 8936SOL    HW238442   0.245   3.578   5.752  1.6716 -1.1596  0.9358
 8937SOL     OW38443   1.018   0.904  11.820  0.2936  0.2594 -0.1936
 8937SOL    HW138444   1.109   0.925  11.799  0.7052 -1.8196 -0.5754
 8937SOL    HW238445   0.990   0.979  11.872 -1.6592 -0.4878 -0.1853
 8938SOL     OW38446   2.180   3.675   4.661 -0.1300  0.0090 -0.0643
 8938SOL    HW138447   2.265   3.711   4.687 -1.0472  2.4665 -0.4460
 8938SOL    HW238448   2.114   3.744   4.673  0.6847  0.9268 -0.9643
 8939SOL     OW38449   4.561   1.258  15.603  0.3862 -0.1841 -0.2147
 8939SOL    HW138450   4.492   1.325  15.610  0.6906  0.2724 -1.7246
 8939SOL    HW238451   4.562   1.213  15.688 -0.4046  1.4025  0.6471
 8940SOL     OW38452   0.673   0.195   9.742  0.2747  0.5025 -0.1138
 8940SOL    HW138453   0.680   0.258   9.813  0.0662 -0.5727  0.8710
 8940SOL    HW238454   0.580   0.177   9.758  1.1785 -2.7950  1.5402
 8941SOL     OW38455   4.143   3.238   5.676  0.4678  0.5322  0.4619
 8941SOL    HW138456   4.208   3.176   5.710 -0.3286  0.9781  2.7653
 8941SOL    HW238457   4.109   3.186   5.603  0.3673  0.2823  0.6856
 8942SOL     OW38458   1.623   0.235   4.758 -0.2083  0.4188 -0.1722
 8942SOL    HW138459   1.583   0.164   4.808 -1.3538  1.4327  0.3542
 8942SOL    HW238460   1.698   0.266   4.809  0.0698 -0.2504 -0.1792
 8943SOL     OW38461   3.140   2.837   8.119 -0.2890  0.0105 -0.1390
 8943SOL    HW138462   3.049   2.806   8.120  0.0228 -0.8407  1.5638
 8943SOL    HW238463   3.133   2.909   8.056  1.0752 -0.2717 -0.6006
 8944SOL     OW38464   2.317   4.279  16.158  0.3120  0.2233  0.1929
 8944SOL    HW138465   2.358   4.273  16.245  1.0772  0.9680 -0.1267
 8944SOL    HW238466   2.377   4.336  16.111 -0.6667  0.7058 -0.4632
 8945SOL     OW38467   1.748   4.606   9.788  0.1361 -0.4066 -0.1526
 8945SOL    HW138468   1.665   4.624   9.832  0.1676  0.7745 -0.5699
 8945SOL    HW238469   1.801   4.648   9.856  0.9913 -1.1680 -0.3603
 8946SOL     OW38470   3.743   4.276   2.240 -0.1158 -0.0360  0.1354
 8946SOL    HW138471   3.717   4.237   2.157 -1.9879 -1.3163  1.3348
 8946SOL    HW238472   3.775   4.365   2.224  0.9126 -0.4191  0.0167
 8947SOL     OW38473   0.679   0.891   4.128  0.6063 -0.3472  0.4406
 8947SOL    HW138474   0.760   0.942   4.124 -0.6593  1.5700 -0.6916
 8947SOL    HW238475   0.621   0.965   4.108  1.8771  0.3225 -0.7895
 8948SOL     OW38476   2.481   2.317   9.307 -0.0171 -0.0898  0.2408
 8948SOL    HW138477   2.562   2.298   9.259  0.8959 -2.0646  2.5590
 8948SOL    HW238478   2.487   2.268   9.388  0.3156 -1.9054 -0.8851
 8949SOL     OW38479   3.686   0.657  10.516 -0.1890  0.3154 -0.1294
 8949SOL    HW138480   3.620   0.684  10.579 -1.2380 -0.0977 -1.0527
 8949SOL    HW238481   3.755   0.721  10.534 -1.8828  1.6448  1.6068
 8950SOL     OW38482   2.730   4.179   4.841  0.3118  0.0568 -0.7189
 8950SOL    HW138483   2.693   4.195   4.754 -2.3591 -2.3504 -0.0457
 8950SOL    HW238484   2.645   4.177   4.885  1.0339 -0.0872  0.6644
 8951SOL     OW38485   1.738   3.631   4.200  0.5995  0.2972 -0.0552
 8951SOL    HW138486   1.780   3.637   4.286  1.3872  0.1234 -0.4246
 8951SOL    HW238487   1.748   3.723   4.175 -1.5412 -0.0301 -2.1116
 8952SOL     OW38488   3.181   4.321   5.696 -0.1116 -0.3658 -0.5088
 8952SOL    HW138489   3.207   4.332   5.604  3.3843  2.0900  0.7488
 8952SOL    HW238490   3.146   4.405   5.725  0.4506 -0.2776 -0.0690
 8953SOL     OW38491   4.321   3.735  17.641  0.3323  0.7250 -0.4255
 8953SOL    HW138492   4.376   3.664  17.607  0.5181  0.2957  0.7965
 8953SOL    HW238493   4.254   3.735  17.573  0.9678  2.5005 -1.0499
 8954SOL     OW38494   2.340   3.701   9.141 -0.2196 -0.1238  0.3016
 8954SOL    HW138495   2.279   3.648   9.192 -1.8764  0.2833 -1.2520
 8954SOL    HW238496   2.295   3.786   9.145 -1.2076 -0.4717 -2.9358
 8955SOL     OW38497   1.816   1.245   3.214  0.4279 -0.3002 -0.6833
 8955SOL    HW138498   1.734   1.278   3.250  2.2332  0.9577  2.2279
 8955SOL    HW238499   1.792   1.203   3.131 -1.6178  0.0600 -0.2690
 8956SOL     OW38500   0.731   4.015   8.541 -0.2423 -0.8004  0.5218
 8956SOL    HW138501   0.773   4.029   8.625 -1.8009  1.9231  0.8612
 8956SOL    HW238502   0.658   4.077   8.541  0.2815 -0.1904  2.0001
 8957SOL     OW38503   2.014   3.882   0.533 -0.7173  0.3955 -0.0060
 8957SOL    HW138504   2.105   3.859   0.548 -0.9823 -0.4504  0.3360
 8957SOL    HW238505   1.990   3.816   0.468  0.6060 -0.2806  0.1963
 8958SOL     OW38506   3.239   4.389   1.524  0.1156 -0.2260 -0.5328
 8958SOL    HW138507   3.179   4.401   1.450 -0.3762 -2.2246 -0.4597
 8958SOL    HW238508   3.227   4.299   1.552  0.9599  0.0345  0.6536
 8959SOL     OW38509   3.544   2.315   9.044 -0.3464  0.0998 -0.2920
 8959SOL    HW138510   3.478   2.356   9.100  0.2143 -0.1005  0.5201
 8959SOL    HW238511   3.619   2.374   9.047  0.0734 -0.5807  2.2483
 8960SOL     OW38512   2.724   3.789   4.700 -0.1760 -0.1875 -0.6130
 8960SOL    HW138513   2.679   3.819   4.621 -1.4962 -0.8660 -0.1340
 8960SOL    HW238514   2.805   3.838   4.692  0.0423 -0.5994 -0.9116
 8961SOL     OW38515   1.551   0.256  14.567 -0.3390  0.3574  0.3875
 8961SOL    HW138516   1.635   0.299  14.582 -0.1514  0.6930 -1.6160
 8961SOL    HW238517   1.489   0.328  14.552 -1.3734 -0.6589 -0.1900
 8962SOL     OW38518   0.611   2.815  14.202  0.2803 -0.3954  0.7810
 8962SOL    HW138519   0.637   2.876  14.271  2.8040  1.2169 -1.5990
 8962SOL    HW238520   0.697   2.773  14.194  0.8403  1.2177 -1.5344
 8963SOL     OW38521   2.431   1.959   1.832  0.2071  0.6008 -0.7404
 8963SOL    HW138522   2.470   1.988   1.914  0.2555 -0.3624 -0.4317
 8963SOL    HW238523   2.505   1.973   1.772  0.9263 -0.3009 -0.0542
 8964SOL     OW38524   3.301   2.715   1.157 -0.5523 -0.0557 -0.2870
 8964SOL    HW138525   3.240   2.715   1.082 -0.6876 -1.4771 -0.1739
 8964SOL    HW238526   3.257   2.779   1.213 -0.5749  0.8205 -1.2879
 8965SOL     OW38527   0.952   1.170  11.937 -0.0749  0.3558 -0.7762
 8965SOL    HW138528   0.989   1.233  11.999 -0.2117 -2.1008  1.8266
 8965SOL    HW238529   0.906   1.231  11.880  0.2807  2.1600  0.8662
 8966SOL     OW38530   0.348   3.108   7.752 -0.3185  0.0649  0.4323
 8966SOL    HW138531   0.436   3.137   7.779  0.1509 -1.6017  0.7071
 8966SOL    HW238532   0.375   3.032   7.700 -2.5157 -0.2491 -0.2351
 8967SOL     OW38533   1.023   1.423   9.785 -0.4452  0.1787  0.0586
 8967SOL    HW138534   1.054   1.332   9.778 -0.3096  0.1294  1.3534
 8967SOL    HW238535   0.968   1.427   9.863 -1.5487 -2.1467 -0.5945
 8968SOL     OW38536   4.037   0.509   1.600 -0.4812  0.0285  0.0946
 8968SOL    HW138537   3.982   0.536   1.527 -1.1212  0.4810  0.7429
 8968SOL    HW238538   4.054   0.416   1.588  0.2337  0.4136 -1.7367
 8969SOL     OW38539   4.527   0.641   8.286 -1.3316 -0.7363  0.0250
 8969SOL    HW138540   4.445   0.690   8.290 -0.8731  0.1038 -0.7628
 8969SOL    HW238541   4.542   0.615   8.195 -0.8168  4.1597 -1.3052
 8970SOL     OW38542   1.293   0.874   0.800 -0.2852  0.0989  0.0393
 8970SOL    HW138543   1.326   0.946   0.747  0.2865 -0.9247 -1.0170
 8970SOL    HW238544   1.335   0.887   0.886  0.6828 -1.1774 -0.2263
 8971SOL     OW38545   1.635   4.237  10.311  0.2804  0.4195  0.2714
 8971SOL    HW138546   1.588   4.319  10.325 -2.0222 -1.2560  2.3393
 8971SOL    HW238547   1.727   4.251  10.333  0.8845 -1.6963 -0.9183
 8972SOL     OW38548   3.298   4.631  15.327  0.0285  0.1984  0.2768
 8972SOL    HW138549   3.307   4.543  15.290  1.4693 -0.6068  2.5018
 8972SOL    HW238550   3.373   4.641  15.387 -0.5786  1.9254  0.7417
 8973SOL     OW38551   4.619   1.260  11.386 -0.1451 -0.3633  0.5304
 8973SOL    HW138552   4.597   1.339  11.335 -1.9450 -1.7484 -0.8728
 8973SOL    HW238553   4.537   1.222  11.418 -0.3205  0.3227  0.8971
 8974SOL     OW38554   2.106   3.079   6.144  0.4397 -0.5684  0.4377
 8974SOL    HW138555   2.135   3.167   6.120 -2.6736  0.6510  1.1081
 8974SOL    HW238556   2.101   3.039   6.058  0.5513 -1.0997  0.6818
 8975SOL     OW38557   1.995   4.333   5.641 -0.0583  0.0278 -0.1224
 8975SOL    HW138558   1.983   4.300   5.730 -0.2679  1.6669  0.4474
 8975SOL    HW238559   2.089   4.349   5.649 -0.2323  0.9145  0.1459
 8976SOL     OW38560   4.629   0.365   3.322 -0.1317 -0.1589  0.0218
 8976SOL    HW138561   4.693   0.330   3.260 -0.0079 -0.5411  0.3647
 8976SOL    HW238562   4.651   0.457   3.312 -1.2552  0.0781 -0.2779
 8977SOL     OW38563   4.147   0.510   6.243  0.2282  0.4198 -0.0697
 8977SOL    HW138564   4.144   0.557   6.159 -0.4448 -0.6291 -0.6431
 8977SOL    HW238565   4.206   0.437   6.228  1.0405  0.7025  1.7647
 8978SOL     OW38566   0.911   3.419   6.183 -0.4063 -0.0599 -0.1896
 8978SOL    HW138567   0.861   3.453   6.258 -1.4521 -0.7060 -0.5891
 8978SOL    HW238568   0.945   3.498   6.141  2.5080 -0.3727  1.5993
 8979SOL     OW38569   0.690   1.804   5.587 -0.5478 -0.2782 -0.1927
 8979SOL    HW138570   0.729   1.729   5.632  2.0208  0.7471 -0.7017
 8979SOL    HW238571   0.709   1.788   5.494  2.2629  2.0129 -0.0222
 8980SOL     OW38572   2.516   1.076   5.655 -0.3924  0.0734  0.6918
 8980SOL    HW138573   2.508   1.172   5.650 -0.8616  0.0149  0.3908
 8980SOL    HW238574   2.600   1.082   5.609 -1.8694 -0.0553 -2.0028
 8981SOL     OW38575   0.056   0.068   7.052  0.2224 -0.3262 -0.6192
 8981SOL    HW138576   0.073   0.129   6.980 -1.7967  2.3328  1.1715
 8981SOL    HW238577   0.065   0.125   7.128 -0.6080 -1.0238  0.0007
 8982SOL     OW38578   2.788   0.710   6.160 -0.2814  0.1764  0.3070
 8982SOL    HW138579   2.714   0.656   6.189 -1.3877 -1.6552 -5.8891
 8982SOL    HW238580   2.828   0.715   6.247  2.5401  0.1424 -1.0133
 8983SOL     OW38581   1.907   0.096   5.559 -0.2177 -0.6182  0.0093
 8983SOL    HW138582   1.974   0.162   5.539 -0.8428  0.0679  0.1958
 8983SOL    HW238583   1.832   0.139   5.599 -0.2315  0.0459 -0.7171
 8984SOL     OW38584   4.606   3.323  12.385  0.0161  0.4510 -0.2710
 8984SOL    HW138585   4.673   3.328  12.454 -0.9342  5.3156  0.3337
 8984SOL    HW238586   4.611   3.415  12.358 -0.7856  0.5466 -0.0991
 8985SOL     OW38587   2.354   0.572   5.145  0.4183  0.3706  0.3779
 8985SOL    HW138588   2.286   0.571   5.078 -1.1316  0.0771  1.9400
 8985SOL    HW238589   2.357   0.478   5.165 -2.6372 -0.1140 -1.4068
 8986SOL     OW38590   4.580   2.148   4.661 -0.4134 -0.1371 -0.1185
 8986SOL    HW138591   4.498   2.189   4.630  1.3136  3.0106 -0.5507
 8986SOL    HW238592   4.590   2.178   4.751 -3.6293  2.1409 -0.4852
 8987SOL     OW38593   3.452   3.394   1.888  0.4892  0.0313  0.1095
 8987SOL    HW138594   3.388   3.327   1.908  0.5426  0.2881  1.1421
 8987SOL    HW238595   3.529   3.367   1.939  1.2442 -0.4285 -1.2669
 8988SOL     OW38596   0.859   4.237  10.579  0.5671 -0.1883 -0.1164
 8988SOL    HW138597   0.804   4.310  10.548  2.3748  1.4800  0.6147
 8988SOL    HW238598   0.795   4.188  10.630 -0.5848  1.0925 -0.3241
 8989SOL     OW38599   4.184   3.720  17.395 -0.0425  0.0398  0.1106
 8989SOL    HW138600   4.277   3.743  17.393 -0.1749  0.7049  1.3848
 8989SOL    HW238601   4.192   3.657  17.323 -0.6965 -0.7326  0.7113
 8990SOL     OW38602   2.860   0.692   6.406 -0.0166  0.3209  0.0114
 8990SOL    HW138603   2.787   0.679   6.466 -0.0665  1.1166  0.1172
 8990SOL    HW238604   2.899   0.773   6.440  1.8898 -0.6589  0.1592
 8991SOL     OW38605   3.676   0.571  12.157  0.2424  0.1081  0.5961
 8991SOL    HW138606   3.688   0.620  12.075  0.7325  0.4457  0.8676
 8991SOL    HW238607   3.746   0.506  12.153 -0.5869 -0.8092  1.0810
 8992SOL     OW38608   1.428   0.658  17.281  0.0163  0.0746  0.3638
 8992SOL    HW138609   1.412   0.678  17.188 -4.3174 -0.3436  0.9876
 8992SOL    HW238610   1.385   0.728  17.329 -2.9800  0.5350 -2.9306
 8993SOL     OW38611   3.984   4.548   8.157  0.1115  0.2276  0.2107
 8993SOL    HW138612   4.038   4.567   8.234  0.4672 -0.2405  0.0794
 8993SOL    HW238613   4.048   4.552   8.086  0.0250  0.3987  0.1442
 8994SOL     OW38614   2.655   3.502   1.907 -0.4409 -0.1943  0.1198
 8994SOL    HW138615   2.676   3.534   1.994  0.6669  2.2613 -1.0450
 8994SOL    HW238616   2.733   3.534   1.862 -0.2456  2.1055  2.1621
 8995SOL     OW38617   2.425   0.812   7.590  0.1245  0.8460  0.1566
 8995SOL    HW138618   2.498   0.793   7.531  0.2676 -1.7374  1.1731
 8995SOL    HW238619   2.396   0.725   7.617 -0.9356  0.5012 -2.0893
 8996SOL     OW38620   2.267   2.755   2.443  0.1096  0.1315  0.1354
 8996SOL    HW138621   2.339   2.752   2.380 -0.9970 -3.3977 -0.9379
 8996SOL    HW238622   2.288   2.688   2.507 -2.5331 -0.0960  0.7910
 8997SOL     OW38623   2.636   1.109   1.600  0.2578 -0.0002 -0.5186
 8997SOL    HW138624   2.643   1.145   1.512  1.4711 -1.2178 -0.9238
 8997SOL    HW238625   2.542   1.100   1.612  0.3395 -1.1178 -0.6626
 8998SOL     OW38626   0.816   4.210   7.055 -0.0907 -0.4046 -0.1142
 8998SOL    HW138627   0.877   4.177   7.122  0.5951  0.2772 -0.4106
 8998SOL    HW238628   0.798   4.298   7.089 -3.7664 -1.4599  0.6838
 8999SOL     OW38629   2.655   3.326   5.079  0.4520 -0.2276 -0.2142
 8999SOL    HW138630   2.691   3.240   5.056 -0.0798 -0.6001  0.3447
 8999SOL    HW238631   2.562   3.305   5.072  0.6469 -0.8553 -0.9121
 9000SOL     OW38632   2.956   2.719   1.502  0.7975  0.0231  0.3558
 9000SOL    HW138633   2.972   2.775   1.579 -0.4567  2.7513 -1.3551
 9000SOL    HW238634   3.016   2.645   1.516  2.0221  1.1512  1.0977
 9001SOL     OW38635   3.817   1.224   3.199 -0.2523  0.3879  0.0676
 9001SOL    HW138636   3.760   1.202   3.272  1.4249 -1.3959  0.8326
 9001SOL    HW238637   3.833   1.137   3.162 -2.1235 -0.0689  0.3480
 9002SOL     OW38638   4.686   4.278   2.361  0.2666  0.1488 -0.2025
 9002SOL    HW138639   4.710   4.371   2.360  0.6363  0.0547 -0.2489
 9002SOL    HW238640   4.609   4.280   2.305 -0.9578 -0.5982  1.4380
 9003SOL     OW38641   3.726   1.077   7.927 -0.1536 -0.5820  0.4550
 9003SOL    HW138642   3.749   0.992   7.891  1.3854  0.2228 -0.4767
 9003SOL    HW238643   3.649   1.053   7.978 -1.8502 -1.6986 -2.6486
 9004SOL     OW38644   0.954   2.280  16.574  0.5700 -0.5783 -0.5210
 9004SOL    HW138645   0.919   2.191  16.576  2.1858 -1.1329  3.0003
 9004SOL    HW238646   0.997   2.273  16.489 -0.3106  0.7711 -1.0860
 9005SOL     OW38647   3.227   1.061   6.681  0.5960 -0.0216  0.0522
 9005SOL    HW138648   3.294   1.069   6.612  0.4450 -1.0243 -0.2025
 9005SOL    HW238649   3.272   1.094   6.759 -2.4607  0.2191  1.7028
 9006SOL     OW38650   3.873   3.849   4.070 -0.5090 -0.4163 -0.4979
 9006SOL    HW138651   3.920   3.901   4.135 -1.9905  0.2977 -0.0013
 9006SOL    HW238652   3.932   3.773   4.068 -0.3191 -0.3056  1.4776
 9007SOL     OW38653   0.069   2.557  14.390  0.0080 -0.0705  0.3956
 9007SOL    HW138654   0.148   2.549  14.337 -1.4674 -0.7799 -1.7068
 9007SOL    HW238655   0.008   2.607  14.335  1.2180  0.2251 -0.6760
 9008SOL     OW38656   2.964   4.335   9.079 -0.2703 -0.5944  0.8557
 9008SOL    HW138657   3.006   4.338   9.165 -0.6761  1.0326  1.0132
 9008SOL    HW238658   3.037   4.311   9.023 -1.6352 -2.2528 -0.2027
 9009SOL     OW38659   1.533   1.380   5.665  0.8789 -0.1943  0.3547
 9009SOL    HW138660   1.511   1.456   5.719  1.1918 -0.1843  0.4671
 9009SOL    HW238661   1.615   1.404   5.622 -1.4341  0.9658 -3.3997
 9010SOL     OW38662   4.653   1.615   9.348  0.1349  0.2944 -0.6271
 9010SOL    HW138663   4.672   1.552   9.278  3.2962  0.0752  0.4378
 9010SOL    HW238664   4.726   1.592   9.406  0.9605  1.6571 -1.1264
 9011SOL     OW38665   0.080   2.396   4.993  0.0725 -0.4724 -0.0515
 9011SOL    HW138666   0.075   2.469   5.054 -2.5849 -0.9905  0.3441
 9011SOL    HW238667   0.019   2.332   5.030 -3.2997  1.2943 -2.5993
 9012SOL     OW38668   2.597   1.004   4.918 -0.3551 -0.0623  0.6626
 9012SOL    HW138669   2.555   0.924   4.886  0.9925 -1.0308  1.3475
 9012SOL    HW238670   2.554   1.019   5.002 -2.5136 -0.7153 -0.3111
 9013SOL     OW38671   4.355   1.977   7.662  0.6377  0.1497  0.3287
 9013SOL    HW138672   4.407   1.924   7.602 -0.6063 -0.5349 -0.1507
 9013SOL    HW238673   4.390   1.955   7.748  0.8014  2.0840  0.7664
 9014SOL     OW38674   3.748   4.252  16.585 -0.3389 -0.3610  0.1868
 9014SOL    HW138675   3.740   4.273  16.492 -1.5879  0.5360  0.5019
 9014SOL    HW238676   3.799   4.172  16.573 -0.1453 -0.2840  0.4987
 9015SOL     OW38677   0.842   3.550   2.753  0.3371 -0.2425  0.1314
 9015SOL    HW138678   0.854   3.482   2.686 -1.0483 -1.1746  0.8177
 9015SOL    HW238679   0.748   3.547   2.771  0.3761  1.2595  0.5997
 9016SOL     OW38680   0.655   3.835  10.642 -0.1324 -0.0880  0.1340
 9016SOL    HW138681   0.608   3.805  10.720 -0.9311  0.2302 -0.2319
 9016SOL    HW238682   0.656   3.751  10.596  0.6021 -1.2023  2.1876
 9017SOL     OW38683   2.593   2.330   4.326 -0.2275  0.1615  0.4271
 9017SOL    HW138684   2.524   2.373   4.378 -1.2039 -0.4462 -0.3721
 9017SOL    HW238685   2.562   2.240   4.341 -0.0277 -0.1113 -0.8455
 9018SOL     OW38686   0.316   4.511   7.888 -0.0748  0.2589 -0.4536
 9018SOL    HW138687   0.397   4.550   7.921 -0.0404  0.3445 -0.6362
 9018SOL    HW238688   0.339   4.520   7.795  2.1695 -0.1050  0.0750
 9019SOL     OW38689   4.274   1.783  16.547 -1.0533 -0.1087  0.0751
 9019SOL    HW138690   4.256   1.777  16.641  0.1351 -1.0545  0.2368
 9019SOL    HW238691   4.328   1.862  16.545 -1.2076  0.0052  0.3172
 9020SOL     OW38692   1.351   2.289   4.900  0.3584 -0.0127  0.0793
 9020SOL    HW138693   1.296   2.354   4.857  1.5048  0.2385 -0.9859
 9020SOL    HW238694   1.305   2.267   4.982  0.3302  2.4127  0.7352
 9021SOL     OW38695   0.571   2.031  10.837 -0.1710  0.6044  0.0027
 9021SOL    HW138696   0.540   2.064  10.752 -1.2458  0.2029  0.2472
 9021SOL    HW238697   0.490   2.048  10.884  0.4739  0.2079  1.2510
 9022SOL     OW38698   1.007   3.807   2.807  0.1633 -0.4143 -0.1542
 9022SOL    HW138699   1.061   3.775   2.880  2.8163  2.5197 -0.8174
 9022SOL    HW238700   0.969   3.725   2.778  2.1152 -1.6382  0.7814
 9023SOL     OW38701   3.375   3.980   4.228  0.1307  0.0319  0.1332
 9023SOL    HW138702   3.309   4.049   4.223  0.4476  0.4332  1.6385
 9023SOL    HW238703   3.339   3.932   4.302 -0.8791  1.8750  0.8289
 9024SOL     OW38704   2.276   4.503   2.798  0.4552 -0.4090  0.0597
 9024SOL    HW138705   2.247   4.414   2.777 -2.0249 -0.3807  3.4990
 9024SOL    HW238706   2.251   4.509   2.890  1.3225 -0.6604  0.3113
 9025SOL     OW38707   0.922   4.349   5.175 -0.0689  0.4348  0.6610
 9025SOL    HW138708   0.999   4.309   5.135 -1.1109  0.3477 -1.2524
 9025SOL    HW238709   0.875   4.392   5.104  1.5908 -0.4308 -0.9492
 9026SOL     OW38710   0.695   3.160   6.885  0.1154  0.2768  0.4873
 9026SOL    HW138711   0.756   3.206   6.828 -0.7676  1.7931  0.7524
 9026SOL    HW238712   0.709   3.196   6.973  1.1724 -0.6969  0.7262
 9027SOL     OW38713   1.185   0.686   5.432 -0.9741  0.0146 -0.1208
 9027SOL    HW138714   1.260   0.631   5.456 -0.3686 -0.3716 -2.9022
 9027SOL    HW238715   1.177   0.664   5.339 -0.8844  4.5612 -1.2057
 9028SOL     OW38716   4.719   0.660   7.962 -0.4713 -0.1654  0.1187
 9028SOL    HW138717   0.078   0.659   7.962 -0.4692 -0.4971 -2.3133
 9028SOL    HW238718   4.705   0.621   8.048  0.6914  1.5294  1.0893
 9029SOL     OW38719   1.908   4.644   0.401  0.2697 -0.0486 -0.1253
 9029SOL    HW138720   1.821   4.653   0.362 -0.3595 -0.1631  1.2432
 9029SOL    HW238721   1.898   4.719   0.459 -1.4517 -1.5417  1.5406
 9030SOL     OW38722   4.425   0.490   0.788 -0.7171  0.5741 -0.2092
 9030SOL    HW138723   4.424   0.474   0.882 -0.5473  0.0706 -0.2928
 9030SOL    HW238724   4.390   0.579   0.793 -1.0120  0.4951 -0.8286
 9031SOL     OW38725   2.998   1.233   5.054  0.1465 -0.1352  0.4289
 9031SOL    HW138726   2.909   1.241   5.021  0.8132  1.0164 -1.0973
 9031SOL    HW238727   2.977   1.173   5.125 -3.2670  0.1702 -0.3558
 9032SOL     OW38728   0.262   0.800   4.796  0.4812 -0.3990  0.1575
 9032SOL    HW138729   0.187   0.743   4.780  0.9717 -1.0431  0.1260
 9032SOL    HW238730   0.334   0.750   4.757  0.7141  0.1500 -0.1285
 9033SOL     OW38731   2.889   3.150   3.070 -0.5365  0.8973  0.3148
 9033SOL    HW138732   2.927   3.065   3.095 -1.6764  0.3136  0.0588
 9033SOL    HW238733   2.920   3.202   3.145 -0.1316  0.9707  0.0990
 9034SOL     OW38734   0.134   1.639   5.621 -0.6555 -0.6905 -0.5588
 9034SOL    HW138735   0.228   1.624   5.630 -0.7828  0.1254  2.2337
 9034SOL    HW238736   0.108   1.547   5.610 -0.4696 -0.7907 -0.1929
 9035SOL     OW38737   3.043   0.500   1.195 -0.0359  0.2995  0.3630
 9035SOL    HW138738   3.021   0.413   1.228 -1.3832  1.0691  1.5409
 9035SOL    HW238739   2.953   0.532   1.203 -0.7726 -1.4917 -0.7758
 9036SOL     OW38740   2.050   3.361   9.512  0.7111 -0.7470 -0.0929
 9036SOL    HW138741   2.006   3.430   9.562  0.1965  0.5089 -2.2962
 9036SOL    HW238742   2.001   3.284   9.541  0.3530 -0.8529 -0.9842
 9037SOL     OW38743   2.873   1.378   7.076 -0.1672  0.2615  0.0543
 9037SOL    HW138744   2.947   1.439   7.082 -0.9167  1.1915 -0.2073
 9037SOL    HW238745   2.839   1.378   7.165  1.7989  3.0505  0.8390
 9038SOL     OW38746   1.164   4.253   5.111  0.1162 -0.1865  0.4776
 9038SOL    HW138747   1.239   4.209   5.150 -0.2045  0.3354  1.6838
 9038SOL    HW238748   1.201   4.306   5.040 -0.9935  1.0511  0.8186
 9039SOL     OW38749   1.425   3.831   6.422  0.0958 -0.8838  0.8168
 9039SOL    HW138750   1.392   3.797   6.338 -1.3295  0.2430  0.9448
 9039SOL    HW238751   1.517   3.806   6.408  0.4911 -0.0031  1.9206
 9040SOL     OW38752   3.961   3.239   1.033 -0.6700  0.0038  0.5284
 9040SOL    HW138753   4.045   3.213   1.073  0.7581  0.2183 -2.3369
 9040SOL    HW238754   3.986   3.331   1.025 -0.8041 -0.0335 -0.2929
 9041SOL     OW38755   1.919   1.270   4.563  0.1787  0.1007  0.1723
 9041SOL    HW138756   2.000   1.230   4.594 -0.0887  1.6260  2.7985
 9041SOL    HW238757   1.960   1.305   4.483  1.8043 -0.5961  0.7002
 9042SOL     OW38758   1.565   2.879   0.335 -0.0515 -0.1188 -0.3359
 9042SOL    HW138759   1.638   2.852   0.278  0.7372 -0.6283  0.9195
 9042SOL    HW238760   1.501   2.816   0.301 -0.2851  0.0539 -0.2153
 9043SOL     OW38761   1.585   4.128   4.180 -0.2162 -0.2174  0.0107
 9043SOL    HW138762   1.524   4.176   4.236 -0.8870 -0.9371 -0.0903
 9043SOL    HW238763   1.539   4.159   4.102  0.4349  2.7289  0.8145
 9044SOL     OW38764   0.172   0.601  12.112 -0.3380 -0.5534  0.3441
 9044SOL    HW138765   0.195   0.625  12.022 -1.8169 -1.9727 -0.4090
 9044SOL    HW238766   0.256   0.596  12.157  1.2161  0.3837 -2.4811
 9045SOL     OW38767   0.827   3.457   7.687 -0.2699 -0.2464 -0.0563
 9045SOL    HW138768   0.803   3.413   7.769 -1.9075  1.0012  0.1415
 9045SOL    HW238769   0.757   3.523   7.684 -1.6719 -1.7182  0.0939
 9046SOL     OW38770   3.648   2.019   4.080 -0.4852  0.0528 -0.2569
 9046SOL    HW138771   3.740   2.042   4.067 -0.6706  1.0510  0.2087
 9046SOL    HW238772   3.616   2.083   4.017 -0.2984  0.4252  0.0282
 9047SOL     OW38773   2.803   1.872   8.180  0.8705  0.5733 -0.3662
 9047SOL    HW138774   2.879   1.817   8.161 -0.7970 -2.0607  0.7260
 9047SOL    HW238775   2.841   1.960   8.184  4.8124 -1.1682  0.8321
 9048SOL     OW38776   2.029   3.093  15.660 -0.3335  0.8850 -0.3969
 9048SOL    HW138777   2.021   3.020  15.721  0.7609 -0.7133 -2.1567
 9048SOL    HW238778   1.956   3.075  15.600  0.4765  2.0263 -1.7311
 9049SOL     OW38779   2.077   0.296   5.496 -0.2091  0.5575  0.0767
 9049SOL    HW138780   2.095   0.310   5.589 -0.0263 -0.9701  0.2672
 9049SOL    HW238781   2.076   0.390   5.477 -1.7336  0.3427 -0.8716
 9050SOL     OW38782   4.198   2.432   0.973  0.2781 -0.0293 -0.6109
 9050SOL    HW138783   4.118   2.403   0.930  0.7198 -0.5171 -1.1009
 9050SOL    HW238784   4.208   2.517   0.931 -0.9372  1.6510  2.5247
 9051SOL     OW38785   1.780   1.487   8.537  0.4689 -0.0213 -0.1004
 9051SOL    HW138786   1.718   1.554   8.508 -0.8271  0.2636  3.3740
 9051SOL    HW238787   1.806   1.531   8.618  0.8870  0.3800 -0.4546
 9052SOL     OW38788   1.354   0.685   7.702 -0.1525 -0.3088  0.9338
 9052SOL    HW138789   1.264   0.657   7.720 -0.6512  0.4345 -0.4393
 9052SOL    HW238790   1.375   0.771   7.738  0.4491 -0.2785  0.5069
 9053SOL     OW38791   4.417   4.716  13.284 -0.2234  0.6575  0.1538
 9053SOL    HW138792   4.453   4.627  13.282  0.7911  1.0613  0.3556
 9053SOL    HW238793   4.458   0.012  13.204  1.5483 -1.7388  0.0972
 9054SOL     OW38794   3.216   4.239   1.236  0.7531 -0.1655 -0.3870
 9054SOL    HW138795   3.144   4.239   1.173 -0.3969 -0.7053  0.9476
 9054SOL    HW238796   3.220   4.145   1.253  0.1277 -0.0431  0.4268
 9055SOL     OW38797   4.476   2.896   6.302 -0.1042  0.0615 -0.1425
 9055SOL    HW138798   4.492   2.929   6.390  1.0922  0.8830 -0.6736
 9055SOL    HW238799   4.405   2.960   6.288  0.5565  0.7718 -0.2544
 9056SOL     OW38800   2.896   3.287   2.633 -0.3550  0.2384  0.1494
 9056SOL    HW138801   2.988   3.261   2.627 -0.4350  0.3616 -1.6196
 9056SOL    HW238802   2.882   3.312   2.724  3.8235  0.2753  0.7513
 9057SOL     OW38803   3.327   2.114   1.610  0.3730 -0.4205 -0.1513
 9057SOL    HW138804   3.411   2.079   1.579 -0.4265 -0.5163 -2.2326
 9057SOL    HW238805   3.319   2.170   1.533 -0.5184 -0.9161 -0.4164
 9058SOL     OW38806   1.497   4.109  13.614  0.2687 -0.2859 -0.3467
 9058SOL    HW138807   1.434   4.092  13.544  1.6289  1.5745 -2.0604
 9058SOL    HW238808   1.461   4.192  13.647 -0.2326 -0.1732 -1.1798
 9059SOL     OW38809   0.762   4.308  14.402  0.3643 -0.7086  0.8049
 9059SOL    HW138810   0.799   4.248  14.467  2.9118  0.4824  0.4877
 9059SOL    HW238811   0.673   4.278  14.389  0.1734  0.3200 -0.2657
 9060SOL     OW38812   3.265   0.473   0.957  0.0766 -0.3515  0.2054
 9060SOL    HW138813   3.211   0.550   0.975  0.1989 -0.4180  0.8654
 9060SOL    HW238814   3.229   0.439   0.875 -0.1827  0.5756 -0.0640
 9061SOL     OW38815   1.000   1.357  12.487  0.2578 -0.1064  0.0166
 9061SOL    HW138816   0.994   1.324  12.577  2.8497 -1.4093 -0.2962
 9061SOL    HW238817   0.921   1.321  12.446  0.5592 -0.0022 -0.6522
 9062SOL     OW38818   3.499   3.075   5.305 -0.2594  0.2524 -0.2200
 9062SOL    HW138819   3.448   3.128   5.244  0.3825  0.6700 -0.4007
 9062SOL    HW238820   3.435   3.031   5.360  0.3857  1.9673  1.8833
 9063SOL     OW38821   1.544   1.965  15.965  0.0124 -0.3143  0.3081
 9063SOL    HW138822   1.528   2.059  15.970  1.4385 -0.0780  0.6174
 9063SOL    HW238823   1.530   1.943  15.873 -1.4280 -0.9488  0.6869
 9064SOL     OW38824   2.332   0.931   8.500 -0.5498  0.3909 -0.2038
 9064SOL    HW138825   2.427   0.925   8.485 -0.7142 -0.5253 -0.8607
 9064SOL    HW238826   2.317   0.860   8.562 -2.4006  1.4970  0.5986
 9065SOL     OW38827   3.122   3.114   9.307  0.4457  0.2404  0.0323
 9065SOL    HW138828   3.169   3.180   9.358 -2.0258  0.6590  1.7422
 9065SOL    HW238829   3.046   3.090   9.360 -0.5666 -1.8238 -2.3264
 9066SOL     OW38830   3.679   0.052   8.975  0.2227 -0.5935  0.4824
 9066SOL    HW138831   3.663   4.735   8.897 -1.1810 -0.9242  1.0105
 9066SOL    HW238832   3.718   0.132   8.940  0.7775 -0.4613  1.4182
 9067SOL     OW38833   2.081   2.269   3.412 -0.1173 -0.0599  0.2406
 9067SOL    HW138834   2.032   2.275   3.494  0.7700  0.2008  0.7504
 9067SOL    HW238835   2.009   2.242   3.355 -0.1196 -0.8765  0.6333
 9068SOL     OW38836   2.416   0.266   0.788 -0.5204 -0.3716  0.0537
 9068SOL    HW138837   2.350   0.204   0.819 -1.3321  0.4974  0.0655
 9068SOL    HW238838   2.458   0.281   0.873 -0.6687  0.5574 -0.0305
 9069SOL     OW38839   0.661   4.110  10.699 -0.4178 -0.0457  0.3213
 9069SOL    HW138840   0.671   4.021  10.667  0.3154  0.2848 -0.3752
 9069SOL    HW238841   0.568   4.126  10.683 -0.4450 -0.8282 -0.2585
 9070SOL     OW38842   1.894   2.087   2.892  0.0258  0.1865 -0.3103
 9070SOL    HW138843   1.921   2.062   2.980 -0.4079 -1.9693 -0.7897
 9070SOL    HW238844   1.909   2.006   2.844 -0.3349 -0.4416  0.6457
 9071SOL     OW38845   1.781   1.976   2.414 -0.0818  0.0529 -0.0690
 9071SOL    HW138846   1.770   2.015   2.327 -3.4250 -1.5465 -0.3395
 9071SOL    HW238847   1.873   1.951   2.403 -0.1878  0.2223 -1.3824
 9072SOL     OW38848   3.800   3.682  14.683  0.6391 -0.4154 -0.1575
 9072SOL    HW138849   3.878   3.643  14.722 -1.3099 -2.2858  1.8600
 9072SOL    HW238850   3.728   3.627  14.715 -0.4796  1.9861  1.4977
 9073SOL     OW38851   1.356   0.682   8.447 -0.0108 -0.2700 -0.0898
 9073SOL    HW138852   1.390   0.638   8.526  0.0762  0.3770  0.2294
 9073SOL    HW238853   1.361   0.622   8.373 -0.7533 -1.7757  1.0745
 9074SOL     OW38854   0.422   1.914   5.059  0.1018 -0.4569 -0.1276
 9074SOL    HW138855   0.343   1.868   5.086 -0.7003  0.5255 -0.8246
 9074SOL    HW238856   0.440   1.962   5.140 -0.6536  0.8444 -0.7225
 9075SOL     OW38857   1.413   2.696  14.089  0.4565 -0.4129  0.7602
 9075SOL    HW138858   1.414   2.612  14.136 -1.0374 -1.0874 -0.4172
 9075SOL    HW238859   1.429   2.662  14.001 -0.2215 -2.6034  1.4619
 9076SOL     OW38860   3.674   2.558   6.728  0.7880 -0.0269  0.5714
 9076SOL    HW138861   3.610   2.524   6.791 -1.1713  1.6163 -0.5071
 9076SOL    HW238862   3.625   2.634   6.696 -0.0925 -0.2111  1.4772
 9077SOL     OW38863   3.215   3.032   7.933 -0.0649 -0.2542 -0.4606
 9077SOL    HW138864   3.308   3.043   7.915  0.2948 -0.2905  1.3913
 9077SOL    HW238865   3.200   3.109   7.989 -0.4607 -0.1448 -0.7161
 9078SOL     OW38866   3.753   4.229  11.368  0.0875  0.8013 -0.0022
 9078SOL    HW138867   3.779   4.138  11.360  2.0471  1.2656  1.0012
 9078SOL    HW238868   3.713   4.242  11.282 -0.7358  1.1454  0.4313
 9079SOL     OW38869   0.457   2.932  15.141 -0.0424 -0.2573 -0.4406
 9079SOL    HW138870   0.499   2.945  15.056 -0.7380 -0.0455 -0.7453
 9079SOL    HW238871   0.532   2.901  15.192 -0.4187 -0.8605 -0.2514
 9080SOL     OW38872   0.107   4.600   4.021  0.0149  0.0431 -0.0725
 9080SOL    HW138873   0.189   4.595   3.971 -0.0218 -2.1699  0.0990
 9080SOL    HW238874   0.134   4.678   4.070  0.7535  0.1892 -0.7100
 9081SOL     OW38875   0.823   2.395   4.958  0.0283 -0.1913 -0.5599
 9081SOL    HW138876   0.750   2.433   5.006 -0.6806 -1.7004 -0.4567
 9081SOL    HW238877   0.871   2.347   5.025 -0.5232 -0.0685 -0.0790
 9082SOL     OW38878   1.773   0.477   7.492  0.3706 -0.2528  0.2871
 9082SOL    HW138879   1.775   0.561   7.539  0.5501  0.4140 -0.9124
 9082SOL    HW238880   1.717   0.490   7.415  0.4837 -3.8542 -0.3795
 9083SOL     OW38881   4.238   3.733   8.275  0.0684  0.5435  0.0174
 9083SOL    HW138882   4.198   3.793   8.212 -1.6712  0.5418  1.1279
 9083SOL    HW238883   4.325   3.729   8.236  0.6417 -1.0268  1.4835
 9084SOL     OW38884   3.673   4.271   8.730 -0.2352  0.2518 -0.6106
 9084SOL    HW138885   3.579   4.260   8.739 -0.7006  3.2180 -1.8986
 9084SOL    HW238886   3.685   4.333   8.802 -0.3304  0.6384 -0.9296
 9085SOL     OW38887   3.120   1.423  10.067  0.0597 -0.2541 -0.4565
 9085SOL    HW138888   3.079   1.380  10.142  2.2520 -1.5249  0.0133
 9085SOL    HW238889   3.183   1.363  10.026 -1.5674 -2.1680 -0.1426
 9086SOL     OW38890   3.006   2.303   2.440  0.0485 -0.6446 -0.4730
 9086SOL    HW138891   3.026   2.275   2.529 -1.8994 -0.1872  0.1206
 9086SOL    HW238892   2.944   2.375   2.454 -0.2914 -1.0725  0.2092
 9087SOL     OW38893   4.048   0.874   8.304  0.3617  0.1191  0.6402
 9087SOL    HW138894   4.041   0.780   8.286 -0.7243  0.9138 -3.0061
 9087SOL    HW238895   4.043   0.909   8.215 -0.8044  0.5372  0.8693
 9088SOL     OW38896   1.635   3.237   5.001 -0.0013  0.2093  0.4696
 9088SOL    HW138897   1.575   3.305   5.031 -0.1450  0.6823 -0.8935
 9088SOL    HW238898   1.673   3.207   5.084  1.7014  3.4037  0.8674
 9089SOL     OW38899   2.874   0.173   2.249 -0.6005  0.2579 -0.1585
 9089SOL    HW138900   2.793   0.124   2.238 -1.6779  2.2058 -1.0037
 9089SOL    HW238901   2.868   0.216   2.164 -2.6328  0.5644  0.1255
 9090SOL     OW38902   3.709   3.302   6.569 -0.0498  0.3568  0.0415
 9090SOL    HW138903   3.721   3.209   6.587 -0.6534  0.3599  0.4875
 9090SOL    HW238904   3.615   3.307   6.554  0.0328  0.1762 -0.5250
 9091SOL     OW38905   0.683   0.032   6.032  0.2669  0.0125 -0.2991
 9091SOL    HW138906   0.736   0.073   5.964 -0.4480  0.7014 -0.4408
 9091SOL    HW238907   0.593   0.035   6.000 -0.6342 -1.2696  2.0942
 9092SOL     OW38908   2.961   3.826   3.962 -0.0627 -0.3722  0.2760
 9092SOL    HW138909   3.017   3.797   4.034  0.3334  1.0959  0.5796
 9092SOL    HW238910   2.891   3.761   3.965  1.0570 -1.6946 -2.3237
 9093SOL     OW38911   1.370   2.332  12.893 -0.0946  0.0198  0.4842
 9093SOL    HW138912   1.292   2.368  12.852  0.0975  0.6454  0.6711
 9093SOL    HW238913   1.379   2.395  12.965 -0.3162  2.2103 -1.4243
 9094SOL     OW38914   3.008   1.929   2.457 -0.2270 -0.5213 -0.3933
 9094SOL    HW138915   2.969   1.890   2.378 -1.0599 -1.1181  0.3009
 9094SOL    HW238916   3.062   1.999   2.422  1.8932 -1.1463  1.6559
 9095SOL     OW38917   0.515   0.758  16.793  0.0954  0.0840  0.5741
 9095SOL    HW138918   0.589   0.713  16.832 -0.5509 -2.8347 -1.4785
 9095SOL    HW238919   0.563   0.808  16.727  0.6583 -2.8406 -1.2576
 9096SOL     OW38920   1.336   3.653   9.558  0.7240  0.0091 -0.0558
 9096SOL    HW138921   1.430   3.645   9.543  0.2855 -3.7095 -0.6629
 9096SOL    HW238922   1.319   3.564   9.588  0.3378  0.2043  0.3182
 9097SOL     OW38923   1.932   2.021  14.055 -0.1814  0.0124 -0.2428
 9097SOL    HW138924   1.883   2.085  14.003  0.7186 -0.4281 -1.6337
 9097SOL    HW238925   1.870   1.948  14.065  2.7607 -2.6639 -1.8683
 9098SOL     OW38926   0.448   4.635   4.088 -0.2477 -0.5642 -0.0191
 9098SOL    HW138927   0.397   4.714   4.109 -1.6063 -1.1013 -1.3092
 9098SOL    HW238928   0.523   4.651   4.145  0.1415 -5.1211  0.6923
 9099SOL     OW38929   2.773   2.321   6.123 -0.0883 -0.3460 -0.3388
 9099SOL    HW138930   2.714   2.344   6.051  0.6701  2.2888 -0.0936
 9099SOL    HW238931   2.846   2.382   6.115 -0.2417 -0.0145  0.8338
 9100SOL     OW38932   4.665   0.109   8.052 -0.8349  0.1212 -0.2864
 9100SOL    HW138933   4.603   0.164   8.003 -1.7666  0.9650  1.8419
 9100SOL    HW238934   4.639   0.136   8.140  3.0865  1.6794  0.4059
 9101SOL     OW38935   1.267   2.319   8.065 -0.1748  0.6673 -0.0062
 9101SOL    HW138936   1.248   2.369   8.145  0.0713  1.7034 -0.5948
 9101SOL    HW238937   1.181   2.330   8.023  0.2180 -2.7821 -1.6816
 9102SOL     OW38938   0.351   2.600  14.250 -0.1416 -0.6415  0.2493
 9102SOL    HW138939   0.301   2.579  14.171 -1.6084  1.8630  0.5123
 9102SOL    HW238940   0.395   2.677  14.216 -0.8243 -0.3811 -0.0428
 9103SOL     OW38941   1.559   0.993  15.877  0.1256  0.2810 -0.2330
 9103SOL    HW138942   1.595   0.987  15.789  0.7961 -0.6564  0.1095
 9103SOL    HW238943   1.621   1.047  15.925  0.1198 -1.4855  1.7740
 9104SOL     OW38944   1.401   1.103   4.522 -0.3745 -0.0409 -0.0689
 9104SOL    HW138945   1.385   1.195   4.543 -0.6466 -0.2726  0.7380
 9104SOL    HW238946   1.469   1.117   4.457  1.2873 -0.3543  1.5928
 9105SOL     OW38947   1.108   0.575   4.297  0.6434  0.1374 -0.1719
 9105SOL    HW138948   1.101   0.661   4.257 -0.0746  0.3499  0.4058
 9105SOL    HW238949   1.161   0.591   4.376  0.5809 -2.1175  0.3350
 9106SOL     OW38950   0.907   2.206   6.817  0.1768  1.0432 -0.5069
 9106SOL    HW138951   0.857   2.266   6.873 -1.8866  0.0094 -1.2503
 9106SOL    HW238952   0.895   2.116   6.848 -2.2642  1.4270 -0.3462
 9107SOL     OW38953   4.476   3.638   8.213 -0.0515  0.1077  0.0554
 9107SOL    HW138954   4.529   3.613   8.137  1.3965  1.2376  0.7017
 9107SOL    HW238955   4.522   3.595   8.285 -1.9670 -1.5855  0.2562
 9108SOL     OW38956   2.582   4.213   1.351 -0.1577 -0.1701 -0.1960
 9108SOL    HW138957   2.648   4.164   1.301 -0.8178  0.4276 -1.6594
 9108SOL    HW238958   2.634   4.216   1.432 -0.1478  0.2806 -0.2168
 9109SOL     OW38959   2.443   1.218  12.010 -0.3031  0.2236  0.6272
 9109SOL    HW138960   2.434   1.313  11.999  1.2465  0.0331 -2.2442
 9109SOL    HW238961   2.480   1.194  11.925  1.5285  0.1628  1.4436
 9110SOL     OW38962   2.972   4.043   7.280 -0.4094 -0.1080 -0.9035
 9110SOL    HW138963   2.922   3.981   7.333 -0.2038 -0.1647 -0.7767
 9110SOL    HW238964   2.951   4.125   7.325 -1.2203 -1.2160  0.7316
 9111SOL     OW38965   0.767   2.531   7.339 -0.2646 -0.5882  0.3434
 9111SOL    HW138966   0.764   2.627   7.335  1.7367 -0.5989 -0.9120
 9111SOL    HW238967   0.685   2.504   7.298 -0.7755  0.4162  0.6835
 9112SOL     OW38968   1.885   3.246  13.557  0.5253 -0.3435 -0.0209
 9112SOL    HW138969   1.887   3.296  13.475  0.7660  0.2578  0.3448
 9112SOL    HW238970   1.898   3.324  13.611  1.2101  0.8866 -1.9547
 9113SOL     OW38971   3.383   0.591   2.653  0.3611  0.7488  0.6441
 9113SOL    HW138972   3.324   0.536   2.705  0.8080  0.3313  0.7109
 9113SOL    HW238973   3.415   0.519   2.598 -3.5712 -0.6881  0.2407
 9114SOL     OW38974   2.902   4.487   5.706  0.3733 -0.4569  0.0500
 9114SOL    HW138975   2.981   4.538   5.687 -0.0200 -0.0006 -0.3607
 9114SOL    HW238976   2.836   4.555   5.693 -0.8336 -1.5775  0.2386
 9115SOL     OW38977   0.064   0.762   3.636  0.6602 -0.1097 -0.2645
 9115SOL    HW138978   0.059   0.670   3.663 -1.8003 -0.2635 -1.2102
 9115SOL    HW238979   0.104   0.799   3.715  0.6504  0.5809 -0.5815
 9116SOL     OW38980   4.145   4.663   7.370 -0.0514  0.3776  0.3797
 9116SOL    HW138981   4.166   4.732   7.433 -2.7727  1.6854 -0.1617
 9116SOL    HW238982   4.124   4.589   7.426 -0.9228  0.0150 -0.4292
 9117SOL     OW38983   0.881   1.477   6.268 -0.2484  0.2450  0.5859
 9117SOL    HW138984   0.945   1.525   6.319 -0.6410  1.0170  0.3507
 9117SOL    HW238985   0.902   1.384   6.280 -1.2330  0.0731  0.9330
 9118SOL     OW38986   0.950   0.749   2.305  0.8328  0.6309  0.2369
 9118SOL    HW138987   1.019   0.792   2.254  0.3800  0.7385 -0.2769
 9118SOL    HW238988   0.879   0.728   2.245  1.5632  0.0261 -0.4082
 9119SOL     OW38989   2.575   0.796   8.967  0.2076  0.5609 -0.2106
 9119SOL    HW138990   2.627   0.859   8.916  1.0175  0.3387  0.3382
 9119SOL    HW238991   2.514   0.773   8.897 -0.4555  3.4204 -0.5530
 9120SOL     OW38992   0.003   0.355  12.048 -0.5326  0.1187  0.3272
 9120SOL    HW138993   0.049   0.430  12.086 -1.1384  1.3201 -1.2990
 9120SOL    HW238994   0.053   0.278  12.077  0.0324  2.0118  4.3019
 9121SOL     OW38995   2.463   0.297   1.346  0.8027 -0.0524 -0.5397
 9121SOL    HW138996   2.514   0.359   1.398 -0.3635  0.0596  0.4941
 9121SOL    HW238997   2.480   0.218   1.399  0.2194 -0.0664 -0.3702
 9122SOL     OW38998   3.945   4.702   6.290 -0.3378 -0.0583 -0.0933
 9122SOL    HW138999   4.025   0.003   6.253 -0.4734 -0.7032 -1.0389
 9122SOL    HW239000   3.928   4.625   6.235  1.5355  0.7609 -1.8333
 9123SOL     OW39001   2.055   4.483   0.753  0.3317 -0.7912 -0.1631
 9123SOL    HW139002   1.989   4.464   0.686 -0.6398  1.3636  0.2079
 9123SOL    HW239003   1.993   4.482   0.825  0.4765 -0.4816 -0.0328
 9124SOL     OW39004   1.590   2.993   3.484 -0.6257 -0.3430  0.2514
 9124SOL    HW139005   1.516   3.044   3.451  0.3578 -0.1588 -1.6628
 9124SOL    HW239006   1.621   3.063   3.542 -1.1958 -0.1722  0.3484
 9125SOL     OW39007   2.308   0.233   4.075 -0.3273  0.2958  0.3349
 9125SOL    HW139008   2.351   0.313   4.046  0.0800  0.6681  2.0109
 9125SOL    HW239009   2.313   0.176   3.998 -2.8844 -0.4991  0.7438
 9126SOL     OW39010   4.630   2.684  16.427 -0.6767 -0.2901 -0.3076
 9126SOL    HW139011   4.596   2.660  16.514  0.8729  0.2585  0.4377
 9126SOL    HW239012   4.621   2.778  16.439  2.0583 -0.3023  1.7099
 9127SOL     OW39013   3.926   4.702   6.572  0.1915 -0.2135 -0.1626
 9127SOL    HW139014   3.932   4.700   6.476 -0.1978  2.0334 -0.2257
 9127SOL    HW239015   3.926   4.612   6.606 -0.2119  0.0895  0.6155
 9128SOL     OW39016   2.549   1.333   1.705  0.5766  0.7044 -0.4627
 9128SOL    HW139017   2.583   1.356   1.792 -0.8982  2.6048 -0.3764
 9128SOL    HW239018   2.607   1.258   1.690  1.4592  1.3239 -0.1555
 9129SOL     OW39019   4.618   4.126   3.442 -0.3023 -0.4765 -0.0896
 9129SOL    HW139020   4.699   4.134   3.493 -1.5385 -0.5674  1.8763
 9129SOL    HW239021   4.572   4.060   3.493 -0.7876 -0.0289  0.0461
 9130SOL     OW39022   1.608   2.887  14.053  0.4207 -0.3429  0.2224
 9130SOL    HW139023   1.566   2.923  13.975 -1.1581 -0.0338  1.2094
 9130SOL    HW239024   1.552   2.811  14.070  2.1010 -0.8672  3.3642
 9131SOL     OW39025   0.005   2.305   6.289 -0.1012 -0.7577 -0.6654
 9131SOL    HW139026   0.049   2.389   6.297  0.5469 -1.1949  0.3777
 9131SOL    HW239027   4.650   2.331   6.284  0.8637  2.3836 -2.1459
 9132SOL     OW39028   2.699   3.616   4.374  0.7433 -0.1341 -0.1572
 9132SOL    HW139029   2.720   3.672   4.449  1.9271  1.0193 -1.3553
 9132SOL    HW239030   2.605   3.631   4.366  0.5059 -0.7517  1.4094
 9133SOL     OW39031   2.627   3.510   8.278 -0.5249 -0.0725  0.3266
 9133SOL    HW139032   2.541   3.469   8.287 -0.2535 -0.4398  1.2342
 9133SOL    HW239033   2.647   3.499   8.185  1.6585  1.0222  0.6650
 9134SOL     OW39034   0.147   4.290  12.304  0.4704 -0.0306  0.3240
 9134SOL    HW139035   0.179   4.360  12.248 -0.2562  0.2462  0.2562
 9134SOL    HW239036   0.189   4.321  12.385  1.1289  1.4311 -0.5713
 9135SOL     OW39037   4.330   1.353   7.246 -0.1008  0.2700 -0.6326
 9135SOL    HW139038   4.343   1.293   7.319  0.5475 -1.1905 -1.9400
 9135SOL    HW239039   4.274   1.313   7.180 -0.1535 -3.0933  1.4372
 9136SOL     OW39040   2.416   3.267   2.608  0.1588  0.1313 -0.5103
 9136SOL    HW139041   2.332   3.226   2.589 -1.1535  1.9858  1.2039
 9136SOL    HW239042   2.474   3.192   2.607 -0.0071  0.0059 -1.8832
 9137SOL     OW39043   4.381   0.320   8.155  0.1440 -0.0170 -0.1876
 9137SOL    HW139044   4.290   0.341   8.177  0.0493 -0.9580  0.3084
 9137SOL    HW239045   4.359   0.269   8.078  3.7057 -0.6496 -0.8098
 9138SOL     OW39046   4.139   0.135   1.915 -0.3944 -0.3887  0.0033
 9138SOL    HW139047   4.213   0.075   1.918 -1.1032 -1.1148  2.4710
 9138SOL    HW239048   4.169   0.221   1.886 -0.0433  0.1685  2.0194
 9139SOL     OW39049   4.058   1.977   2.520  0.4732  0.0880 -0.5035
 9139SOL    HW139050   4.009   1.896   2.532 -0.5882  0.4498 -2.3430
 9139SOL    HW239051   4.105   1.985   2.603 -1.2092 -2.6295  0.7231
 9140SOL     OW39052   2.666   1.670   6.333  0.3901  0.3589  0.0638
 9140SOL    HW139053   2.753   1.700   6.356 -0.3348  1.6140  1.1421
 9140SOL    HW239054   2.656   1.587   6.379 -0.5745  0.7305  0.5156
 9141SOL     OW39055   1.989   2.579   9.004  0.1001 -0.9582 -0.7430
 9141SOL    HW139056   2.072   2.626   9.001 -1.5873  2.0726  0.4706
 9141SOL    HW239057   2.006   2.504   8.947  2.5940  1.4084 -3.1016
 9142SOL     OW39058   2.210   3.157   2.385 -0.1584  0.1671 -0.5319
 9142SOL    HW139059   2.125   3.197   2.372 -0.4413 -1.3246 -3.3514
 9142SOL    HW239060   2.260   3.212   2.324  0.6238  0.4327  0.3639
 9143SOL     OW39061   2.666   4.629   3.451  0.0550 -0.0787 -0.4315
 9143SOL    HW139062   2.715   4.547   3.451  1.4758  0.7704 -0.2249
 9143SOL    HW239063   2.736   4.693   3.440 -1.6996  2.0735  0.8694
 9144SOL     OW39064   1.585   0.200   7.850 -0.4518 -0.4553  0.1556
 9144SOL    HW139065   1.573   0.216   7.757 -4.2612  0.4201  0.7916
 9144SOL    HW239066   1.656   0.262   7.865  0.7868 -1.4683 -1.6332
 9145SOL     OW39067   2.962   3.978   9.193 -0.7425 -0.5492 -0.5302
 9145SOL    HW139068   3.044   3.972   9.242 -0.2846 -2.7087 -1.5271
 9145SOL    HW239069   2.907   4.006   9.266 -1.5558  0.2032 -1.4433
 9146SOL     OW39070   3.810   3.792   5.395  0.0142  0.1214  0.1742
 9146SOL    HW139071   3.751   3.717   5.387  2.2841 -1.7681  1.3350
 9146SOL    HW239072   3.852   3.765   5.476  2.4882 -2.9053 -2.1214
 9147SOL     OW39073   2.050   3.854  10.726 -0.4113 -0.7103  0.3810
 9147SOL    HW139074   1.961   3.824  10.742 -0.1935 -0.0834  2.6944
 9147SOL    HW239075   2.106   3.788  10.767 -0.0883 -2.0955 -2.2531
 9148SOL     OW39076   4.256   1.635   7.255  0.0598 -0.3339  0.3140
 9148SOL    HW139077   4.277   1.602   7.342 -0.6322  1.5595  1.1986
 9148SOL    HW239078   4.187   1.576   7.225 -0.1680  0.3374 -0.4798
 9149SOL     OW39079   4.583   1.004   7.474  0.3570 -0.3123 -0.0635
 9149SOL    HW139080   4.549   0.950   7.547 -0.4570 -2.2258 -1.8477
 9149SOL    HW239081   4.567   0.957   7.392 -0.6280 -1.3341  0.7017
 9150SOL     OW39082   2.522   4.017   9.504  0.9653 -0.0881 -0.4873
 9150SOL    HW139083   2.593   4.077   9.527  0.4617  0.2116  0.3031
 9150SOL    HW239084   2.533   3.996   9.412 -3.0410 -1.8294 -0.5865
 9151SOL     OW39085   0.564   3.080   2.229  0.6410  0.5632  0.2751
 9151SOL    HW139086   0.603   3.005   2.184  1.3463  1.1127 -0.0294
 9151SOL    HW239087   0.474   3.057   2.250  0.7679  0.6581  0.9205
 9152SOL     OW39088   2.500   2.143   9.583  0.4782  0.0498 -0.0786
 9152SOL    HW139089   2.478   2.070   9.524 -0.3409 -0.0808  0.3861
 9152SOL    HW239090   2.592   2.127   9.602  0.9025 -0.4912 -2.6083
 9153SOL     OW39091   4.226   3.742   6.384  0.1552  0.4632 -0.0158
 9153SOL    HW139092   4.164   3.702   6.445  3.3194  0.0841  2.9846
 9153SOL    HW239093   4.178   3.735   6.302  0.3454  2.9720 -0.3306
 9154SOL     OW39094   1.599   3.937   2.609  0.6037  0.5412  1.4553
 9154SOL    HW139095   1.540   3.881   2.660 -2.3757  1.1339 -1.3932
 9154SOL    HW239096   1.670   3.944   2.673 -0.9002 -0.4790  3.2505
 9155SOL     OW39097   4.352   2.633   8.957 -0.3235 -0.5615  0.2146
 9155SOL    HW139098   4.406   2.554   8.959 -1.0789 -1.0320  1.6637
 9155SOL    HW239099   4.390   2.673   9.035  0.4343  0.2297 -0.5511
 9156SOL     OW39100   2.603   4.467   5.982  0.0172 -1.0455  0.0717
 9156SOL    HW139101   2.618   4.484   6.075  1.6455 -1.7166 -0.0610
 9156SOL    HW239102   2.607   4.554   5.942  5.6065 -1.5948 -0.6075
 9157SOL     OW39103   3.436   0.308  11.882  0.3355 -0.5047  0.2039
 9157SOL    HW139104   3.500   0.238  11.894  0.2238 -0.2392  2.2913
 9157SOL    HW239105   3.394   0.315  11.968  1.5838 -0.7212  0.8403
 9158SOL     OW39106   3.428   4.236   7.672 -0.2693  0.6312 -0.0025
 9158SOL    HW139107   3.400   4.145   7.682 -1.8974  1.1671  0.3111
 9158SOL    HW239108   3.381   4.287   7.738 -1.6556  0.5493 -0.9299
 9159SOL     OW39109   1.707   0.423   5.357 -0.0747  0.2339 -0.3789
 9159SOL    HW139110   1.790   0.437   5.311  1.2177  0.6935  2.1045
 9159SOL    HW239111   1.652   0.386   5.287 -3.8503  0.4664  2.4420
 9160SOL     OW39112   3.444   1.281   8.474  0.0213  0.3673 -0.2395
 9160SOL    HW139113   3.368   1.337   8.491  1.8445  2.1157  2.2503
 9160SOL    HW239114   3.501   1.357   8.463 -1.4217  1.2954 -1.3640
 9161SOL     OW39115   3.104   1.054   3.893 -0.2471  0.1731  0.7912
 9161SOL    HW139116   3.071   0.969   3.923 -0.4072  0.2583  0.8572
 9161SOL    HW239117   3.182   1.025   3.847 -0.4441 -0.4210  0.8174
 9162SOL     OW39118   2.206   4.239   9.288 -0.3690  0.7987  0.4534
 9162SOL    HW139119   2.200   4.239   9.384  2.7059  1.4079  0.6515
 9162SOL    HW239120   2.287   4.288   9.275 -0.2984  1.2169  2.4292
 9163SOL     OW39121   1.538   2.389  17.253  0.0183  0.5200 -0.2659
 9163SOL    HW139122   1.447   2.375  17.278  0.7268 -2.9888  0.4412
 9163SOL    HW239123   1.522   2.450  17.181  0.1363 -0.2111 -0.9128
 9164SOL     OW39124   1.176   3.415  10.173  0.2730 -0.3894  0.1306
 9164SOL    HW139125   1.259   3.452  10.142  0.8373 -1.6680  0.1362
 9164SOL    HW239126   1.206   3.359  10.245  3.8842  1.1327 -0.2276
 9165SOL     OW39127   1.586   3.050   2.870 -0.3583  0.5910  0.3822
 9165SOL    HW139128   1.575   3.053   2.965 -0.6950  0.4258  0.3479
 9165SOL    HW239129   1.616   3.138   2.845  3.0811 -1.0225 -1.2087
 9166SOL     OW39130   3.666   0.418   7.918 -0.3017  0.3992 -0.0836
 9166SOL    HW139131   3.703   0.392   7.834 -0.7117  2.1521 -0.8066
 9166SOL    HW239132   3.623   0.500   7.893  0.9343  1.6700  1.9165
 9167SOL     OW39133   4.121   1.003   9.424 -0.1838  0.0844 -0.3055
 9167SOL    HW139134   4.062   1.077   9.432  2.4783  2.2967 -1.0366
 9167SOL    HW239135   4.065   0.939   9.468 -0.2837 -1.6369 -2.9354
 9168SOL     OW39136   2.492   2.820   8.398 -0.1590 -0.3204 -0.1751
 9168SOL    HW139137   2.421   2.874   8.365 -1.6617 -0.7503  2.4222
 9168SOL    HW239138   2.454   2.796   8.482  1.0930 -0.9338  0.2221
 9169SOL     OW39139   3.815   1.598   5.636  0.1593 -0.0291 -0.0367
 9169SOL    HW139140   3.804   1.633   5.725 -0.4435  1.8217 -0.8491
 9169SOL    HW239141   3.721   1.587   5.626 -0.1297  1.1963  1.2802
 9170SOL     OW39142   2.408   4.599   2.572  0.0675 -0.2004 -0.8290
 9170SOL    HW139143   2.447   4.527   2.523  0.7243 -0.7731  0.5192
 9170SOL    HW239144   2.345   4.561   2.632 -0.7255  0.6813 -1.0978
 9171SOL     OW39145   3.496   3.397   6.259  0.1090  0.1135  0.0101
 9171SOL    HW139146   3.547   3.432   6.331 -0.2070  2.2943 -0.8418
 9171SOL    HW239147   3.414   3.445   6.273 -0.8447 -1.3418 -0.4676
 9172SOL     OW39148   3.087   4.599   8.773  0.1011  0.4797 -0.4173
 9172SOL    HW139149   3.108   4.588   8.680  4.8095  3.8547  0.2577
 9172SOL    HW239150   3.165   4.575   8.824 -0.1665  0.2732 -0.1006
 9173SOL     OW39151   4.675   0.980   2.104 -0.4619 -0.9121  0.2094
 9173SOL    HW139152   4.707   0.940   2.185  1.1375  3.3895  1.7284
 9173SOL    HW239153   4.647   0.910   2.046 -0.4792 -0.1717 -0.6907
 9174SOL     OW39154   1.000   2.981   0.549  0.0378 -0.4935 -0.2022
 9174SOL    HW139155   0.985   2.940   0.634 -1.1137 -0.0909 -0.2095
 9174SOL    HW239156   1.073   2.932   0.513 -0.0376 -0.6817 -0.0953
 9175SOL     OW39157   3.358   0.278  11.257 -0.0591  0.6462 -0.1123
 9175SOL    HW139158   3.416   0.296  11.183  1.4456  1.5550  1.2722
 9175SOL    HW239159   3.283   0.245  11.208  1.0583 -2.3430  0.2093
 9176SOL     OW39160   0.428   0.678   0.769 -0.2326  0.7013  0.4212
 9176SOL    HW139161   0.479   0.743   0.721  2.6547 -1.1325  1.0132
 9176SOL    HW239162   0.339   0.714   0.760  0.4772  2.5336  0.7213
 9177SOL     OW39163   3.873   3.653   4.580 -0.0993  0.4301 -0.2556
 9177SOL    HW139164   3.968   3.662   4.573 -0.0760 -0.3777 -1.0014
 9177SOL    HW239165   3.854   3.560   4.568 -0.0082  0.4720 -0.7293
 9178SOL     OW39166   1.782   2.436   2.887  0.5652 -0.2172 -0.4564
 9178SOL    HW139167   1.693   2.400   2.884  0.0659  0.6646  3.0937
 9178SOL    HW239168   1.770   2.522   2.846 -0.0690 -0.0971 -0.0252
 9179SOL     OW39169   4.199   2.478   5.755 -0.2852  0.0370 -0.0054
 9179SOL    HW139170   4.202   2.408   5.690  0.9438 -0.0077  0.1004
 9179SOL    HW239171   4.246   2.440   5.829  1.0216  1.0445 -0.3197
 9180SOL     OW39172   2.177   2.933   3.724  0.3318  0.9531 -0.3015
 9180SOL    HW139173   2.101   2.971   3.766  0.0555  1.9306 -1.6636
 9180SOL    HW239174   2.234   2.925   3.800 -1.4949  3.5380  1.3209
 9181SOL     OW39175   4.041   2.722   7.505 -0.0324 -0.0964 -0.5323
 9181SOL    HW139176   4.018   2.679   7.587  1.5305  0.0940  0.0108
 9181SOL    HW239177   3.993   2.804   7.519  0.4922  0.2511 -0.7713
 9182SOL     OW39178   4.057   0.938   8.618 -0.8071  0.8117  0.3151
 9182SOL    HW139179   3.996   0.880   8.572 -0.2080  0.0778  0.4356
 9182SOL    HW239180   3.991   0.996   8.655 -0.9290  0.3477  0.8277
 9183SOL     OW39181   0.441   2.241   4.445  0.2044 -0.4332  0.1767
 9183SOL    HW139182   0.374   2.266   4.509  0.5737  1.1445 -0.0526
 9183SOL    HW239183   0.418   2.297   4.371 -4.9841  0.4083  2.4639
 9184SOL     OW39184   0.923   3.086   7.460 -0.7288 -0.0199 -0.1608
 9184SOL    HW139185   0.894   3.083   7.369 -1.4359 -0.6949  0.0796
 9184SOL    HW239186   1.003   3.034   7.458 -0.8776 -0.0832 -4.4704
 9185SOL     OW39187   0.611   2.294   8.347 -0.2168 -0.0832 -0.1427
 9185SOL    HW139188   0.694   2.248   8.358 -0.7388 -0.5648  1.7289
 9185SOL    HW239189   0.575   2.278   8.434  0.4475 -2.9019 -0.4041
 9186SOL     OW39190   2.619   1.325   3.071 -0.0611 -0.7485 -0.0874
 9186SOL    HW139191   2.582   1.248   3.029 -2.3129  0.1274  0.3083
 9186SOL    HW239192   2.669   1.269   3.131 -1.8126 -1.2433  0.9178
 9187SOL     OW39193   0.082   0.811   6.858 -0.3126 -0.0504 -0.0991
 9187SOL    HW139194   0.018   0.740   6.857  0.4541 -0.7242 -1.2607
 9187SOL    HW239195   0.019   0.884   6.854  0.3550  0.5285 -0.0422
 9188SOL     OW39196   3.221   0.881   2.874 -0.0370  0.5158  0.6717
 9188SOL    HW139197   3.253   0.862   2.962  0.0932  2.3083  1.0212
 9188SOL    HW239198   3.157   0.811   2.865 -0.4728  0.9703  0.2560
 9189SOL     OW39199   1.494   1.927   3.514  0.9680 -0.1408 -0.1451
 9189SOL    HW139200   1.482   1.837   3.546  1.7872 -0.0088  0.5326
 9189SOL    HW239201   1.506   1.984   3.589 -1.4421  2.3773 -1.6784
 9190SOL     OW39202   4.497   0.937  15.317 -0.5622 -0.2675  0.1918
 9190SOL    HW139203   4.515   0.872  15.248 -0.7710  0.6240 -0.7122
 9190SOL    HW239204   4.402   0.940  15.316 -0.4466  3.3553  3.3633
 9191SOL     OW39205   1.384   0.452   1.009  0.4750 -0.1339 -0.5571
 9191SOL    HW139206   1.312   0.464   0.947  0.1262 -1.4199 -0.3945
 9191SOL    HW239207   1.432   0.374   0.981 -0.0798 -0.5758 -0.2813
 9192SOL     OW39208   2.744   4.685   5.573 -0.4499  0.4769 -0.6952
 9192SOL    HW139209   2.812   0.015   5.586  0.8350 -1.3217  1.8710
 9192SOL    HW239210   2.722   4.697   5.480 -3.0653  0.4782 -0.0726
 9193SOL     OW39211   2.235   1.872   7.543 -0.0413  0.2556 -0.3501
 9193SOL    HW139212   2.239   1.918   7.459 -0.7934 -1.1070 -1.1384
 9193SOL    HW239213   2.327   1.847   7.543 -0.1510 -0.1333  0.7204
 9194SOL     OW39214   3.849   0.284   8.084 -0.6810  0.3980  0.0863
 9194SOL    HW139215   3.799   0.204   8.101 -0.3824 -0.1410 -1.5646
 9194SOL    HW239216   3.791   0.334   8.027  1.6545  3.3060  0.2704
 9195SOL     OW39217   2.258   0.180   9.682  0.8174 -0.2515  0.3220
 9195SOL    HW139218   2.335   0.163   9.737  0.5965  0.7106  0.9234
 9195SOL    HW239219   2.298   0.255   9.638  2.2928 -1.7786 -0.9453
 9196SOL     OW39220   2.180   3.655   5.097  0.4065  0.2584  0.5113
 9196SOL    HW139221   2.133   3.594   5.040  0.9131 -1.0322  1.4720
 9196SOL    HW239222   2.267   3.633   5.064 -1.0158 -0.5159 -2.6742
 9197SOL     OW39223   2.107   1.898   8.739 -0.3904  0.6680 -0.0930
 9197SOL    HW139224   2.196   1.931   8.757  0.4119 -1.1225 -0.7846
 9197SOL    HW239225   2.081   1.884   8.829 -2.0705 -2.8580 -1.1457
 9198SOL     OW39226   1.653   4.256  12.974  0.9521  0.0015  0.3291
 9198SOL    HW139227   1.655   4.168  13.010  0.6302  0.6003  1.8260
 9198SOL    HW239228   1.738   4.252  12.931 -0.3511  0.3196 -2.2560
 9199SOL     OW39229   0.107   1.258   0.013 -0.1438 -0.0933  0.8427
 9199SOL    HW139230   0.040   1.230   0.075 -2.1286  1.0960 -0.7479
 9199SOL    HW239231   0.086   1.194  17.689 -0.7100  2.1130 -1.0581
 9200SOL     OW39232   0.738   4.097   5.089  0.0437 -0.0627 -0.3784
 9200SOL    HW139233   0.831   4.109   5.107  0.0911 -0.9661 -0.0354
 9200SOL    HW239234   0.743   4.055   5.003 -1.1608  2.6401 -1.7781
 9201SOL     OW39235   0.069   1.478   4.631 -0.2072 -0.1742 -0.3056
 9201SOL    HW139236   0.115   1.560   4.611  0.5715 -0.3133  0.8933
 9201SOL    HW239237   4.715   1.510   4.631  0.6408  2.2277 -0.0151
 9202SOL     OW39238   0.800   3.639   8.571  0.4747 -0.0571  0.1791
 9202SOL    HW139239   0.792   3.630   8.666  2.1908  0.4260  0.3628
 9202SOL    HW239240   0.710   3.611   8.553  0.5986  0.2003 -0.8410
 9203SOL     OW39241   0.893   0.706   9.766 -0.1175  0.3288 -0.4456
 9203SOL    HW139242   0.929   0.765   9.832 -3.7341  2.7874 -0.6531
 9203SOL    HW239243   0.959   0.638   9.774 -0.6317 -0.2799 -1.4111
 9204SOL     OW39244   4.568   4.199  10.829  0.6867  0.1529  0.7102
 9204SOL    HW139245   4.654   4.160  10.814  0.9146  0.8630  0.1612
 9204SOL    HW239246   4.525   4.139  10.890 -0.0465 -0.2641 -0.2172
 9205SOL     OW39247   2.600   0.370   6.426 -0.0261  0.1998  0.2118
 9205SOL    HW139248   2.530   0.305   6.435 -2.2568  2.5929 -0.1309
 9205SOL    HW239249   2.648   0.364   6.508  0.5507 -2.8332 -0.3298
 9206SOL     OW39250   4.168   4.675   4.225  0.2105 -0.1988 -0.2214
 9206SOL    HW139251   4.134   4.688   4.313 -1.4903 -1.5311 -0.6859
 9206SOL    HW239252   4.123   4.595   4.198  2.1236 -1.5200  0.4933
 9207SOL     OW39253   2.588   0.669   5.280 -0.0554  0.3175 -0.3176
 9207SOL    HW139254   2.577   0.706   5.368 -2.9746  2.0510 -1.4113
 9207SOL    HW239255   2.501   0.660   5.241 -0.6508  0.1174  1.0631
 9208SOL     OW39256   4.562   2.707   9.094  0.4198 -0.1906 -0.5215
 9208SOL    HW139257   4.581   2.790   9.052 -0.2767 -0.8493 -2.1400
 9208SOL    HW239258   4.608   2.721   9.176  0.0603  0.5211 -0.4412
 9209SOL     OW39259   3.088   1.226  13.919 -0.4394 -0.3496 -0.9009
 9209SOL    HW139260   3.005   1.211  13.965 -0.2587 -0.9628 -0.7765
 9209SOL    HW239261   3.073   1.162  13.850  1.4898 -1.5105 -0.2438
 9210SOL     OW39262   2.297   4.577   8.700 -0.0791 -0.4698 -0.3957
 9210SOL    HW139263   2.324   4.659   8.658  1.7800  0.7693  3.1836
 9210SOL    HW239264   2.377   4.531   8.725  0.0713  0.6606  1.1793
 9211SOL     OW39265   0.663   2.443   3.890 -0.7073  0.1279  0.0294
 9211SOL    HW139266   0.734   2.504   3.871 -2.2023  1.8758 -0.0659
 9211SOL    HW239267   0.674   2.376   3.823  0.2036 -1.0664  1.3722
 9212SOL     OW39268   3.926   3.922   6.855  0.4689  0.0009  0.3437
 9212SOL    HW139269   3.886   3.932   6.769 -1.4843  0.4300  1.2809
 9212SOL    HW239270   3.949   4.014   6.870  2.8162 -0.4091 -0.8537
 9213SOL     OW39271   4.732   1.568   8.346 -0.0658 -0.8747 -0.5143
 9213SOL    HW139272   0.080   1.527   8.323  0.5464  1.1009 -1.7420
 9213SOL    HW239273   0.017   1.661   8.350  0.3689 -0.9195 -1.6255
 9214SOL     OW39274   2.805   0.275  13.921 -0.1224 -0.1919  0.0092
 9214SOL    HW139275   2.710   0.267  13.915 -0.4009  1.8052  1.9454
 9214SOL    HW239276   2.824   0.233  14.005  2.4751  1.9073  0.4423
 9215SOL     OW39277   2.398   1.887   8.471 -0.6624  0.1004  0.0898
 9215SOL    HW139278   2.409   1.927   8.557 -1.0609  2.0232 -0.7430
 9215SOL    HW239279   2.483   1.856   8.440 -0.2752  2.4286 -1.1984
 9216SOL     OW39280   4.203   1.822  10.573  0.1903  0.0007 -0.6926
 9216SOL    HW139281   4.292   1.855  10.584  0.1136  0.0208 -0.1690
 9216SOL    HW239282   4.153   1.901  10.551 -1.3570 -1.2641 -1.6912
 9217SOL     OW39283   4.092   2.424  13.394  0.3434 -0.2703 -0.0738
 9217SOL    HW139284   4.114   2.342  13.438  3.0369 -1.0417 -2.8428
 9217SOL    HW239285   4.141   2.415  13.312 -1.3758  0.4125 -1.1922
 9218SOL     OW39286   1.324   3.823   2.124  0.4803 -0.2521  0.0339
 9218SOL    HW139287   1.300   3.843   2.215 -0.7629  3.7554 -1.2098
 9218SOL    HW239288   1.241   3.787   2.094 -0.1791  0.2965  1.2012
 9219SOL     OW39289   3.893   4.215  13.282 -0.7196  0.6933 -0.4737
 9219SOL    HW139290   3.803   4.185  13.297 -1.0847  1.5826 -0.8935
 9219SOL    HW239291   3.896   4.214  13.186 -0.4145 -0.2991 -0.4539
 9220SOL     OW39292   4.565   3.529   1.592  0.5254 -0.1017  0.7234
 9220SOL    HW139293   4.614   3.611   1.589 -0.0257  0.1711 -0.8692
 9220SOL    HW239294   4.481   3.568   1.618  1.1875  2.2188 -0.6350
 9221SOL     OW39295   1.562   3.737   5.861 -0.4190 -0.4014 -0.0858
 9221SOL    HW139296   1.541   3.720   5.769  0.6550  0.6540 -0.5337
 9221SOL    HW239297   1.480   3.704   5.896 -0.9722  1.7803  0.6885
 9222SOL     OW39298   1.418   3.757   3.583 -0.0015 -0.0187  0.1561
 9222SOL    HW139299   1.353   3.694   3.552  0.1248 -0.4323  0.7199
 9222SOL    HW239300   1.369   3.834   3.612  1.5686  1.0794 -0.1014
 9223SOL     OW39301   1.966   3.286   2.379  0.1221 -0.1888  0.1423
 9223SOL    HW139302   1.958   3.380   2.396  1.9478 -0.3719  1.9487
 9223SOL    HW239303   1.908   3.251   2.447 -3.2286  0.3931 -2.3876
 9224SOL     OW39304   1.024   1.368   1.293  0.4007  0.5033  0.2594
 9224SOL    HW139305   0.938   1.326   1.298 -0.0757  1.6213  1.2650
 9224SOL    HW239306   1.019   1.447   1.347  0.4699  0.3023  0.5618
 9225SOL     OW39307   1.899   1.295   5.945 -0.7514  0.3213 -0.8653
 9225SOL    HW139308   1.910   1.342   5.862  1.8553  2.5332  0.7462
 9225SOL    HW239309   1.806   1.297   5.971  0.2153  0.5665  2.5447
 9226SOL     OW39310   0.122   1.264  17.301  0.4390 -0.4431  0.0819
 9226SOL    HW139311   0.204   1.296  17.261  0.1855 -0.1815 -0.2313
 9226SOL    HW239312   0.056   1.279  17.233  2.0628  0.9634 -1.2032
 9227SOL     OW39313   0.293   1.559  15.303 -0.1317  0.1332  0.6007
 9227SOL    HW139314   0.228   1.594  15.364  0.1343  0.1818  0.8577
 9227SOL    HW239315   0.243   1.570  15.222  0.2593  3.5499  0.8424
 9228SOL     OW39316   3.781   1.923   6.678  0.6149 -0.0467  0.7647
 9228SOL    HW139317   3.781   1.912   6.583 -0.3507 -1.4505  0.9354
 9228SOL    HW239318   3.867   1.898   6.712  2.1319  1.8610 -1.6424
 9229SOL     OW39319   1.548   2.217  17.523 -0.1237  0.5476 -0.7595
 9229SOL    HW139320   1.492   2.264  17.460 -0.8209  0.3328 -0.3006
 9229SOL    HW239321   1.547   2.283  17.592 -1.0293  0.8998 -1.1069
 9230SOL     OW39322   0.192   4.141   6.794  0.4597 -0.2150  0.3005
 9230SOL    HW139323   0.149   4.056   6.805 -2.0273  1.2027  1.4692
 9230SOL    HW239324   0.130   4.210   6.815  1.0349 -0.1700  1.8349
 9231SOL     OW39325   3.579   3.326   5.617  0.9922  0.7859 -0.1673
 9231SOL    HW139326   3.542   3.405   5.576 -3.0741 -1.2969 -0.4847
 9231SOL    HW239327   3.498   3.276   5.627  0.2498  1.7530 -1.2077
 9232SOL     OW39328   1.724   3.306   6.443 -0.2051  0.3236 -0.3899
 9232SOL    HW139329   1.793   3.248   6.410  0.4082  0.0587  1.3629
 9232SOL    HW239330   1.647   3.250   6.439 -0.9673  1.3966 -0.5424
 9233SOL     OW39331   0.276   3.260   1.184 -0.1236  0.5748  0.6708
 9233SOL    HW139332   0.262   3.211   1.103 -0.0082 -0.4584  1.2762
 9233SOL    HW239333   0.340   3.208   1.233 -0.6951 -1.7251 -1.0461
 9234SOL     OW39334   3.499   0.589  11.882 -0.1564 -0.2438 -0.3327
 9234SOL    HW139335   3.592   0.569  11.890  0.0811  0.4287 -1.5052
 9234SOL    HW239336   3.466   0.506  11.918 -1.2622  0.4897  0.3287
 9235SOL     OW39337   3.442   3.710   8.342  0.7428 -0.1321 -0.1090
 9235SOL    HW139338   3.441   3.622   8.303  1.4893  0.4289 -1.3629
 9235SOL    HW239339   3.498   3.691   8.418  3.1057  0.2017 -1.7410
 9236SOL     OW39340   3.419   0.341   8.384 -0.1043  0.2225  0.0735
 9236SOL    HW139341   3.370   0.356   8.465 -0.1165 -0.4665  0.1932
 9236SOL    HW239342   3.408   0.431   8.353  0.3468  0.4905  0.6847
 9237SOL     OW39343   4.514   1.029  11.955 -0.3163  0.2884  0.6427
 9237SOL    HW139344   4.566   0.996  11.882 -1.8119 -2.7025  0.9266
 9237SOL    HW239345   4.535   0.964  12.022  0.6849  1.8484  1.8216
 9238SOL     OW39346   3.901   4.449  16.152  0.4553  0.5001 -0.5040
 9238SOL    HW139347   3.925   4.441  16.060  1.7655  0.3475 -0.1487
 9238SOL    HW239348   3.978   4.407  16.192  0.7013 -2.0825 -3.6372
 9239SOL     OW39349   3.926   0.640   8.958 -0.1061 -0.0689  0.3979
 9239SOL    HW139350   3.869   0.697   9.008  0.7176 -0.4406  1.7577
 9239SOL    HW239351   3.907   0.553   8.994  0.0800  0.1327  0.9860
 9240SOL     OW39352   2.326   2.289   7.984 -0.0643  0.3556  0.6076
 9240SOL    HW139353   2.280   2.255   8.061 -0.3118  2.9814  1.6057
 9240SOL    HW239354   2.311   2.383   7.988 -1.2300  0.1634  0.4882
 9241SOL     OW39355   4.315   2.161  12.120  0.0668  0.2839  0.3375
 9241SOL    HW139356   4.221   2.178  12.116 -0.6472 -3.3301  2.0038
 9241SOL    HW239357   4.321   2.088  12.180 -0.9243 -0.7754 -0.8616
 9242SOL     OW39358   2.126   1.134   9.442  0.0842 -0.2902  0.1384
 9242SOL    HW139359   2.073   1.213   9.436  1.5002  0.5638 -1.1571
 9242SOL    HW239360   2.171   1.141   9.358  2.4063 -1.4393  1.2558
 9243SOL     OW39361   3.272   3.103   8.981  0.1787  0.1244 -0.5779
 9243SOL    HW139362   3.193   3.119   8.929  0.0409  1.1291 -0.0739
 9243SOL    HW239363   3.299   3.193   8.999  2.1953 -0.1107 -2.4793
 9244SOL     OW39364   0.777   3.609  11.049 -0.8371  0.1895  0.3049
 9244SOL    HW139365   0.751   3.617  11.140  0.1079 -2.4653  0.8154
 9244SOL    HW239366   0.844   3.676  11.038 -0.4270 -0.2917 -0.2082
 9245SOL     OW39367   4.686   3.007  16.170  0.0001 -0.4309 -0.4412
 9245SOL    HW139368   4.690   2.979  16.261 -1.6519 -0.3800 -0.3643
 9245SOL    HW239369   4.640   3.091  16.173  0.2224 -0.3803  1.4964
 9246SOL     OW39370   1.839   1.779  11.896  0.3388  0.3406  0.4046
 9246SOL    HW139371   1.900   1.787  11.969 -0.5081  0.2115  1.1256
 9246SOL    HW239372   1.858   1.848  11.833  1.8374  1.3184  1.9337
 9247SOL     OW39373   2.654   1.819   8.735 -0.2574 -0.4095 -0.1026
 9247SOL    HW139374   2.744   1.787   8.727 -0.1227 -0.3326  1.1046
 9247SOL    HW239375   2.639   1.846   8.826  0.7458  1.1744 -0.4178
 9248SOL     OW39376   0.586   4.283   5.613  0.1597  0.1438  0.0559
 9248SOL    HW139377   0.504   4.299   5.567 -0.9708  0.5682  2.2459
 9248SOL    HW239378   0.624   4.217   5.554  0.5096  0.4430 -0.0499
 9249SOL     OW39379   2.147   2.923   4.609  0.0429  0.6837  0.6217
 9249SOL    HW139380   2.143   2.992   4.542 -1.7774  0.9995  1.0738
 9249SOL    HW239381   2.240   2.932   4.630  0.4153 -0.3282 -0.5805
 9250SOL     OW39382   1.379   4.217   3.991 -0.2429 -0.3182  0.4806
 9250SOL    HW139383   1.409   4.296   4.036  1.8146 -0.9273  0.1910
 9250SOL    HW239384   1.285   4.232   3.980 -0.3296  1.0515  3.0630
 9251SOL     OW39385   1.147   4.003   7.041 -0.1836  0.2393 -0.1526
 9251SOL    HW139386   1.121   4.034   6.954  1.2542 -1.1014 -1.0685
 9251SOL    HW239387   1.174   3.917   7.008 -1.6077 -0.0671 -0.5439
 9252SOL     OW39388   2.281   0.176   3.789 -0.8158  0.9700 -1.1519
 9252SOL    HW139389   2.237   0.091   3.781  1.1817 -0.3478  2.1229
 9252SOL    HW239390   2.211   0.235   3.760 -0.9063  1.9933  1.1203
 9253SOL     OW39391   3.494   0.009   3.591 -0.4233  0.7547  1.1620
 9253SOL    HW139392   3.498   4.658   3.552  0.4026  1.3430 -0.0883
 9253SOL    HW239393   3.513   4.724   3.682 -1.2041  2.0122  1.6250
 9254SOL     OW39394   0.706   1.095   6.389 -0.0434 -0.0777 -0.1968
 9254SOL    HW139395   0.610   1.096   6.398  0.0911 -2.5763  1.6035
 9254SOL    HW239396   0.715   1.156   6.316 -1.3549  2.7176  1.9345
 9255SOL     OW39397   2.010   4.269  16.397  0.2769 -0.3171  0.1365
 9255SOL    HW139398   2.004   4.178  16.369 -1.0854 -0.3497  0.5356
 9255SOL    HW239399   1.980   4.319  16.321 -1.9869  0.2808  1.4173
 9256SOL     OW39400   0.193   3.765   2.287  0.4232 -0.1034 -0.1793
 9256SOL    HW139401   0.205   3.811   2.204  0.6211  0.4137  0.1343
 9256SOL    HW239402   0.241   3.684   2.271 -0.0797 -0.3080 -0.6448
 9257SOL     OW39403   0.998   2.531  12.489 -0.0990 -0.1672 -0.1955
 9257SOL    HW139404   1.028   2.619  12.509  2.1306 -0.6629 -1.2606
 9257SOL    HW239405   1.005   2.523  12.394  0.2538 -1.1001 -0.0951
 9258SOL     OW39406   4.429   3.351  16.509 -0.0651  0.0201 -0.5548
 9258SOL    HW139407   4.513   3.396  16.497 -0.8513  1.5702 -0.2231
 9258SOL    HW239408   4.390   3.404  16.579  0.7103  0.2469 -0.2908
 9259SOL     OW39409   1.172   1.320   1.884  0.1917  0.0644  0.1777
 9259SOL    HW139410   1.247   1.366   1.847 -0.1185  0.9708  0.6840
 9259SOL    HW239411   1.123   1.292   1.806  1.1962 -2.5085  0.4875
 9260SOL     OW39412   0.088   1.101  15.077 -0.2660 -0.2666 -0.2996
 9260SOL    HW139413   0.007   1.118  15.126 -1.3393  0.5371 -2.3493
 9260SOL    HW239414   0.084   1.171  15.012  2.7753  0.9946  0.8973
 9261SOL     OW39415   1.289   0.363   1.407 -0.0574 -0.0015  0.0849
 9261SOL    HW139416   1.302   0.326   1.494 -0.1251  0.1518  0.1602
 9261SOL    HW239417   1.228   0.435   1.421  0.9464  0.6663  1.1185
 9262SOL     OW39418   0.510   0.503   3.477 -0.3852  0.1732 -0.6574
 9262SOL    HW139419   0.553   0.567   3.535 -1.1118 -0.8035  0.9442
 9262SOL    HW239420   0.434   0.550   3.444  0.6868  2.9227  0.7342
 9263SOL     OW39421   3.012   3.147   1.466  0.1895 -0.1572  0.3112
 9263SOL    HW139422   2.963   3.180   1.542  0.3380  2.9399 -0.9203
 9263SOL    HW239423   3.099   3.187   1.471 -0.9870  2.5145 -0.4458
 9264SOL     OW39424   0.761   1.111   7.745 -0.1529  0.3687 -0.0528
 9264SOL    HW139425   0.811   1.045   7.696  2.0093  1.6548  0.3835
 9264SOL    HW239426   0.670   1.093   7.721 -0.3235  2.4987 -1.0174
 9265SOL     OW39427   3.112   4.719   0.569 -0.3378  0.5116 -0.0742
 9265SOL    HW139428   3.163   0.061   0.548 -0.9949  0.0648 -3.2791
 9265SOL    HW239429   3.096   4.736   0.662  2.2654 -0.6768  0.5982
 9266SOL     OW39430   4.184   4.252   4.123  0.2915  0.0920  0.4346
 9266SOL    HW139431   4.127   4.328   4.110 -2.6546 -2.0990  0.4078
 9266SOL    HW239432   4.252   4.291   4.178  1.8117 -2.3508  0.2662
 9267SOL     OW39433   2.551   4.337   2.575 -0.6611  0.0709  0.2627
 9267SOL    HW139434   2.627   4.281   2.557 -1.0554 -0.7138  1.0628
 9267SOL    HW239435   2.602   4.418   2.574  2.8310 -2.1394  0.2510
 9268SOL     OW39436   4.445   2.625   8.694  0.0847 -0.3927 -0.5747
 9268SOL    HW139437   4.496   2.706   8.703  2.0948 -1.8747  1.4132
 9268SOL    HW239438   4.385   2.627   8.768 -0.0803  0.7643 -0.7370
 9269SOL     OW39439   1.366   2.167   9.514 -0.2259 -0.4902 -0.4753
 9269SOL    HW139440   1.364   2.260   9.539  2.2142 -0.1387 -1.6681
 9269SOL    HW239441   1.276   2.147   9.485 -0.2029 -0.2016 -0.7507
 9270SOL     OW39442   1.598   0.295  17.385 -0.3014 -0.3329  0.2480
 9270SOL    HW139443   1.650   0.366  17.424  2.4419 -2.0801 -0.2090
 9270SOL    HW239444   1.578   0.333  17.299  1.3287 -1.2364 -0.5383
 9271SOL     OW39445   1.603   3.277   4.035 -0.3291  0.0795 -0.1230
 9271SOL    HW139446   1.508   3.261   4.037 -0.1918 -0.7181 -0.0881
 9271SOL    HW239447   1.600   3.371   4.052  1.0833 -0.2274  1.7388
 9272SOL     OW39448   3.422   1.371   5.650  0.5809  0.6820 -0.2721
 9272SOL    HW139449   3.374   1.429   5.709  1.0337  0.4368  0.3343
 9272SOL    HW239450   3.350   1.336   5.597  0.5248  2.0509 -1.1069
 9273SOL     OW39451   2.008   0.798  17.251  0.5102  0.3017  0.1395
 9273SOL    HW139452   2.064   0.853  17.306  1.3628 -1.0584  0.6340
 9273SOL    HW239453   1.918   0.825  17.271  0.9487  0.7373  1.5191
 9274SOL     OW39454   0.695   0.277  12.408  0.6199  0.2160 -0.0543
 9274SOL    HW139455   0.752   0.266  12.484  0.0583  0.3015  0.3874
 9274SOL    HW239456   0.639   0.354  12.423  0.4303  0.0758 -0.0340
 9275SOL     OW39457   4.091   1.237  17.013  0.2662  0.1352 -0.5944
 9275SOL    HW139458   4.177   1.207  17.042 -0.0655 -0.2262  0.0244
 9275SOL    HW239459   4.031   1.163  17.026  1.8854 -1.0127  0.2521
 9276SOL     OW39460   1.372   0.985   3.838  0.1591  0.3361  0.3844
 9276SOL    HW139461   1.299   0.927   3.858 -0.2751  0.5430 -0.6517
 9276SOL    HW239462   1.442   0.933   3.878 -0.8590 -0.9703  0.4548
 9277SOL     OW39463   2.312   3.836   3.012  0.2079  0.0360 -0.2959
 9277SOL    HW139464   2.295   3.804   2.923  0.1717  1.5196 -0.8269
 9277SOL    HW239465   2.351   3.760   3.055 -0.7744  0.9015  2.0988
 9278SOL     OW39466   2.453   2.480   6.149 -0.6300  0.2288  0.7229
 9278SOL    HW139467   2.476   2.442   6.064 -0.1883  0.3015  0.8101
 9278SOL    HW239468   2.531   2.532   6.167  0.0748 -0.7603  0.5807
 9279SOL     OW39469   1.112   1.900   5.445  0.0260  0.0109 -0.5968
 9279SOL    HW139470   1.075   1.812   5.448  2.7263 -1.0106  2.2813
 9279SOL    HW239471   1.134   1.912   5.537 -0.8998 -0.3530 -0.3281
 9280SOL     OW39472   4.413   2.402   5.426  0.4044 -0.0039  0.2114
 9280SOL    HW139473   4.474   2.439   5.490  0.2544  0.3933  0.1251
 9280SOL    HW239474   4.345   2.368   5.485 -2.4458  1.5400 -2.1845
 9281SOL     OW39475   2.330   4.471   9.213 -0.0321 -0.4465 -0.1681
 9281SOL    HW139476   2.395   4.518   9.264  0.1842 -0.4693 -0.4173
 9281SOL    HW239477   2.373   4.459   9.128  0.4401  0.7405 -0.1004
 9282SOL     OW39478   1.833   3.805   8.337 -0.3145  0.4093  0.0035
 9282SOL    HW139479   1.784   3.722   8.339 -0.2519  0.3163 -2.0067
 9282SOL    HW239480   1.819   3.828   8.245  1.8966  0.5192 -0.3118
 9283SOL     OW39481   0.789   4.015   8.019  0.0662 -0.4414  0.3281
 9283SOL    HW139482   0.778   3.923   7.993 -0.0256 -0.3903  0.1847
 9283SOL    HW239483   0.871   4.041   7.978  0.6308 -0.5109  1.4194
 9284SOL     OW39484   3.166   0.162  17.168 -0.0315  0.6510  0.0813
 9284SOL    HW139485   3.080   0.155  17.127 -0.4999 -0.2163  1.2101
 9284SOL    HW239486   3.198   0.244  17.131 -0.2114  1.1885  1.1204
 9285SOL     OW39487   1.775   1.184   7.399 -0.0945 -0.4054 -0.2880
 9285SOL    HW139488   1.729   1.263   7.371 -0.0293 -0.7284 -1.3137
 9285SOL    HW239489   1.722   1.160   7.475 -1.0686 -0.5350 -1.0040
 9286SOL     OW39490   2.139   1.955   4.570  0.4838  0.4605 -0.5843
 9286SOL    HW139491   2.121   1.876   4.518  0.1013 -0.0561  0.3276
 9286SOL    HW239492   2.055   2.000   4.572  1.4817  2.1936  1.8311
 9287SOL     OW39493   2.994   3.475   4.772  0.0682 -0.0605  0.1858
 9287SOL    HW139494   3.034   3.502   4.855 -0.1136 -1.1440  0.6327
 9287SOL    HW239495   3.016   3.547   4.713 -2.3482 -0.6854 -1.4770
 9288SOL     OW39496   2.199   0.071   6.113  0.6232 -0.3069 -0.0767
 9288SOL    HW139497   2.143   0.094   6.039 -1.0038  0.1380  1.2862
 9288SOL    HW239498   2.286   0.082   6.076  0.6228 -0.3568 -0.0922
 9289SOL     OW39499   1.081   4.628  14.843 -0.3111  0.1855  0.0657
 9289SOL    HW139500   1.049   4.718  14.855  0.0286  0.5209 -1.5584
 9289SOL    HW239501   1.088   4.634  14.748 -3.1048  1.2262 -0.0661
 9290SOL     OW39502   1.316   4.468   9.244  0.4762 -0.3875  0.2747
 9290SOL    HW139503   1.264   4.448   9.166  0.9818 -1.2023  0.1492
 9290SOL    HW239504   1.330   4.383   9.285  1.0847  0.4089  1.7250
 9291SOL     OW39505   2.619   2.115   3.045  0.2944 -0.0184  0.2389
 9291SOL    HW139506   2.586   2.031   3.012 -1.1509  0.8224 -0.4509
 9291SOL    HW239507   2.712   2.093   3.042  0.3719  0.1282  1.6352
 9292SOL     OW39508   2.445   0.841   3.762 -0.2708 -0.2053 -0.5281
 9292SOL    HW139509   2.503   0.915   3.781  1.0734 -1.3014 -0.4525
 9292SOL    HW239510   2.505   0.768   3.754  0.9092  0.8270 -1.0950
 9293SOL     OW39511   0.852   4.176   4.326  0.6952 -0.0742  0.0728
 9293SOL    HW139512   0.818   4.159   4.238  3.1431  0.4303 -0.9802
 9293SOL    HW239513   0.773   4.164   4.379 -0.6094 -0.0352 -1.8725
 9294SOL     OW39514   4.321   1.865  10.906 -0.0566  0.1118 -0.0238
 9294SOL    HW139515   4.312   1.775  10.875  0.2637 -0.1621  0.6636
 9294SOL    HW239516   4.416   1.869  10.896  0.3686 -2.6155  2.6954
 9295SOL     OW39517   1.451   1.364   6.805 -0.5538  0.1683  0.2080
 9295SOL    HW139518   1.425   1.339   6.894 -1.4021 -3.3835 -1.0217
 9295SOL    HW239519   1.525   1.422   6.823  0.3302 -0.0795 -2.7649
 9296SOL     OW39520   2.128   3.223   4.235  0.2530  0.5429  0.6173
 9296SOL    HW139521   2.199   3.277   4.198 -1.2462  2.9864  1.3464
 9296SOL    HW239522   2.054   3.281   4.217  0.4021 -0.4813 -3.2349
 9297SOL     OW39523   2.272   3.530  17.602  0.4636  0.3247 -0.0045
 9297SOL    HW139524   2.203   3.553  17.663 -0.5732 -2.3354 -0.1905
 9297SOL    HW239525   2.219   3.493  17.531 -0.2048 -2.1216  1.7887
 9298SOL     OW39526   0.012   0.111   8.368  0.4536  0.7808 -0.5928
 9298SOL    HW139527   4.708   0.178   8.422 -0.9363 -0.9352  0.5087
 9298SOL    HW239528   0.068   0.164   8.312 -0.2909  0.1428 -1.9550
 9299SOL     OW39529   3.640   0.146   1.856  0.2582 -0.0313 -0.2749
 9299SOL    HW139530   3.698   0.073   1.875  2.0685  1.0134 -1.7525
 9299SOL    HW239531   3.620   0.132   1.764 -2.0471  2.7801 -0.2249
 9300SOL     OW39532   4.500   1.474   1.061  0.0976  0.1850  0.6033
 9300SOL    HW139533   4.455   1.410   1.007  0.5816  0.2973  0.0631
 9300SOL    HW239534   4.560   1.507   0.994 -3.1760  2.6567 -1.0746
 9301SOL     OW39535   0.031   2.123   3.799  0.0605  0.6200  0.3794
 9301SOL    HW139536   4.693   2.065   3.813  0.7576 -0.3518  0.0667
 9301SOL    HW239537   0.050   2.120   3.705  0.9526 -0.2613  0.5860
 9302SOL     OW39538   2.574   2.649   9.060  0.0984  0.6980 -0.3296
 9302SOL    HW139539   2.579   2.626   9.153 -1.2316  1.9098  0.0402
 9302SOL    HW239540   2.666   2.652   9.034  0.2030 -3.0439 -0.3289
 9303SOL     OW39541   4.289   4.492   6.649  0.0716 -0.1003 -0.1158
 9303SOL    HW139542   4.383   4.500   6.666  0.1788 -2.0896  0.2561
 9303SOL    HW239543   4.296   4.422   6.584  1.7923  1.4633 -1.6057
 9304SOL     OW39544   0.209   3.699   7.529  0.4094 -0.2639  0.1896
 9304SOL    HW139545   0.196   3.646   7.608  1.1799  1.4967  1.4884
 9304SOL    HW239546   0.304   3.696   7.536  0.5182  0.3990 -0.9750
 9305SOL     OW39547   0.519   3.083   9.516 -0.8588  0.2947  0.1349
 9305SOL    HW139548   0.506   2.992   9.491  1.7147 -0.0073 -0.0460
 9305SOL    HW239549   0.455   3.092   9.586 -0.8852 -0.5927  0.2206
 9306SOL     OW39550   3.966   1.775   6.101 -0.0689 -0.5994  0.7564
 9306SOL    HW139551   4.051   1.798   6.137 -1.0729  2.3402  1.2682
 9306SOL    HW239552   3.912   1.846   6.136 -0.1613  0.1285 -0.8277
 9307SOL     OW39553   2.947   4.644   4.256 -0.4922 -0.6983 -0.0786
 9307SOL    HW139554   2.863   4.614   4.291 -0.7552  0.7322  0.5131
 9307SOL    HW239555   2.954   4.608   4.168 -0.7138  0.9911 -0.7848
 9308SOL     OW39556   0.819   3.647   3.793 -0.5649 -1.0205  0.3553
 9308SOL    HW139557   0.902   3.696   3.787 -1.7817  1.1641  1.2675
 9308SOL    HW239558   0.768   3.704   3.851 -0.1304  0.2081 -0.4562
 9309SOL     OW39559   2.121   4.026   1.740  0.3921  0.4750 -0.0209
 9309SOL    HW139560   2.160   3.954   1.789  0.2146 -0.5193 -1.3179
 9309SOL    HW239561   2.064   4.060   1.808 -2.3977 -0.8365 -1.6756
 9310SOL     OW39562   0.228   2.504   7.337 -0.4290  0.1636 -0.1243
 9310SOL    HW139563   0.285   2.477   7.409 -1.7747 -1.2875  0.3996
 9310SOL    HW239564   0.218   2.597   7.355  0.2908  0.5187 -1.5533
 9311SOL     OW39565   0.491   0.719   2.307 -0.5074 -0.2984  0.3774
 9311SOL    HW139566   0.427   0.765   2.361  0.1567  2.3529 -1.0940
 9311SOL    HW239567   0.488   0.635   2.353  0.6352  1.0743  2.9807
 9312SOL     OW39568   2.055   2.968   5.358 -0.2241  0.0790  0.5041
 9312SOL    HW139569   2.113   2.894   5.338 -2.1802 -1.6081  1.1220
 9312SOL    HW239570   1.968   2.931   5.345  0.0425 -0.3338 -0.1275
 9313SOL     OW39571   4.240   1.507   4.926 -0.2144 -0.1371  0.1869
 9313SOL    HW139572   4.154   1.538   4.956 -0.5086 -1.4887  0.7388
 9313SOL    HW239573   4.209   1.438   4.867  1.0763  0.0569 -0.7015
 9314SOL     OW39574   1.038   0.326   6.928 -0.0026  0.4152 -0.3191
 9314SOL    HW139575   1.064   0.405   6.975 -0.0960  0.1985  0.1077
 9314SOL    HW239576   0.945   0.342   6.912 -0.3859  0.4908  1.9195
 9315SOL     OW39577   1.691   1.718   6.678 -0.1588 -0.0255 -0.0316
 9315SOL    HW139578   1.666   1.735   6.769  0.0107 -1.1565  0.2260
 9315SOL    HW239579   1.702   1.623   6.680  2.7962  0.3312  0.4423
 9316SOL     OW39580   3.958   4.425  16.756 -0.3461 -0.6018  0.2764
 9316SOL    HW139581   4.009   4.384  16.686 -2.4534 -1.8277 -0.5085
 9316SOL    HW239582   3.875   4.390  16.724 -0.7112 -0.2851  0.8820
 9317SOL     OW39583   4.366   1.781   9.692  0.1140 -0.0001 -0.1727
 9317SOL    HW139584   4.307   1.755   9.762  0.0214  1.0385  0.1453
 9317SOL    HW239585   4.423   1.838   9.745  0.3494  1.2404 -1.7726
 9318SOL     OW39586   4.307   4.430   6.096 -0.3236  0.2280  0.5363
 9318SOL    HW139587   4.346   4.373   6.030 -0.4853 -0.3744  0.9604
 9318SOL    HW239588   4.314   4.511   6.045 -1.5183 -0.1477 -0.2240
 9319SOL     OW39589   0.881   2.062   5.334 -0.6831 -0.4783  0.2070
 9319SOL    HW139590   0.943   1.991   5.348 -0.3771 -0.0395  1.0633
 9319SOL    HW239591   0.863   2.096   5.422  0.8491 -0.8829  0.6775
 9320SOL     OW39592   1.533   3.680   9.339  0.0492 -0.4665 -0.3996
 9320SOL    HW139593   1.551   3.765   9.378  1.2316  0.0723 -2.0913
 9320SOL    HW239594   1.566   3.690   9.249 -0.7022 -0.1514 -0.6358
 9321SOL     OW39595   3.998   4.192   6.285  0.6769 -0.2833 -0.2180
 9321SOL    HW139596   4.058   4.118   6.285  0.7582 -0.2152 -0.0245
 9321SOL    HW239597   3.935   4.158   6.221  0.3086  0.3882 -0.2088
 9322SOL     OW39598   0.593   1.606  16.221  0.3463 -0.2285 -0.2229
 9322SOL    HW139599   0.650   1.578  16.150  2.8995  1.0392  1.3027
 9322SOL    HW239600   0.542   1.679  16.185 -0.7422 -0.9395 -0.0910
 9323SOL     OW39601   4.598   2.692  17.605 -0.1080  0.1687 -0.4341
 9323SOL    HW139602   4.623   2.759  17.541  1.5099  1.0397  1.1075
 9323SOL    HW239603   4.633   2.735  17.683 -0.3306  0.0312 -0.2623
 9324SOL     OW39604   0.202   4.142   8.534 -0.7421  0.2966  0.2008
 9324SOL    HW139605   0.114   4.120   8.566 -0.2695  0.4622  1.6211
 9324SOL    HW239606   0.185   4.139   8.440 -1.5898 -0.0023  0.3617
 9325SOL     OW39607   0.626   1.551   6.392 -0.0947 -0.6754 -0.4763
 9325SOL    HW139608   0.633   1.647   6.388 -2.0851 -0.5254 -0.1599
 9325SOL    HW239609   0.703   1.523   6.342 -1.1176 -3.5909 -0.3699
 9326SOL     OW39610   3.715   3.966   3.879 -0.4797 -0.0208  0.3854
 9326SOL    HW139611   3.785   4.000   3.824  0.0979 -2.4939 -0.4310
 9326SOL    HW239612   3.767   3.936   3.954 -0.1044  0.9731  0.5146
 9327SOL     OW39613   4.736   4.024   5.090 -0.2311 -0.1071  0.3688
 9327SOL    HW139614   4.678   4.001   5.018 -0.4796 -0.6349  0.7391
 9327SOL    HW239615   4.673   3.995   5.156  0.3220 -0.6068  0.6760
 9328SOL     OW39616   4.404   3.838  10.037  0.6732 -0.0866 -0.2333
 9328SOL    HW139617   4.443   3.884   9.962 -0.0294 -0.8149 -1.0448
 9328SOL    HW239618   4.393   3.751   9.999 -2.4378  0.3436 -0.2730
 9329SOL     OW39619   1.235   3.338  12.601  0.2358  0.1058 -0.5267
 9329SOL    HW139620   1.294   3.389  12.655 -1.4412 -1.2030  2.6010
 9329SOL    HW239621   1.278   3.252  12.605 -0.5645 -0.2493  0.5976
 9330SOL     OW39622   4.339   3.338   4.445 -0.0375 -0.4745  0.0772
 9330SOL    HW139623   4.337   3.242   4.447  0.7040 -0.5142 -1.0372
 9330SOL    HW239624   4.336   3.361   4.538  1.6394 -2.3492  0.5881
 9331SOL     OW39625   1.468   1.453  11.135 -0.2098 -0.0455 -0.4954
 9331SOL    HW139626   1.396   1.499  11.092 -0.3656 -0.7896 -1.0104
 9331SOL    HW239627   1.418   1.422  11.211 -0.2273 -1.5163 -1.1216
 9332SOL     OW39628   2.911   1.553  11.524 -0.2161  0.4264  0.3420
 9332SOL    HW139629   2.919   1.459  11.509 -1.5235  0.3073  0.3923
 9332SOL    HW239630   2.898   1.555  11.619  0.2280 -0.4148  0.4214
 9333SOL     OW39631   1.118   2.614   8.803  0.1053  0.2030 -0.0415
 9333SOL    HW139632   1.138   2.705   8.781  2.2111  0.4984  3.0696
 9333SOL    HW239633   1.103   2.616   8.898  1.9694  0.5289  0.2359
 9334SOL     OW39634   1.928   0.591  13.290 -0.1724  0.1132  0.2065
 9334SOL    HW139635   1.983   0.604  13.214  1.0705  1.0809  1.2647
 9334SOL    HW239636   1.966   0.650  13.355  1.9347  0.6594 -1.5762
 9335SOL     OW39637   0.874   0.320   6.003 -0.7941  0.1887  0.1978
 9335SOL    HW139638   0.934   0.381   5.960  0.1331 -1.1305 -0.3842
 9335SOL    HW239639   0.863   0.254   5.935  1.8025 -0.1911  0.1285
 9336SOL     OW39640   2.569   2.701   6.307 -0.2195  0.4719 -0.3046
 9336SOL    HW139641   2.485   2.728   6.269 -0.9952  0.0510  1.0944
 9336SOL    HW239642   2.624   2.774   6.278  0.2523  0.4627  0.5740
 9337SOL     OW39643   0.114   1.350   2.815  0.6026 -0.8643  0.1471
 9337SOL    HW139644   0.048   1.326   2.750 -0.1818  4.0797 -0.9316
 9337SOL    HW239645   0.082   1.293   2.885 -1.9068 -2.2136 -2.1049
 9338SOL     OW39646   1.173   0.298   9.375  0.5481 -0.1450  0.6368
 9338SOL    HW139647   1.251   0.292   9.320  0.6377  0.0598  0.7412
 9338SOL    HW239648   1.190   0.228   9.439  0.0142 -1.5891 -0.7875
 9339SOL     OW39649   4.241   2.044   8.753  0.1295 -0.0558  0.7336
 9339SOL    HW139650   4.166   2.071   8.700  0.4595  1.9733  1.3113
 9339SOL    HW239651   4.208   1.962   8.790 -0.0295  0.2219  1.2031
 9340SOL     OW39652   2.235   1.212   8.114  0.0725  0.6611 -0.3728
 9340SOL    HW139653   2.209   1.277   8.049 -0.7197  2.4702  1.7621
 9340SOL    HW239654   2.166   1.195   8.178  0.8470  0.2148  0.3548
 9341SOL     OW39655   2.497   0.982   3.153 -0.4977  0.0341 -0.2562
 9341SOL    HW139656   2.509   0.893   3.120 -0.5851 -0.4286  0.9575
 9341SOL    HW239657   2.432   0.951   3.216  1.4040 -1.9860  0.6769
 9342SOL     OW39658   3.494   0.081   7.126  0.2967  0.4861  0.7143
 9342SOL    HW139659   3.506   4.731   7.089 -0.9248  0.6018  0.0426
 9342SOL    HW239660   3.546   0.136   7.066 -2.1179  0.0231 -1.7933
 9343SOL     OW39661   0.291   3.729   1.936 -0.7180 -0.1993 -0.7089
 9343SOL    HW139662   0.347   3.735   1.858  0.2746  2.1101  0.1851
 9343SOL    HW239663   0.229   3.660   1.912  0.4066 -1.0572 -1.1931
 9344SOL     OW39664   3.844   3.372   0.306 -0.2000 -0.1552  0.5631
 9344SOL    HW139665   3.921   3.366   0.249  0.3024  0.0144  1.2282
 9344SOL    HW239666   3.786   3.423   0.250  1.5033  1.8159  0.5950
 9345SOL     OW39667   0.783   2.806   7.970 -0.0739  0.2038 -1.0544
 9345SOL    HW139668   0.717   2.737   7.965 -0.1907  0.2239  0.2106
 9345SOL    HW239669   0.746   2.876   8.023  0.8054 -1.3714  1.6725
 9346SOL     OW39670   1.278   2.115  16.212  0.0395 -0.6374 -0.5028
 9346SOL    HW139671   1.221   2.062  16.156  0.6220 -1.4634 -0.2982
 9346SOL    HW239672   1.331   2.160  16.146  0.0215 -0.2314 -0.2365
 9347SOL     OW39673   1.630   2.182   2.825 -0.1729  0.5884 -0.0306
 9347SOL    HW139674   1.723   2.181   2.848  0.1936  0.8986 -1.4462
 9347SOL    HW239675   1.636   2.218   2.736 -2.2353 -1.0023 -0.8265
 9348SOL     OW39676   1.362   4.238   1.421 -0.2611  0.1359  0.0634
 9348SOL    HW139677   1.328   4.258   1.334  2.4026 -2.4671 -1.5835
 9348SOL    HW239678   1.298   4.170   1.443  0.0122 -0.5443 -1.2532
 9349SOL     OW39679   3.295   2.071   4.171 -0.2379  0.0474 -0.7977
 9349SOL    HW139680   3.377   2.057   4.219 -1.3475 -0.8707  0.8324
 9349SOL    HW239681   3.227   2.033   4.227 -2.2050  1.4216 -2.2591
 9350SOL     OW39682   4.112   3.698   6.910 -0.2520 -0.3672  0.0755
 9350SOL    HW139683   4.059   3.776   6.896 -0.3559 -0.6291 -1.0026
 9350SOL    HW239684   4.198   3.732   6.884 -0.8771  0.8487 -0.3590
 9351SOL     OW39685   3.247   1.414   8.631  0.3726 -0.5403  0.2932
 9351SOL    HW139686   3.311   1.382   8.694 -0.5101  0.2422  1.5858
 9351SOL    HW239687   3.160   1.417   8.672 -0.3092  0.0190 -1.2069
 9352SOL     OW39688   1.702   0.255  16.209 -0.2004 -0.3450 -0.1318
 9352SOL    HW139689   1.640   0.208  16.264 -0.2852  1.3816  1.2647
 9352SOL    HW239690   1.748   0.182  16.166 -0.1844  1.1378 -2.6565
 9353SOL     OW39691   3.685   3.699   4.279 -0.1291 -0.0611  0.0719
 9353SOL    HW139692   3.747   3.734   4.214 -0.4277 -1.4487 -0.9554
 9353SOL    HW239693   3.601   3.717   4.238  1.1398  0.6250 -2.2105
 9354SOL     OW39694   1.044   1.210   7.405  0.8237  0.0678  0.1090
 9354SOL    HW139695   1.036   1.268   7.330  1.2235  0.4332  0.3496
 9354SOL    HW239696   1.120   1.161   7.374  0.1553 -1.2542  0.5421
 9355SOL     OW39697   2.497   4.053   3.751  0.1028 -0.0398 -0.1829
 9355SOL    HW139698   2.501   4.029   3.844 -2.2978  1.0996  0.2163
 9355SOL    HW239699   2.437   3.986   3.718  1.7322 -2.0654  0.9654
 9356SOL     OW39700   4.679   4.641   1.873 -0.1190  0.0651  0.0237
 9356SOL    HW139701   4.652   4.732   1.860 -1.4759 -0.2642  0.5383
 9356SOL    HW239702   4.670   4.634   1.968 -1.9166 -1.8283 -0.2561
 9357SOL     OW39703   3.110   1.721   5.783  0.0138 -0.4005 -0.0458
 9357SOL    HW139704   3.030   1.698   5.831  0.2457 -2.1048 -0.4808
 9357SOL    HW239705   3.156   1.638   5.790  1.5496  0.2642 -2.4694
 9358SOL     OW39706   3.413   4.353   3.299 -0.1300 -0.1979 -0.4670
 9358SOL    HW139707   3.415   4.272   3.248 -2.8590 -0.7764  0.3603
 9358SOL    HW239708   3.501   4.392   3.297  0.2483 -1.0047  0.3029
 9359SOL     OW39709   4.250   1.706   3.508  0.0156 -0.1387 -0.1536
 9359SOL    HW139710   4.339   1.692   3.476  0.9625  1.9318  1.5348
 9359SOL    HW239711   4.247   1.630   3.566 -0.6195  0.0287  0.0365
 9360SOL     OW39712   3.592   1.675  11.756  0.1329  0.7658  0.2080
 9360SOL    HW139713   3.677   1.647  11.721 -0.1825 -2.2203  1.8395
 9360SOL    HW239714   3.548   1.593  11.731  0.5461  0.4068  0.6658
 9361SOL     OW39715   3.032   0.960   3.222  0.6814 -0.2046 -0.0211
 9361SOL    HW139716   3.042   1.006   3.306  0.4384 -1.5000  0.7097
 9361SOL    HW239717   3.111   1.001   3.188  0.0375 -0.6964 -2.1153
 9362SOL     OW39718   1.223   3.306   9.320 -0.3141  0.4670 -0.2812
 9362SOL    HW139719   1.292   3.250   9.285 -0.7988  0.4166 -1.1648
 9362SOL    HW239720   1.170   3.323   9.242  0.4097 -1.4957 -1.2028
 9363SOL     OW39721   4.710   2.515   3.316  0.1995 -0.1430 -0.4421
 9363SOL    HW139722   4.722   2.479   3.228 -1.9455 -2.8298  0.3842
 9363SOL    HW239723   4.642   2.579   3.299  0.9800  0.9263  0.4600
 9364SOL     OW39724   0.150   4.263  11.194  0.3741 -0.1554 -0.1276
 9364SOL    HW139725   0.172   4.293  11.282  0.3481 -1.0061  0.1667
 9364SOL    HW239726   0.143   4.169  11.206 -1.5786 -0.0431 -0.4416
 9365SOL     OW39727   4.420   4.290  12.432 -0.3082  0.0107  0.1880
 9365SOL    HW139728   4.463   4.205  12.442  1.7671  0.8938 -1.3428
 9365SOL    HW239729   4.491   4.351  12.412 -0.1602  0.5378  2.2866
 9366SOL     OW39730   1.149   4.573  13.670 -0.2660  0.2800  0.1257
 9366SOL    HW139731   1.150   4.522  13.589  1.3141  0.5283 -0.0146
 9366SOL    HW239732   1.095   4.528  13.735 -2.2352  2.4023 -0.0413
 9367SOL     OW39733   1.491   2.005  11.229 -0.8178  0.3133  0.4462
 9367SOL    HW139734   1.555   2.033  11.293  0.1874  1.2198 -0.9524
 9367SOL    HW239735   1.514   1.912  11.228 -0.5208  0.3921 -0.1052
 9368SOL     OW39736   4.414   2.031  16.577 -0.5436 -0.0097 -0.0407
 9368SOL    HW139737   4.503   2.042  16.613 -1.1849  1.9997  0.9075
 9368SOL    HW239738   4.368   2.067  16.653 -1.4824 -1.1048 -0.0956
 9369SOL     OW39739   3.984   2.851   9.764  0.2025  0.1075 -0.2272
 9369SOL    HW139740   3.998   2.774   9.710  1.3836 -1.1885  1.9128
 9369SOL    HW239741   3.994   2.923   9.703  1.2580 -1.0609 -1.4243
 9370SOL     OW39742   0.923   3.137   2.816  0.5346  0.2083  0.0647
 9370SOL    HW139743   0.920   3.212   2.757  0.0803  0.9938  1.0822
 9370SOL    HW239744   1.014   3.127   2.842  0.4358  0.3441  0.4697
 9371SOL     OW39745   3.587   0.930  15.222 -0.2332 -0.0571 -0.2683
 9371SOL    HW139746   3.552   0.898  15.305 -0.6521  1.9047  0.2968
 9371SOL    HW239747   3.550   0.877  15.151 -3.0681 -1.3326  2.1821
 9372SOL     OW39748   2.249   1.640  17.643  0.5928 -0.4838  0.1034
 9372SOL    HW139749   2.294   1.558  17.623  1.0771 -0.4640  1.0981
 9372SOL    HW239750   2.316   1.703  17.619 -2.1675  1.6517 -1.9572
 9373SOL     OW39751   4.410   1.597  10.832  0.1221  0.1567  0.0425
 9373SOL    HW139752   4.459   1.520  10.859  0.0294  0.3145  0.6746
 9373SOL    HW239753   4.418   1.588  10.737  0.3486  0.0300  0.0754
 9374SOL     OW39754   3.138   3.852   5.117  0.7155 -0.0328  0.4410
 9374SOL    HW139755   3.058   3.877   5.071  0.0177 -0.5121  1.4128
 9374SOL    HW239756   3.163   3.767   5.081 -2.5824 -0.9323  0.2879
 9375SOL     OW39757   3.255   2.382   0.695  0.1682  0.3434  0.7330
 9375SOL    HW139758   3.301   2.422   0.768 -0.2958 -1.2462  1.8839
 9375SOL    HW239759   3.172   2.430   0.701 -0.3620 -0.6470  1.3122
 9376SOL     OW39760   3.051   3.931   5.361 -0.4818 -0.7675  0.0578
 9376SOL    HW139761   3.128   3.927   5.418 -0.7786 -0.0279  0.5093
 9376SOL    HW239762   3.080   3.884   5.282  0.4334 -0.3685  0.1472
 9377SOL     OW39763   2.161   4.108   4.246  0.0838  0.1759 -0.3612
 9377SOL    HW139764   2.111   4.066   4.316  0.5835  3.0543  1.7435
 9377SOL    HW239765   2.148   4.202   4.255 -0.9990  0.0525 -0.5851
 9378SOL     OW39766   1.336   1.306   8.042  0.1296 -0.9532  0.5305
 9378SOL    HW139767   1.278   1.230   8.040 -1.6872  0.4818 -1.1516
 9378SOL    HW239768   1.292   1.341   8.119 -0.8346  0.7838 -0.8163
 9379SOL     OW39769   0.047   4.457   4.838 -0.1001  0.5893  0.1142
 9379SOL    HW139770   4.721   4.449   4.766  1.0690 -4.4491 -0.3429
 9379SOL    HW239771   0.017   4.524   4.899 -0.0614  1.8038 -1.2220
 9380SOL     OW39772   4.351   0.740  13.610  0.2468 -0.2586 -0.0170
 9380SOL    HW139773   4.266   0.702  13.634 -0.4888  1.1453 -0.3854
 9380SOL    HW239774   4.322   0.815  13.558  1.8836  0.9105  0.7281
 9381SOL     OW39775   0.403   3.140   4.371  0.1210 -0.6558  0.1053
 9381SOL    HW139776   0.361   3.176   4.293 -1.0281  1.3600  1.6615
 9381SOL    HW239777   0.444   3.219   4.407 -2.5421  0.6155  0.3358
 9382SOL     OW39778   2.138   3.052   8.852 -0.4570  0.2303  0.0816
 9382SOL    HW139779   2.085   3.048   8.773 -0.8241  0.4208  0.3170
 9382SOL    HW239780   2.193   3.129   8.834  0.6244 -0.4318  0.6078
 9383SOL     OW39781   2.884   3.952   1.966 -0.4429 -0.1887  0.7630
 9383SOL    HW139782   2.870   4.013   1.893 -0.1656  0.5507  1.3225
 9383SOL    HW239783   2.861   4.019   2.031 -0.4348  0.4907  0.0622
 9384SOL     OW39784   0.852   2.154   9.117 -0.5851  0.0350 -0.3680
 9384SOL    HW139785   0.828   2.066   9.091 -1.0111  0.3918 -1.1581
 9384SOL    HW239786   0.941   2.140   9.150  0.1814 -2.0640 -3.3467
 9385SOL     OW39787   4.120   1.531  14.477  0.2518 -0.2484 -0.4364
 9385SOL    HW139788   4.131   1.625  14.489  1.0280 -0.4372  0.3181
 9385SOL    HW239789   4.202   1.510  14.432  0.6147  1.6660 -0.6616
 9386SOL     OW39790   1.744   2.439   6.547  0.2827 -0.0076  0.2096
 9386SOL    HW139791   1.690   2.479   6.615  0.3463  0.1996  0.1363
 9386SOL    HW239792   1.763   2.353   6.586  2.4926 -0.6428 -2.2717
 9387SOL     OW39793   2.560   1.999   4.836 -0.4187 -0.4883 -0.2277
 9387SOL    HW139794   2.550   2.094   4.847  0.6947 -0.2376 -1.4719
 9387SOL    HW239795   2.654   1.988   4.825 -0.3202  0.3496 -0.2075
 9388SOL     OW39796   2.418   2.279   8.953  0.0285  0.5884 -0.1181
 9388SOL    HW139797   2.415   2.327   8.870  0.9525 -0.8988 -1.0269
 9388SOL    HW239798   2.505   2.292   8.990  0.4818  0.0587 -0.9912
 9389SOL     OW39799   2.198   0.444   9.803  0.1165 -0.1393  0.2825
 9389SOL    HW139800   2.224   0.423   9.714 -2.8118 -0.5463 -0.4927
 9389SOL    HW239801   2.282   0.444   9.849 -0.2982 -0.8582  1.0381
 9390SOL     OW39802   3.820   0.014   5.557 -0.9196 -0.1376  0.3009
 9390SOL    HW139803   3.873   4.690   5.504 -0.6918  0.0386  0.3305
 9390SOL    HW239804   3.843   4.729   5.647 -1.0040 -0.3853  0.2631
 9391SOL     OW39805   4.695   4.331  14.658 -0.9376  0.2924  0.1518
 9391SOL    HW139806   4.659   4.420  14.659 -1.2527  0.1885 -1.2371
 9391SOL    HW239807   0.036   4.351  14.606 -0.2618  0.9746  1.4286
 9392SOL     OW39808   1.393   0.397  14.383  0.3288  0.1967 -0.8269
 9392SOL    HW139809   1.309   0.353  14.371  1.2903 -2.2664  1.3741
 9392SOL    HW239810   1.428   0.405  14.295 -3.0511  0.6063 -2.1390
 9393SOL     OW39811   3.714   0.052   9.309  0.0290 -0.3870  0.0061
 9393SOL    HW139812   3.699   0.128   9.253  0.2143  0.0347  0.5337
 9393SOL    HW239813   3.806   0.061   9.335 -0.0745  1.4534 -0.2791
 9394SOL     OW39814   3.648   3.621   7.964  0.5920 -0.1748  0.4432
 9394SOL    HW139815   3.657   3.615   7.869  0.8149  2.5846  0.3143
 9394SOL    HW239816   3.645   3.526   7.981 -2.4232 -0.4735 -1.8053
 9395SOL     OW39817   1.468   2.893  16.732 -0.1477 -0.3183  0.1541
 9395SOL    HW139818   1.532   2.840  16.684  0.3629  1.2699 -0.9372
 9395SOL    HW239819   1.414   2.927  16.660  2.0534  0.6944 -1.0299
 9396SOL     OW39820   0.489   0.678  10.236  0.4333  0.0488  0.2380
 9396SOL    HW139821   0.563   0.712  10.186 -0.3704  2.2533  0.5727
 9396SOL    HW239822   0.491   0.725  10.319  0.2676 -1.5637  1.1518
 9397SOL     OW39823   2.604   0.409   0.160 -0.0535 -0.1933 -0.7454
 9397SOL    HW139824   2.694   0.386   0.186 -0.3828  0.0208  0.6045
 9397SOL    HW239825   2.552   0.342   0.204  1.0975  0.8478  2.2357
 9398SOL     OW39826   3.055   1.511   2.048 -1.3712 -0.1032 -0.3968
 9398SOL    HW139827   3.066   1.561   1.967 -1.3486 -0.0721 -0.3748
 9398SOL    HW239828   2.974   1.462   2.036 -0.6551 -1.5919  0.8570
 9399SOL     OW39829   2.017   1.048   2.818 -0.1222 -0.3504 -0.7456
 9399SOL    HW139830   2.091   1.072   2.873 -1.2251 -0.0415  0.6187
 9399SOL    HW239831   2.033   0.955   2.803  1.5165 -0.1523 -0.1778
 9400SOL     OW39832   2.492   4.265  10.177  0.1189  0.3504 -0.7620
 9400SOL    HW139833   2.466   4.174  10.160  1.4475 -0.3231  0.7668
 9400SOL    HW239834   2.586   4.263  10.159  0.6321  1.3853  1.9368
 9401SOL     OW39835   0.733   0.736   5.109  0.2718 -0.6238 -0.5330
 9401SOL    HW139836   0.807   0.737   5.170  0.5554  2.7690 -0.9409
 9401SOL    HW239837   0.758   0.662   5.053 -0.3214 -0.8126 -0.5482
 9402SOL     OW39838   2.001   2.549   0.670  0.6270 -0.6501  0.2965
 9402SOL    HW139839   2.078   2.604   0.682  1.0483 -1.2104  0.1710
 9402SOL    HW239840   1.945   2.583   0.739  0.3312 -0.4245 -0.0525
 9403SOL     OW39841   3.227   3.892   8.336 -0.2181 -0.2662 -0.6752
 9403SOL    HW139842   3.145   3.843   8.345 -1.6468  1.7260 -2.7891
 9403SOL    HW239843   3.294   3.824   8.336  0.2522  0.1895  0.8779
 9404SOL     OW39844   2.028   1.692   2.980 -0.4678 -0.6608  0.4690
 9404SOL    HW139845   2.100   1.715   2.921 -0.4197 -2.7205 -0.2580
 9404SOL    HW239846   2.001   1.774   3.022  0.6630 -1.0171  1.9035
 9405SOL     OW39847   3.498   0.607   5.441  0.3234  0.6213  0.0742
 9405SOL    HW139848   3.591   0.630   5.433  0.4032  0.6150  1.0060
 9405SOL    HW239849   3.500   0.524   5.393  2.8413  0.6843  0.0696
 9406SOL     OW39850   4.024   3.653   8.804  0.0087 -0.2866 -0.4997
 9406SOL    HW139851   4.038   3.743   8.777  0.3486 -0.2219 -0.1162
 9406SOL    HW239852   3.933   3.646   8.778 -0.4745  0.3087  1.0132
 9407SOL     OW39853   1.247   0.631   1.196  0.1231  0.2032 -0.1210
 9407SOL    HW139854   1.170   0.574   1.196 -1.2426  2.0661  0.5361
 9407SOL    HW239855   1.303   0.580   1.138  1.6001  0.1660  1.3246
 9408SOL     OW39856   4.361   4.633  14.691  0.1069 -0.2607  0.5604
 9408SOL    HW139857   4.327   4.614  14.604  1.8597 -0.9885  0.0246
 9408SOL    HW239858   4.455   4.613  14.691  0.0009 -0.7267 -2.1714
 9409SOL     OW39859   0.113   4.649   3.247  0.3246  0.0182 -0.6088
 9409SOL    HW139860   0.145   4.604   3.169 -1.1381 -3.3056  0.7268
 9409SOL    HW239861   0.095   4.589   3.319 -1.5325  2.0534  0.6108
 9410SOL     OW39862   0.814   1.678   8.110 -0.1850 -0.1540  0.0924
 9410SOL    HW139863   0.808   1.593   8.155  1.0592 -1.5325 -2.3612
 9410SOL    HW239864   0.906   1.705   8.103  0.1533 -0.9403  1.4301
 9411SOL     OW39865   0.094   0.381  10.120  0.1157 -0.4981  0.1754
 9411SOL    HW139866   0.094   0.441  10.046  1.7125 -2.7585 -1.6342
 9411SOL    HW239867   0.153   0.424  10.183  0.2218  1.2878 -1.1572
 9412SOL     OW39868   1.014   2.506  15.587 -0.3563  0.1323  0.6741
 9412SOL    HW139869   0.987   2.537  15.674  1.4245  0.0425  1.2499
 9412SOL    HW239870   1.015   2.584  15.532 -2.3581  0.1523  0.6599
 9413SOL     OW39871   1.370   3.344   5.036  0.8320  0.1915 -0.3703
 9413SOL    HW139872   1.367   3.370   5.129 -1.4259  1.9726 -0.9248
 9413SOL    HW239873   1.280   3.355   5.004  0.3394  0.7782  1.1781
 9414SOL     OW39874   4.094   4.294  16.248  0.0405  0.3497  0.2788
 9414SOL    HW139875   4.143   4.267  16.170  0.4235  0.1445  0.5884
 9414SOL    HW239876   4.079   4.214  16.298  1.4089 -0.5403 -0.7295
 9415SOL     OW39877   4.118   2.155   6.541 -0.3456  0.3001  0.1296
 9415SOL    HW139878   4.174   2.185   6.613 -0.2188  1.6413 -0.5291
 9415SOL    HW239879   4.077   2.237   6.514  1.4863  0.7545 -1.3448
 9416SOL     OW39880   2.092   0.290   2.270 -0.1754  0.1842 -0.3197
 9416SOL    HW139881   2.095   0.379   2.306 -0.4134  0.4147 -0.8680
 9416SOL    HW239882   2.051   0.247   2.345  0.5359  0.6064  0.3190
 9417SOL     OW39883   1.668   3.618   3.614  0.1599  0.6687  0.1272
 9417SOL    HW139884   1.583   3.663   3.617 -1.1897 -1.7870 -0.9393
 9417SOL    HW239885   1.711   3.649   3.694  0.5788  1.4151 -0.3907
 9418SOL     OW39886   0.065   3.296   6.363 -0.0018 -0.6089 -0.1425
 9418SOL    HW139887   0.064   3.204   6.335  2.8849 -0.5793 -0.4232
 9418SOL    HW239888   0.135   3.289   6.429  0.6589  0.1773 -0.7564
 9419SOL     OW39889   1.411   2.063   8.259 -0.3321 -0.7169 -0.2914
 9419SOL    HW139890   1.376   2.132   8.315  0.5465 -1.9625  1.7747
 9419SOL    HW239891   1.472   2.015   8.315 -0.4601 -2.3626 -1.5505
 9420SOL     OW39892   4.091   3.381   7.459  0.3977 -0.9086 -0.3130
 9420SOL    HW139893   4.002   3.395   7.429  0.2585  0.6028  0.7852
 9420SOL    HW239894   4.137   3.465   7.452  2.5913 -2.2121 -1.3731
 9421SOL     OW39895   0.515   2.523   6.412 -0.0495 -0.1919  0.0640
 9421SOL    HW139896   0.528   2.430   6.427 -0.3607 -0.4634 -1.2841
 9421SOL    HW239897   0.419   2.520   6.420  0.0574  1.0454  1.8000
 9422SOL     OW39898   0.142   3.682   3.123 -0.3128 -0.0046 -0.0548
 9422SOL    HW139899   0.144   3.765   3.075 -0.2421  0.8784  1.4723
 9422SOL    HW239900   0.099   3.632   3.054  1.5444 -0.5200 -0.8500
 9423SOL     OW39901   2.374   2.922   3.515 -0.2379 -0.8682 -0.2574
 9423SOL    HW139902   2.339   2.843   3.475 -2.3649  0.0311 -0.1740
 9423SOL    HW239903   2.309   2.941   3.582 -1.0286 -0.1936 -1.2149
 9424SOL     OW39904   2.683   0.470  11.940 -0.3682  0.2547  0.0039
 9424SOL    HW139905   2.703   0.535  12.007  0.1809 -0.4831  0.5478
 9424SOL    HW239906   2.597   0.498  11.909 -0.1200  1.0553  0.0277
 9425SOL     OW39907   2.365   2.636  10.953  0.2805  0.0381  0.2731
 9425SOL    HW139908   2.418   2.678  11.021  3.0465 -1.6962 -0.7945
 9425SOL    HW239909   2.297   2.603  11.012  0.2150 -0.8733 -0.3086
 9426SOL     OW39910   1.812   0.268  10.017  0.4089 -0.4756 -0.5847
 9426SOL    HW139911   1.906   0.261  10.034  0.7347 -0.3994 -2.3087
 9426SOL    HW239912   1.817   0.296   9.925  0.6730 -1.0963 -0.7586
 9427SOL     OW39913   1.973   2.317   6.823 -0.1253 -0.0078 -0.3344
 9427SOL    HW139914   1.986   2.288   6.913  0.9997  0.3603 -0.3723
 9427SOL    HW239915   1.879   2.303   6.816 -0.0539 -0.5636 -0.2197
 9428SOL     OW39916   3.957   1.125   2.682  0.1818  0.3897  0.5210
 9428SOL    HW139917   3.971   1.203   2.736 -0.3241 -0.1169  1.3727
 9428SOL    HW239918   3.881   1.156   2.634 -0.7491  1.9204  3.0277
 9429SOL     OW39919   1.634   1.652   2.073  0.4205 -0.1656 -0.3978
 9429SOL    HW139920   1.666   1.653   2.164 -1.9198  0.6513  0.4131
 9429SOL    HW239921   1.614   1.559   2.082  0.1416  0.0090  0.8601
 9430SOL     OW39922   2.745   4.115   7.138 -0.2932 -0.1233  0.3400
 9430SOL    HW139923   2.781   4.047   7.081 -0.6821 -0.3001  0.3103
 9430SOL    HW239924   2.828   4.151   7.169 -0.1578 -1.9342  2.1155
 9431SOL     OW39925   3.322   1.357   3.000 -0.3559  0.6549 -0.5663
 9431SOL    HW139926   3.388   1.352   3.069 -2.3191 -0.3188  1.2157
 9431SOL    HW239927   3.349   1.283   2.946 -0.1861 -0.2641  0.7982
 9432SOL     OW39928   0.112   1.744   1.993  0.5096  0.4387  0.9345
 9432SOL    HW139929   0.116   1.766   2.086 -1.6384  0.1942  1.0851
 9432SOL    HW239930   0.128   1.649   1.994  1.5409  0.5914 -1.6843
 9433SOL     OW39931   4.327   2.177   0.985 -0.1394 -0.1699 -0.7218
 9433SOL    HW139932   4.247   2.136   0.952  0.0674 -0.3037 -1.0580
 9433SOL    HW239933   4.308   2.270   0.978  2.4953  0.4901  1.1826
 9434SOL     OW39934   4.236   1.910   5.578 -0.0383  0.2382 -0.2416
 9434SOL    HW139935   4.186   1.828   5.573 -2.0628  1.4148  1.1382
 9434SOL    HW239936   4.300   1.892   5.646 -1.5092 -0.6243  0.9147
 9435SOL     OW39937   1.612   4.504   7.779 -0.7246  0.0052 -0.1146
 9435SOL    HW139938   1.685   4.477   7.723 -2.2830 -1.9653 -1.1934
 9435SOL    HW239939   1.649   4.583   7.817 -2.1763 -0.3276  1.9966
 9436SOL     OW39940   1.208   4.680   9.373  0.0492  0.2945  0.0257
 9436SOL    HW139941   1.251   4.604   9.335 -0.5570  0.7858 -1.6153
 9436SOL    HW239942   1.119   4.684   9.338 -0.0396 -1.4144  0.0812
 9437SOL     OW39943   2.388   4.535  15.997 -0.3155  0.1127 -0.1524
 9437SOL    HW139944   2.463   4.592  16.015  0.3449 -0.6611 -0.4601
 9437SOL    HW239945   2.319   4.601  16.002  0.2424  0.7523 -0.8203
 9438SOL     OW39946   2.523   1.255  17.295  0.0973  0.6023 -0.8023
 9438SOL    HW139947   2.537   1.162  17.277  1.7451  1.2785 -2.9971
 9438SOL    HW239948   2.600   1.292  17.251  1.0899  0.5618  0.8826
 9439SOL     OW39949   3.091   2.116   2.265  0.1150  0.2338  0.1157
 9439SOL    HW139950   3.175   2.160   2.252  1.9401 -3.3051  0.0729
 9439SOL    HW239951   3.051   2.182   2.322  0.6801 -0.5300  1.4096
 9440SOL     OW39952   3.457   4.098   5.509 -0.9238 -0.3351 -0.1319
 9440SOL    HW139953   3.505   4.062   5.434 -0.6487 -0.8137  0.2750
 9440SOL    HW239954   3.420   4.180   5.475  1.1875  0.9780  0.7592
 9441SOL     OW39955   2.044   2.388  11.054 -0.1625 -0.5706 -0.1952
 9441SOL    HW139956   2.080   2.474  11.072 -0.1648 -0.7139  0.4873
 9441SOL    HW239957   2.043   2.334  11.133 -1.8061  0.4956  0.5034
 9442SOL     OW39958   0.348   0.770   9.990  0.0961  0.1935  0.2968
 9442SOL    HW139959   0.365   0.752  10.082 -1.3426  1.0301  0.7223
 9442SOL    HW239960   0.409   0.711   9.945  0.9782 -0.9306  3.0107
 9443SOL     OW39961   0.231   1.040  13.083  0.3016 -0.3879  0.2382
 9443SOL    HW139962   0.245   1.037  12.989  3.0837 -1.2268  0.6625
 9443SOL    HW239963   0.136   1.028  13.089 -0.0256  1.7776 -0.6259
 9444SOL     OW39964   2.047   3.746  15.449  0.4391  0.3253 -0.4834
 9444SOL    HW139965   2.128   3.713  15.410  1.1052  1.2888  0.0691
 9444SOL    HW239966   2.034   3.690  15.525  0.5512 -1.0860 -1.4906
 9445SOL     OW39967   1.571   3.960   6.810 -0.3759 -0.1381 -0.2823
 9445SOL    HW139968   1.581   3.972   6.905  2.0962 -0.2402 -0.5359
 9445SOL    HW239969   1.625   3.882   6.800  0.0311  0.3896 -2.2034
 9446SOL     OW39970   3.459   2.523   6.388 -0.0752 -0.4521  0.1256
 9446SOL    HW139971   3.515   2.585   6.342  1.0389 -1.7700 -0.2996
 9446SOL    HW239972   3.521   2.451   6.404 -1.0653 -1.0851  1.1288
 9447SOL     OW39973   4.654   1.806  11.842 -0.0202  0.0014  0.1216
 9447SOL    HW139974   4.638   1.777  11.752 -0.6374 -0.2905  0.3219
 9447SOL    HW239975   4.667   1.726  11.893  0.2925 -0.0309 -0.0138
 9448SOL     OW39976   0.341   2.191  13.669  0.4643 -0.9314 -0.1296
 9448SOL    HW139977   0.283   2.208  13.743  1.1033 -0.8345  0.3559
 9448SOL    HW239978   0.321   2.256  13.602 -1.6921 -0.4538  0.9871
 9449SOL     OW39979   0.786   0.103   3.414  0.3210 -0.2283  0.4461
 9449SOL    HW139980   0.715   0.116   3.476 -0.4435  1.0664 -0.6877
 9449SOL    HW239981   0.756   0.015   3.391 -0.0560 -0.7127  2.8437
 9450SOL     OW39982   3.590   2.413  16.319  0.5240 -0.0357  0.2612
 9450SOL    HW139983   3.631   2.339  16.275  0.6812  0.6925 -0.8038
 9450SOL    HW239984   3.617   2.388  16.407 -0.8614 -3.4060 -0.2745
 9451SOL     OW39985   2.558   3.106  17.124 -0.3305  0.3613  0.1849
 9451SOL    HW139986   2.638   3.078  17.168 -0.9964 -0.6252  0.7765
 9451SOL    HW239987   2.588   3.191  17.093 -1.7727  0.7805 -0.0898
 9452SOL     OW39988   3.461   1.763   9.375 -0.3984  0.3723 -0.5100
 9452SOL    HW139989   3.371   1.731   9.370 -0.3289  0.0050  0.6010
 9452SOL    HW239990   3.482   1.782   9.283 -0.1172 -0.2521 -0.5767
 9453SOL     OW39991   4.095   4.202   5.743 -0.3246 -0.1447  0.1124
 9453SOL    HW139992   4.162   4.142   5.777 -0.8624 -0.3807  0.7720
 9453SOL    HW239993   4.012   4.163   5.770 -1.9157  3.2762  0.0466
 9454SOL     OW39994   4.580   2.219  12.144  0.4662  0.0477  0.5022
 9454SOL    HW139995   4.621   2.166  12.076  0.1336  0.0823  0.2772
 9454SOL    HW239996   4.489   2.192  12.134  0.0494  1.6858 -0.1652
 9455SOL     OW39997   3.031   0.148   2.612  0.1805  0.0937 -0.1459
 9455SOL    HW139998   2.969   0.207   2.655  0.8987 -0.1648  1.2206
 9455SOL    HW239999   2.970   0.122   2.543  2.5032  0.8751 -2.4930
 9456SOL     OW40000   2.143   0.052  12.411 -0.0785 -0.4298  0.1828
 9456SOL    HW140001   2.231   0.090  12.409 -0.1912 -0.2239 -1.4277
 9456SOL    HW240002   2.089   0.128  12.388  0.5345  0.5862  2.1068
 9457SOL     OW40003   3.732   4.702  16.090 -0.9542 -0.6256 -1.1441
 9457SOL    HW140004   3.791   4.635  16.125 -0.0534  1.0896  0.5771
 9457SOL    HW240005   3.787   4.736  16.019  0.3374  0.9994  0.6428
 9458SOL     OW40006   2.417   4.381   6.310 -0.1666  0.3966  0.7981
 9458SOL    HW140007   2.375   4.460   6.343 -0.6307  0.6515 -0.4114
 9458SOL    HW240008   2.381   4.390   6.222 -0.8732 -3.7232  0.6681
 9459SOL     OW40009   0.585   1.751  11.288  0.2098  0.6398 -0.5807
 9459SOL    HW140010   0.565   1.664  11.253 -0.0188  0.5841 -0.3101
 9459SOL    HW240011   0.657   1.769  11.227  0.2901  1.4469 -0.2497
 9460SOL     OW40012   3.057   0.618   7.695 -0.2473  0.3008  0.0700
 9460SOL    HW140013   3.131   0.564   7.723  1.1066  1.0724 -2.0750
 9460SOL    HW240014   3.025   0.574   7.616  0.2015 -0.8552  0.5318
 9461SOL     OW40015   4.062   4.014   4.207 -0.6576  0.5008  0.0053
 9461SOL    HW140016   4.108   4.087   4.164 -1.7076  1.6648  0.8754
 9461SOL    HW240017   4.125   3.989   4.275 -2.3661  0.2973  1.5030
 9462SOL     OW40018   2.326   1.243   9.795 -0.3612  0.3271  0.4527
 9462SOL    HW140019   2.276   1.266   9.874 -0.8504  0.6588  0.0418
 9462SOL    HW240020   2.296   1.306   9.730 -2.1031 -1.3738 -0.4051
 9463SOL     OW40021   2.817   1.060  13.137  0.2043  0.0118 -0.4111
 9463SOL    HW140022   2.762   1.135  13.113 -2.6867 -2.1185 -0.4011
 9463SOL    HW240023   2.908   1.092  13.133 -0.1379  1.0603  0.1314
 9464SOL     OW40024   2.733   3.374  11.907 -0.5659 -0.1866 -0.4497
 9464SOL    HW140025   2.740   3.455  11.957 -0.4688 -1.4202  1.5389
 9464SOL    HW240026   2.753   3.308  11.973  2.0276  1.4057  0.3647
 9465SOL     OW40027   1.229   0.540   4.815 -0.3151 -0.3826  0.4862
 9465SOL    HW140028   1.167   0.603   4.852  0.0085  0.3724 -0.2531
 9465SOL    HW240029   1.274   0.503   4.891  0.2653  0.9165  0.7774
 9466SOL     OW40030   2.915   2.428   5.798 -0.5538  1.5003  0.1949
 9466SOL    HW140031   2.838   2.484   5.803 -1.9275 -0.1582 -2.3772
 9466SOL    HW240032   2.935   2.411   5.890  0.6089 -1.9900 -0.6843
 9467SOL     OW40033   1.886   3.452   0.120 -0.4573  0.2368  0.5221
 9467SOL    HW140034   1.916   3.373   0.164  1.6792  0.0462 -1.3075
 9467SOL    HW240035   1.875   3.510   0.196 -2.9334 -3.0415  2.6961
 9468SOL     OW40036   2.324   0.837  11.865 -0.5678 -0.2727  0.4514
 9468SOL    HW140037   2.308   0.877  11.950  0.2987  0.5719  0.2134
 9468SOL    HW240038   2.419   0.836  11.869 -0.4446 -1.2195 -2.7117
 9469SOL     OW40039   3.924   1.482   2.681 -0.2509  0.9005  0.1263
 9469SOL    HW140040   3.938   1.553   2.618  1.8991 -0.6372 -1.1189
 9469SOL    HW240041   3.998   1.500   2.739 -2.0985  2.9245  1.8717
 9470SOL     OW40042   2.734   2.892   3.468  0.3496 -1.0564 -0.3247
 9470SOL    HW140043   2.670   2.832   3.430 -0.0808 -1.0888  0.4591
 9470SOL    HW240044   2.777   2.845   3.539  0.8943 -0.8189 -0.4926
 9471SOL     OW40045   4.232   0.694   7.507 -0.1548 -0.8073 -0.4355
 9471SOL    HW140046   4.158   0.742   7.469 -0.2374 -0.3425  0.2910
 9471SOL    HW240047   4.184   0.646   7.575 -1.5072  3.0129  1.3294
 9472SOL     OW40048   2.867   1.430   6.475 -0.1016 -0.4228 -0.0272
 9472SOL    HW140049   2.822   1.474   6.547  2.6421 -0.2677  1.6001
 9472SOL    HW240050   2.917   1.358   6.513  1.2058  0.4800 -0.0081
 9473SOL     OW40051   2.482   2.329   3.180  0.7216  0.0155 -0.2001
 9473SOL    HW140052   2.483   2.407   3.123  4.7809  1.3603  1.6670
 9473SOL    HW240053   2.523   2.257   3.133  0.1928  0.0031 -0.6430
 9474SOL     OW40054   4.589   3.552  13.072 -0.1523  0.1956 -0.3794
 9474SOL    HW140055   4.659   3.616  13.062  0.7014 -0.4254  1.6081
 9474SOL    HW240056   4.546   3.574  12.989 -1.4846  0.9064  0.4849
 9475SOL     OW40057   0.434   2.613   5.104 -0.0959 -0.2702  0.3283
 9475SOL    HW140058   0.411   2.623   5.196 -2.1045 -0.5093 -0.1406
 9475SOL    HW240059   0.361   2.672   5.085  0.8875  0.4856 -1.1156
 9476SOL     OW40060   3.874   3.044   4.654  0.0040  0.5606  0.1970
 9476SOL    HW140061   3.929   3.080   4.584 -0.6001  0.1753 -0.4822
 9476SOL    HW240062   3.823   2.981   4.603  1.5716  0.3764 -1.1692
 9477SOL     OW40063   3.848   2.238  12.574  0.4638  0.4243 -0.1437
 9477SOL    HW140064   3.828   2.315  12.628 -2.0431  1.1219 -2.0559
 9477SOL    HW240065   3.866   2.172  12.641 -0.0412 -1.5740 -1.9448
 9478SOL     OW40066   1.076   3.328   5.098  0.4601 -0.1821 -0.0119
 9478SOL    HW140067   1.106   3.415   5.124 -1.4510  0.2785  0.6145
 9478SOL    HW240068   0.993   3.317   5.145  0.3016  2.4296  0.3639
 9479SOL     OW40069   1.211   1.546   1.053  0.2433  0.3464  0.2005
 9479SOL    HW140070   1.289   1.593   1.023  0.3352 -1.5795 -2.6336
 9479SOL    HW240071   1.167   1.621   1.093 -1.5126 -0.7106  0.2820
 9480SOL     OW40072   2.444   1.646   8.712  0.4724 -0.0574  0.2452
 9480SOL    HW140073   2.503   1.716   8.741  1.1215 -0.6607  0.3691
 9480SOL    HW240074   2.475   1.633   8.623 -1.1240 -0.1481 -0.2966
 9481SOL     OW40075   1.109   1.616  14.931 -0.1903  0.6877  0.0919
 9481SOL    HW140076   1.080   1.642  15.019 -1.1553  1.7656 -0.5522
 9481SOL    HW240077   1.035   1.558  14.912 -2.2814  2.5702  2.4002
 9482SOL     OW40078   0.370   2.197  12.601 -0.1326  1.0790  0.2436
 9482SOL    HW140079   0.335   2.281  12.629  0.9457  1.2501  1.0846
 9482SOL    HW240080   0.464   2.213  12.603  0.1493 -0.4561 -0.4555
 9483SOL     OW40081   4.481   3.023  11.778  0.0774 -0.2666  0.1086
 9483SOL    HW140082   4.533   3.099  11.804  0.5638 -0.1180 -1.2979
 9483SOL    HW240083   4.544   2.951  11.774 -2.2000 -2.3354  1.2542
 9484SOL     OW40084   3.978   2.649   2.246  0.7283 -0.1181 -0.5640
 9484SOL    HW140085   3.966   2.578   2.310 -0.1538  2.7292  2.4590
 9484SOL    HW240086   3.902   2.706   2.237 -0.1374 -1.1782  0.0426
 9485SOL     OW40087   3.740   0.706   6.198  0.5823 -0.1398  0.2633
 9485SOL    HW140088   3.764   0.616   6.216  0.8918 -0.4730 -1.8450
 9485SOL    HW240089   3.814   0.736   6.146  1.1654 -3.1458 -0.6169
 9486SOL     OW40090   0.044   4.384   3.729 -0.2110  0.0992  0.5224
 9486SOL    HW140091   4.690   4.353   3.736 -0.3961  0.0928 -1.9228
 9486SOL    HW240092   0.072   4.385   3.820 -0.4534  1.2313  0.5868
 9487SOL     OW40093   1.803   1.218   8.541 -0.1235  0.4216  0.0289
 9487SOL    HW140094   1.857   1.218   8.620  0.2194 -0.2005 -0.2056
 9487SOL    HW240095   1.792   1.313   8.544 -1.5002  0.3540 -3.3410
 9488SOL     OW40096   0.490   3.293   9.317 -0.4703  0.1312 -0.1145
 9488SOL    HW140097   0.489   3.384   9.346 -1.7608  0.2218 -0.4195
 9488SOL    HW240098   0.482   3.248   9.402 -0.8355 -1.1762 -0.8434
 9489SOL     OW40099   3.871   1.007  15.130  0.4934  0.2112 -0.6697
 9489SOL    HW140100   3.821   0.938  15.174  0.9570  0.6262  0.5239
 9489SOL    HW240101   3.797   1.061  15.103  0.6380  1.0859  0.6230
 9490SOL     OW40102   1.967   0.209   4.548 -0.0451  0.3953  0.0543
 9490SOL    HW140103   1.890   0.208   4.490 -0.2918 -0.3299  0.4008
 9490SOL    HW240104   1.960   0.134   4.606 -0.6389  0.2790 -0.1640
 9491SOL     OW40105   2.216   1.663   0.518 -0.3353  0.1620 -0.1006
 9491SOL    HW140106   2.205   1.568   0.513  1.2926 -0.0394  0.0553
 9491SOL    HW240107   2.125   1.691   0.531 -0.6272 -0.4861 -0.6985
 9492SOL     OW40108   0.890   4.529   3.823 -0.4395 -0.2937  0.2177
 9492SOL    HW140109   0.806   4.486   3.810 -1.7261  2.3166 -0.1743
 9492SOL    HW240110   0.949   4.484   3.761 -0.4977 -0.4549  0.2803
 9493SOL     OW40111   3.625   0.520   9.514 -0.1601 -0.8800  0.0060
 9493SOL    HW140112   3.635   0.440   9.565 -0.1049 -0.5807  0.4643
 9493SOL    HW240113   3.554   0.489   9.457 -1.0522 -0.3938  0.8477
 9494SOL     OW40114   1.137   2.614   5.755  0.0439 -0.7960  0.0573
 9494SOL    HW140115   1.127   2.557   5.679  0.1598 -2.2037  1.1053
 9494SOL    HW240116   1.047   2.605   5.788 -0.7497 -0.2980 -2.0013
 9495SOL     OW40117   3.587   2.669   2.721  0.5934 -0.4386 -0.1475
 9495SOL    HW140118   3.505   2.675   2.769  0.4403  1.2490 -0.5912
 9495SOL    HW240119   3.605   2.763   2.729  0.7266 -0.4272 -0.5735
 9496SOL     OW40120   0.951   3.324   2.640  0.3123  0.6028 -0.0839
 9496SOL    HW140121   0.940   3.299   2.548  0.9050 -1.4808  0.4295
 9496SOL    HW240122   1.016   3.394   2.634  1.5240 -0.5281 -0.1499
 9497SOL     OW40123   1.313   3.258   4.016  0.0927  0.3071 -0.4963
 9497SOL    HW140124   1.307   3.244   3.921 -0.2609 -1.9309 -0.1279
 9497SOL    HW240125   1.278   3.174   4.045  0.3576 -0.1469 -1.4980
 9498SOL     OW40126   1.185   1.920   2.357 -0.2506  0.1490 -0.2448
 9498SOL    HW140127   1.097   1.954   2.343 -0.1348 -0.2286 -1.9252
 9498SOL    HW240128   1.161   1.850   2.418 -0.5433  0.1675 -0.3408
 9499SOL     OW40129   3.703   0.014  12.245 -0.1744 -0.0242 -0.3645
 9499SOL    HW140130   3.656   0.041  12.166  2.4206 -1.8689 -2.5426
 9499SOL    HW240131   3.778   4.716  12.198 -2.3967 -1.2633 -2.9944
 9500SOL     OW40132   4.483   1.776   7.350  0.6798 -0.6877 -0.0931
 9500SOL    HW140133   4.521   1.806   7.433  1.0324 -0.0727 -0.4747
 9500SOL    HW240134   4.406   1.834   7.347  0.1549 -1.2480  2.6506
 9501SOL     OW40135   3.936   0.929   3.164  0.4323  0.0729  0.0819
 9501SOL    HW140136   4.006   0.881   3.208  0.0990  0.2382  0.7922
 9501SOL    HW240137   3.970   0.935   3.075  0.1037  2.3656  0.1109
 9502SOL     OW40138   1.764   3.496   2.178 -0.1053  0.2601 -0.3382
 9502SOL    HW140139   1.818   3.506   2.257  0.6534  0.0605 -0.8328
 9502SOL    HW240140   1.710   3.424   2.211  1.7319 -1.4914 -1.2147
 9503SOL     OW40141   1.113   0.107   9.139 -0.0320  0.1816 -0.6119
 9503SOL    HW140142   1.044   0.043   9.158 -1.1812  1.2660 -1.1675
 9503SOL    HW240143   1.088   0.183   9.191 -0.7914 -0.2492 -0.3348
 9504SOL     OW40144   0.477   2.391   0.424 -0.1474 -0.5494 -0.2933
 9504SOL    HW140145   0.486   2.309   0.473 -0.2291 -1.6165 -2.0966
 9504SOL    HW240146   0.430   2.354   0.350 -0.7107 -0.1678 -0.1357
 9505SOL     OW40147   2.506   1.195   8.075  0.4214  0.0525  0.4784
 9505SOL    HW140148   2.518   1.102   8.058 -1.0819  0.1928 -1.2654
 9505SOL    HW240149   2.411   1.205   8.080  0.2605 -0.6201 -1.5450
 9506SOL     OW40150   2.372   0.667   6.999 -0.0122 -0.3065  0.7567
 9506SOL    HW140151   2.380   0.688   7.092  0.2820 -0.7132  0.8242
 9506SOL    HW240152   2.443   0.715   6.958  0.2949 -0.4565  1.1196
 9507SOL     OW40153   2.317   1.926   0.611  0.3059 -0.3315 -0.1542
 9507SOL    HW140154   2.277   1.840   0.599 -0.8345  0.1465  0.2432
 9507SOL    HW240155   2.257   1.971   0.552 -1.6918 -0.1122  2.0681
 9508SOL     OW40156   3.085   2.260   4.741  0.5030 -0.7212  0.0726
 9508SOL    HW140157   3.086   2.352   4.716 -3.7930 -0.3646  1.3011
 9508SOL    HW240158   3.009   2.265   4.799 -0.0958 -0.3906 -0.7416
 9509SOL     OW40159   2.139   0.530   2.052  0.0777  0.2191  0.3842
 9509SOL    HW140160   2.192   0.463   2.096 -0.6143 -1.3189 -1.0933
 9509SOL    HW240161   2.105   0.475   1.980 -0.2641 -0.7726  1.2985
 9510SOL     OW40162   0.351   1.146  17.449  0.4639  0.0111 -0.2317
 9510SOL    HW140163   0.394   1.227  17.423 -1.3863  0.5545 -1.6840
 9510SOL    HW240164   0.262   1.179  17.437  0.8572  2.0680  2.7230
 9511SOL     OW40165   4.694   0.306   4.564 -0.5380 -0.1592 -0.9111
 9511SOL    HW140166   4.628   0.374   4.580  0.2175  0.8720 -2.2569
 9511SOL    HW240167   4.632   0.235   4.542 -2.5772  0.3004  3.3611
 9512SOL     OW40168   1.059   3.860  17.055  0.1390 -0.4685  0.3262
 9512SOL    HW140169   1.040   3.953  17.064  0.2936 -0.4693  0.6484
 9512SOL    HW240170   0.972   3.820  17.060 -0.4067  0.6045 -0.7476
 9513SOL     OW40171   4.577   3.009   6.526 -0.6489 -0.1412  0.3733
 9513SOL    HW140172   4.657   3.046   6.564 -1.2830  1.2137  0.3656
 9513SOL    HW240173   4.507   3.027   6.588 -1.9248  0.2140 -1.1747
 9514SOL     OW40174   4.033   3.935  15.518  0.3293 -0.2098 -0.1081
 9514SOL    HW140175   4.119   3.975  15.505 -0.3623  0.7010 -1.8367
 9514SOL    HW240176   3.993   3.959  15.435 -3.3954  3.1223  2.6795
 9515SOL     OW40177   3.286   1.784  10.797  0.2995  0.1831  0.1268
 9515SOL    HW140178   3.298   1.877  10.818 -2.6244  0.8593 -1.1893
 9515SOL    HW240179   3.259   1.750  10.883 -0.5875 -1.6408 -0.8923
 9516SOL     OW40180   4.546   0.844   7.253  0.5467  0.4752  0.6486
 9516SOL    HW140181   4.501   0.760   7.245  0.1381  0.7257  0.2925
 9516SOL    HW240182   4.578   0.858   7.163 -0.1966  0.8409  0.4410
 9517SOL     OW40183   4.176   0.078   8.773 -0.1490  0.0153 -0.0677
 9517SOL    HW140184   4.177   0.152   8.834  2.9976 -0.2306  0.1384
 9517SOL    HW240185   4.269   0.057   8.774  0.0812  1.0298 -0.5208
 9518SOL     OW40186   2.855   3.351   6.144  0.3286 -0.0244 -0.6602
 9518SOL    HW140187   2.855   3.447   6.145 -0.7602 -0.0292  0.1689
 9518SOL    HW240188   2.776   3.334   6.195 -0.6414 -2.1003 -2.9049
 9519SOL     OW40189   4.107   2.677   6.324 -0.1810  0.0903 -0.5604
 9519SOL    HW140190   4.170   2.630   6.379  2.3303  3.2229 -0.7375
 9519SOL    HW240191   4.072   2.743   6.383  1.1286  0.6763 -0.4254
 9520SOL     OW40192   3.452   0.984   9.715 -0.0056 -0.5832  0.1745
 9520SOL    HW140193   3.482   0.899   9.683  1.9210  0.5105 -0.8828
 9520SOL    HW240194   3.379   0.958   9.771 -1.6330  1.3121 -1.0876
 9521SOL     OW40195   1.421   2.415   9.598 -0.4688  0.6845 -0.1682
 9521SOL    HW140196   1.467   2.434   9.679  0.7026 -0.3743 -0.5800
 9521SOL    HW240197   1.483   2.447   9.532  1.1554 -4.8786 -1.2903
 9522SOL     OW40198   0.267   1.342  15.640 -0.1384 -0.1829 -0.2456
 9522SOL    HW140199   0.211   1.313  15.568 -0.8809  0.2974  0.1397
 9522SOL    HW240200   0.352   1.345  15.597 -0.2905 -1.5894 -0.6347
 9523SOL     OW40201   0.772   1.519   6.732  0.4119  0.7275  0.0368
 9523SOL    HW140202   0.710   1.460   6.690  2.1441  0.9759 -2.8486
 9523SOL    HW240203   0.717   1.597   6.745  0.1486  0.2481  1.8446
 9524SOL     OW40204   2.382   0.475   8.336  0.1135 -0.2559  0.0702
 9524SOL    HW140205   2.443   0.547   8.350  1.6492 -1.9214  1.8075
 9524SOL    HW240206   2.298   0.507   8.369 -0.1004 -0.4854 -0.2485
 9525SOL     OW40207   2.440   2.865   5.208  0.2392  0.2225 -0.1702
 9525SOL    HW140208   2.430   2.940   5.266  1.1100  1.0766 -1.1419
 9525SOL    HW240209   2.535   2.867   5.202  0.1956  3.0738  0.1739
 9526SOL     OW40210   3.717   2.934   2.740  0.3563  0.2287 -0.3834
 9526SOL    HW140211   3.669   2.999   2.792 -0.9934 -2.9562  2.2879
 9526SOL    HW240212   3.808   2.961   2.737  0.4327  0.1462  1.7476
 9527SOL     OW40213   0.555   2.179   4.690  0.5389  0.1919  0.4942
 9527SOL    HW140214   0.538   2.193   4.597  1.0186  1.4447  0.5942
 9527SOL    HW240215   0.486   2.113   4.703  1.2468 -1.1918 -2.9149
 9528SOL     OW40216   3.166   3.748   4.183 -0.1688 -0.2290 -0.4481
 9528SOL    HW140217   3.083   3.708   4.207 -0.4131  0.4608 -0.1421
 9528SOL    HW240218   3.190   3.792   4.264 -1.7475  0.7818 -0.5219
 9529SOL     OW40219   4.003   3.454   9.232  0.1592  0.4829  0.6173
 9529SOL    HW140220   3.949   3.531   9.220 -0.3983  0.0123  0.0937
 9529SOL    HW240221   4.006   3.421   9.142 -2.0908  0.4488  0.5624
 9530SOL     OW40222   0.604   2.848   9.282  0.3129  0.0549 -0.0018
 9530SOL    HW140223   0.602   2.924   9.224 -3.3121 -0.2914 -0.3180
 9530SOL    HW240224   0.512   2.831   9.301  0.4910 -0.6219  0.2559
 9531SOL     OW40225   1.457   1.835   6.486 -0.1837 -0.2758 -0.3010
 9531SOL    HW140226   1.551   1.835   6.500 -0.1131  0.9991 -0.7863
 9531SOL    HW240227   1.431   1.896   6.555  0.7049 -0.4143  0.1570
 9532SOL     OW40228   4.009   4.355   4.836  0.3491  0.1899  0.1555
 9532SOL    HW140229   3.991   4.311   4.919  2.9303 -0.0941  0.5600
 9532SOL    HW240230   3.926   4.363   4.790 -0.0243 -1.0397  0.6255
 9533SOL     OW40231   0.633   4.105   5.376  0.1607 -0.2898  0.5797
 9533SOL    HW140232   0.561   4.080   5.318 -1.5471  2.1931  1.6244
 9533SOL    HW240233   0.704   4.114   5.313 -1.2051  2.1106 -0.6286
 9534SOL     OW40234   3.074   3.705   3.695 -0.5577 -0.3250 -0.0686
 9534SOL    HW140235   3.092   3.768   3.764 -0.3373 -0.2755 -0.1712
 9534SOL    HW240236   3.092   3.754   3.614  0.7797  0.6217  0.8042
 9535SOL     OW40237   2.695   1.263   8.837 -0.2039  0.7636 -0.5831
 9535SOL    HW140238   2.767   1.295   8.892 -0.5797  1.1157 -0.2989
 9535SOL    HW240239   2.683   1.346   8.791  0.0618  1.2858  0.2984
 9536SOL     OW40240   4.204   3.642  15.552 -0.4733 -0.7033 -0.6530
 9536SOL    HW140241   4.196   3.666  15.460 -0.6163  4.0515  0.6238
 9536SOL    HW240242   4.120   3.597  15.567 -0.2854 -1.3026 -1.4487
 9537SOL     OW40243   3.630   1.148   7.226 -0.7620  0.4571 -0.0848
 9537SOL    HW140244   3.704   1.133   7.168  1.3061  0.2941  2.6170
 9537SOL    HW240245   3.582   1.069   7.199 -1.2955  0.6697  0.2207
 9538SOL     OW40246   2.828   2.649  14.626 -0.0278  0.0566  0.0787
 9538SOL    HW140247   2.917   2.681  14.613  0.6612 -2.5624 -1.6681
 9538SOL    HW240248   2.827   2.615  14.715  3.3061  0.5293  0.2858
 9539SOL     OW40249   1.753   2.175   8.497 -0.1699 -0.0480  0.4557
 9539SOL    HW140250   1.818   2.123   8.543 -1.7393 -2.7423 -0.3330
 9539SOL    HW240251   1.689   2.113   8.463  1.7571 -2.3070  0.9774
 9540SOL     OW40252   0.810   4.547   9.461 -0.7667 -0.0647 -0.3989
 9540SOL    HW140253   0.731   4.598   9.474 -0.2031  0.5367  0.6889
 9540SOL    HW240254   0.864   4.589   9.528 -1.2660  0.1930 -0.1638
 9541SOL     OW40255   2.677   3.599   4.904  0.3689 -0.1988  0.0933
 9541SOL    HW140256   2.716   3.665   4.846 -2.8110  0.8530 -0.8610
 9541SOL    HW240257   2.735   3.601   4.979  1.6457 -0.2688 -0.8984
 9542SOL     OW40258   2.431   1.426  13.274 -1.0825 -0.0220  0.2713
 9542SOL    HW140259   2.372   1.427  13.349 -2.3910  2.3516 -0.8097
 9542SOL    HW240260   2.497   1.366  13.310 -0.5736  0.7300  0.5856
 9543SOL     OW40261   0.873   1.545   6.989 -0.0594  0.4011 -0.6065
 9543SOL    HW140262   0.786   1.552   7.028 -0.4681  1.8196 -1.8229
 9543SOL    HW240263   0.847   1.523   6.900 -1.2142 -1.6825  0.2291
 9544SOL     OW40264   4.318   0.295   6.666 -0.0066 -0.0673 -0.7004
 9544SOL    HW140265   4.308   0.336   6.752  1.7657  0.8089 -0.9200
 9544SOL    HW240266   4.246   0.232   6.665  0.8742 -1.1006  0.8659
 9545SOL     OW40267   1.960   3.095   3.804 -0.5943 -0.2212 -0.1071
 9545SOL    HW140268   1.882   3.045   3.779  0.1021 -0.0424 -2.6226
 9545SOL    HW240269   1.935   3.109   3.896  0.1932 -1.9016  0.3607
 9546SOL     OW40270   3.529   2.401   5.299  0.0884  0.0261  0.4703
 9546SOL    HW140271   3.459   2.346   5.264  0.8625 -0.5361 -0.2042
 9546SOL    HW240272   3.602   2.342   5.280 -0.2351 -1.2361  3.3102
 9547SOL     OW40273   3.184   4.586  10.109 -0.1429  0.0089 -0.5882
 9547SOL    HW140274   3.143   4.671  10.125  1.8539  1.0332 -0.8706
 9547SOL    HW240275   3.272   4.599  10.145 -1.2844 -1.3881  2.7188
 9548SOL     OW40276   4.381   2.453   6.614 -0.1011 -0.0454 -0.2190
 9548SOL    HW140277   4.390   2.472   6.521  0.4938 -0.9139 -0.3369
 9548SOL    HW240278   4.393   2.542   6.646  1.8086 -0.2517 -0.3705
 9549SOL     OW40279   4.085   0.181  17.477 -0.2774  0.4429  0.5318
 9549SOL    HW140280   4.104   0.193  17.384  1.2281 -0.0899  0.7650
 9549SOL    HW240281   4.071   0.272  17.503 -2.4259  0.1434  0.4085
 9550SOL     OW40282   1.119   3.508   1.345 -0.0245 -0.1223 -0.2228
 9550SOL    HW140283   1.096   3.416   1.357 -1.9512  0.3185 -0.4605
 9550SOL    HW240284   1.198   3.521   1.397 -0.7807  1.3464  0.5638
 9551SOL     OW40285   1.605   3.529   1.564  0.3018 -0.1940  0.0211
 9551SOL    HW140286   1.610   3.625   1.562 -1.2906 -0.1814 -3.5456
 9551SOL    HW240287   1.691   3.509   1.527 -0.2084 -1.8778 -0.2235
 9552SOL     OW40288   0.623   0.481   7.083 -0.4805 -0.2483  0.4515
 9552SOL    HW140289   0.595   0.563   7.124  1.6030  0.1793  1.0220
 9552SOL    HW240290   0.540   0.433   7.081  0.3017 -1.5765 -0.0497
 9553SOL     OW40291   3.495   3.616  11.976  0.0964 -0.5831 -0.6196
 9553SOL    HW140292   3.574   3.635  12.026 -0.6107 -0.4095  0.4156
 9553SOL    HW240293   3.424   3.642  12.035  0.7964  2.0207 -0.9311
 9554SOL     OW40294   2.568   2.459   5.320 -0.6794 -0.2923 -0.2283
 9554SOL    HW140295   2.596   2.500   5.239  1.5469 -1.7648 -0.2187
 9554SOL    HW240296   2.479   2.427   5.300 -0.4927 -1.5068  0.8830
 9555SOL     OW40297   3.306   0.500   7.733  0.5861 -0.2530 -0.2205
 9555SOL    HW140298   3.357   0.568   7.779 -0.6057  1.3989 -1.3541
 9555SOL    HW240299   3.341   0.424   7.780  3.8465 -0.2932 -2.6932
 9556SOL     OW40300   2.423   3.557   5.024 -0.0029  0.3354  1.0021
 9556SOL    HW140301   2.506   3.589   4.989 -1.1705 -0.0777 -2.1868
 9556SOL    HW240302   2.416   3.463   5.006  2.1982  0.7254 -1.8718
 9557SOL     OW40303   2.383   0.325   5.249 -0.1349  0.2349 -0.8495
 9557SOL    HW140304   2.434   0.332   5.330  0.1209 -0.2227 -0.9705
 9557SOL    HW240305   2.326   0.252   5.274  2.2828 -0.9445  1.2947
 9558SOL     OW40306   2.240   3.122  17.116 -0.3456  0.0005  0.6431
 9558SOL    HW140307   2.310   3.137  17.180  0.6890 -0.4669 -0.3825
 9558SOL    HW240308   2.280   3.134  17.030 -1.1955  0.1727  0.2688
 9559SOL     OW40309   0.784   2.184   1.312 -0.2911 -0.2770 -0.0965
 9559SOL    HW140310   0.704   2.147   1.275  0.6686 -3.0913  0.6231
 9559SOL    HW240311   0.751   2.270   1.337  1.6123  0.7303 -1.0625
 9560SOL     OW40312   4.522   4.463  11.997  0.0489 -0.1418 -0.0818
 9560SOL    HW140313   4.457   4.405  12.037  2.5439 -2.3648  0.7363
 9560SOL    HW240314   4.472   4.545  11.997 -2.0759 -1.4260 -2.9774
 9561SOL     OW40315   2.103   0.272  14.596 -0.3060  0.2149 -0.5162
 9561SOL    HW140316   2.172   0.337  14.613 -1.8583  2.6748 -3.6908
 9561SOL    HW240317   2.148   0.210  14.539  1.5204 -0.3722  1.5277
 9562SOL     OW40318   3.653   2.725   3.863 -0.4464 -0.7123 -0.0374
 9562SOL    HW140319   3.670   2.723   3.957  0.2201 -1.4428 -0.1675
 9562SOL    HW240320   3.589   2.796   3.868  0.1113 -0.1700 -0.5053
 9563SOL     OW40321   3.172   0.308  16.471 -0.4526  0.1936  0.9823
 9563SOL    HW140322   3.115   0.364  16.418  1.0288  1.1135  0.3837
 9563SOL    HW240323   3.244   0.289  16.410 -0.7233 -2.0988  1.3707
 9564SOL     OW40324   3.165   2.050   5.497 -0.0367 -0.1370 -0.3375
 9564SOL    HW140325   3.110   2.116   5.540 -0.9157 -1.0514 -0.0680
 9564SOL    HW240326   3.108   2.000   5.438 -1.1553  0.6123  0.0952
 9565SOL     OW40327   2.775   3.730   6.887 -0.1751  0.2514 -0.1051
 9565SOL    HW140328   2.686   3.759   6.867 -0.1173  1.6375  1.6852
 9565SOL    HW240329   2.793   3.774   6.970 -0.2288 -0.4003  0.2555
 9566SOL     OW40330   0.238   1.173   8.225  0.1481 -0.0690  0.2435
 9566SOL    HW140331   0.260   1.204   8.137  2.7307 -0.1535  0.8427
 9566SOL    HW240332   0.232   1.081   8.199  3.0296  0.7020 -3.2200
 9567SOL     OW40333   2.950   1.764  12.510  0.0730 -0.7853 -0.1023
 9567SOL    HW140334   2.929   1.744  12.601 -0.0523 -0.5316 -0.0770
 9567SOL    HW240335   3.034   1.809  12.516 -0.7099  0.6905 -0.2005
 9568SOL     OW40336   3.578   2.104   6.133 -0.3823 -0.2895  0.4110
 9568SOL    HW140337   3.581   2.181   6.191  0.5528 -0.1389  0.1611
 9568SOL    HW240338   3.667   2.072   6.147  0.0858  1.1229  0.6218
 9569SOL     OW40339   3.299   0.537  10.696  0.4964  0.4375 -0.1550
 9569SOL    HW140340   3.366   0.474  10.724 -0.5459 -1.0360 -0.9601
 9569SOL    HW240341   3.245   0.548  10.774 -1.2353 -1.4829 -1.0834
 9570SOL     OW40342   2.554   3.817   3.292  0.1539  0.0657 -0.2395
 9570SOL    HW140343   2.603   3.774   3.223 -0.2199  1.0546 -1.1281
 9570SOL    HW240344   2.610   3.821   3.369  0.5960 -0.5333 -0.5292
 9571SOL     OW40345   2.913   2.031   4.283  0.3652  0.1826 -0.1199
 9571SOL    HW140346   2.844   1.993   4.338  0.3667  0.4228  0.0455
 9571SOL    HW240347   2.912   1.981   4.202 -0.4405 -0.1674  0.0961
   4.73655   4.73655  17.74470
