Membrane in water
40347
    1TMC1    C1    1   4.369   3.557  11.147 -0.5012 -0.0948 -0.8848
    1TMC1    C2    2   4.501   3.575  11.116 -0.4312 -0.0369 -0.2561
    1TMC1    C3    3   4.528   3.655  11.005  0.3696  0.1736  0.6714
    1TMC1    C4    4   4.267   3.619  11.080  0.0854  0.8917  0.9223
    1TMC1    C5    5   4.303   3.705  10.974  1.2398 -0.3208  0.7839
    1TMC1    C6    6   4.432   3.715  10.930 -0.1632  0.1475  0.4862
    1TMC1     C    7   4.330   3.483  11.260  0.6282  0.6571  0.3080
    1TMC1     O    8   4.225   3.515  11.311  0.6237 -0.2332  0.6857
    1TMC1     H    9   4.583   3.525  11.167 -0.0300  0.2384 -0.6312
    1TMC1    H1   10   4.163   3.599  11.102 -0.0160 -0.7843 -1.0794
    1TMC1    H2   11   4.459   3.764  10.836  0.3741  1.2926  1.2334
    1TMC1    C7   12   4.202   3.731  10.874  0.5302  0.1739 -0.5224
    1TMC1    C8   13   4.667   3.677  10.979 -0.0824  1.1244 -0.7257
    1TMC1    O1   14   4.222   3.719  10.755  0.5152  0.7407  0.1750
    1TMC1    O2   15   0.021   3.645  11.053  0.2290  0.5419  0.6543
    1TMC1    O3   16   4.081   3.747  10.936  0.3447  0.0656  0.5023
    1TMC1    H3   17   4.100   3.774  11.029 -1.8248 -1.8186  1.4917
    1TMC1    O5   18   4.675   3.687  10.843  1.0992 -0.0705  0.2596
    1TMC1    H5   19   0.032   3.699  10.821  1.1248  1.4256  1.1604
    2MPD2     C   20   4.408   3.123  11.611  0.7217 -0.5111  0.0866
    2MPD2    C1   21   4.316   3.220  11.603 -0.0771  0.6653 -0.1546
    2MPD2    C2   22   4.317   3.303  11.497 -0.0169  0.4798  0.4897
    2MPD2    C3   23   4.417   3.290  11.399  0.0154  0.1815  0.3153
    2MPD2    C4   24   4.512   3.190  11.404  0.3708 -0.2762  0.1593
    2MPD2    C5   25   4.504   3.110  11.514  0.4078 -0.7751 -0.4701
    2MPD2     H   26   4.236   3.375  11.489 -0.9357 -0.8042 -1.8906
    2MPD2    H1   27   4.595   3.192  11.334 -0.2940  2.1469 -0.5749
    2MPD2    H2   28   4.413   3.050  11.692  0.9041  3.3465  3.5557
    2MPD2    H3   29   4.569   3.023  11.520  3.3918  1.6982  2.9336
    2MPD2     N   30   4.427   3.388  11.293  0.4876 -0.5117 -0.2149
    2MPD2    H5   31   4.510   3.369  11.238  0.0449  0.0742 -1.0828
    2MPD2    N1   32   4.205   3.244  11.693 -0.1283 -0.6909  0.0397
    2MPD2    H7   33   4.145   3.323  11.668 -1.1855 -1.2808  0.7068
    3TMC1    C1   34   2.870   4.509  11.336  0.3557 -0.4356 -0.1110
    3TMC1    C2   35   2.828   4.398  11.282 -0.2163 -0.3385 -0.1381
    3TMC1    C3   36   2.837   4.397  11.141 -0.3949  1.0716  0.7364
    3TMC1    C4   37   2.904   4.627  11.270  0.0305  0.3858 -0.5374
    3TMC1    C5   38   2.917   4.621  11.134 -0.0333  0.1931 -0.0946
    3TMC1    C6   39   2.892   4.498  11.068  0.1530  0.0320 -0.1686
    3TMC1     C   40   2.901   4.505  11.477  0.1707  0.7415  0.5328
    3TMC1     O   41   2.862   4.410  11.541 -0.6938 -0.5677  0.5133
    3TMC1     H   42   2.791   4.313  11.338 -0.7201  0.7881  1.2421
    3TMC1    H1   43   2.921   4.723  11.318 -0.3799  0.3040 -0.2185
    3TMC1    H2   44   2.876   4.512  10.962  0.9207 -0.9180 -0.4127
    3TMC1    C7   45   3.013   4.714  11.089 -0.0859  0.1320 -0.2332
    3TMC1    C8   46   2.780   4.291  11.058 -0.4270  0.1767  0.1481
    3TMC1    O1   47   3.052   0.070  11.157 -0.5529  0.5768  0.4802
    3TMC1    O2   48   2.780   4.295  10.935 -0.0503  0.1352  0.2637
    3TMC1    O3   49   3.091   4.644  11.006 -0.2803 -0.5176  0.1997
    3TMC1    H3   50   3.065   4.556  10.974  1.0393 -0.9463  0.3101
    3TMC1    O5   51   2.766   4.180  11.127 -0.3718  0.1215  0.1447
    3TMC1    H5   52   2.800   4.187  11.219 -2.4775 -0.0744  0.9565
    4MPD2     C   53   3.093   0.002  11.894  0.3202  0.0711  0.0560
    4MPD2    C1   54   3.068   0.104  11.806  0.1813  0.2743  0.3152
    4MPD2    C2   55   3.015   0.061  11.683  0.4562 -0.6784  0.4082
    4MPD2    C3   56   2.997   4.663  11.647 -0.2130 -0.5826 -0.2797
    4MPD2    C4   57   3.016   4.571  11.745  0.3136 -0.1789 -0.5986
    4MPD2    C5   58   3.064   4.604  11.869  0.3578  0.3363 -0.2705
    4MPD2     H   59   2.973   0.137  11.619 -0.1316 -3.1983 -2.1931
    4MPD2    H1   60   2.997   4.465  11.734 -2.1960  0.0729  1.3451
    4MPD2    H2   61   3.127   0.034  11.992 -0.4581  0.6985  0.1175
    4MPD2    H3   62   3.086   4.533  11.948  0.1163  0.1904 -0.3339
    4MPD2     N   63   2.951   4.629  11.519  0.1176  0.2501  0.2687
    4MPD2    H5   64   2.964   4.704  11.452  2.4826 -2.3226 -2.1568
    4MPD2    N1   65   3.063   0.244  11.827  0.0373 -0.3559 -0.1076
    4MPD2    H7   66   3.017   0.299  11.754  1.8010  0.5037 -0.5693
    5TCq1    O1   67   3.487   1.182  12.353 -0.6466  0.0180  0.0424
    5TCq1    C1   68   3.569   1.173  12.463 -0.1407  0.1253 -0.6786
    5TCq1    O2   69   3.532   1.185  12.576 -0.2399  0.0586  0.0624
    5TCq1    C2   70   3.680   1.244  12.410 -0.4168 -0.2821  0.3520
    5TCq1    C3   71   3.728   1.338  12.499 -0.6273  0.1868 -0.2893
    5TCq1    C4   72   3.801   1.441  12.443  1.0950 -0.1882 -0.0330
    5TCq1    C5   73   3.831   1.443  12.307  0.3284  0.1683  0.2424
    5TCq1    C6   74   3.774   1.352  12.221  0.0426  0.6577  0.3032
    5TCq1    C7   75   3.699   1.241  12.279 -0.1105 -0.4555  0.0221
    5TCq1    C8   76   3.811   1.354  12.081 -0.2501 -0.1683 -0.1686
    5TCq1    O4   77   3.811   1.250  12.013 -0.8713 -0.0001  0.1377
    5TCq1    C9   78   3.853   1.546  12.525  0.8561 -0.2538 -0.0384
    5TCq1    O5   79   3.841   1.553  12.651  0.3965  0.2323 -0.1737
    5TCq1    O6   80   3.891   1.640  12.449 -0.3433  0.6141  0.4972
    5TCq1    H1   81   3.536   1.221  12.277 -0.3955  1.3575  0.9003
    5TCq1    H2   82   3.709   1.343  12.605  1.4864 -0.4874  0.1248
    5TCq1    H3   83   3.893   1.523  12.269  2.3010 -0.5178  2.0256
    5TCq1    H4   84   3.685   1.150  12.222  0.3906 -0.6357  0.1830
    6MPD2     C   85   3.857   1.661  11.886 -0.0429 -0.3646  0.0042
    6MPD2    C1   86   3.842   1.527  11.905  0.1450 -0.1025  0.2430
    6MPD2    C2   87   3.852   1.445  11.795 -0.1970  0.0442 -0.5201
    6MPD2    C3   88   3.879   1.499  11.674 -0.0819  1.1904  0.0237
    6MPD2    C4   89   3.875   1.640  11.650 -1.0199 -0.3820  0.8801
    6MPD2    C5   90   3.873   1.710  11.762  0.7961 -0.4104  0.0350
    6MPD2     H   91   3.850   1.337  11.807 -3.7574  0.3065  1.4762
    6MPD2    H1   92   3.869   1.689  11.554 -1.0879 -0.9465  0.5917
    6MPD2    H2   93   3.851   1.727  11.972  1.2634  1.5673 -1.3875
    6MPD2    H3   94   3.892   1.817  11.758 -3.4287  0.2486 -1.8327
    6MPD2     N   95   3.913   1.410  11.567 -0.0288  0.4852  1.1017
    6MPD2    H5   96   3.905   1.311  11.586  2.7614  0.1305  0.4983
    6MPD2    N1   97   3.826   1.483  12.041 -0.6251 -0.2801 -1.3159
    6MPD2    H7   98   3.815   1.554  12.113  0.7340 -1.5529  0.1546
    7TCq1    O1   99   1.288   0.249  12.938 -0.3354 -0.0749  0.8747
    7TCq1    C1  100   1.365   0.300  12.847 -0.5809 -0.8410 -0.1225
    7TCq1    O2  101   1.337   0.342  12.736  0.1214  0.4932 -0.3698
    7TCq1    C2  102   1.488   0.339  12.910  0.1329  0.8304  0.2727
    7TCq1    C3  103   1.507   0.475  12.931 -0.1026 -0.0436  0.0379
    7TCq1    C4  104   1.609   0.513  13.014 -0.1665  0.2608  0.4833
    7TCq1    C5  105   1.689   0.416  13.077 -0.5178  0.0066 -0.0102
    7TCq1    C6  106   1.671   0.283  13.050 -0.1676  0.0111  0.6258
    7TCq1    C7  107   1.567   0.243  12.973 -0.0859 -0.4819 -0.1261
    7TCq1    C8  108   1.731   0.180  13.128 -0.5241  0.3949  0.3751
    7TCq1    O4  109   1.690   0.064  13.127 -0.1737 -0.1455  0.5697
    7TCq1    C9  110   1.616   0.653  13.062 -0.0302 -0.4955  0.2129
    7TCq1    O5  111   1.521   0.729  13.028  0.4098  0.1284 -0.0735
    7TCq1    O6  112   1.717   0.686  13.129 -0.6023  0.0796  0.3028
    7TCq1    H1  113   1.328   0.242  13.027  0.6386 -3.3605  0.1690
    7TCq1    H2  114   1.436   0.551  12.899  1.6517  2.1263  1.3405
    7TCq1    H3  115   1.756   0.447  13.155  0.2630 -1.1217 -0.2261
    7TCq1    H4  116   1.544   0.143  12.939  3.2245 -0.9433 -0.9931
    8MPD2     C  117   2.096   0.046  13.473 -0.0936  0.4256  0.9206
    8MPD2    C1  118   1.982   4.718  13.432  0.0573  0.3647  0.7292
    8MPD2    C2  119   1.898   0.036  13.335  0.7186 -0.2504 -0.1191
    8MPD2    C3  120   1.917   0.159  13.284 -0.4207  0.0732 -0.3895
    8MPD2    C4  121   2.030   0.227  13.330  0.0408 -0.2388 -0.2394
    8MPD2    C5  122   2.110   0.167  13.423 -0.0415 -0.4303  0.4270
    8MPD2     H  123   1.810   4.718  13.302  0.2109 -0.0042  0.8127
    8MPD2    H1  124   2.055   0.325  13.290 -0.7566 -0.5312 -1.4792
    8MPD2    H2  125   2.166   0.022  13.552  0.8226 -1.6291 -0.5086
    8MPD2    H3  126   2.203   0.218  13.444  1.0932 -1.3792 -2.2553
    8MPD2     N  127   1.838   0.227  13.191  0.2792 -0.3978 -0.1918
    8MPD2    H5  128   1.869   0.317  13.157  0.6542 -0.2160  0.6446
    8MPD2    N1  129   1.956   4.597  13.503  0.2883 -0.2040  0.3613
    8MPD2    H7  130   2.022   4.561  13.571  1.1534 -1.6824 -1.2509
    9TMC1    C1  131   4.052   4.565  10.929  0.2046  0.2348  0.2523
    9TMC1    C2  132   4.101   4.558  10.801 -0.0884  0.5624  0.0383
    9TMC1    C3  133   4.029   4.476  10.718  0.8060  0.2309 -0.2076
    9TMC1    C4  134   3.952   4.485  10.966  0.3805 -0.0090  0.0078
    9TMC1    C5  135   3.875   4.421  10.877 -0.7727  0.1573 -0.0255
    9TMC1    C6  136   3.905   4.417  10.744 -0.2126  0.0112 -0.1773
    9TMC1     C  137   4.149   4.606  11.024  0.0156 -0.7826  0.0271
    9TMC1     O  138   4.247   4.661  10.971  0.0755  0.4824  0.9039
    9TMC1     H  139   4.187   4.613  10.765  0.4769 -0.4483 -0.1456
    9TMC1    H1  140   3.922   4.476  11.070 -0.9936 -1.1697 -0.4916
    9TMC1    H2  141   3.847   4.361  10.672 -1.9100  0.4489  0.8287
    9TMC1    C7  142   3.742   4.384  10.920  0.0987 -0.2795 -0.0898
    9TMC1    C8  143   4.084   4.467  10.585  0.0447  0.3793 -0.1570
    9TMC1    O1  144   3.708   4.346  11.030 -0.1750 -0.0382  0.1955
    9TMC1    O2  145   4.014   4.427  10.493 -0.1132  0.0431  0.2001
    9TMC1    O3  146   3.660   4.393  10.808  0.0962  0.3101  0.3139
    9TMC1    H3  147   3.683   4.467  10.748  0.2733  0.0903  0.1107
    9TMC1    O5  148   4.222   4.457  10.591  0.0439  0.5281 -0.4376
    9TMC1    H5  149   4.256   4.454  10.683  0.2746  1.1356 -0.4966
   10MPD2     C  150   4.262   4.733  11.270 -0.0447 -0.2165 -0.4460
   10MPD2    C1  151   4.170   4.636  11.270 -0.2012 -0.2865 -0.3236
   10MPD2    C2  152   4.110   4.589  11.388 -0.0154 -0.3876  0.4278
   10MPD2    C3  153   4.139   4.641  11.513  0.4975  0.4962  0.5272
   10MPD2    C4  154   4.241   4.729  11.510 -0.3730 -0.2531  0.4948
   10MPD2    C5  155   4.286   0.048  11.397  0.0171 -0.1106 -0.5738
   10MPD2     H  156   4.021   4.531  11.367  0.4958 -0.5628 -1.2374
   10MPD2    H1  157   4.282   0.025  11.604 -1.2332 -0.8229  1.0818
   10MPD2    H2  158   4.306   0.047  11.185  1.2927  0.5455  0.7138
   10MPD2    H3  159   4.346   0.138  11.407 -0.1311 -0.0580 -0.1665
   10MPD2     N  160   4.072   4.598  11.630  0.1113 -0.2370  0.5905
   10MPD2    H5  161   4.106   4.640  11.716  1.9161 -3.8755  1.7017
   10MPD2    N1  162   4.108   4.588  11.155  0.0732  0.1574  0.1049
   10MPD2    H7  163   4.023   4.534  11.170  0.7443 -0.9441 -0.0252
   11TCq1    O1  164   0.123   3.774  14.262  0.2079  0.1253  0.6880
   11TCq1    C1  165   0.251   3.816  14.304  0.4232 -0.3118  0.1764
   11TCq1    O2  166   0.291   3.828  14.420 -0.5966  0.2816 -0.2269
   11TCq1    C2  167   0.293   3.916  14.215 -0.1741  0.1156 -0.4282
   11TCq1    C3  168   0.329   4.041  14.264  0.5735 -0.6311 -0.3618
   11TCq1    C4  169   0.337   4.144  14.175 -0.2076  0.1536  0.3511
   11TCq1    C5  170   0.300   4.141  14.043 -0.4621 -0.0063  0.0919
   11TCq1    C6  171   0.276   4.019  13.992 -0.2276  0.2810 -0.0088
   11TCq1    C7  172   0.276   3.905  14.078  0.4291  0.5197 -0.1281
   11TCq1    C8  173   0.271   4.002  13.844  0.4566  0.3911  0.0697
   11TCq1    O4  174   0.261   4.110  13.791  0.1776  0.1742 -0.4591
   11TCq1    C9  175   0.358   4.276  14.228 -0.2176 -0.5829  0.4302
   11TCq1    O5  176   0.377   4.364  14.141  0.0522 -0.6689 -0.4628
   11TCq1    O6  177   0.361   4.290  14.353 -0.1336  0.3849 -0.2547
   11TCq1    H1  178   0.102   3.809  14.172  1.0781  0.0195  0.4462
   11TCq1    H2  179   0.353   4.052  14.369  0.1581  2.6095 -0.6017
   11TCq1    H3  180   0.301   4.226  13.976 -2.8200 -1.0304 -1.2323
   11TCq1    H4  181   0.262   3.806  14.038  1.5508  0.1314  0.4259
   12MPD2     C  182   0.317   3.924  13.564 -0.4107  0.3284 -0.0041
   12MPD2    C1  183   0.264   3.833  13.661  0.0941 -0.2313 -0.5046
   12MPD2    C2  184   0.242   3.699  13.626  0.0202  0.6223 -0.4637
   12MPD2    C3  185   0.253   3.650  13.496  0.0265  0.3794 -0.2985
   12MPD2    C4  186   0.301   3.742  13.400  0.1036 -0.0339 -0.4083
   12MPD2    C5  187   0.330   3.867  13.434 -0.0280  0.1592  0.7364
   12MPD2     H  188   0.216   3.636  13.710  1.1522 -0.5308 -0.9771
   12MPD2    H1  189   0.310   3.705  13.298  0.1695 -2.7268  0.5677
   12MPD2    H2  190   0.347   4.026  13.583  0.4675 -0.1520  1.1591
   12MPD2    H3  191   0.360   3.929  13.350 -1.0707 -0.2212  0.0877
   12MPD2     N  192   0.226   3.515  13.463  0.0172  0.5051 -0.0682
   12MPD2    H5  193   0.234   3.498  13.363 -3.4677 -0.0211 -0.2921
   12MPD2    N1  194   0.247   3.873  13.795 -0.0222 -0.4045 -0.5878
   12MPD2    H7  195   0.230   3.793  13.855 -0.9974  2.0685  2.3979
   13TCq1    O1  196   4.473   0.039  10.982 -0.4159 -0.0424 -0.1563
   13TCq1    C1  197   4.606   0.006  10.990 -0.2973 -0.0981 -0.3613
   13TCq1    O2  198   4.686   0.082  11.043 -0.2805  0.1381  0.5563
   13TCq1    C2  199   4.590   4.608  11.030 -0.1469 -0.8204  0.1739
   13TCq1    C3  200   4.589   4.587  11.165  0.3773 -0.0211  0.6516
   13TCq1    C4  201   4.549   4.473  11.220 -0.2551  0.0542 -0.2414
   13TCq1    C5  202   4.512   4.377  11.130 -0.6582 -0.0591  0.2511
   13TCq1    C6  203   4.490   4.408  10.997 -1.0365 -0.9255 -0.6278
   13TCq1    C7  204   4.527   4.526  10.943  0.3214  0.4066  0.0431
   13TCq1    C8  205   4.387   4.346  10.911  0.9487 -0.8413  0.6825
   13TCq1    O4  206   4.373   4.379  10.794 -0.4095 -0.5080  0.3262
   13TCq1    C9  207   4.541   4.455  11.358  0.3058  0.5579  0.2481
   13TCq1    O5  208   4.490   4.350  11.396 -0.2546 -0.2321  0.2645
   13TCq1    O6  209   4.615   4.527  11.434 -0.0626  0.3476 -0.2840
   13TCq1    H1  210   4.409   4.704  10.970  0.4887 -0.8644 -0.0025
   13TCq1    H2  211   4.614   4.661  11.240 -2.4498  0.5019  1.0889
   13TCq1    H3  212   4.465   4.287  11.170  1.8095 -0.8124  1.4526
   13TCq1    H4  213   4.523   4.552  10.838 -3.7689  1.1958  0.3936
   14MPD2     C  214   4.157   4.158  10.840  0.6220  0.3953 -0.3205
   14MPD2    C1  215   4.175   4.215  10.965  0.4677  0.3194  0.3788
   14MPD2    C2  216   4.086   4.193  11.062  0.4204 -0.3681  0.0052
   14MPD2    C3  217   3.971   4.116  11.036  0.1734  0.3291  0.0833
   14MPD2    C4  218   3.954   4.061  10.912  0.2088 -0.2029 -0.2345
   14MPD2    C5  219   4.041   4.085  10.809  0.1410  0.2227  0.4180
   14MPD2     H  220   4.101   4.230  11.163  1.4483 -0.1812 -0.2131
   14MPD2    H1  221   3.864   4.001  10.901 -0.2872  0.3962  0.5473
   14MPD2    H2  222   4.228   4.173  10.760 -2.0972 -1.3538 -3.0822
   14MPD2    H3  223   4.033   4.041  10.710 -0.6525 -0.4742  0.7916
   14MPD2     N  224   3.885   4.095  11.149 -0.7223 -0.8246  0.3683
   14MPD2    H5  225   3.920   4.142  11.232 -1.3552 -0.0546  0.2028
   14MPD2    N1  226   4.295   4.280  10.996  0.4219  1.1573  0.5311
   14MPD2    H7  227   4.304   4.272  11.097  0.7781  0.7488  0.4689
   15TCq1    O1  228   1.383   3.038   1.702 -0.4074 -0.4791 -0.1483
   15TCq1    C1  229   1.473   3.004   1.794  0.4867  0.9639 -0.7431
   15TCq1    O2  230   1.488   3.052   1.905 -0.3010  0.0749 -0.0699
   15TCq1    C2  231   1.598   2.971   1.722 -0.5808  0.3134  0.4589
   15TCq1    C3  232   1.714   3.030   1.760  0.3928  0.1309 -0.3756
   15TCq1    C4  233   1.831   3.016   1.693 -0.6457  0.1926  0.2626
   15TCq1    C5  234   1.827   2.949   1.574 -0.3151 -0.3544 -0.3183
   15TCq1    C6  235   1.706   2.892   1.533  0.0401 -0.1515 -0.0640
   15TCq1    C7  236   1.591   2.905   1.604  0.1758 -0.3628 -0.0857
   15TCq1    C8  237   1.712   2.825   1.401 -0.7997  0.0445  0.2577
   15TCq1    O4  238   1.827   2.808   1.357  0.2050 -0.2895 -0.2174
   15TCq1    C9  239   1.953   3.062   1.749  0.4479  0.2218  0.4514
   15TCq1    O5  240   2.052   3.062   1.672 -0.4154  0.4114  1.1780
   15TCq1    O6  241   1.953   3.106   1.865  0.2540  0.1140  0.1304
   15TCq1    H1  242   1.403   2.999   1.615 -1.5749  0.0557 -0.6483
   15TCq1    H2  243   1.703   3.082   1.854 -0.4074  0.0019 -0.3974
   15TCq1    H3  244   1.921   2.948   1.520 -1.1594 -1.7324 -1.7588
   15TCq1    H4  245   1.494   2.867   1.573  0.0960  1.1825 -1.7435
   16MPD2     C  246   1.436   2.673   1.221 -0.0307  0.1778 -0.1528
   16MPD2    C1  247   1.568   2.684   1.273 -0.1960 -0.9032 -0.5073
   16MPD2    C2  248   1.656   2.572   1.259  0.0447 -0.3371  0.3685
   16MPD2    C3  249   1.612   2.465   1.181 -0.0410 -0.0428  0.1576
   16MPD2    C4  250   1.484   2.468   1.121 -0.9173  0.5481  0.1557
   16MPD2    C5  251   1.398   2.572   1.141 -0.0048  0.2006 -0.5027
   16MPD2     H  252   1.748   2.586   1.313 -0.6576 -0.0478  1.4920
   16MPD2    H1  253   1.454   2.389   1.052 -0.7587  0.9943 -0.4298
   16MPD2    H2  254   1.359   2.746   1.244  0.3805  0.3163  0.8018
   16MPD2    H3  255   1.297   2.570   1.103 -0.4647 -0.4687  0.7462
   16MPD2     N  256   1.705   2.360   1.165  0.5529  0.5626  0.1138
   16MPD2    H5  257   1.792   2.358   1.217  0.2931 -1.4074  0.4991
   16MPD2    N1  258   1.588   2.789   1.360  0.2349 -0.0281  0.2153
   16MPD2    H7  259   1.515   2.856   1.385 -1.4730 -0.8075 -2.7791
   17TMC1    C1  260   3.135   3.115  10.025 -0.2472  0.0785 -0.1465
   17TMC1    C2  261   3.033   3.054   9.953  0.3753 -0.2273 -0.4463
   17TMC1    C3  262   2.940   2.981  10.018  0.3758  0.2263  0.2476
   17TMC1    C4  263   3.133   3.109  10.169  0.2760  0.4684 -0.9394
   17TMC1    C5  264   3.022   3.042  10.227  0.3811 -0.2717  0.5234
   17TMC1    C6  265   2.928   2.972  10.153 -0.5682  0.2424 -0.4816
   17TMC1     C  266   3.242   3.190   9.954 -0.3642 -0.1209  0.8288
   17TMC1     O  267   3.209   3.223   9.841 -0.0375  0.4246  0.2359
   17TMC1     H  268   3.030   3.056   9.844  0.0835 -1.2543 -0.4531
   17TMC1    H1  269   3.215   3.139  10.234 -0.6894 -1.2181  1.0783
   17TMC1    H2  270   2.856   2.905  10.199  1.5115 -2.3022 -0.9156
   17TMC1    C7  271   3.018   3.028  10.370 -0.2916  0.4824 -1.0340
   17TMC1    C8  272   2.831   2.921   9.940  0.2445  0.0628 -0.8572
   17TMC1    O1  273   3.121   3.043  10.435 -0.3114 -0.2921 -0.0583
   17TMC1    O2  274   2.712   2.902   9.978  0.1031  0.1521 -0.1653
   17TMC1    O3  275   2.892   3.016  10.417  0.1403 -0.6351  0.0917
   17TMC1    H3  276   2.822   3.014  10.348  1.1886 -1.1256 -0.9502
   17TMC1    O5  277   2.887   2.866   9.831 -0.5267 -0.2113  0.0734
   17TMC1    H5  278   2.985   2.863   9.836 -0.5104  1.2853  0.3838
   18MPD2     C  279   3.439   3.404   9.878 -0.4760  0.0119 -0.3763
   18MPD2    C1  280   3.438   3.337  10.003 -0.0384 -0.5400 -0.2010
   18MPD2    C2  281   3.529   3.354  10.099  0.2255  0.0575 -0.0694
   18MPD2    C3  282   3.627   3.450  10.071 -0.2813 -0.1121 -0.2207
   18MPD2    C4  283   3.634   3.523   9.954  0.6552  0.1605 -0.6287
   18MPD2    C5  284   3.540   3.490   9.860 -0.1155 -0.9753  0.6160
   18MPD2     H  285   3.526   3.301  10.193 -2.5261  0.1072 -0.1347
   18MPD2    H1  286   3.706   3.601   9.933 -0.0417  0.3546 -2.3027
   18MPD2    H2  287   3.359   3.394   9.805  0.7168 -2.2685 -1.3653
   18MPD2    H3  288   3.541   3.538   9.763  1.3412 -0.8147  0.7139
   18MPD2     N  289   3.717   3.497  10.170 -0.1507 -0.2894 -0.7313
   18MPD2    H5  290   3.747   3.593  10.164 -0.5206 -0.0904  0.5693
   18MPD2    N1  291   3.341   3.245  10.039  0.3110  0.0563  0.5687
   18MPD2    H7  292   3.359   3.203  10.130  1.3961  2.3056  1.3909
   19TMC2    C1  293   1.180   3.834  14.102  0.0302  0.1541 -0.2790
   19TMC2    C2  294   1.104   3.929  14.046  0.6443  0.0856  0.1573
   19TMC2    C3  295   0.967   3.907  14.039  0.5242  0.7688 -0.5568
   19TMC2    C4  296   1.126   3.724  14.160  0.8064  0.7982  0.4952
   19TMC2    C5  297   0.989   3.711  14.160 -0.0292  0.5278 -0.2619
   19TMC2    C6  298   0.906   3.805  14.103  0.2718 -0.3366 -0.0295
   19TMC2     C  299   1.323   3.856  14.080  1.1336  0.0779  0.2504
   19TMC2     O  300   1.361   3.941  13.996 -0.4400  0.1217  1.1198
   19TMC2     H  301   1.143   4.019  14.001 -0.3435 -0.7111 -2.2756
   19TMC2    H1  302   1.195   3.647  14.192  3.4097  2.8785 -0.0440
   19TMC2    H2  303   0.797   3.801  14.101  0.2729 -0.6398  0.3372
   19TMC2    C7  304   0.928   3.606  14.247 -0.8030 -0.2803  0.3488
   19TMC2    C8  305   0.891   4.027  14.042  0.7772 -0.6570  0.3773
   19TMC2    O1  306   1.009   3.524  14.291 -0.0478  0.3255 -0.5251
   19TMC2    O2  307   0.800   4.045  14.125  0.3773 -0.2957  0.1275
   19TMC2    O5  308   0.924   4.121  13.953  0.8126 -0.1364  0.2681
   19TMC2    H5  309   0.959   4.100  13.865  0.5494 -0.0682  0.1467
   20MPD2     C  310   1.620   3.873  14.099 -0.4294  0.9805  0.2715
   20MPD2    C1  311   1.544   3.788  14.171  0.2912 -0.4482 -0.8352
   20MPD2    C2  312   1.611   3.710  14.266  0.1010  0.1492  0.6140
   20MPD2    C3  313   1.748   3.708  14.277  0.6575 -0.4975 -0.5432
   20MPD2    C4  314   1.817   3.795  14.198  0.3506  0.8426 -0.5145
   20MPD2    C5  315   1.755   3.883  14.119  0.4023  0.3727  0.1598
   20MPD2     H  316   1.550   3.640  14.323 -1.2523  0.9571  0.1568
   20MPD2    H1  317   1.921   3.815  14.223  0.7180 -1.4977 -0.1081
   20MPD2    H2  318   1.582   3.936  14.020 -1.2389  1.4506  1.0347
   20MPD2    H3  319   1.815   3.951  14.059  0.5996 -0.0201 -0.0888
   20MPD2     N  320   1.813   3.630  14.380 -0.2454  0.8494 -0.3633
   20MPD2    H5  321   1.914   3.635  14.379 -0.3167  2.3403  0.5838
   20MPD2    N1  322   1.405   3.779  14.159 -0.1891  0.0752 -0.2637
   20MPD2    H7  323   1.360   3.706  14.212 -1.5853 -0.1800 -1.7674
   21TMC2    C1  324   3.282   3.764  15.014  0.2083 -0.1929  1.0607
   21TMC2    C2  325   3.331   3.655  15.078  0.9502 -0.2916  0.4023
   21TMC2    C3  326   3.310   3.650  15.212 -0.3309 -0.2840 -0.0102
   21TMC2    C4  327   3.223   3.864  15.075 -0.5693 -0.5289 -0.2184
   21TMC2    C5  328   3.203   3.856  15.209  0.4087 -0.0344  0.0749
   21TMC2    C6  329   3.249   3.749  15.284 -0.2764 -0.4926  0.2665
   21TMC2     C  330   3.318   3.766  14.877  0.5155 -0.1203 -0.7069
   21TMC2     O  331   3.414   3.695  14.833 -0.1559  0.5093 -0.6399
   21TMC2     H  332   3.376   3.567  15.034  2.0481 -0.8459  2.6724
   21TMC2    H1  333   3.184   3.946  15.015  0.3159  0.7667  0.9529
   21TMC2    H2  334   3.247   3.749  15.393 -2.1634  0.4571  0.2345
   21TMC2    C7  335   3.144   3.961  15.289 -0.2342  0.6535 -0.4641
   21TMC2    C8  336   3.394   3.558  15.291  0.3007  0.4368  0.2999
   21TMC2    O1  337   3.147   3.945  15.412  0.3278 -0.4958 -0.5357
   21TMC2    O2  338   3.515   3.542  15.279 -0.0244  0.0095 -0.0586
   21TMC2    O5  339   3.316   3.524  15.399 -0.0195 -0.3620  0.3921
   21TMC2    H5  340   3.221   3.533  15.376  0.1213 -0.2888 -0.1807
   22MPD2     C  341   3.387   4.126  14.532 -0.7749  0.8579 -0.3707
   22MPD2    C1  342   3.476   4.052  14.608 -0.0764 -0.1159 -0.1882
   22MPD2    C2  343   3.425   3.953  14.690  0.6762 -0.4932 -0.1328
   22MPD2    C3  344   3.290   3.925  14.705  0.1435 -0.2461  0.1325
   22MPD2    C4  345   3.206   4.000  14.625 -0.2917 -0.4253 -0.3910
   22MPD2    C5  346   3.258   4.099  14.542  0.5016 -0.5362 -0.7382
   22MPD2     H  347   3.498   3.912  14.758  1.0978  0.9195  0.2715
   22MPD2    H1  348   3.098   3.991  14.619 -0.3670 -0.6691  1.3695
   22MPD2    H2  349   3.420   4.190  14.451 -2.1087  2.4932  0.3729
   22MPD2    H3  350   3.183   4.146  14.479 -0.7688  1.4051  2.1828
   22MPD2     N  351   3.242   3.854  14.809  0.4715 -0.1956  0.7076
   22MPD2    H5  352   3.145   3.864  14.839  0.1616  0.5875 -0.5183
   22MPD2    N1  353   3.614   4.083  14.610  0.4062  0.2341 -0.0485
   22MPD2    H7  354   3.662   4.015  14.669  0.9735  1.4637  0.8951
   23TMC2    C1  355   0.008   0.594  14.493  0.1438  0.3853 -0.5368
   23TMC2    C2  356   4.713   0.684  14.398  0.0863  0.3305  0.2565
   23TMC2    C3  357   4.586   0.685  14.349  0.0413  0.8895  0.0706
   23TMC2    C4  358   4.652   0.514  14.550 -0.0257 -0.0557 -0.1199
   23TMC2    C5  359   4.529   0.505  14.488 -0.1448  0.6278  1.1511
   23TMC2    C6  360   4.495   0.592  14.390  0.6947 -0.1731  0.9455
   23TMC2     C  361   0.146   0.562  14.525 -0.4671 -0.7650 -0.5070
   23TMC2     O  362   0.168   0.520  14.642  0.1607  0.4846  0.5049
   23TMC2     H  363   0.048   0.757  14.363 -0.5089  0.8614  0.1185
   23TMC2    H1  364   4.681   0.432  14.615 -1.3228  0.1606  0.7356
   23TMC2    H2  365   4.411   0.586  14.321  1.7832  3.0430 -0.6778
   23TMC2    C7  366   4.438   0.400  14.542 -0.5081  0.0451 -0.8623
   23TMC2    C8  367   4.546   0.785  14.252 -0.5356  0.1517 -0.3596
   23TMC2    O1  368   4.475   0.316  14.622 -0.0298 -0.3042  0.1932
   23TMC2    O2  369   4.627   0.868  14.213  0.5703  0.5535  0.0442
   23TMC2    O5  370   4.415   0.817  14.279 -0.0535 -0.5487  0.5441
   23TMC2    H5  371   4.369   0.749  14.333 -1.7500  0.8002  0.8223
   24MPD2     C  372   0.597   0.387  14.382 -0.3718 -0.1852  1.0442
   24MPD2    C1  373   0.532   0.382  14.507  0.0400  0.4171  0.3943
   24MPD2    C2  374   0.407   0.440  14.512 -0.1435  0.2971 -0.4562
   24MPD2    C3  375   0.356   0.523  14.416  0.4228  0.3390 -0.0199
   24MPD2    C4  376   0.424   0.528  14.294 -0.0212  0.6016 -0.5366
   24MPD2    C5  377   0.539   0.456  14.277 -0.1916 -0.3932 -0.7704
   24MPD2     H  378   0.364   0.434  14.611  0.6571 -0.3078 -0.1416
   24MPD2    H1  379   0.381   0.572  14.205 -0.7634  0.5762 -0.1870
   24MPD2    H2  380   0.700   0.355  14.370  0.3870  2.2906  0.8541
   24MPD2    H3  381   0.587   0.456  14.179 -0.2811  0.2008 -0.8156
   24MPD2     N  382   0.229   0.582  14.427 -0.8044 -0.2124  0.4901
   24MPD2    H5  383   0.197   0.646  14.355 -2.4441 -1.3419  0.2120
   24MPD2    N1  384   0.586   0.315  14.620  0.5934 -0.1245  0.3300
   24MPD2    H7  385   0.521   0.309  14.698 -0.1146 -1.6509 -0.3553
   25TMC2    C1  386   3.483   2.990  12.011 -0.5044  0.7136 -0.2406
   25TMC2    C2  387   3.498   3.128  12.002 -0.3093 -0.3491  0.2276
   25TMC2    C3  388   3.398   3.205  12.042  0.0115 -0.7323  0.0786
   25TMC2    C4  389   3.371   2.945  12.074 -0.4819  0.4750  0.1011
   25TMC2    C5  390   3.272   3.030  12.119 -0.5536  0.6325  0.1732
   25TMC2    C6  391   3.283   3.165  12.107  0.4582 -0.6214 -0.0751
   25TMC2     C  392   3.573   2.911  11.923  0.5308 -0.1950  0.0142
   25TMC2     O  393   3.664   2.974  11.868 -0.7406 -0.0274 -0.7941
   25TMC2     H  394   3.579   3.181  11.953 -1.0671  1.6006  1.0717
   25TMC2    H1  395   3.366   2.837  12.086  0.4923  0.4860  0.5523
   25TMC2    H2  396   3.216   3.226  12.167 -1.4656 -1.5259 -1.3131
   25TMC2    C7  397   3.167   2.968  12.195  0.4071  0.3264 -0.4753
   25TMC2    C8  398   3.444   3.335  12.070 -0.5967  0.2776 -0.1505
   25TMC2    O1  399   3.187   2.852  12.234  0.3963  0.0706  0.0450
   25TMC2    O2  400   3.548   3.388  12.034 -0.7038 -0.2077 -0.2057
   25TMC2    O5  401   3.328   3.410  12.075  0.2011 -0.8655 -0.0921
   25TMC2    H5  402   3.243   3.361  12.081  0.7136 -1.1266  5.0148
   26MPD2     C  403   3.751   2.486  11.693  0.0570  0.1974  0.8067
   26MPD2    C1  404   3.621   2.468  11.728 -0.4739 -0.8944  0.3222
   26MPD2    C2  405   3.556   2.571  11.792 -0.4509  0.3138 -0.1195
   26MPD2    C3  406   3.618   2.691  11.829 -0.1441 -0.5201 -0.4702
   26MPD2    C4  407   3.749   2.704  11.798  0.8707 -0.3335 -0.4658
   26MPD2    C5  408   3.817   2.601  11.729 -0.0232  0.3978 -0.0738
   26MPD2     H  409   3.456   2.558  11.829 -0.2182 -0.2791  0.2952
   26MPD2    H1  410   3.802   2.787  11.844  1.2812 -0.2564 -1.0679
   26MPD2    H2  411   3.816   2.408  11.656 -0.2971  0.0504  0.4952
   26MPD2    H3  412   3.916   2.628  11.695  0.6840 -0.3874  1.3921
   26MPD2     N  413   3.537   2.778  11.905  0.4406  0.7006  0.4670
   26MPD2    H5  414   3.447   2.743  11.936  0.9442 -0.1082  1.0473
   26MPD2    N1  415   3.564   2.338  11.703 -0.0925 -0.0223  0.4609
   26MPD2    H7  416   3.619   2.280  11.641  0.2143  0.0942  0.6214
   27TMC2    C1  417   2.456   0.135  12.246 -0.0403 -0.5082 -0.0504
   27TMC2    C2  418   2.488   0.248  12.172 -0.3844 -0.9906  0.5292
   27TMC2    C3  419   2.579   0.341  12.224  0.7779  0.8811  0.4757
   27TMC2    C4  420   2.524   0.101  12.359 -0.0828 -0.1672  0.2470
   27TMC2    C5  421   2.611   0.189  12.413  0.5102 -0.8707  0.0417
   27TMC2    C6  422   2.635   0.309  12.344 -0.5467 -0.1440  0.1046
   27TMC2     C  423   2.373   0.030  12.191  0.1610  0.2426 -0.4154
   27TMC2     O  424   2.358   0.029  12.069 -0.3930  0.1973  0.0937
   27TMC2     H  425   2.445   0.258  12.073  2.9998 -2.5126 -1.0983
   27TMC2    H1  426   2.504   0.001  12.395 -1.6422  0.2337  0.4721
   27TMC2    H2  427   2.701   0.381  12.391  0.0651 -0.8825  0.3650
   27TMC2    C7  428   2.665   0.167  12.539  0.5011  0.3118  0.3522
   27TMC2    C8  429   2.665   0.422  12.142  0.2265  0.8042 -0.4283
   27TMC2    O1  430   2.593   0.108  12.618 -0.4159  0.4654  0.1786
   27TMC2    O2  431   2.787   0.428  12.150 -0.4712 -0.8126 -0.6805
   27TMC2    O5  432   2.587   0.459  12.032  0.4011  0.3492 -0.4113
   27TMC2    H5  433   2.490   0.457  12.050  0.6191  0.9767  0.8549
   28MPD2     C  434   1.966   4.482  12.274  0.3165 -0.1275 -0.3359
   28MPD2    C1  435   1.970   4.571  12.374 -0.1276 -0.4371 -0.5304
   28MPD2    C2  436   2.080   4.651  12.387 -0.1265 -0.8742 -0.5166
   28MPD2    C3  437   2.166   4.660  12.279 -1.0918 -0.1038  0.1033
   28MPD2    C4  438   2.151   4.576  12.171 -0.0781  0.3391  0.6218
   28MPD2    C5  439   2.048   4.486  12.158 -0.0265 -0.3356 -0.1940
   28MPD2     H  440   2.100   4.710  12.476  2.9834 -0.7039 -1.3504
   28MPD2    H1  441   2.229   4.567  12.096 -2.1375  0.7984 -1.5902
   28MPD2    H2  442   1.895   4.401  12.281  1.4656 -1.2255 -1.3960
   28MPD2    H3  443   2.056   4.419  12.073  1.6014  0.3104 -0.5434
   28MPD2     N  444   2.284   0.003  12.291 -0.0927 -0.1715  0.2283
   28MPD2    H5  445   2.298   0.046  12.381 -1.7864 -2.3160  1.5269
   28MPD2    N1  446   1.864   4.565  12.475 -0.3131  0.2268  0.4047
   28MPD2    H7  447   1.779   4.522  12.437  0.0952  0.3003 -0.6029
   29TMC2    C1  448   2.105   2.572  14.637  0.3902 -0.5432  0.4607
   29TMC2    C2  449   2.096   2.570  14.776 -0.5976  0.3380  0.4503
   29TMC2    C3  450   2.091   2.698  14.834 -0.3671  0.9828  0.8308
   29TMC2    C4  451   2.110   2.688  14.561  0.4606 -0.2725  0.3570
   29TMC2    C5  452   2.121   2.804  14.631  0.7097 -0.0979 -0.5473
   29TMC2    C6  453   2.108   2.818  14.764 -0.5233  0.8831  0.0361
   29TMC2     C  454   2.144   2.451  14.574  0.5978 -0.5350 -0.3723
   29TMC2     O  455   2.162   2.352  14.642 -0.8071  0.6145 -0.8507
   29TMC2     H  456   2.109   2.477  14.829  0.8696 -0.0037 -0.5039
   29TMC2    H1  457   2.114   2.692  14.453 -1.9099  2.0753  0.3769
   29TMC2    H2  458   2.108   2.915  14.812  0.3280  1.7455 -1.7106
   29TMC2    C7  459   2.116   2.926  14.551  0.3668  0.6391 -0.5367
   29TMC2    C8  460   2.097   2.710  14.981 -0.2174  0.3481 -0.0205
   29TMC2    O1  461   2.054   2.927  14.447  0.2011  0.1791 -0.6971
   29TMC2    O2  462   2.121   2.817  15.037  0.5392  0.0063 -0.0521
   29TMC2    O5  463   2.020   2.611  15.031 -0.0579  0.3259  0.3008
   29TMC2    H5  464   1.958   2.575  14.963  0.3125 -0.0839  0.1808
   30MPD2     C  465   2.031   2.113  14.199 -0.0315  0.5808 -0.3644
   30MPD2    C1  466   2.115   2.096  14.309  0.2286  0.4241  0.2615
   30MPD2    C2  467   2.147   2.213  14.379  0.2101  0.4511 -0.1156
   30MPD2    C3  468   2.094   2.339  14.352 -0.7562  0.8116  0.8579
   30MPD2    C4  469   2.008   2.350  14.253  0.0623 -0.3465  0.0774
   30MPD2    C5  470   1.974   2.238  14.178  0.2708  0.3928  0.8762
   30MPD2     H  471   2.194   2.205  14.476 -1.4427  0.1334  0.6721
   30MPD2    H1  472   1.955   2.442  14.228  1.0732 -0.1559 -1.3794
   30MPD2    H2  473   2.019   2.046  14.114  2.1645 -0.3800  0.0765
   30MPD2    H3  474   1.911   2.270  14.096 -0.0510 -0.0076  0.9652
   30MPD2     N  475   2.107   2.454  14.439  0.1761 -0.3859  0.1828
   30MPD2    H5  476   2.050   2.535  14.414 -0.1686 -0.4517  0.7521
   30MPD2    N1  477   2.170   1.976  14.352 -0.3727  0.9153 -0.0216
   30MPD2    H7  478   2.233   1.975  14.432  0.6785 -0.0337 -0.8710
   31TMC2    C1  479   4.403   1.157  15.633  0.3655  0.5895  0.1237
   31TMC2    C2  480   4.277   1.181  15.687  0.5374 -0.3441 -0.3716
   31TMC2    C3  481   4.254   1.187  15.822  0.6303  0.2524 -0.5646
   31TMC2    C4  482   4.506   1.118  15.715 -0.7584  0.0689  0.6434
   31TMC2    C5  483   4.483   1.132  15.846  0.1621 -0.2571 -0.4215
   31TMC2    C6  484   4.358   1.153  15.908  0.4670  0.1147  0.9353
   31TMC2     C  485   4.418   1.164  15.493  0.7615 -0.8066 -0.0127
   31TMC2     O  486   4.357   1.242  15.422 -0.3397  0.5576  0.2453
   31TMC2     H  487   4.199   1.188  15.613  0.2163  2.0510  0.2091
   31TMC2    H1  488   4.610   1.116  15.684 -1.2115 -2.4055 -0.7306
   31TMC2    H2  489   4.345   1.132  16.013  1.9574  0.3410  1.1595
   31TMC2    C7  490   4.578   1.079  15.938  0.0818  0.0845 -0.4415
   31TMC2    C8  491   4.128   1.134  15.855  0.2176  0.2454 -0.4709
   31TMC2    O1  492   4.643   0.983  15.908 -0.2266 -0.3923  0.3816
   31TMC2    O2  493   4.106   1.043  15.934 -0.2538 -0.1238 -0.6555
   31TMC2    O5  494   4.040   1.225  15.812 -0.1336  0.6101  0.2317
   31TMC2    H5  495   4.084   1.300  15.766  1.0067 -0.1762  0.0313
   32MPD2     C  496   4.674   1.056  15.054  0.0215 -0.3325  0.3213
   32MPD2    C1  497   4.591   1.163  15.083 -0.2016  0.7343 -0.0466
   32MPD2    C2  498   4.524   1.162  15.204 -0.3482 -0.1369  0.5017
   32MPD2    C3  499   4.553   1.068  15.308  0.2870  0.7363 -0.8991
   32MPD2    C4  500   4.633   0.959  15.271  0.3038 -0.3213 -0.0296
   32MPD2    C5  501   4.689   0.954  15.143 -0.7232  0.5520 -0.1177
   32MPD2     H  502   4.467   1.252  15.226 -0.9862 -0.3669 -0.2431
   32MPD2    H1  503   4.637   0.868  15.330 -3.2778 -0.9289 -0.7538
   32MPD2    H2  504   4.722   1.041  14.958 -1.2273 -0.6147 -0.2695
   32MPD2    H3  505   4.732   0.860  15.111 -1.0461 -0.1018  1.3450
   32MPD2     N  506   4.498   1.067  15.439 -0.4120 -0.4394  0.1143
   32MPD2    H5  507   4.534   0.989  15.494  2.1647  1.4759  1.1367
   32MPD2    N1  508   4.566   1.265  14.984 -0.1771  0.5401  0.1455
   32MPD2    H7  509   4.629   1.261  14.905  2.0534  0.0001  1.9579
   33TMC2    C1  510   4.187   4.436  10.156  0.0384 -0.1707  0.5103
   33TMC2    C2  511   4.079   4.506  10.105  0.2752  0.2417  0.4874
   33TMC2    C3  512   4.098   4.621  10.039 -0.5203 -0.1569 -0.6821
   33TMC2    C4  513   4.316   4.474  10.128  0.4057  1.1574  0.6285
   33TMC2    C5  514   4.333   4.588  10.057 -0.0529  0.1156 -0.4403
   33TMC2    C6  515   4.226   4.662  10.019 -0.8070 -0.0293 -0.1260
   33TMC2     C  516   4.164   4.302  10.213 -0.4752 -0.5267  0.9132
   33TMC2     O  517   4.073   4.235  10.173 -0.2664  0.2894 -0.1801
   33TMC2     H  518   3.987   4.454  10.132  0.5554 -0.8845 -0.7421
   33TMC2    H1  519   4.399   4.410  10.154  0.3561  0.8830  0.1171
   33TMC2    H2  520   4.243   0.022   9.977 -3.5716 -0.1074 -1.4351
   33TMC2    C7  521   4.465   4.617  10.008  0.2843 -0.3952  0.0597
   33TMC2    C8  522   3.994   4.714  10.029  1.1382 -0.3170 -0.1274
   33TMC2    O1  523   4.561   4.563  10.057 -0.0681  0.7171  0.2311
   33TMC2    O2  524   4.020   0.095  10.009 -0.2708 -0.0896  0.0474
   33TMC2    O5  525   3.869   4.653  10.032  0.0472  0.7865  0.3976
   33TMC2    H5  526   3.874   4.556  10.026  0.1653  0.6616  2.4674
   34MPD2     C  527   4.308   3.960  10.573  0.0881 -0.2311  1.1262
   34MPD2    C1  528   4.208   3.950  10.485  0.0346 -0.5624 -0.2012
   34MPD2    C2  529   4.189   4.059  10.400 -0.2633 -0.0699  0.3608
   34MPD2    C3  530   4.275   4.173  10.402 -1.0880 -0.1111 -0.2953
   34MPD2    C4  531   4.378   4.180  10.494  0.1395 -0.1461  0.2951
   34MPD2    C5  532   4.392   4.070  10.576  0.2381  0.7171 -1.0207
   34MPD2     H  533   4.119   4.049  10.318 -1.1865 -1.6321  1.3375
   34MPD2    H1  534   4.449   4.260  10.507  0.7559 -0.5093 -0.8103
   34MPD2    H2  535   4.336   3.872  10.630  0.3496 -0.3849  0.7552
   34MPD2    H3  536   4.468   4.067  10.653 -1.4228  2.7115  0.7111
   34MPD2     N  537   4.258   4.281  10.314  0.0315 -0.3928 -0.0176
   34MPD2    H5  538   4.316   4.362  10.334 -0.0311 -0.5718  0.8879
   34MPD2    N1  539   4.137   3.829  10.481 -0.5013  0.1776 -0.6490
   34MPD2    H7  540   4.157   3.762  10.554 -3.6612  0.0703  0.1090
   35TMC2    C1  541   0.475   0.004  11.825 -0.2218 -0.1627  0.1118
   35TMC2    C2  542   0.351   0.067  11.823  0.1633  0.2910  0.4170
   35TMC2    C3  543   0.238   4.727  11.806  0.6277 -1.1601  0.1373
   35TMC2    C4  544   0.493   4.607  11.822  0.1068  0.2878  0.0678
   35TMC2    C5  545   0.377   4.536  11.819  0.2256  0.0268 -0.4227
   35TMC2    C6  546   0.252   4.588  11.810 -0.2737 -0.3773 -0.4010
   35TMC2     C  547   0.585   0.090  11.855  0.6273  0.5805  0.1533
   35TMC2     O  548   0.579   0.206  11.829 -0.2280 -0.7669 -0.4319
   35TMC2     H  549   0.337   0.174  11.839  0.4860  0.6559 -1.7361
   35TMC2    H1  550   0.593   4.566  11.807  1.9908  3.1775  4.8797
   35TMC2    H2  551   0.163   4.526  11.807 -0.6305  0.1839 -1.2434
   35TMC2    C7  552   0.380   4.388  11.791 -0.0283  0.0313 -0.5886
   35TMC2    C8  553   0.112   0.060  11.806 -0.5469  0.2331 -0.4290
   35TMC2    O1  554   0.308   4.336  11.709 -0.1934 -0.4274  0.4084
   35TMC2    O2  555   0.105   0.165  11.868 -0.4008  0.3082  0.5791
   35TMC2    O5  556   0.008   4.715  11.797  0.2332 -0.2695 -0.0810
   35TMC2    H5  557   0.032   4.640  11.738 -0.8161 -2.6501  2.4842
   36MPD2     C  558   1.028   0.202  12.090 -0.1881 -0.2168  0.4739
   36MPD2    C1  559   1.017   0.063  12.086  0.7217 -0.9362 -0.4416
   36MPD2    C2  560   0.897   0.014  12.038 -0.4497  0.0136  0.0002
   36MPD2    C3  561   0.798   0.093  11.986  0.3476  0.0810  0.0025
   36MPD2    C4  562   0.816   0.231  11.993  0.2244  0.2434 -0.1429
   36MPD2    C5  563   0.928   0.280  12.047  0.6520 -0.3500  0.1265
   36MPD2     H  564   0.883   4.645  12.022 -1.4969  0.2742 -0.7767
   36MPD2    H1  565   0.744   0.301  11.953 -0.2610  0.6577  1.4736
   36MPD2    H2  566   1.125   0.248  12.105  0.7175 -1.9408 -0.0903
   36MPD2    H3  567   0.940   0.388  12.052 -1.3577 -0.0635 -1.2599
   36MPD2     N  568   0.684   0.034  11.930  0.2064  0.4830  0.5229
   36MPD2    H5  569   0.674   4.671  11.940 -0.6148  0.8302  3.1644
   36MPD2    N1  570   1.138   4.730  12.112  0.4737 -0.0696 -0.0862
   36MPD2    H7  571   1.218   0.049  12.139 -1.0697  2.3365 -0.4646
   37TMC2    C1  572   3.540   0.527  11.983  0.0391 -0.1823  0.6169
   37TMC2    C2  573   3.449   0.502  11.888  0.1294  0.2840 -0.0243
   37TMC2    C3  574   3.477   0.545  11.758  0.2408  0.0934  0.5831
   37TMC2    C4  575   3.646   0.611  11.957 -0.2751  0.0433 -0.0239
   37TMC2    C5  576   3.664   0.672  11.839  0.2859  0.0591 -0.0607
   37TMC2    C6  577   3.588   0.625  11.731 -0.3917  0.4458  0.2351
   37TMC2     C  578   3.526   0.460  12.108 -0.4838 -0.0707 -0.0791
   37TMC2     O  579   3.411   0.436  12.154 -0.3282  0.3341 -0.2078
   37TMC2     H  580   3.360   0.453  11.925 -0.3031  1.1248  0.0597
   37TMC2    H1  581   3.688   0.652  12.048  0.9052 -2.5660  0.6146
   37TMC2    H2  582   3.604   0.658  11.629  1.0203  1.3423  0.7586
   37TMC2    C7  583   3.790   0.738  11.816 -0.1485 -1.0467 -0.4034
   37TMC2    C8  584   3.374   0.548  11.649 -0.4304  0.1866 -0.5870
   37TMC2    O1  585   3.855   0.743  11.919 -0.0833  0.0142  0.3980
   37TMC2    O2  586   3.354   0.646  11.581 -0.2491 -0.0081 -0.8026
   37TMC2    O5  587   3.284   0.465  11.701  0.1302  0.3437 -0.2374
   37TMC2    H5  588   3.329   0.385  11.736 -0.0892  1.0789  1.7376
   38MPD2     C  589   3.704   0.387  12.571 -0.4777 -0.2616  0.2332
   38MPD2    C1  590   3.791   0.328  12.486  0.2388  0.0758  0.0324
   38MPD2    C2  591   3.776   0.354  12.351  0.0017 -1.3766 -0.3916
   38MPD2    C3  592   3.669   0.431  12.304  0.1754 -0.9103  0.2903
   38MPD2    C4  593   3.576   0.489  12.389 -0.1223  0.2019  0.4876
   38MPD2    C5  594   3.595   0.463  12.523  0.7448 -0.6726  0.0360
   38MPD2     H  595   3.844   0.312  12.279 -0.3927 -1.2871 -0.8177
   38MPD2    H1  596   3.493   0.546  12.347 -1.2267  0.2696  2.7459
   38MPD2    H2  597   3.704   0.364  12.677 -3.9787  2.1920  0.7975
   38MPD2    H3  598   3.523   0.504  12.592 -0.0177 -1.7080 -0.1410
   38MPD2     N  599   3.653   0.435  12.163  0.1108 -0.0274  0.0923
   38MPD2    H5  600   3.736   0.426  12.105 -0.5440 -1.5297 -0.6319
   38MPD2    N1  601   3.890   0.234  12.524  0.8947 -0.2873  0.4657
   38MPD2    H7  602   3.951   0.200  12.449  0.4012 -0.4797  0.1538
   39TMC2    C1  603   1.717   2.261   1.523  0.3547  0.0966 -0.0081
   39TMC2    C2  604   1.626   2.350   1.576 -0.1136 -0.4077 -0.2247
   39TMC2    C3  605   1.667   2.479   1.597 -0.8959  0.9502 -0.0375
   39TMC2    C4  606   1.846   2.300   1.494  0.6289 -0.1410 -0.4409
   39TMC2    C5  607   1.881   2.430   1.517  0.0710 -0.3457 -0.0796
   39TMC2    C6  608   1.791   2.522   1.569 -0.3880  0.0670 -0.3635
   39TMC2     C  609   1.665   2.138   1.458  0.2495  0.0075 -0.0550
   39TMC2     O  610   1.543   2.147   1.448  0.8051  0.5486  0.3973
   39TMC2     H  611   1.527   2.323   1.610  0.4449 -2.6184 -0.3306
   39TMC2    H1  612   1.913   2.228   1.448  0.2061 -1.1096  0.4481
   39TMC2    H2  613   1.822   2.622   1.598 -1.8053  0.2079  0.6931
   39TMC2    C7  614   2.007   2.477   1.466  0.7089  0.8397 -0.4599
   39TMC2    C8  615   1.593   2.554   1.692  0.3082 -0.7402 -0.1649
   39TMC2    O1  616   2.045   2.406   1.373  0.1236  0.2604  0.3325
   39TMC2    O2  617   1.645   2.641   1.761  0.2717  0.1150 -0.3306
   39TMC2    O5  618   1.471   2.560   1.638 -0.1397  0.1162  0.3634
   39TMC2    H5  619   1.449   2.499   1.565 -1.6085 -1.1132  1.8226
   40MPD2     C  620   1.805   1.812   1.379  0.4778 -0.3507 -0.2585
   40MPD2    C1  621   1.732   1.924   1.361  0.8619 -0.4129  0.1640
   40MPD2    C2  622   1.634   1.922   1.267 -0.2288 -0.7206 -0.4265
   40MPD2    C3  623   1.616   1.806   1.189 -0.5357  0.8182 -0.7271
   40MPD2    C4  624   1.700   1.700   1.202  0.8311 -0.8004 -0.8857
   40MPD2    C5  625   1.785   1.691   1.309 -0.0738  0.0694  0.0181
   40MPD2     H  626   1.564   2.002   1.248  1.2786  0.1357 -2.3118
   40MPD2    H1  627   1.677   1.608   1.150  1.1723  0.1357 -2.6878
   40MPD2    H2  628   1.879   1.824   1.457  0.4320  0.7006 -0.3777
   40MPD2    H3  629   1.844   1.604   1.337  0.8073  0.6957  0.0901
   40MPD2     N  630   1.538   1.809   1.070  0.1441  0.4644 -0.1925
   40MPD2    H5  631   1.544   1.723   1.017 -0.6905  1.2979 -1.6217
   40MPD2    N1  632   1.758   2.036   1.437 -0.2325 -0.1934  1.5259
   40MPD2    H7  633   1.850   2.050   1.479  0.8449  1.0818 -1.2998
   41TMC2    C1  634   0.984   0.525  14.081 -0.3730  0.5595 -0.5941
   41TMC2    C2  635   0.857   0.501  14.037  0.1560  0.1371 -0.2038
   41TMC2    C3  636   0.832   0.512  13.903  0.0109  0.9883 -0.7937
   41TMC2    C4  637   1.087   0.563  13.999 -0.1890  0.1020  0.2709
   41TMC2    C5  638   1.050   0.577  13.865 -0.0253 -0.4732 -0.0929
   41TMC2    C6  639   0.924   0.555  13.812  0.4518 -0.1625 -0.0090
   41TMC2     C  640   0.999   0.538  14.219 -0.1288  0.3445 -0.2054
   41TMC2     O  641   1.117   0.535  14.260 -0.5984 -0.0626  0.0441
   41TMC2     H  642   0.775   0.490  14.107 -1.7184 -0.4332 -2.4969
   41TMC2    H1  643   1.186   0.582  14.039 -0.4940  0.9010  0.6361
   41TMC2    H2  644   0.891   0.573  13.711  0.0583  0.5941  0.2555
   41TMC2    C7  645   1.164   0.582  13.771 -0.0172 -0.1151  0.3143
   41TMC2    C8  646   0.686   0.531  13.886 -0.1761 -0.4245 -0.6446
   41TMC2    O1  647   1.272   0.536  13.811  0.4802 -0.0013  0.3263
   41TMC2    O2  648   0.606   0.472  13.956  0.5543 -0.1984  0.6432
   41TMC2    O5  649   0.670   0.652  13.822  0.3597  0.5177 -0.6403
   41TMC2    H5  650   0.751   0.703  13.799  2.5120 -2.1738  1.0117
   42MPD2     C  651   0.971   0.533  14.513  1.5833 -0.0235  0.5520
   42MPD2    C1  652   0.868   0.587  14.426 -0.0745  0.2249 -0.4149
   42MPD2    C2  653   0.749   0.639  14.481 -0.1496 -0.1644  0.3355
   42MPD2    C3  654   0.737   0.645  14.620  0.1608  1.2816 -0.0932
   42MPD2    C4  655   0.835   0.597  14.697  0.4059  0.3913  0.3764
   42MPD2    C5  656   0.942   0.536  14.644 -0.6680 -0.0479 -0.0167
   42MPD2     H  657   0.664   0.657  14.416 -0.5835 -2.9093  0.1438
   42MPD2    H1  658   0.819   0.599  14.805  1.1305 -3.3181  0.5432
   42MPD2    H2  659   1.069   0.496  14.484  0.0390 -1.9772 -2.1345
   42MPD2    H3  660   1.008   0.484  14.713 -0.0728  1.5478  0.6039
   42MPD2     N  661   0.615   0.690  14.684  0.4933 -0.4566  0.1924
   42MPD2    H5  662   0.606   0.652  14.777  0.7674  1.2804  0.9280
   42MPD2    N1  663   0.887   0.589  14.284 -0.1956 -0.4675  0.0657
   42MPD2    H7  664   0.805   0.622  14.234  0.7709  2.0741  0.1269
   43TMC2    C1  665   2.268   2.520   0.601  0.1806 -0.6617  0.9859
   43TMC2    C2  666   2.213   2.638   0.565  0.5578  0.2558  0.4042
   43TMC2    C3  667   2.202   2.731   0.671  0.0910 -0.3608  0.2419
   43TMC2    C4  668   2.311   2.487   0.725  0.7414  0.0134 -0.2125
   43TMC2    C5  669   2.309   2.589   0.815 -0.9048  0.2737 -0.1189
   43TMC2    C6  670   2.251   2.707   0.790 -0.5384  0.3824 -0.9596
   43TMC2     C  671   2.335   2.454   0.494  0.4805 -0.2033  0.1055
   43TMC2     O  672   2.388   2.350   0.526  0.6920  0.4694 -0.1240
   43TMC2     H  673   2.167   2.651   0.468 -0.8289  1.9153  1.2791
   43TMC2    H1  674   2.361   2.393   0.741  2.2044  0.7279 -0.6295
   43TMC2    H2  675   2.245   2.777   0.873  2.5473  0.4905 -0.8228
   43TMC2    C7  676   2.391   2.579   0.929 -0.5832  0.0130 -0.2189
   43TMC2    C8  677   2.095   2.837   0.662  0.7786 -0.2157  0.3160
   43TMC2    O1  678   2.405   2.469   0.974 -0.2856 -0.5520  0.2694
   43TMC2    O2  679   2.029   2.872   0.756  0.0702 -0.4724 -0.5033
   43TMC2    O5  680   2.104   2.900   0.538 -0.3772  0.5631 -0.5799
   43TMC2    H5  681   2.176   2.863   0.482  0.8678 -0.0551  1.4437
   44MPD2     C  682   2.549   2.431   0.031  0.4563 -0.2444  0.3974
   44MPD2    C1  683   2.582   2.356   0.142  0.2655  0.1893 -0.0251
   44MPD2    C2  684   2.508   2.384   0.261 -0.9666 -0.9338  0.3963
   44MPD2    C3  685   2.413   2.489   0.264 -0.3890  0.1506 -0.0365
   44MPD2    C4  686   2.402   2.569   0.155  0.7864 -0.5298  0.2152
   44MPD2    C5  687   2.466   2.536   0.039 -1.3490  0.1483  0.6538
   44MPD2     H  688   2.532   2.325   0.349 -1.2190  0.7913  1.6185
   44MPD2    H1  689   2.338   2.656   0.157  0.1071 -1.0537  1.4695
   44MPD2    H2  690   2.594   2.410  17.684  0.2158 -1.3171  0.5178
   44MPD2    H3  691   2.445   2.593  17.698 -0.7502  0.7414  0.8882
   44MPD2     N  692   2.343   2.528   0.383  0.4972  0.3399  0.3012
   44MPD2    H5  693   2.295   2.617   0.387 -0.1749 -0.0773  1.4658
   44MPD2    N1  694   2.699   2.277   0.146 -0.0170 -0.0979 -0.3324
   44MPD2    H7  695   2.724   2.239   0.237  0.4157 -2.6902 -1.5319
   45TMC2    C1  696   3.085   0.406  10.120 -0.5495  0.2204  0.7896
   45TMC2    C2  697   3.186   0.320  10.084  0.1836  0.0568 -0.2697
   45TMC2    C3  698   3.314   0.363  10.064 -0.0436  0.3810 -0.0414
   45TMC2    C4  699   3.117   0.523  10.178  0.6027  0.6456 -0.4163
   45TMC2    C5  700   3.247   0.560  10.168 -1.3146  0.0885  0.1862
   45TMC2    C6  701   3.352   0.482  10.120  0.6553  0.3976  0.8091
   45TMC2     C  702   2.946   0.355  10.120 -0.4585  0.4940 -0.3016
   45TMC2     O  703   2.938   0.234  10.126  0.3059  0.5442  0.1462
   45TMC2     H  704   3.155   0.231  10.030 -0.2848  0.1896 -0.2180
   45TMC2    H1  705   3.050   0.602  10.212  0.4076  0.9585 -1.5156
   45TMC2    H2  706   3.456   0.502  10.140  1.2152  1.0229 -2.8904
   45TMC2    C7  707   3.278   0.684  10.221 -0.0868  0.0627  0.5146
   45TMC2    C8  708   3.418   0.261  10.065  0.1330 -0.5622  0.3258
   45TMC2    O1  709   3.197   0.735  10.295  0.4455  0.4996  0.0089
   45TMC2    O2  710   3.534   0.286  10.057 -0.1589 -0.1566  0.2798
   45TMC2    O5  711   3.356   0.169  10.136 -0.0349 -0.4530 -0.1791
   45TMC2    H5  712   3.294   0.216  10.196  1.1152 -0.7137  1.2191
   46MPD2     C  713   2.673   0.280  10.090 -0.1127  0.1311 -0.0650
   46MPD2    C1  714   2.715   0.412  10.079 -0.1680  0.7175 -0.5622
   46MPD2    C2  715   2.626   0.510  10.038  0.0856  0.4353 -0.0586
   46MPD2    C3  716   2.506   0.472   9.983  0.8074  0.0855  0.7998
   46MPD2    C4  717   2.464   0.339  10.001 -0.5122 -0.6030  0.2388
   46MPD2    C5  718   2.547   0.249  10.056 -0.7998 -0.5013 -0.4728
   46MPD2     H  719   2.666   0.610  10.026 -2.1832  1.3898  0.3235
   46MPD2    H1  720   2.366   0.298   9.979 -0.9760  1.2240 -1.0391
   46MPD2    H2  721   2.721   0.197  10.141  1.5351  0.1265 -1.6044
   46MPD2    H3  722   2.508   0.149  10.071 -1.2951 -0.6313 -2.5826
   46MPD2     N  723   2.410   0.576   9.935 -0.0859 -0.9236  0.5077
   46MPD2    H5  724   2.427   0.673   9.958  0.3860 -0.4390 -1.8756
   46MPD2    N1  725   2.847   0.450  10.098  0.4889 -0.4931  0.3955
   46MPD2    H7  726   2.872   0.548  10.094 -0.7424 -0.1228  1.8960
   47TMC2    C1  727   0.173   1.691   9.871  0.3197 -0.6036 -0.6374
   47TMC2    C2  728   0.157   1.565   9.827  0.0066 -0.0730  0.1539
   47TMC2    C3  729   0.042   1.544   9.751 -0.3848 -0.8256 -0.4829
   47TMC2    C4  730   0.078   1.786   9.856 -0.2179  0.4137  0.2995
   47TMC2    C5  731   4.698   1.755   9.801  0.0911  0.6024  0.3676
   47TMC2    C6  732   4.683   1.637   9.738  0.6486  0.4554 -0.0932
   47TMC2     C  733   0.297   1.732   9.938  0.4527 -0.0380 -0.2866
   47TMC2     O  734   0.292   1.832  10.005  0.3787 -0.3036  0.1781
   47TMC2     H  735   0.211   1.477   9.860  1.2300  0.7997  0.4892
   47TMC2    H1  736   0.100   1.886   9.894 -3.9589  2.7500 -3.5993
   47TMC2    H2  737   4.595   1.628   9.675  0.5340 -0.4119  0.1880
   47TMC2    C7  738   4.597   1.855   9.779  0.4117 -0.1197  0.3235
   47TMC2    C8  739   4.737   1.410   9.720 -0.4248  0.8374  0.2774
   47TMC2    O1  740   4.483   1.804   9.770  0.4173 -0.1004  0.3077
   47TMC2    O2  741   4.718   1.324   9.799 -0.2506 -0.1081  0.5387
   47TMC2    O5  742   4.701   1.417   9.590 -0.1452  0.2515 -0.1665
   47TMC2    H5  743   0.009   1.490   9.543  1.1550  0.3588  1.2899
   48MPD2     C  744   0.572   1.774  10.042  0.4013 -0.2870  0.0924
   48MPD2    C1  745   0.531   1.666   9.971  0.1993 -0.8685  0.0268
   48MPD2    C2  746   0.621   1.560   9.960  0.2312  1.1197 -0.0493
   48MPD2    C3  747   0.735   1.555  10.036  0.0917 -0.1326 -0.7201
   48MPD2    C4  748   0.778   1.667  10.108  0.1637  0.2033 -0.4063
   48MPD2    C5  749   0.694   1.776  10.107  0.3950  0.5817 -0.0437
   48MPD2     H  750   0.593   1.466   9.913  0.4315  0.1974  1.6902
   48MPD2    H1  751   0.864   1.654  10.173  0.8433  0.0729 -1.3356
   48MPD2    H2  752   0.509   1.861  10.051  2.5607  1.1534  1.2176
   48MPD2    H3  753   0.720   1.855  10.177  2.6254 -0.1529 -0.0455
   48MPD2     N  754   0.810   1.437  10.015 -0.2434 -0.1810  0.6102
   48MPD2    H5  755   0.784   1.374   9.940 -1.1090  0.4108  0.4099
   48MPD2    N1  756   0.404   1.646   9.920  0.1782 -0.4193 -0.2255
   48MPD2    H7  757   0.390   1.558   9.871  1.9998 -0.6449 -0.3145
   49TMC2    C1  758   3.331   3.675  10.156  0.3175 -0.6208 -0.3671
   49TMC2    C2  759   3.345   3.744  10.043 -0.2226 -0.2774  0.2180
   49TMC2    C3  760   3.249   3.737   9.951 -0.3608  0.2417  0.1464
   49TMC2    C4  761   3.219   3.599  10.180  0.3822 -0.2676  0.3295
   49TMC2    C5  762   3.128   3.591  10.082  1.0384 -0.1527 -0.3040
   49TMC2    C6  763   3.131   3.669   9.967  0.0864 -0.0849 -0.2047
   49TMC2     C  764   3.417   3.709  10.274 -0.2763  1.1736  0.4409
   49TMC2     O  765   3.467   3.823  10.272 -0.4323  0.2439  0.2901
   49TMC2     H  766   3.437   3.797  10.021 -0.4510 -0.4980 -1.2458
   49TMC2    H1  767   3.208   3.550  10.276 -2.0933 -1.1655 -0.4191
   49TMC2    H2  768   3.053   3.665   9.892 -1.0032 -1.7409  1.0338
   49TMC2    C7  769   3.013   3.506  10.107  0.4723  0.0911  0.1314
   49TMC2    C8  770   3.253   3.813   9.828  0.0008 -0.4664 -0.1774
   49TMC2    O1  771   2.969   3.486  10.216  0.7062 -0.1457 -0.0197
   49TMC2    O2  772   3.223   3.781   9.714 -0.2671 -0.7968 -0.4436
   49TMC2    O5  773   3.261   3.938   9.874 -0.2629 -0.1690  0.4454
   49TMC2    H5  774   3.248   3.954   9.970 -0.6123 -0.8880  0.5188
   50MPD2     C  775   3.512   3.749  10.546 -0.3954  0.5294 -0.2414
   50MPD2    C1  776   3.458   3.632  10.504 -0.2563  0.2244 -0.3205
   50MPD2    C2  777   3.445   3.532  10.596 -0.6566 -0.1840  0.4331
   50MPD2    C3  778   3.488   3.549  10.728  0.1125  0.0766  0.2677
   50MPD2    C4  779   3.537   3.671  10.765 -0.7194 -0.9721  0.3036
   50MPD2    C5  780   3.545   3.773  10.680 -0.1210  0.1249  0.7454
   50MPD2     H  781   3.405   3.434  10.575  1.6442 -1.2937  1.1987
   50MPD2    H1  782   3.582   3.693  10.860  0.3942  0.3551 -0.5334
   50MPD2    H2  783   3.525   3.836  10.483  1.5491  0.7208  0.4086
   50MPD2    H3  784   3.588   3.868  10.708 -0.3333  0.2985  0.4733
   50MPD2     N  785   3.469   3.453  10.825  0.0965 -0.6792  0.2843
   50MPD2    H5  786   3.487   3.483  10.920  0.9483 -0.5982  0.0991
   50MPD2    N1  787   3.409   3.616  10.374  0.5989  0.6589  0.0109
   50MPD2    H7  788   3.366   3.526  10.355  1.6015  0.8207 -3.0250
   51TMC2    C1  789   3.670   2.193   1.182  0.1844 -0.3640 -0.0773
   51TMC2    C2  790   3.679   2.328   1.223  0.2212 -0.1808  0.4497
   51TMC2    C3  791   3.638   2.413   1.123  0.2668 -0.0091  0.0050
   51TMC2    C4  792   3.599   2.154   1.070  0.1350  0.1142 -0.8373
   51TMC2    C5  793   3.568   2.253   0.977  0.7278  0.7024  0.6111
   51TMC2    C6  794   3.589   2.385   1.000 -0.1627  0.1181  0.6817
   51TMC2     C  795   3.763   2.090   1.237  0.2233 -0.6064 -0.2160
   51TMC2     O  796   3.753   1.976   1.199  0.4137 -0.0038  0.1606
   51TMC2     H  797   3.713   2.359   1.321 -1.9886 -0.9435  1.4681
   51TMC2    H1  798   3.579   2.048   1.055 -2.0614  0.6029 -1.4008
   51TMC2    H2  799   3.572   2.462   0.925 -1.6551  0.0849  0.9866
   51TMC2    C7  800   3.586   2.210   0.841 -0.9498 -0.6545 -0.6085
   51TMC2    C8  801   3.660   2.558   1.146 -0.1833  0.2310  0.9094
   51TMC2    O1  802   3.651   2.275   0.764  0.9854 -0.7647 -0.1181
   51TMC2    O2  803   3.669   2.640   1.055  0.6848 -0.3485 -0.5248
   51TMC2    O5  804   3.638   2.585   1.276  0.2391  0.2168  0.2498
   51TMC2    H5  805   3.615   2.510   1.334 -1.2124  0.6085  0.1849
   52MPD2     C  806   4.189   1.928   1.442  0.2821 -0.2345  0.4589
   52MPD2    C1  807   4.079   1.861   1.400  0.5743  0.3639  0.2006
   52MPD2    C2  808   3.978   1.938   1.354  0.1156  0.1781  0.0157
   52MPD2    C3  809   3.983   2.077   1.339  0.0520 -0.0421  0.6898
   52MPD2    C4  810   4.095   2.141   1.390  0.2604  0.3587 -0.0774
   52MPD2    C5  811   4.197   2.066   1.442 -0.2450 -0.0214  0.5607
   52MPD2     H  812   3.885   1.887   1.334 -0.3049  1.1691 -0.5524
   52MPD2    H1  813   4.117   2.247   1.381 -3.6119  1.1606 -0.0708
   52MPD2    H2  814   4.281   1.886   1.482  0.2442 -0.2466  0.5321
   52MPD2    H3  815   4.279   2.116   1.493  0.8899 -1.1923 -0.1167
   52MPD2     N  816   3.870   2.151   1.299 -0.2596  0.4654  0.2839
   52MPD2    H5  817   3.872   2.252   1.304 -1.3205  0.5758 -1.5151
   52MPD2    N1  818   4.067   1.725   1.424  0.0514 -0.5108 -0.1659
   52MPD2    H7  819   3.987   1.675   1.386 -0.9617  1.3736 -0.5257
   53TMC2    C1  820   4.495   0.887  11.812  0.1256 -0.0794 -0.2056
   53TMC2    C2  821   4.624   0.851  11.787 -0.1759  0.2262  0.3172
   53TMC2    C3  822   4.698   0.805  11.893  0.5336 -0.2608 -0.3221
   53TMC2    C4  823   4.429   0.860  11.932  0.3557  0.1239  0.2889
   53TMC2    C5  824   4.504   0.812  12.035  0.0165  0.2925  0.3945
   53TMC2    C6  825   4.639   0.790  12.017 -0.3215 -0.1555  0.4427
   53TMC2     C  826   4.406   0.883  11.698 -0.1750  0.1544  0.4740
   53TMC2     O  827   4.466   0.914  11.595  0.3783  0.1529 -0.1743
   53TMC2     H  828   4.667   0.849  11.687 -0.6086 -1.7911  0.1623
   53TMC2    H1  829   4.326   0.882  11.955 -0.2384 -1.7619 -0.6070
   53TMC2    H2  830   4.703   0.782  12.104  0.4320  1.1601  0.0144
   53TMC2    C7  831   4.442   0.776  12.163 -1.0855  0.1324 -0.5842
   53TMC2    C8  832   0.104   0.799  11.887 -0.3007 -0.6418 -0.4367
   53TMC2    O1  833   4.324   0.810  12.172 -0.1285  0.1744  0.1354
   53TMC2    O2  834   0.179   0.828  11.978 -0.1876 -0.9399  0.3454
   53TMC2    O5  835   0.147   0.744  11.773 -0.0518  0.2446 -0.0956
   53TMC2    H5  836   0.091   0.674  11.734  1.0588 -1.1687  0.8492
   54MPD2     C  837   4.183   0.883  11.524  0.3801  0.5169  0.3498
   54MPD2    C1  838   4.172   0.847  11.652  1.2120  0.4863  0.1966
   54MPD2    C2  839   4.052   0.817  11.707 -0.2226 -0.3067 -0.4607
   54MPD2    C3  840   3.933   0.811  11.631 -0.4011  0.2328  1.1289
   54MPD2    C4  841   3.951   0.841  11.498  0.1180 -0.0885  0.4226
   54MPD2    C5  842   4.068   0.881  11.449  0.7202 -0.0978 -1.0211
   54MPD2     H  843   4.053   0.785  11.811 -0.2000 -0.0199 -0.3749
   54MPD2    H1  844   3.867   0.819  11.432  1.8969  0.1586 -1.9503
   54MPD2    H2  845   4.277   0.911  11.478  0.7976 -1.8795 -0.2596
   54MPD2    H3  846   4.067   0.894  11.341  0.9774 -0.8457 -1.1133
   54MPD2     N  847   3.812   0.768  11.679  0.2989  0.2941 -0.3360
   54MPD2    H5  848   3.739   0.745  11.611  0.8111 -1.1847 -0.3894
   54MPD2    N1  849   4.281   0.843  11.733 -0.1478  0.2822 -0.1267
   54MPD2    H7  850   4.274   0.786  11.816 -2.6863  0.3426 -0.2930
   55TMC2    C1  851   0.128   3.764   0.313 -0.4409  0.7050 -0.3207
   55TMC2    C2  852   0.130   3.882   0.235  0.2515 -0.3019 -0.1836
   55TMC2    C3  853   0.254   3.927   0.206 -0.2356  0.1664  0.5150
   55TMC2    C4  854   0.240   3.684   0.334 -0.0431 -0.2440 -0.9576
   55TMC2    C5  855   0.362   3.744   0.303 -0.1754  0.0625 -0.1893
   55TMC2    C6  856   0.366   3.860   0.241 -0.4862  0.0508 -0.9613
   55TMC2     C  857   4.734   3.700   0.334  0.1089 -0.4046  0.4458
   55TMC2     O  858   4.735   3.594   0.395 -0.2227  0.1528 -0.5724
   55TMC2     H  859   0.040   3.915   0.183  1.3038  0.1689 -1.7071
   55TMC2    H1  860   0.231   3.581   0.366 -2.8211  0.4839  0.6339
   55TMC2    H2  861   0.467   3.895   0.224 -0.2311  0.5397  1.4500
   55TMC2    C7  862   0.483   3.667   0.315  0.0924 -0.4862 -0.8291
   55TMC2    C8  863   0.265   4.058   0.140  0.5621  0.2530  0.3684
   55TMC2    O1  864   0.568   3.672   0.227  0.4144  0.2581  0.1155
   55TMC2    O2  865   0.378   4.085   0.095  0.0497 -0.0983  0.5013
   55TMC2    O5  866   0.160   4.138   0.163 -0.3679  0.6506 -0.5024
   55TMC2    H5  867   0.080   4.096   0.202 -1.4963  2.1575 -1.1830
   56MPD2     C  868   4.396   3.844   0.249 -0.3172 -0.0703  0.7255
   56MPD2    C1  869   4.486   3.742   0.292 -0.1902  0.6265  0.9024
   56MPD2    C2  870   4.443   3.614   0.298  0.3895  0.2291  0.3475
   56MPD2    C3  871   4.309   3.577   0.269  0.5314  0.4211  0.4403
   56MPD2    C4  872   4.226   3.674   0.223  0.5187 -0.8418  0.0586
   56MPD2    C5  873   4.266   3.810   0.222  0.1267 -0.4604 -0.0611
   56MPD2     H  874   4.520   3.540   0.318  0.8501  0.4513 -0.5924
   56MPD2    H1  875   4.131   3.659   0.174 -0.2680 -1.3636  1.7309
   56MPD2    H2  876   4.431   3.945   0.232 -3.8993  0.8275 -1.2141
   56MPD2    H3  877   4.207   3.885   0.171 -0.1505 -0.2786  0.5308
   56MPD2     N  878   4.280   3.440   0.282 -0.1990  0.1571 -0.1309
   56MPD2    H5  879   4.351   3.390   0.335  0.1054 -0.9268 -1.5778
   56MPD2    N1  880   4.624   3.776   0.292 -0.0218 -1.0532 -0.3143
   56MPD2    H7  881   4.646   3.868   0.255  3.1735 -2.0930 -0.9940
   57TMC2    C1  882   3.865   3.474  13.658  0.4648  0.0391 -0.4691
   57TMC2    C2  883   3.791   3.452  13.548 -0.4912  0.1262  1.0278
   57TMC2    C3  884   3.853   3.425  13.427 -0.4183  0.1550  0.6531
   57TMC2    C4  885   4.001   3.467  13.650  0.4055 -0.8178  0.0100
   57TMC2    C5  886   4.058   3.445  13.530 -0.4529 -0.3079 -0.6336
   57TMC2    C6  887   3.987   3.429  13.419 -0.9167 -0.1969  0.3982
   57TMC2     C  888   3.798   3.514  13.783  0.3215 -0.5890 -1.1460
   57TMC2     O  889   3.680   3.549  13.773 -0.3487 -0.4167 -0.9484
   57TMC2     H  890   3.683   3.443  13.554 -0.7017  0.5465 -2.0513
   57TMC2    H1  891   4.071   3.481  13.732 -0.5167 -1.5757  0.9202
   57TMC2    H2  892   4.028   3.395  13.324 -0.8498  0.1054  0.3193
   57TMC2    C7  893   4.204   3.443  13.524 -0.0194 -0.9189  0.5986
   57TMC2    C8  894   3.783   3.370  13.310 -0.0368  0.3801 -1.1268
   57TMC2    O1  895   4.267   3.395  13.615  0.4685 -0.3055 -0.1766
   57TMC2    O2  896   3.843   3.345  13.203  0.5709  0.6618  0.3521
   57TMC2    O5  897   3.687   3.290  13.360  0.1820 -0.0584 -0.6175
   57TMC2    H5  898   3.703   3.277  13.456 -0.8838 -0.4136 -0.4916
   58MPD2     C  899   3.880   3.646  14.269 -0.1177 -0.8232  0.3256
   58MPD2    C1  900   3.805   3.706  14.172  0.8712 -0.1990  0.8988
   58MPD2    C2  901   3.787   3.642  14.051 -0.5034 -0.0439  0.0460
   58MPD2    C3  902   3.861   3.529  14.024  0.0333  0.0434 -0.2509
   58MPD2    C4  903   3.933   3.468  14.124 -0.7273  0.1202  0.1453
   58MPD2    C5  904   3.935   3.524  14.250  0.2829 -0.1940 -0.2773
   58MPD2     H  905   3.718   3.686  13.980 -0.4926  1.2375  0.8112
   58MPD2    H1  906   3.985   3.374  14.116 -0.6155  0.1546  0.4795
   58MPD2    H2  907   3.885   3.685  14.370  0.3955 -2.3585  0.8945
   58MPD2    H3  908   3.994   3.479  14.330 -0.2430 -1.5053 -0.6182
   58MPD2     N  909   3.876   3.487  13.893  0.0521 -0.3682  0.0216
   58MPD2    H5  910   3.953   3.421  13.887  0.8208  0.5816 -0.5181
   58MPD2    N1  911   3.746   3.831  14.193  0.2758  0.8552 -0.5023
   58MPD2    H7  912   3.675   3.865  14.129 -0.5013  1.8737  0.8804
   59TMC2    C1  913   1.934   4.091  13.193 -0.2202 -0.0078  0.0259
   59TMC2    C2  914   2.040   4.153  13.139  0.3611 -0.0536 -0.4205
   59TMC2    C3  915   2.026   4.192  13.006  0.0500  0.3083  0.1511
   59TMC2    C4  916   1.812   4.080  13.136  0.3932  1.4187  0.0538
   59TMC2    C5  917   1.804   4.118  13.003  0.2304 -0.5067 -0.2712
   59TMC2    C6  918   1.911   4.181  12.939  0.0141  0.3395  0.2332
   59TMC2     C  919   1.919   4.068  13.340  0.0059 -0.3632 -0.3923
   59TMC2     O  920   1.818   3.996  13.368 -0.5744 -0.2187 -0.2856
   59TMC2     H  921   2.133   4.149  13.194 -0.2765 -2.8278  0.4393
   59TMC2    H1  922   1.738   4.011  13.172  0.1280  1.4117 -0.5054
   59TMC2    H2  923   1.908   4.212  12.835  2.3051 -2.3402 -0.6087
   59TMC2    C7  924   1.672   4.122  12.950 -0.6897 -0.5422 -0.3521
   59TMC2    C8  925   2.122   4.278  12.948 -0.5681 -0.6193  0.5471
   59TMC2    O1  926   1.585   4.089  13.033  0.3764  0.3388  0.5664
   59TMC2    O2  927   2.084   4.370  12.879 -0.2137  0.2956 -0.2183
   59TMC2    O5  928   2.227   4.285  13.036  0.0193 -0.9617  0.1371
   59TMC2    H5  929   2.252   4.194  13.063 -0.7156 -0.9951  0.6914
   60MPD2     C  930   1.984   4.008  13.619  0.0730  0.3867  0.2620
   60MPD2    C1  931   2.032   4.117  13.554  0.0794  0.1105  0.0143
   60MPD2    C2  932   2.099   4.215  13.635  0.5018  0.6450  0.1492
   60MPD2    C3  933   2.112   4.210  13.772  0.8816 -0.3810 -0.0246
   60MPD2    C4  934   2.066   4.096  13.837 -0.9912  0.3247 -0.1342
   60MPD2    C5  935   1.999   4.001  13.758 -0.3348 -0.5104  0.2640
   60MPD2     H  936   2.130   4.297  13.571  1.4160 -0.1971 -0.4767
   60MPD2    H1  937   2.082   4.080  13.943 -2.4688 -0.9129 -0.0934
   60MPD2    H2  938   1.931   3.929  13.566 -0.6988  0.9280  0.2257
   60MPD2    H3  939   1.967   3.910  13.808  1.6632 -1.5554 -0.3489
   60MPD2     N  940   2.174   4.306  13.849 -0.4919 -0.8117  0.2323
   60MPD2    H5  941   2.179   4.293  13.949  1.4703 -1.4935  0.0527
   60MPD2    N1  942   2.008   4.141  13.419  0.3851  0.0863  0.0205
   60MPD2    H7  943   2.051   4.216  13.365 -2.5868  1.3308 -0.6257
   61TMC2    C1  944   0.982   1.185  15.815 -0.0080 -0.8646 -0.1051
   61TMC2    C2  945   0.991   1.171  15.947  0.1900  0.6381  0.0132
   61TMC2    C3  946   0.967   1.277  16.021 -0.2873  0.6609 -0.3711
   61TMC2    C4  947   0.973   1.310  15.751 -0.3192 -0.0904  0.2555
   61TMC2    C5  948   0.952   1.411  15.833  0.2401  0.3068  0.1935
   61TMC2    C6  949   0.943   1.405  15.969 -0.7869  0.1209  0.1737
   61TMC2     C  950   1.032   1.076  15.732 -0.3138  0.2196  0.6867
   61TMC2     O  951   1.086   0.979  15.786  0.3978 -0.1256 -0.1976
   61TMC2     H  952   1.008   1.070  15.983 -0.1264  0.5650 -0.0396
   61TMC2    H1  953   0.974   1.325  15.643 -2.6883  0.4269  0.3022
   61TMC2    H2  954   0.910   1.482  16.036 -0.8085 -0.4095  0.7695
   61TMC2    C7  955   0.982   1.538  15.780 -0.1159  0.5963  0.6253
   61TMC2    C8  956   0.923   1.252  16.154  0.6711  0.1400 -0.2032
   61TMC2    O1  957   0.972   1.542  15.657  0.3231  0.5385 -0.5379
   61TMC2    O2  958   0.937   1.332  16.248  0.3177 -0.4485 -0.2079
   61TMC2    O5  959   0.846   1.146  16.167  0.6618  0.3712 -0.5092
   61TMC2    H5  960   0.808   1.131  16.078 -0.1993 -0.3752 -0.0209
   62MPD2     C  961   1.116   0.894  15.516 -0.8635 -0.2679  0.7196
   62MPD2    C1  962   1.065   1.023  15.497  1.2751 -0.4789 -0.3655
   62MPD2    C2  963   1.076   1.073  15.376  0.0891  0.2702 -0.0870
   62MPD2    C3  964   1.142   1.014  15.270  0.0872 -0.6978  0.1904
   62MPD2    C4  965   1.200   0.888  15.293  0.5255  0.4362 -0.1731
   62MPD2    C5  966   1.176   0.826  15.410  0.0943  1.3599  0.4534
   62MPD2     H  967   1.030   1.169  15.356 -0.7797  0.1683  1.4221
   62MPD2    H1  968   1.253   0.822  15.225  0.1737  1.5300 -1.4872
   62MPD2    H2  969   1.109   0.847  15.614 -0.6506 -2.2071 -0.1999
   62MPD2    H3  970   1.218   0.729  15.433  0.5763  1.6395  0.7495
   62MPD2     N  971   1.161   1.096  15.148  0.7857 -0.0322  0.1804
   62MPD2    H5  972   1.125   1.191  15.147 -0.5394 -0.5524 -2.2919
   62MPD2    N1  973   1.017   1.103  15.599 -0.0930  0.4180  0.0996
   62MPD2    H7  974   0.976   1.192  15.574  0.6483  1.0188  1.0402
   63TMC2    C1  975   0.754   1.061  11.277 -0.1114  0.3277  0.1074
   63TMC2    C2  976   0.876   1.081  11.335  0.9112 -0.2769  0.2270
   63TMC2    C3  977   0.956   1.176  11.276  0.7652 -0.9286  0.2600
   63TMC2    C4  978   0.711   1.132  11.164 -0.6133  0.0651  0.3154
   63TMC2    C5  979   0.792   1.238  11.118  0.2025  0.3039 -0.5300
   63TMC2    C6  980   0.916   1.259  11.169  0.1780 -1.0899 -0.1181
   63TMC2     C  981   0.684   0.951  11.334  0.1594  0.2064 -0.9389
   63TMC2     O  982   0.705   0.933  11.454  0.1962 -0.7124  0.9106
   63TMC2     H  983   0.912   1.036  11.427  0.0270 -0.2922  0.5592
   63TMC2    H1  984   0.610   1.119  11.127 -0.9440  5.4087 -0.6767
   63TMC2    H2  985   0.979   1.343  11.143 -1.5858 -0.1256 -1.3477
   63TMC2    C7  986   0.724   1.314  11.013  0.0021  0.0215 -0.5852
   63TMC2    C8  987   1.042   1.250  11.363 -0.6518  0.9917  0.5331
   63TMC2    O1  988   0.599   1.307  11.008  0.1527  0.0137 -0.0627
   63TMC2    O2  989   1.044   1.374  11.369  0.0545  0.0484 -0.0344
   63TMC2    O5  990   1.128   1.163  11.425 -0.5199  0.2568  1.0111
   63TMC2    H5  991   1.105   1.070  11.406  3.2590 -0.7553  1.4105
   64MPD2     C  992   0.329   0.580  11.274 -0.1886 -0.1169  0.1555
   64MPD2    C1  993   0.374   0.634  11.153  0.4729 -0.4116 -0.5267
   64MPD2    C2  994   0.450   0.743  11.149 -0.5464 -0.8268  0.5233
   64MPD2    C3  995   0.510   0.792  11.263  0.3056 -0.3358 -0.1715
   64MPD2    C4  996   0.475   0.739  11.385 -0.2535  0.3960 -0.3641
   64MPD2    C5  997   0.382   0.634  11.386  0.5265 -0.2996  0.6031
   64MPD2     H  998   0.474   0.779  11.050 -2.2465  1.0005  0.7861
   64MPD2    H1  999   0.517   0.766  11.481  1.5085  1.2771 -1.3871
   64MPD2    H2 1000   0.263   0.494  11.274  0.3923 -0.5671  1.3285
   64MPD2    H3 1001   0.337   0.605  11.480  0.0333 -3.2778 -0.5428
   64MPD2     N 1002   0.606   0.892  11.239  0.4109 -0.1290  0.0104
   64MPD2    H5 1003   0.629   0.913  11.143  0.1288 -0.4090 -0.1193
   64MPD2    N1 1004   0.321   0.587  11.027  0.1448  0.7710 -0.3313
   64MPD2    H7 1005   0.384   0.606  10.949  2.5486 -2.6814  0.7535
   65TMC2    C1 1006   1.944   0.672  15.416 -0.7035 -0.1285 -0.5539
   65TMC2    C2 1007   1.911   0.595  15.304 -0.6041  0.5072 -0.1533
   65TMC2    C3 1008   1.876   0.664  15.187 -0.7067 -0.6328  0.1318
   65TMC2    C4 1009   1.957   0.808  15.404  0.3395  0.9954 -0.3204
   65TMC2    C5 1010   1.918   0.869  15.290 -0.0870  0.7441  0.0976
   65TMC2    C6 1011   1.872   0.800  15.186  0.0144  0.0422  0.5233
   65TMC2     C 1012   1.997   0.614  15.541 -0.2103 -0.3549  0.3118
   65TMC2     O 1013   2.015   0.685  15.639 -0.4219 -0.1066  0.4264
   65TMC2     H 1014   1.905   0.487  15.295 -2.3232  0.5508  0.4063
   65TMC2    H1 1015   2.003   0.856  15.490 -0.4689  2.0787 -0.4849
   65TMC2    H2 1016   1.826   0.857  15.106  0.5914 -1.1723 -0.6883
   65TMC2    C7 1017   1.880   1.005  15.297  0.2571 -0.0011  0.4441
   65TMC2    C8 1018   1.816   0.580  15.085 -0.7494 -0.1698  0.3423
   65TMC2    O1 1019   1.845   1.059  15.190  0.4132 -0.3440 -0.0007
   65TMC2    O2 1020   1.733   0.490  15.109 -0.3097 -0.5538 -0.0545
   65TMC2    O5 1021   1.822   0.643  14.968  0.2268 -0.3584 -0.3813
   65TMC2    H5 1022   1.901   0.701  14.963  0.7541 -0.9596  0.8211
   66MPD2     C 1023   2.087   0.436  15.756 -0.8121  0.2688 -0.1072
   66MPD2    C1 1024   2.013   0.398  15.649  0.6091  1.4152 -0.7713
   66MPD2    C2 1025   1.958   0.272  15.640 -0.0975 -0.6052 -0.6681
   66MPD2    C3 1026   1.965   0.179  15.743  0.0726  0.1842 -0.1594
   66MPD2    C4 1027   2.037   0.213  15.855 -1.0137 -0.1008 -0.5931
   66MPD2    C5 1028   2.087   0.345  15.862  0.4455 -0.6107 -0.0654
   66MPD2     H 1029   1.910   0.248  15.546 -1.1519  1.5516 -0.6774
   66MPD2    H1 1030   2.038   0.144  15.939 -0.2238 -1.3323 -1.6222
   66MPD2    H2 1031   2.147   0.525  15.774 -1.5110  0.8937 -0.9217
   66MPD2    H3 1032   2.148   0.375  15.947 -1.2325 -2.0106  1.6323
   66MPD2     N 1033   1.906   0.048  15.731  0.1939 -0.0743  0.1632
   66MPD2    H5 1034   1.934   4.720  15.804 -3.8808 -1.8183  0.1347
   66MPD2    N1 1035   1.990   0.478  15.539  0.4521 -0.4504  0.2157
   66MPD2    H7 1036   1.941   0.443  15.456 -0.4983  1.2312  0.0720
   67TMC2    C1 1037   1.468   4.321  14.603  0.0644  0.3441  0.1074
   67TMC2    C2 1038   1.439   4.236  14.709  0.2121 -0.5107  0.4162
   67TMC2    C3 1039   1.525   4.216  14.815 -0.3341 -0.5195  0.9279
   67TMC2    C4 1040   1.588   4.387  14.615  1.0857  0.3213 -0.4885
   67TMC2    C5 1041   1.668   4.375  14.730 -0.1525 -1.1581  0.2257
   67TMC2    C6 1042   1.645   4.282  14.827 -0.8887 -0.2082  0.0284
   67TMC2     C 1043   1.351   4.374  14.539 -0.7463  0.2125  0.0695
   67TMC2     O 1044   1.245   4.329  14.582  0.6514  0.4760 -0.0232
   67TMC2     H 1045   1.350   4.174  14.708 -0.4134  0.3726  1.2306
   67TMC2    H1 1046   1.627   4.444  14.532 -3.9032 -0.8015 -3.6344
   67TMC2    H2 1047   1.719   4.254  14.900  3.2093  0.2639 -3.9053
   67TMC2    C7 1048   1.782   4.466  14.731 -0.1360 -0.2505 -0.2428
   67TMC2    C8 1049   1.478   4.130  14.920  0.2973  0.4819  0.1190
   67TMC2    O1 1050   1.821   4.520  14.627 -0.2338 -0.1385  0.5400
   67TMC2    O2 1051   1.394   4.044  14.892  0.5301  0.0392  0.2385
   67TMC2    O5 1052   1.512   4.194  15.029  0.0581 -0.7559 -0.6327
   67TMC2    H5 1053   1.584   4.259  15.019  0.4308 -1.4391 -2.2939
   68MPD2     C 1054   1.144   4.504  14.368 -0.1974 -0.8606 -0.4379
   68MPD2    C1 1055   1.281   4.518  14.348 -0.8708 -0.6379 -0.1771
   68MPD2    C2 1056   1.319   4.597  14.240  0.4403 -0.4840 -0.3973
   68MPD2    C3 1057   1.231   4.650  14.152 -0.2268  0.5986  0.0644
   68MPD2    C4 1058   1.100   4.615  14.166 -0.0403  0.2200  0.2331
   68MPD2    C5 1059   1.062   4.545  14.271 -0.4010 -0.2322 -0.5011
   68MPD2     H 1060   1.426   4.611  14.228  0.0430  2.2384 -0.7166
   68MPD2    H1 1061   1.020   4.644  14.098  0.2090 -0.1399 -0.2115
   68MPD2    H2 1062   1.091   4.448  14.445 -0.8022  0.4501  0.0987
   68MPD2    H3 1063   0.959   4.520  14.292  1.0751 -3.3658  3.0392
   68MPD2     N 1064   1.284   4.726  14.047  0.4537 -0.1305  0.1960
   68MPD2    H5 1065   1.382   0.015  14.048  0.6551 -0.9148  1.2885
   68MPD2    N1 1066   1.380   4.465  14.438 -0.3064 -0.3586 -0.1666
   68MPD2    H7 1067   1.478   4.482  14.417 -0.3208  0.9872  0.8334
   69TMC2    C1 1068   4.729   0.582  12.769  0.1125 -0.0002  0.1259
   69TMC2    C2 1069   0.113   0.569  12.827  0.6287  0.2884 -0.0703
   69TMC2    C3 1070   0.217   0.635  12.767 -0.4992  0.4857  0.2537
   69TMC2    C4 1071   4.711   0.653  12.650 -0.4744 -0.0927 -0.8246
   69TMC2    C5 1072   0.081   0.706  12.591 -0.4999  0.0403  0.0896
   69TMC2    C6 1073   0.206   0.694  12.641 -0.6363 -0.7929  0.1037
   69TMC2     C 1074   4.619   0.508  12.830 -0.3501  0.7477 -0.0983
   69TMC2     O 1075   4.507   0.530  12.803 -0.1882  0.5708  0.5204
   69TMC2     H 1076   0.127   0.531  12.928 -0.4352 -0.0138 -0.0325
   69TMC2    H1 1077   4.618   0.647  12.594  0.3970 -1.1728 -2.1500
   69TMC2    H2 1078   0.293   0.734  12.591  1.3102 -4.7394  0.3424
   69TMC2    C7 1079   0.068   0.808  12.496  0.5047  0.5336  0.7198
   69TMC2    C8 1080   0.345   0.640  12.836  0.2729 -0.3642  0.3967
   69TMC2    O1 1081   0.164   0.819  12.419  0.1159 -0.1726 -0.2440
   69TMC2    O2 1082   0.367   0.574  12.938  0.8723 -0.1723 -0.0476
   69TMC2    O5 1083   0.413   0.753  12.806 -0.3422 -0.4060  0.0928
   69TMC2    H5 1084   0.373   0.822  12.750  0.3911  1.1697  1.5181
   70MPD2     C 1085   4.672   0.284  13.114 -0.1157  0.3689  0.4953
   70MPD2    C1 1086   4.597   0.352  13.022 -0.1860  0.9835 -0.3468
   70MPD2    C2 1087   4.457   0.372  13.045  0.3208  0.0310 -0.3103
   70MPD2    C3 1088   4.406   0.325  13.163 -0.4943  0.1783  0.0351
   70MPD2    C4 1089   4.481   0.249  13.246  0.3040 -0.2965 -1.1329
   70MPD2    C5 1090   4.614   0.233  13.222 -0.1205  0.2632 -1.2348
   70MPD2     H 1091   4.393   0.423  12.974 -0.4732 -0.6856 -0.1004
   70MPD2    H1 1092   4.449   0.242  13.349  1.0272 -0.5370 -0.9273
   70MPD2    H2 1093   0.043   0.288  13.108 -0.1095 -1.6871 -1.0223
   70MPD2    H3 1094   4.675   0.190  13.300 -0.8651 -2.3990 -2.1329
   70MPD2     N 1095   4.280   0.353  13.212  0.6139  0.4461 -0.5400
   70MPD2    H5 1096   4.253   0.308  13.299  2.3372 -0.4571 -0.4574
   70MPD2    N1 1097   4.667   0.415  12.916  0.1171  0.1402 -0.1456
   70MPD2    H7 1098   0.030   0.400  12.913 -0.3389 -2.8071 -0.7469
   71TMC2    C1 1099   1.089   0.537   1.605 -0.3162  0.3601  0.1608
   71TMC2    C2 1100   1.100   0.399   1.616  0.5619  0.0185  0.0518
   71TMC2    C3 1101   0.978   0.329   1.638  0.5087 -0.2175 -0.3415
   71TMC2    C4 1102   0.981   0.611   1.597 -0.0414 -0.0363 -0.2171
   71TMC2    C5 1103   0.865   0.537   1.613  0.2807 -0.3175  0.1796
   71TMC2    C6 1104   0.865   0.403   1.640  0.1491  0.7118  0.5178
   71TMC2     C 1105   1.216   0.598   1.587  0.1142  0.3305  0.9062
   71TMC2     O 1106   1.311   0.555   1.648  0.1072 -0.3659 -0.1222
   71TMC2     H 1107   1.193   0.352   1.587  0.8622 -0.4831  1.8389
   71TMC2    H1 1108   0.976   0.719   1.610 -0.0247  0.0053 -0.5547
   71TMC2    H2 1109   0.768   0.358   1.662  0.2105  1.0495  1.4670
   71TMC2    C7 1110   0.744   0.604   1.659 -0.6748 -0.3556  0.4433
   71TMC2    C8 1111   0.957   0.192   1.596  0.0196  0.4617 -0.6425
   71TMC2    O1 1112   0.676   0.550   1.747  0.1916 -0.7467 -0.0472
   71TMC2    O2 1113   0.845   0.155   1.558  0.5319 -0.6372 -0.2149
   71TMC2    O5 1114   1.061   0.113   1.630 -0.1605  0.1919 -0.7199
   71TMC2    H5 1115   1.127   0.157   1.688 -0.3849 -1.8723  1.1063
   72MPD2     C 1116   1.525   0.966   1.404 -0.5652 -0.5055 -0.1433
   72MPD2    C1 1117   1.411   0.954   1.321  0.9200  0.4377 -0.0004
   72MPD2    C2 1118   1.305   0.868   1.362  0.3114  0.1849 -1.0369
   72MPD2    C3 1119   1.325   0.784   1.472 -0.0456  0.4865  0.0626
   72MPD2    C4 1120   1.433   0.805   1.557 -0.6418  0.0246 -0.1541
   72MPD2    C5 1121   1.526   0.897   1.520  0.4320 -0.4324  0.1029
   72MPD2     H 1122   1.214   0.865   1.305  0.0084  1.1292 -0.6180
   72MPD2    H1 1123   1.450   0.745   1.645  2.0696 -0.0924 -0.7608
   72MPD2    H2 1124   1.613   1.025   1.381 -2.5018  1.4152 -2.4717
   72MPD2    H3 1125   1.608   0.910   1.590  0.3496 -0.2225  0.1595
   72MPD2     N 1126   1.215   0.701   1.497 -0.0217 -0.2250 -0.2811
   72MPD2    H5 1127   1.136   0.702   1.434 -0.4386  4.4275  0.3274
   72MPD2    N1 1128   1.397   1.022   1.200 -0.1061  0.1774  0.0276
   72MPD2    H7 1129   1.319   0.994   1.143 -0.2210  1.6597 -0.5499
   73TMC2    C1 1130   1.217   3.191  14.222  0.2649 -0.1887  0.3880
   73TMC2    C2 1131   1.175   3.257  14.325 -0.2796  0.1574 -0.5935
   73TMC2    C3 1132   1.258   3.264  14.432  0.7385  0.2328  0.1823
   73TMC2    C4 1133   1.344   3.138  14.220  0.5598  0.1385 -0.1800
   73TMC2    C5 1134   1.434   3.148  14.323 -0.9229  0.0826 -0.3587
   73TMC2    C6 1135   1.388   3.216  14.431  0.5149  0.3811 -0.5890
   73TMC2     C 1136   1.208   3.268  14.105 -0.4476  0.4147  0.1774
   73TMC2     O 1137   1.315   3.311  14.066  0.8161  0.2365 -0.6434
   73TMC2     H 1138   1.076   3.302  14.325 -0.0485  0.6615  1.1790
   73TMC2    H1 1139   1.379   3.075  14.139 -0.9326 -0.8181 -0.0872
   73TMC2    H2 1140   1.461   3.241  14.508  0.6482 -0.1095 -0.5551
   73TMC2    C7 1141   1.565   3.200  14.290  0.1262  0.0849 -0.3374
   73TMC2    C8 1142   1.257   3.385  14.515  0.0053 -0.2228  0.5899
   73TMC2    O1 1143   1.664   3.155  14.341  0.3613 -0.3245 -0.6314
   73TMC2    O2 1144   1.329   3.393  14.614 -0.4595 -0.1430 -0.6550
   73TMC2    O5 1145   1.217   3.488  14.433  0.1959 -0.1451 -0.4917
   73TMC2    H5 1146   1.131   3.469  14.391 -0.6819 -0.1373  1.2719
   74MPD2     C 1147   0.945   3.574  13.778 -0.0768 -0.3698  0.4874
   74MPD2    C1 1148   1.077   3.570  13.813  0.9128 -0.0911  0.4340
   74MPD2    C2 1149   1.120   3.473  13.907  0.1215  0.5917 -0.4166
   74MPD2    C3 1150   1.040   3.374  13.960 -0.0001 -0.2929  0.1126
   74MPD2    C4 1151   0.914   3.381  13.922 -0.1771  0.1493  0.0829
   74MPD2    C5 1152   0.866   3.477  13.835  0.5363 -0.1978 -0.3633
   74MPD2     H 1153   1.227   3.464  13.921  0.2417 -0.3143 -1.8907
   74MPD2    H1 1154   0.844   3.318  13.975 -0.4949  2.8774  2.9519
   74MPD2    H2 1155   0.895   3.644  13.713  0.2507 -1.4747 -0.9537
   74MPD2    H3 1156   0.760   3.482  13.810  0.1014  1.5341  1.7774
   74MPD2     N 1157   1.079   3.283  14.060 -1.2242 -0.3141 -0.4009
   74MPD2    H5 1158   1.011   3.225  14.109 -0.8693 -0.4399 -0.0508
   74MPD2    N1 1159   1.164   3.660  13.749  0.9075  0.2665  0.1003
   74MPD2    H7 1160   1.123   3.713  13.673  0.6484  1.4981  1.1140
   75TMC2    C1 1161   1.273   0.103  13.834  0.2347  0.8306  0.5106
   75TMC2    C2 1162   1.388   0.170  13.866  0.5829 -0.3927  0.1444
   75TMC2    C3 1163   1.427   0.256  13.773  0.2639 -0.7130 -0.4907
   75TMC2    C4 1164   1.220   0.118  13.702 -0.0437 -0.1311  0.7226
   75TMC2    C5 1165   1.279   0.200  13.611  0.6293 -1.1237  0.4640
   75TMC2    C6 1166   1.382   0.272  13.647  0.4702  0.0982  0.1891
   75TMC2     C 1167   1.211   0.020  13.932 -0.2291  0.5197  0.6196
   75TMC2     O 1168   1.106   4.703  13.903 -0.2363 -0.7835 -0.1874
   75TMC2     H 1169   1.426   0.172  13.967 -1.4845 -1.1263  0.9316
   75TMC2    H1 1170   1.123   0.078  13.676 -0.1399  0.6920 -0.1983
   75TMC2    H2 1171   1.431   0.337  13.575  2.6145 -0.3505  1.2598
   75TMC2    C7 1172   1.228   0.218  13.471  0.2079 -0.1968  0.9653
   75TMC2    C8 1173   1.545   0.331  13.807 -0.4894 -1.3545 -0.1033
   75TMC2    O1 1174   1.242   0.323  13.418 -0.2924  0.1442 -0.1855
   75TMC2    O2 1175   1.656   0.279  13.810  0.3413  0.6862  0.7824
   75TMC2    O5 1176   1.509   0.455  13.761  0.1296 -0.0007 -0.2175
   75TMC2    H5 1177   1.419   0.491  13.770  1.0223  1.9761  0.7415
   76TMC2    C1 1178   0.390   0.321  12.140 -0.2896  0.3783  0.4575
   76TMC2    C2 1179   0.260   0.265  12.166 -0.0120  0.1383  0.0932
   76TMC2    C3 1180   0.243   0.174  12.260 -0.1218  0.1722 -0.8128
   76TMC2    C4 1181   0.500   0.271  12.200  0.6252  0.6137 -0.3553
   76TMC2    C5 1182   0.476   0.170  12.296  0.4139 -0.6457 -0.2015
   76TMC2    C6 1183   0.349   0.120  12.321 -0.1188  0.2716 -0.0670
   76TMC2     C 1184   0.400   0.437  12.054 -0.3403  0.4628  0.3381
   76TMC2     O 1185   0.300   0.489  12.016 -0.2873 -0.4596 -0.5972
   76TMC2     H 1186   0.173   0.306  12.116  0.1527 -0.9907 -1.1377
   76TMC2    H1 1187   0.603   0.302  12.183 -0.0906  0.7631 -4.3098
   76TMC2    H2 1188   0.331   0.048  12.400  0.9154  0.7353  0.5820
   76TMC2    C7 1189   0.588   0.119  12.380  0.8324 -0.3320 -0.3220
   76TMC2    C8 1190   0.115   0.100  12.268  0.3263  0.1975 -0.0887
   76TMC2    O1 1191   0.562   0.008  12.429  0.1803  0.7060 -0.0497
   76TMC2    O2 1192   0.099   0.012  12.350  0.4433  0.2748  0.2713
   76TMC2    O5 1193   0.037   0.134  12.160  0.1245 -0.1072 -0.2374
   76TMC2    H5 1194   0.091   0.182  12.094 -0.6807 -1.3261 -1.7661
   77MPD2     C 1195   0.601   0.768  11.730 -0.6372 -0.6168  0.2147
   77MPD2    C1 1196   0.496   0.789  11.819 -0.5724  0.2666  0.2673
   77MPD2    C2 1197   0.474   0.690  11.917  0.0627 -0.5737  0.1596
   77MPD2    C3 1198   0.553   0.568  11.924  0.7871  0.1425  0.9321
   77MPD2    C4 1199   0.661   0.560  11.840  0.1682  0.4085  0.2477
   77MPD2    C5 1200   0.686   0.655  11.744  0.7570 -0.2356  0.2155
   77MPD2     H 1201   0.393   0.703  11.988 -0.3331  0.7179 -0.5120
   77MPD2    H1 1202   0.731   0.478  11.847 -0.4524 -0.3330 -2.1928
   77MPD2    H2 1203   0.623   0.846  11.658 -1.5186 -0.1542  0.4412
   77MPD2    H3 1204   0.774   0.635  11.684  1.2991 -0.4531  1.0913
   77MPD2     N 1205   0.524   0.455  12.009 -0.1135 -0.0463  0.0760
   77MPD2    H5 1206   0.600   0.390  12.028  0.1361 -0.5071 -2.5627
   77MPD2    N1 1207   0.406   0.896  11.829  0.0548  0.5043  0.4918
   77MPD2    H7 1208   0.330   0.878  11.894  1.3938 -1.0963  1.6016
   78TMC2    C1 1209   1.674   2.112   1.897 -0.2745  0.3086  0.7959
   78TMC2    C2 1210   1.561   2.107   1.963  0.1127 -0.5880 -0.4660
   78TMC2    C3 1211   1.481   1.995   1.947  0.6118 -1.0899 -0.0851
   78TMC2    C4 1212   1.733   2.001   1.835  0.1510 -0.1613 -0.4545
   78TMC2    C5 1213   1.654   1.888   1.823 -0.5635 -0.3659  0.6362
   78TMC2    C6 1214   1.527   1.887   1.881  0.1302  0.1408  0.4882
   78TMC2     C 1215   1.738   2.245   1.893  0.2041  0.1159  0.0680
   78TMC2     O 1216   1.672   2.347   1.918  0.3954  0.1311  0.2554
   78TMC2     H 1217   1.528   2.196   2.015 -0.9714 -0.8343 -0.7412
   78TMC2    H1 1218   1.835   1.989   1.798 -0.1218  2.8473 -2.1383
   78TMC2    H2 1219   1.466   1.798   1.879  0.0841  0.1871 -0.0958
   78TMC2    C7 1220   1.704   1.765   1.770 -0.5146 -0.1003 -0.6544
   78TMC2    C8 1221   1.354   1.986   2.015 -0.6706  0.3508  0.0623
   78TMC2    O1 1222   1.825   1.763   1.783 -0.2100 -0.3013  0.0384
   78TMC2    O2 1223   1.279   1.896   1.981  0.8232  0.5242 -0.2369
   78TMC2    O5 1224   1.337   2.070   2.126  0.2324 -0.1368 -0.1504
   78TMC2    H5 1225   1.416   2.117   2.159 -0.3551  0.2473  0.7178
   79MPD1     C 1226   2.151   2.530   1.811  0.2590  0.5931 -0.0993
   79MPD1    C1 1227   2.022   2.572   1.837  0.3827  0.0039 -0.6180
   79MPD1    C2 1228   1.928   2.471   1.840 -0.2723 -0.0106  0.6120
   79MPD1    C3 1229   1.961   2.334   1.853 -0.0861 -0.3714  0.3837
   79MPD1    C4 1230   2.090   2.300   1.827 -0.2066  0.0564 -0.1662
   79MPD1    C5 1231   2.181   2.399   1.802 -0.2747  0.3025  0.2346
   79MPD1     H 1232   1.825   2.506   1.834 -0.1253  0.3944  0.5108
   79MPD1    H1 1233   2.124   2.197   1.823 -2.3344 -0.5993 -1.1501
   79MPD1    H2 1234   2.232   2.600   1.793 -0.8577  1.5707 -1.2880
   79MPD1    H3 1235   2.284   2.378   1.774 -0.8973 -1.4297 -0.7443
   79MPD1     N 1236   1.873   2.231   1.879  0.2244  0.1749  0.3521
   79MPD1    H5 1237   1.906   2.138   1.902  1.1925  0.1360 -1.2362
   79MPD1    N1 1238   1.989   2.707   1.823  0.2751 -0.0451 -0.4555
   79MPD1    H6 1239   2.063   2.765   1.863  0.4329  0.2677 -1.1903
   79MPD1    H7 1240   1.906   2.734   1.875 -0.2371 -1.1923 -0.6766
   80TMC2    C1 1241   3.457   4.130  12.188  0.0748 -0.1106 -0.6601
   80TMC2    C2 1242   3.427   4.219  12.080 -0.2068  0.4986 -0.0323
   80TMC2    C3 1243   3.307   4.285  12.097  0.5578  0.0783  0.4292
   80TMC2    C4 1244   3.380   4.115  12.308 -0.2105 -0.4298 -0.3017
   80TMC2    C5 1245   3.262   4.190  12.319  0.8176  0.5571 -0.5100
   80TMC2    C6 1246   3.243   4.281  12.217 -0.0673  0.2079  0.7333
   80TMC2     C 1247   3.585   4.071  12.203 -0.3690  0.1086 -1.1566
   80TMC2     O 1248   3.594   3.964  12.262 -0.3439 -0.1736  0.6126
   80TMC2     H 1249   3.484   4.211  11.989 -0.7325  1.5253 -0.4495
   80TMC2    H1 1250   3.416   4.045  12.382  1.6971  1.3216  0.4200
   80TMC2    H2 1251   3.153   4.340  12.212 -1.0150 -1.0733  2.6910
   80TMC2    C7 1252   3.211   4.240  12.442 -0.2582 -0.5480  0.0265
   80TMC2    C8 1253   3.222   4.304  11.984 -0.3826 -0.2986  0.6437
   80TMC2    O1 1254   3.149   4.342  12.427  0.5385  0.3651 -0.3911
   80TMC2    O2 1255   3.112   4.253  11.996  0.5755  0.3250 -0.1325
   80TMC2    O5 1256   3.300   4.324  11.872 -0.2557 -0.3038 -0.5692
   80TMC2    H5 1257   3.391   4.358  11.885 -1.5229  1.8776  2.7560
   81MPD2     C 1258   3.884   4.052  12.242 -0.1813 -0.1741 -0.0307
   81MPD2    C1 1259   3.809   4.168  12.232  0.5947 -0.4086  0.2640
   81MPD2    C2 1260   3.865   4.282  12.281 -0.6101 -0.1036 -0.3515
   81MPD2    C3 1261   3.992   4.286  12.340  0.3943 -0.0666  0.6181
   81MPD2    C4 1262   4.055   4.168  12.350  0.7912  0.5206  0.3459
   81MPD2    C5 1263   4.001   4.049  12.305 -0.2205  0.3536  0.0428
   81MPD2     H 1264   3.816   4.378  12.272 -1.3071 -0.3993  0.3190
   81MPD2    H1 1265   4.149   4.165  12.405  0.2669  1.1002  1.2731
   81MPD2    H2 1266   3.842   3.958  12.208 -2.7693  1.7438 -2.1695
   81MPD2    H3 1267   4.051   3.954  12.322 -0.4821 -0.0202 -1.2770
   81MPD2     N 1268   4.047   4.397  12.414 -0.7262 -0.9404  0.2276
   81MPD2    H5 1269   4.138   4.380  12.455 -0.8792  0.9721  1.3416
   81MPD2    N1 1270   3.674   4.176  12.196 -0.3492  0.3192  0.3747
   81MPD2    H7 1271   3.649   4.273  12.181 -0.1729  0.2901 -0.1063
   82TMC2    C1 1272   1.858   4.549  11.634 -0.2809 -0.4752 -0.5957
   82TMC2    C2 1273   1.964   4.534  11.725  0.4145  0.1922 -0.8251
   82TMC2    C3 1274   2.076   4.475  11.676 -0.4423 -0.9425 -0.4383
   82TMC2    C4 1275   1.872   4.507  11.499  0.0436 -0.3363 -0.7147
   82TMC2    C5 1276   1.994   4.453  11.457  1.5381 -0.3640  0.2963
   82TMC2    C6 1277   2.098   4.449  11.541 -0.8242  0.3749  0.9810
   82TMC2     C 1278   1.720   4.557  11.677 -0.4335  0.5285 -0.4225
   82TMC2     O 1279   1.641   4.604  11.600  0.1396 -0.7250  0.2568
   82TMC2     H 1280   1.944   4.553  11.830  3.2955 -0.8022 -0.1116
   82TMC2    H1 1281   1.777   4.498  11.447 -0.5588  0.7739  0.1842
   82TMC2    H2 1282   2.194   4.414  11.503 -0.9637  2.0012 -0.8469
   82TMC2    C7 1283   1.979   4.323  11.396  0.4462  0.1920 -0.1563
   82TMC2    C8 1284   2.169   4.408  11.762  0.0549 -0.0616  0.2836
   82TMC2    O1 1285   2.053   4.249  11.456  0.6776  0.1959  0.4825
   82TMC2    O2 1286   2.178   4.421  11.882 -0.3609  0.1065  0.2171
   82TMC2    O5 1287   2.191   4.288  11.709  0.0778 -0.0942 -0.5922
   82TMC2    H5 1288   2.158   4.274  11.618 -2.7532 -0.5115  0.4780
   83MPD2     C 1289   1.324   4.276  11.829  0.3624  0.2872  0.7229
   83MPD2    C1 1290   1.337   4.374  11.735  0.1565  0.2236 -0.4464
   83MPD2    C2 1291   1.453   4.448  11.736 -0.0280 -0.1589 -0.2171
   83MPD2    C3 1292   1.567   4.421  11.814  0.0958  0.0744  0.4051
   83MPD2    C4 1293   1.549   4.320  11.906  0.3964  0.5713 -0.0028
   83MPD2    C5 1294   1.434   4.253  11.918 -0.1034  0.6422  0.2504
   83MPD2     H 1295   1.452   4.528  11.662 -0.3964  0.3646  0.3497
   83MPD2    H1 1296   1.624   4.284  11.977 -1.5236 -3.1778  0.1287
   83MPD2    H2 1297   1.233   4.218  11.836 -0.5678  1.5660 -0.9215
   83MPD2    H3 1298   1.423   4.182  11.999  0.7140 -1.4359 -1.4913
   83MPD2     N 1299   1.694   4.479  11.786 -0.6406 -0.4298  0.4163
   83MPD2    H5 1300   1.773   4.449  11.843  0.2530 -0.2883 -0.7393
   83MPD2    N1 1301   1.248   4.397  11.631 -0.2790  0.1700  0.4428
   83MPD2    H7 1302   1.278   4.467  11.564 -0.8664 -2.7098 -2.8655
   84TMC2    C1 1303   3.336   3.189  11.121  0.0978 -0.1454 -0.8682
   84TMC2    C2 1304   3.334   3.055  11.099 -0.4974 -0.0110 -0.8613
   84TMC2    C3 1305   3.389   3.020  10.983  0.2026 -0.3653 -0.1150
   84TMC2    C4 1306   3.399   3.273  11.041 -0.0162  0.2573  0.3702
   84TMC2    C5 1307   3.453   3.233  10.924  0.1171 -0.2659 -0.0542
   84TMC2    C6 1308   3.447   3.103  10.890 -0.2288 -0.3291  0.4645
   84TMC2     C 1309   3.267   3.251  11.232 -0.6716 -0.6540 -0.0634
   84TMC2     O 1310   3.289   3.368  11.267  0.6629  0.3723  0.0900
   84TMC2     H 1311   3.310   2.983  11.177  1.1953 -1.6453 -1.8453
   84TMC2    H1 1312   3.389   3.381  11.049 -2.4170 -0.0989  1.9791
   84TMC2    H2 1313   3.490   3.059  10.801  0.9752  1.7115  0.0539
   84TMC2    C7 1314   3.458   3.312  10.801 -0.5352  0.1080 -0.4534
   84TMC2    C8 1315   3.379   2.873  10.957 -0.2379 -0.1029  0.5697
   84TMC2    O1 1316   3.475   3.256  10.695 -0.0274  0.5984  0.0180
   84TMC2    O2 1317   3.411   2.791  11.037 -0.3236 -0.1311 -0.1255
   84TMC2    O5 1318   3.328   2.857  10.838  0.0189  0.1973  0.8579
   84TMC2    H5 1319   3.305   2.941  10.793 -1.4430  0.5444  2.2664
   85TMC2    C1 1320   4.257   1.595  16.076  0.6482  0.1095 -0.1707
   85TMC2    C2 1321   4.154   1.669  16.129  0.1466 -0.0194  0.4207
   85TMC2    C3 1322   4.151   1.800  16.110 -0.5806 -0.0816  0.3538
   85TMC2    C4 1323   4.358   1.654  16.011 -0.8109 -0.4477 -0.5652
   85TMC2    C5 1324   4.363   1.796  16.007  0.3973 -0.5196 -0.3962
   85TMC2    C6 1325   4.260   1.867  16.059 -0.3159  0.2568 -0.5994
   85TMC2     C 1326   4.288   1.467  16.129 -0.7646  0.0817 -0.0178
   85TMC2     O 1327   4.405   1.422  16.113 -0.4472 -0.0925  0.3929
   85TMC2     H 1328   4.076   1.631  16.194 -0.1101 -0.5591 -0.1941
   85TMC2    H1 1329   4.419   1.583  15.955  0.4224  1.8068 -2.0563
   85TMC2    H2 1330   4.254   1.975  16.053 -0.9887  0.1684 -1.5460
   85TMC2    C7 1331   4.461   1.861  15.912  0.4931 -0.4414 -0.0726
   85TMC2    C8 1332   4.059   1.880  16.188 -0.3900  0.2284  0.4316
   85TMC2    O1 1333   4.557   1.795  15.874  0.4242  0.1051  0.1783
   85TMC2    O2 1334   4.093   1.990  16.239 -0.3622  0.2822 -0.3296
   85TMC2    O5 1335   3.935   1.820  16.190 -0.5166 -0.1191 -0.7918
   85TMC2    H5 1336   3.935   1.755  16.116 -0.1290 -0.4461 -0.5023
   86MPD2     C 1337   4.182   1.031  16.369  0.3085 -0.8166 -0.4645
   86MPD2    C1 1338   4.079   1.059  16.279  1.0921  0.3551 -0.1279
   86MPD2    C2 1339   4.080   1.182  16.225  0.0439  0.0178 -0.6341
   86MPD2    C3 1340   4.186   1.266  16.235 -0.0929 -0.1249  0.4231
   86MPD2    C4 1341   4.303   1.226  16.303  0.5422  0.0372  0.9064
   86MPD2    C5 1342   4.288   1.114  16.388  0.2468  0.1605  0.0489
   86MPD2     H 1343   4.001   1.202  16.153  1.4221 -0.5268 -2.3055
   86MPD2    H1 1344   4.385   1.291  16.332 -1.3937  2.0132  2.0304
   86MPD2    H2 1345   4.170   0.944  16.432 -0.7174 -0.6050 -0.3767
   86MPD2    H3 1346   4.374   1.081  16.445  0.0586 -1.7663 -0.7983
   86MPD2     N 1347   4.175   1.390  16.167 -0.8380 -0.4329 -0.6932
   86MPD2    H5 1348   4.087   1.424  16.131  0.8668  0.5930 -3.8752
   86MPD2    N1 1349   3.975   0.967  16.249 -0.3987  0.2775  0.1139
   86MPD2    H7 1350   3.927   0.976  16.160 -1.4049 -2.1490  0.4020
   87TMC2    C1 1351   2.010   4.234   1.328  0.0646  0.1032  0.3541
   87TMC2    C2 1352   1.964   4.155   1.430  0.2270  0.3503  1.1440
   87TMC2    C3 1353   1.942   4.209   1.555  0.0488  0.2711  0.4001
   87TMC2    C4 1354   2.039   4.361   1.348  0.0843  0.2650 -0.7170
   87TMC2    C5 1355   2.013   4.415   1.471 -0.0319 -0.2912 -0.9043
   87TMC2    C6 1356   1.963   4.343   1.577  0.2991  0.8092  0.0083
   87TMC2     C 1357   2.047   4.167   1.205  0.5715  0.1731  0.7426
   87TMC2     O 1358   2.005   4.051   1.186  0.0233  0.2132  0.2476
   87TMC2     H 1359   1.966   4.046   1.427 -2.5813  0.3482 -0.9031
   87TMC2    H1 1360   2.078   4.428   1.272  0.4448  0.8244 -0.0355
   87TMC2    H2 1361   1.932   4.388   1.670  3.6083 -0.3545  1.6894
   87TMC2    C7 1362   1.995   4.556   1.482 -0.5814  0.3522 -0.4859
   87TMC2    C8 1363   1.925   4.123   1.666  0.1504  0.0540  0.0102
   87TMC2    O1 1364   1.907   4.594   1.409  1.0187  0.4387 -0.5137
   87TMC2    O2 1365   1.972   4.126   1.778 -0.8311  0.2997 -0.7812
   87TMC2    O5 1366   1.843   4.018   1.631  0.0440  0.0390 -0.2153
   87TMC2    H5 1367   1.795   4.033   1.548 -3.3756 -0.8136  1.6164
   88MPD2     C 1368   2.107   0.054   1.734 -0.7258  0.2095 -0.6501
   88MPD2    C1 1369   2.028   0.002   1.636 -0.6403  0.6291  0.5235
   88MPD2    C2 1370   1.919   0.078   1.594  0.0988 -0.1760 -0.1020
   88MPD2    C3 1371   1.903   0.210   1.639  0.4760 -0.1031  0.1815
   88MPD2    C4 1372   2.001   0.266   1.715  0.3753  0.0022 -0.1203
   88MPD2    C5 1373   2.104   0.188   1.768 -0.2231  0.7071  0.0132
   88MPD2     H 1374   1.851   0.032   1.523 -2.7456  0.2963  2.3186
   88MPD2    H1 1375   1.998   0.370   1.745  0.5352  0.0792 -0.3712
   88MPD2    H2 1376   2.190   4.731   1.769  1.2613  2.3540 -1.6319
   88MPD2    H3 1377   2.175   0.244   1.828 -0.3511  0.2585  0.5772
   88MPD2     N 1378   1.795   0.289   1.594  0.0478  0.4875  0.4143
   88MPD2    H5 1379   1.812   0.388   1.602 -0.6989  0.6926 -0.3851
   88MPD2    N1 1380   2.055   4.609   1.597 -0.1763 -0.3618  0.3048
   88MPD2    H7 1381   2.123   4.554   1.648 -0.6647 -0.9737  0.2948
   89TMC2    C1 1382   2.412   3.213   1.501 -0.4764 -0.9879 -0.7998
   89TMC2    C2 1383   2.307   3.257   1.577 -0.0936  0.1382 -0.4851
   89TMC2    C3 1384   2.318   3.368   1.646 -0.0905  0.2753 -0.3493
   89TMC2    C4 1385   2.527   3.273   1.501  0.8333  0.1538 -0.3802
   89TMC2    C5 1386   2.535   3.395   1.567 -0.0989  0.0185 -0.5340
   89TMC2    C6 1387   2.431   3.441   1.643 -0.4568 -0.2779 -0.2629
   89TMC2     C 1388   2.401   3.090   1.418  0.6348  0.2037  0.4332
   89TMC2     O 1389   2.490   3.068   1.337 -0.2910 -0.1917 -0.2022
   89TMC2     H 1390   2.208   3.213   1.577  1.0415 -2.4098  0.2251
   89TMC2    H1 1391   2.599   3.230   1.432  1.3806  1.4962 -0.6566
   89TMC2    H2 1392   2.442   3.538   1.692  0.7998  0.8626 -2.8213
   89TMC2    C7 1393   2.663   3.456   1.587  0.5291  0.9060  0.3657
   89TMC2    C8 1394   2.205   3.413   1.729 -0.5973  0.7570 -0.2031
   89TMC2    O1 1395   2.665   3.570   1.627  0.6434  0.0998 -0.1853
   89TMC2    O2 1396   2.091   3.397   1.689 -0.2620  0.1155 -0.1538
   89TMC2    O5 1397   2.250   3.498   1.821 -0.2278 -0.3183  0.1254
   89TMC2    H5 1398   2.346   3.487   1.841  0.1817  1.7122 -0.7125
   90MPD2     C 1399   2.253   2.605   1.357 -0.3532  0.0655  0.3878
   90MPD2    C1 1400   2.155   2.668   1.441 -0.5391 -0.5746 -0.0779
   90MPD2    C2 1401   2.169   2.804   1.469  0.0908  0.4565 -0.3586
   90MPD2    C3 1402   2.267   2.883   1.406  0.9049 -0.6556  0.0514
   90MPD2    C4 1403   2.343   2.826   1.310 -0.4342  0.5176  0.3894
   90MPD2    C5 1404   2.334   2.692   1.295 -0.6158 -0.0092 -0.5389
   90MPD2     H 1405   2.101   2.847   1.541 -1.5035 -0.6142 -1.2161
   90MPD2    H1 1406   2.415   2.876   1.247  1.3644 -1.7644  0.6493
   90MPD2    H2 1407   2.264   2.499   1.338 -2.5178 -0.2466  0.8804
   90MPD2    H3 1408   2.404   2.647   1.225 -0.5898 -1.1332  0.2186
   90MPD2     N 1409   2.287   3.018   1.444  0.1054 -0.1212 -0.2106
   90MPD2    H5 1410   2.226   3.055   1.516 -0.7344 -0.5600 -0.6919
   90MPD2    N1 1411   2.053   2.601   1.509 -0.1273  0.6507 -0.4025
   90MPD2    H7 1412   2.011   2.648   1.589  2.8016  3.0163 -0.2556
   91TMC2    C1 1413   3.822   2.534  16.139  0.2956 -0.5286  0.2527
   91TMC2    C2 1414   3.874   2.595  16.254 -0.4471 -0.1589  0.2624
   91TMC2    C3 1415   3.792   2.597  16.364 -0.4999  0.6416  0.7388
   91TMC2    C4 1416   3.706   2.457  16.149  0.3378  0.4274  0.2041
   91TMC2    C5 1417   3.638   2.453  16.267  0.4999  0.3530 -0.5583
   91TMC2    C6 1418   3.677   2.527  16.372  0.0061 -0.1449  0.3408
   91TMC2     C 1419   3.894   2.537  16.012  0.0133 -0.5593 -0.3667
   91TMC2     O 1420   3.831   2.519  15.907 -0.3765  0.1792 -0.1859
   91TMC2     H 1421   3.964   2.655  16.248  0.1915 -1.1424 -0.1690
   91TMC2    H1 1422   3.668   2.413  16.058 -1.5508 -0.8327  1.6039
   91TMC2    H2 1423   3.615   2.526  16.460 -2.7425 -0.1660 -1.5988
   91TMC2    C7 1424   3.516   2.373  16.272 -0.5681  0.0997 -0.6478
   91TMC2    C8 1425   3.821   2.671  16.481  0.2896  0.4822 -0.1019
   91TMC2    O1 1426   3.489   2.321  16.378  0.9796 -0.1150 -0.0491
   91TMC2    O2 1427   3.791   2.638  16.595  0.0952 -0.8062 -0.4996
   91TMC2    O5 1428   3.905   2.768  16.449 -0.0328  0.2873 -0.3258
   91TMC2    H5 1429   3.901   2.801  16.357 -0.2463  0.8302 -0.1196
   92MPD2     C 1430   4.112   2.527  15.812 -0.2831  0.1086  0.0856
   92MPD2    C1 1431   4.128   2.523  15.947  0.0217 -0.3929 -0.4667
   92MPD2    C2 1432   4.263   2.506  15.994 -0.6193 -0.5442 -0.3139
   92MPD2    C3 1433   4.367   2.472  15.907 -0.3193 -0.8283 -0.9232
   92MPD2    C4 1434   4.337   2.482  15.769  0.6029 -0.0819  0.1692
   92MPD2    C5 1435   4.214   2.515  15.725  0.2908 -0.5454  0.7482
   92MPD2     H 1436   4.278   2.503  16.102  2.7039  1.8022 -0.6994
   92MPD2    H1 1437   4.416   2.464  15.698 -0.6496 -1.4850 -0.8793
   92MPD2    H2 1438   4.012   2.534  15.770 -0.4194 -0.3531  0.3316
   92MPD2    H3 1439   4.190   2.521  15.619  4.9004 -0.0930 -0.2399
   92MPD2     N 1440   4.497   2.420  15.942  0.2656  0.0053  0.6240
   92MPD2    H5 1441   4.573   2.395  15.879 -0.6325 -1.1150 -0.0109
   92MPD2    N1 1442   4.028   2.532  16.039  0.0346  0.7060 -0.4170
   92MPD2    H7 1443   4.046   2.525  16.139 -1.7356 -2.8672 -0.3555
   93TMC2    C1 1444   1.329   2.390  14.145 -0.2405 -0.2200 -0.3906
   93TMC2    C2 1445   1.266   2.486  14.213 -0.1722 -0.3193 -0.6143
   93TMC2    C3 1446   1.337   2.597  14.239 -0.4575  0.9483 -0.3825
   93TMC2    C4 1447   1.459   2.401  14.102  0.0431  0.6355 -0.0340
   93TMC2    C5 1448   1.531   2.517  14.128 -0.5707 -0.6861 -0.1408
   93TMC2    C6 1449   1.465   2.615  14.197 -0.7545  0.7239  0.0443
   93TMC2     C 1450   1.263   2.271  14.091 -0.0806 -0.6502 -0.2433
   93TMC2     O 1451   1.324   2.181  14.043 -0.0853  0.5856 -0.4016
   93TMC2     H 1452   1.167   2.473  14.257 -1.2627  6.3522 -1.1511
   93TMC2    H1 1453   1.515   2.326  14.047 -0.1363 -0.4088  1.2035
   93TMC2    H2 1454   1.523   2.695  14.240 -1.7060  0.8064  1.1745
   93TMC2    C7 1455   1.660   2.541  14.078  0.1771  0.5685  0.7587
   93TMC2    C8 1456   1.286   2.686  14.340 -0.9125 -0.1287 -0.3586
   93TMC2    O1 1457   1.725   2.628  14.142  0.1552  0.2660 -0.9521
   93TMC2    O2 1458   1.209   2.645  14.428  0.1299 -0.4312 -0.5550
   93TMC2    O5 1459   1.293   2.803  14.276 -0.4192 -0.2811 -0.0512
   93TMC2    H5 1460   1.338   2.792  14.190  1.5576 -2.0074  1.2049
   94MPD2     C 1461   1.051   2.060  14.064 -0.0778  0.0720  0.5465
   94MPD2    C1 1462   1.029   2.193  14.053  0.6624  0.9791 -0.8506
   94MPD2    C2 1463   0.907   2.242  14.027  0.2268  0.3752 -0.1129
   94MPD2    C3 1464   0.798   2.164  13.988  0.1462  0.2377  0.7365
   94MPD2    C4 1465   0.824   2.028  13.988  0.0555 -0.5268  0.0466
   94MPD2    C5 1466   0.945   1.983  14.032  0.0392  0.1781 -0.5506
   94MPD2     H 1467   0.897   2.349  14.039 -0.6392  0.1849  0.8896
   94MPD2    H1 1468   0.754   1.953  13.951  1.7269 -2.4330  0.7883
   94MPD2    H2 1469   1.150   2.024  14.087 -0.1699 -0.5607 -0.0739
   94MPD2    H3 1470   0.957   1.876  14.048 -3.3240  0.3202  2.9098
   94MPD2     N 1471   0.672   2.222  13.946 -0.0127 -0.2727  0.2032
   94MPD2    H5 1472   0.606   2.150  13.918  0.8194  0.0153 -2.5192
   94MPD2    N1 1473   1.128   2.287  14.088  0.1923 -0.5943 -0.1150
   94MPD2    H7 1474   1.099   2.384  14.089  1.4558 -0.2242 -0.0661
   95TMC2    C1 1475   1.581   4.100  16.473 -0.6740 -0.1184  0.4006
   95TMC2    C2 1476   1.507   3.988  16.520  0.3716  0.2645  0.2813
   95TMC2    C3 1477   1.489   3.980  16.659 -0.1168  0.7488 -0.3757
   95TMC2    C4 1478   1.631   4.195  16.556  0.4171  0.2282  0.0708
   95TMC2    C5 1479   1.620   4.167  16.689 -0.0838 -0.7533  0.0605
   95TMC2    C6 1480   1.549   4.064  16.744  0.2712 -0.4070 -0.0463
   95TMC2     C 1481   1.606   4.123  16.330  0.5987  0.3900  0.1258
   95TMC2     O 1482   1.684   4.208  16.290 -0.5733  0.5467 -0.3341
   95TMC2     H 1483   1.500   3.904  16.453  2.7287  0.2085  0.0908
   95TMC2    H1 1484   1.686   4.281  16.519  1.6437 -0.9765 -0.9332
   95TMC2    H2 1485   1.536   4.057  16.851 -0.9426  1.4535 -0.0614
   95TMC2    C7 1486   1.644   4.281  16.773  0.6046  0.1202  0.1109
   95TMC2    C8 1487   1.397   3.891  16.723  0.3110  0.0311  0.3577
   95TMC2    O1 1488   1.644   4.389  16.715 -0.1382 -0.4890 -0.0381
   95TMC2    O2 1489   1.380   3.877  16.845 -0.4319 -0.0462 -0.3342
   95TMC2    O5 1490   1.322   3.831  16.631 -0.4375  0.5324 -0.5139
   95TMC2    H5 1491   1.335   3.876  16.545  1.6505 -1.5714 -1.2866
   96MPD2     C 1492   1.520   4.012  15.822  1.0863 -0.4930  0.0877
   96MPD2    C1 1493   1.598   4.112  15.882  0.4890  0.4473  0.7240
   96MPD2    C2 1494   1.615   4.117  16.019  0.3810 -0.3720  0.0936
   96MPD2    C3 1495   1.540   4.039  16.103 -0.6806  0.2000 -1.2034
   96MPD2    C4 1496   1.469   3.936  16.043  0.0996  0.2384 -0.0326
   96MPD2    C5 1497   1.449   3.928  15.907 -0.3387  0.2027  0.1200
   96MPD2     H 1498   1.665   4.202  16.066 -0.4851 -0.3187  0.9246
   96MPD2    H1 1499   1.412   3.860  16.096  0.1478  2.6867  3.5482
   96MPD2    H2 1500   1.505   4.007  15.715  0.2163 -2.0566  0.2769
   96MPD2    H3 1501   1.386   3.848  15.869  2.4848 -1.2943 -1.4704
   96MPD2     N 1502   1.536   4.039  16.246  0.3816 -0.4316  0.0515
   96MPD2    H5 1503   1.462   3.978  16.281  0.6258 -1.5561 -1.3784
   96MPD2    N1 1504   1.654   4.205  15.790 -0.7736 -0.1602  0.4523
   96MPD2    H7 1505   1.632   4.198  15.691 -0.2234 -0.9428  0.3823
   97TMC2    C1 1506   4.052   0.883   0.283  0.3354 -0.2192 -0.9430
   97TMC2    C2 1507   4.135   0.803   0.214 -0.6089  0.2579  0.3706
   97TMC2    C3 1508   4.240   0.869   0.146  0.8295  0.7044 -0.6476
   97TMC2    C4 1509   4.055   1.023   0.270  0.2305  0.1927  0.3533
   97TMC2    C5 1510   4.155   1.083   0.196 -1.0414  1.1394  0.2129
   97TMC2    C6 1511   4.253   1.004   0.138 -0.5486  0.8032  0.2463
   97TMC2     C 1512   3.985   0.836   0.401  0.0680 -0.7192 -0.1167
   97TMC2     O 1513   3.979   0.920   0.492  0.3699  0.4292  0.2053
   97TMC2     H 1514   4.131   0.696   0.232  0.1511  0.3698  1.2038
   97TMC2    H1 1515   3.978   1.082   0.319  1.6584  0.7199  1.9592
   97TMC2    H2 1516   4.328   1.049   0.075  1.4069  4.0709  4.9444
   97TMC2    C7 1517   4.154   1.221   0.167 -0.1424  0.4725  0.3460
   97TMC2    C8 1518   4.349   0.793   0.105 -0.6581 -0.1721  0.2341
   97TMC2    O1 1519   4.253   1.262   0.104 -0.4146 -0.1406 -0.3070
   97TMC2    O2 1520   4.463   0.812   0.136  0.2453  0.2712 -0.3052
   97TMC2    O5 1521   4.309   0.743  17.741  0.4329 -0.4766  0.3412
   97TMC2    H5 1522   4.213   0.724  17.735 -0.3181  2.6435  2.8841
   98MPD2     C 1523   3.765   0.464   0.683 -0.2812  0.6016 -0.1236
   98MPD2    C1 1524   3.756   0.602   0.692 -0.4664 -0.1122  0.0399
   98MPD2    C2 1525   3.806   0.689   0.594  1.2755  0.3990 -0.0674
   98MPD2    C3 1526   3.872   0.625   0.491  0.1647  0.1467 -0.2887
   98MPD2    C4 1527   3.874   0.487   0.475  0.3385  0.1660 -0.2262
   98MPD2    C5 1528   3.821   0.415   0.571 -0.0662  0.0032  0.4182
   98MPD2     H 1529   3.820   0.794   0.616  1.1798  0.5343 -0.6638
   98MPD2    H1 1530   3.911   0.434   0.388  3.6029  1.3339  0.4727
   98MPD2    H2 1531   3.727   0.399   0.761  0.4555 -0.6392 -0.7774
   98MPD2    H3 1532   3.824   0.308   0.553  0.2573 -0.1227  1.2138
   98MPD2     N 1533   3.944   0.703   0.392 -0.0369 -0.0722  0.8037
   98MPD2    H5 1534   3.969   0.657   0.305 -1.2510 -0.6258  0.7475
   98MPD2    N1 1535   3.695   0.650   0.812 -0.8789  0.3433  0.1290
   98MPD2    H7 1536   3.672   0.575   0.876  1.7989  0.4712  1.2593
   99TMC2    C1 1537   2.923   3.144   1.182 -0.0323 -0.2772  0.4794
   99TMC2    C2 1538   3.037   3.200   1.142 -0.4708 -0.5731 -0.5100
   99TMC2    C3 1539   3.046   3.329   1.100  0.5461 -0.3134 -0.3058
   99TMC2    C4 1540   2.814   3.223   1.200 -0.6602  0.4112  0.2552
   99TMC2    C5 1541   2.826   3.347   1.153 -0.3729  0.0797  0.2110
   99TMC2    C6 1542   2.935   3.404   1.098 -0.4999 -0.1465 -0.2253
   99TMC2     C 1543   2.914   3.001   1.201  0.6199  0.2071  1.1312
   99TMC2     O 1544   3.018   2.943   1.232 -0.0922  0.8014  0.5276
   99TMC2     H 1545   3.117   3.130   1.122  1.9188  1.0391  3.3537
   99TMC2    H1 1546   2.722   3.178   1.235 -0.2127  0.5265  1.5857
   99TMC2    H2 1547   2.930   3.507   1.063 -1.5859 -0.0842  0.1257
   99TMC2    C7 1548   2.718   3.435   1.171  0.5131 -0.0907 -0.4663
   99TMC2    C8 1549   3.172   3.369   1.036 -0.3035 -0.0277 -0.0291
   99TMC2    O1 1550   2.741   3.539   1.231 -0.1872 -0.7747  0.8494
   99TMC2    O2 1551   3.252   3.285   1.009  0.4940  0.2381  0.4580
   99TMC2    O5 1552   3.161   3.491   0.983  0.5288 -0.0514 -0.3653
   99TMC2    H5 1553   3.114   3.554   1.042 -0.1033  1.4041 -2.4007
  100MPD2     C 1554   2.837   2.710   1.148  0.0097  0.4570 -0.4175
  100MPD2    C1 1555   2.768   2.822   1.112 -0.3439  0.3532  0.6939
  100MPD2    C2 1556   2.644   2.808   1.048 -0.7055 -0.5852  1.6196
  100MPD2    C3 1557   2.587   2.691   1.025  0.0565 -0.0613 -0.4283
  100MPD2    C4 1558   2.654   2.577   1.068  0.0583 -0.0232 -0.2795
  100MPD2    C5 1559   2.777   2.586   1.130  0.1888  0.0359 -0.0241
  100MPD2     H 1560   2.598   2.898   1.010 -2.5261 -2.1124  0.2048
  100MPD2    H1 1561   2.614   2.477   1.061 -1.2918  0.5857 -1.2737
  100MPD2    H2 1562   2.937   2.719   1.188 -0.1205  1.0713 -0.2302
  100MPD2    H3 1563   2.824   2.500   1.177 -0.3370 -0.1848  0.0996
  100MPD2     N 1564   2.469   2.688   0.950  0.2626 -0.2843  0.5662
  100MPD2    H5 1565   2.433   2.779   0.925 -0.1207 -0.4633  0.4679
  100MPD2    N1 1566   2.803   2.955   1.143  0.8489 -0.2567 -0.0625
  100MPD2    H7 1567   2.747   3.036   1.118  0.1791 -0.2796  1.3535
  101TMC2    C1 1568   3.126   0.246  13.510  0.0866 -0.7744  0.9979
  101TMC2    C2 1569   3.217   0.183  13.586 -0.0023  0.5668  0.4805
  101TMC2    C3 1570   3.350   0.177  13.546 -0.5784  0.2879 -0.2715
  101TMC2    C4 1571   3.156   0.296  13.386  0.2596 -0.1044 -0.1963
  101TMC2    C5 1572   3.284   0.288  13.346  0.2254 -0.1051 -0.5496
  101TMC2    C6 1573   3.377   0.221  13.420 -0.7607 -0.1158 -0.8482
  101TMC2     C 1574   2.988   0.229  13.551  0.8329  0.2502 -0.1555
  101TMC2     O 1575   2.954   0.114  13.578  0.2994 -0.6175  0.0834
  101TMC2     H 1576   3.195   0.147  13.686 -0.4001  0.4718  0.3555
  101TMC2    H1 1577   3.083   0.361  13.339 -0.4824 -2.0789 -1.7584
  101TMC2    H2 1578   3.480   0.224  13.387 -0.1190  1.4291  1.2886
  101TMC2    C7 1579   3.346   0.387  13.257  0.0396 -0.4472 -0.6220
  101TMC2    C8 1580   3.440   0.098  13.625 -0.2086 -0.0663  0.2273
  101TMC2    O1 1581   3.456   0.422  13.293 -0.2559 -0.1425 -0.0093
  101TMC2    O2 1582   3.402   0.054  13.732  0.1577 -0.3800  0.6260
  101TMC2    O5 1583   3.524   0.035  13.537 -0.3679  0.1613 -0.4085
  101TMC2    H5 1584   3.555   0.089  13.461  0.2850 -0.4711 -0.5846
  102MPD2     C 1585   2.695   0.462  13.553  0.2164  0.7792 -0.1678
  102MPD2    C1 1586   2.776   0.359  13.588  0.0200  0.2909 -0.2208
  102MPD2    C2 1587   2.717   0.262  13.669 -0.1793 -0.1029  0.7566
  102MPD2    C3 1588   2.589   0.269  13.722 -0.4289  0.0049 -0.8245
  102MPD2    C4 1589   2.514   0.382  13.679  0.4558  0.0767  0.0591
  102MPD2    C5 1590   2.570   0.478  13.601  0.5853  0.2444  0.1143
  102MPD2     H 1591   2.771   0.173  13.700  0.6388  0.8640  2.0902
  102MPD2    H1 1592   2.411   0.395  13.712  0.5252 -0.1349  0.3569
  102MPD2    H2 1593   2.740   0.548  13.503 -0.5113  1.4517  0.3228
  102MPD2    H3 1594   2.515   0.567  13.574 -0.5301 -0.7613 -0.9798
  102MPD2     N 1595   2.538   0.161  13.801  0.1208 -0.1152 -0.5285
  102MPD2    H5 1596   2.607   0.103  13.846 -0.5744 -0.6331 -0.1313
  102MPD2    N1 1597   2.908   0.344  13.535 -0.1329 -0.0075 -0.4533
  102MPD2    H7 1598   2.948   0.429  13.498  0.2168 -0.3502 -0.8676
  103TMC2    C1 1599   1.124   0.593  12.749  0.1295  0.0480  0.6170
  103TMC2    C2 1600   1.185   0.705  12.697 -0.5901  0.0353  0.1389
  103TMC2    C3 1601   1.252   0.782  12.784 -0.2659 -0.6036  0.5410
  103TMC2    C4 1602   1.121   0.560  12.882 -0.4267 -0.9267  0.2845
  103TMC2    C5 1603   1.188   0.647  12.963  0.1529 -0.3465 -0.3631
  103TMC2    C6 1604   1.243   0.765  12.917 -0.1461  0.0988  0.3411
  103TMC2     C 1605   1.044   0.521  12.648 -0.5179  0.4661  0.0438
  103TMC2     O 1606   1.003   0.589  12.552 -0.1720  0.1643 -0.2816
  103TMC2     H 1607   1.206   0.715  12.591  1.7339 -1.4641  0.4424
  103TMC2    H1 1608   1.052   0.491  12.929  0.4061 -3.0400 -1.5711
  103TMC2    H2 1609   1.280   0.844  12.980  2.6878  0.5946 -1.9411
  103TMC2    C7 1610   1.169   0.637  13.109  0.7393  0.5937 -0.5981
  103TMC2    C8 1611   1.344   0.883  12.731 -0.0149  0.4382  0.2363
  103TMC2    O1 1612   1.066   0.586  13.153  0.4520  0.4244 -0.9788
  103TMC2    O2 1613   1.344   0.906  12.615 -0.7204 -0.0671  0.0860
  103TMC2    O5 1614   1.459   0.875  12.800  0.6245  0.0193  0.2037
  103TMC2    H5 1615   1.455   0.820  12.881 -0.7913 -0.7463 -0.3859
  104MPD2     C 1616   1.015   0.152  12.639 -0.6903  0.1262  0.6209
  104MPD2    C1 1617   0.988   0.282  12.602 -0.0987 -0.4001 -0.2830
  104MPD2    C2 1618   0.889   0.304  12.508  0.8605  0.0196  0.0107
  104MPD2    C3 1619   0.814   0.192  12.470  0.3553 -0.4629  0.2240
  104MPD2    C4 1620   0.845   0.061  12.512  0.2819 -0.2145 -0.5460
  104MPD2    C5 1621   0.952   0.047  12.590 -1.0992 -0.7112 -0.4891
  104MPD2     H 1622   0.868   0.402  12.467  0.0297 -0.5360 -0.8828
  104MPD2    H1 1623   0.796   4.707  12.481 -1.0788 -0.2960  1.8238
  104MPD2    H2 1624   1.105   0.142  12.698  0.3714 -0.4703 -1.0945
  104MPD2    H3 1625   0.993   4.691  12.626  0.6111  0.2728  0.0613
  104MPD2     N 1626   0.687   0.215  12.405 -0.1120  0.1851  0.2128
  104MPD2    H5 1627   0.673   0.313  12.385  1.3776  0.4546  0.4769
  104MPD2    N1 1628   1.053   0.390  12.673 -0.0539  0.1134 -0.3211
  104MPD2    H7 1629   1.119   0.360  12.743  2.1446 -0.5679 -2.6689
  105TMC2    C1 1630   2.334   3.586   0.510  0.5962  1.1473 -0.3779
  105TMC2    C2 1631   2.260   3.511   0.589  0.0833 -0.1646 -0.0322
  105TMC2    C3 1632   2.164   3.569   0.664 -0.0902  0.3180 -0.5156
  105TMC2    C4 1633   2.317   3.727   0.519 -0.3016  0.5207 -0.8143
  105TMC2    C5 1634   2.229   3.781   0.598 -0.2674 -0.0740 -0.2544
  105TMC2    C6 1635   2.144   3.703   0.668 -0.3374 -0.3074 -0.2845
  105TMC2     C 1636   2.405   3.524   0.399 -0.4421  0.7479  0.5600
  105TMC2     O 1637   2.436   3.405   0.406 -0.5058  0.0381  0.0137
  105TMC2     H 1638   2.267   3.404   0.576  0.4700 -0.2710  1.0206
  105TMC2    H1 1639   2.381   3.793   0.461 -1.9172  4.3377  1.7109
  105TMC2    H2 1640   2.058   3.742   0.722 -0.3176 -0.4062 -0.1821
  105TMC2    C7 1641   2.216   3.927   0.623  0.0066  0.7188 -0.4070
  105TMC2    C8 1642   2.071   3.492   0.746  0.0086 -0.3962  0.5780
  105TMC2    O1 1643   2.251   4.002   0.531  0.1569  0.1270  1.0351
  105TMC2    O2 1644   2.003   3.543   0.834 -0.1209  0.1332 -0.0314
  105TMC2    O5 1645   2.092   3.365   0.715 -0.3960  0.2325 -0.4519
  105TMC2    H5 1646   2.126   3.342   0.625 -0.8507 -1.0258 -0.2986
  106MPD2     C 1647   2.659   3.559  17.711  0.1827  0.3061  0.4062
  106MPD2    C1 1648   2.600   3.681  17.725 -0.0389  0.0314 -0.0025
  106MPD2    C2 1649   2.518   3.690   0.091 -0.5219 -0.3227 -0.3636
  106MPD2    C3 1650   2.509   3.591   0.184  0.9756  0.8570 -0.4568
  106MPD2    C4 1651   2.582   3.475   0.172  0.9785 -0.7974  0.4658
  106MPD2    C5 1652   2.658   3.462   0.058 -0.2021  0.9475 -0.7628
  106MPD2     H 1653   2.467   3.783   0.112 -1.0860 -0.5184 -0.8736
  106MPD2    H1 1654   2.580   3.387   0.235 -0.3011 -1.2872 -0.2696
  106MPD2    H2 1655   2.735   3.548  17.635 -0.9023 -1.4457 -0.4407
  106MPD2    H3 1656   2.705   3.367   0.039  0.7543  1.3540 -0.4481
  106MPD2     N 1657   2.426   3.615   0.297  0.5120 -0.4504  0.1884
  106MPD2    H5 1658   2.368   3.699   0.301  0.0447 -0.7936  0.5939
  106MPD2    N1 1659   2.610   3.790  17.638 -0.1382  0.8139  0.2495
  106MPD2    H7 1660   2.539   3.861  17.651  0.3452  1.3137  0.1527
  107TMC2    C1 1661   2.673   3.867  11.724 -0.2753 -0.8371  1.1216
  107TMC2    C2 1662   2.678   3.934  11.605 -0.4086 -0.0858 -0.4007
  107TMC2    C3 1663   2.724   3.864  11.498 -0.8331 -0.2292 -0.0915
  107TMC2    C4 1664   2.737   3.747  11.736  0.1916 -0.0521 -0.2774
  107TMC2    C5 1665   2.803   3.689  11.628 -0.3662  0.4857 -0.0105
  107TMC2    C6 1666   2.783   3.739  11.506 -0.0894 -0.4646  0.2749
  107TMC2     C 1667   2.616   3.925  11.846  0.5696 -0.1924 -0.7161
  107TMC2     O 1668   2.621   3.859  11.948  0.1696  0.2123  0.2244
  107TMC2     H 1669   2.639   4.033  11.584  0.3051  0.4949  0.9833
  107TMC2    H1 1670   2.760   3.702  11.832 -1.3081 -0.3913 -0.0936
  107TMC2    H2 1671   2.808   3.692  11.411  2.7282 -0.0470  0.7936
  107TMC2    C7 1672   2.846   3.552  11.648 -0.6052 -0.2056 -0.5935
  107TMC2    C8 1673   2.779   3.944  11.389 -0.0529 -0.5631  0.2122
  107TMC2    O1 1674   2.790   3.492  11.736 -0.1176 -0.0643 -0.0039
  107TMC2    O2 1675   2.900   3.927  11.375  0.6487  0.4433  0.4816
  107TMC2    O5 1676   2.723   4.064  11.382  0.9145  0.1814 -0.4817
  107TMC2    H5 1677   2.626   4.051  11.390  0.9694 -0.3814 -0.7709
  108MPD2     C 1678   2.480   4.268  11.912 -0.1910  0.3387 -0.3953
  108MPD2    C1 1679   2.523   4.139  11.948  0.1008 -0.2256  0.1179
  108MPD2    C2 1680   2.530   4.101  12.086 -0.6766  0.1594  0.5367
  108MPD2    C3 1681   2.474   4.190  12.179  0.1101 -0.4259 -0.3013
  108MPD2    C4 1682   2.452   4.320  12.143  0.6045  0.4705  0.0076
  108MPD2    C5 1683   2.445   4.353  12.012 -0.3903  0.4131 -0.6446
  108MPD2     H 1684   2.571   4.005  12.116 -1.9946  0.3246  2.8871
  108MPD2    H1 1685   2.429   4.400  12.213  0.7371  0.0057  0.5863
  108MPD2    H2 1686   2.483   4.285  11.805  0.0120  0.3949 -0.3802
  108MPD2    H3 1687   2.410   4.450  11.976 -0.5142  0.6380  0.0741
  108MPD2     N 1688   2.451   4.158  12.312  0.0004 -0.0119  0.2674
  108MPD2    H5 1689   2.420   4.230  12.376 -2.0320  0.5723 -1.3750
  108MPD2    N1 1690   2.570   4.057  11.840 -0.4245  0.1953  0.7517
  108MPD2    H7 1691   2.573   4.102  11.749 -0.7304 -0.6778  0.3058
  109TMC2    C1 1692   2.865   1.360   0.664 -0.4422  0.3421 -0.7114
  109TMC2    C2 1693   2.893   1.368   0.533 -0.1837 -0.2885 -0.5497
  109TMC2    C3 1694   2.919   1.253   0.466  0.4546 -0.1386  0.7068
  109TMC2    C4 1695   2.864   1.236   0.721  0.0736 -0.2368  0.1035
  109TMC2    C5 1696   2.913   1.127   0.656 -0.8652 -0.6947 -0.4191
  109TMC2    C6 1697   2.941   1.135   0.525  0.2918  0.4046 -0.1199
  109TMC2     C 1698   2.756   1.450   0.692 -0.0141 -0.1569  0.2505
  109TMC2     O 1699   2.727   1.531   0.606 -0.4211  0.6691  0.1167
  109TMC2     H 1700   2.883   1.457   0.471 -1.8912 -1.0430 -1.3403
  109TMC2    H1 1701   2.863   1.226   0.829  0.8675  0.5869  0.1882
  109TMC2    H2 1702   2.964   1.045   0.470  1.2722  0.1684  0.6537
  109TMC2    C7 1703   2.944   1.003   0.729 -0.8180  0.3017  0.1640
  109TMC2    C8 1704   2.959   1.275   0.325  0.4413 -0.2578 -0.1275
  109TMC2    O1 1705   3.029   0.930   0.681 -0.5229  0.6157  0.1130
  109TMC2    O2 1706   3.076   1.290   0.298 -0.4460 -0.8961 -0.0662
  109TMC2    O5 1707   2.880   1.177   0.272 -0.5011  0.8790 -0.1036
  109TMC2    H5 1708   2.801   1.170   0.330 -0.2311 -0.7737  0.0614
  110MPD2     C 1709   2.341   1.590   0.968 -0.0174 -0.2661  0.5313
  110MPD2    C1 1710   2.429   1.513   1.049 -0.5915  0.2811 -0.2457
  110MPD2    C2 1711   2.553   1.479   1.000  0.2128 -0.1031 -0.5504
  110MPD2    C3 1712   2.583   1.497   0.865 -0.2022 -0.3699  0.6192
  110MPD2    C4 1713   2.502   1.586   0.793  0.7195  0.1182 -0.1805
  110MPD2    C5 1714   2.391   1.640   0.848  0.4442  0.2399  0.2448
  110MPD2     H 1715   2.624   1.430   1.065 -0.3783  0.9772  0.9241
  110MPD2    H1 1716   2.538   1.618   0.696 -0.5809  1.7112 -0.1540
  110MPD2    H2 1717   2.237   1.606   0.995  0.1455 -0.3501  1.2153
  110MPD2    H3 1718   2.315   1.690   0.789 -0.2636  0.4360  1.3303
  110MPD2     N 1719   2.697   1.432   0.816 -0.5174 -0.1817  0.4382
  110MPD2    H5 1720   2.747   1.358   0.865 -0.5677  1.4656  2.9914
  110MPD2    N1 1721   2.379   1.473   1.176 -0.2887 -0.4720 -0.1844
  110MPD2    H7 1722   2.294   1.513   1.213  1.2735  2.5789  0.1061
  111TMC2    C1 1723   2.931   0.799  12.240 -0.4564 -0.3238 -0.3854
  111TMC2    C2 1724   2.859   0.733  12.334 -0.1847 -0.4946 -0.8216
  111TMC2    C3 1725   2.924   0.651  12.424  0.0477 -0.6574  0.5974
  111TMC2    C4 1726   3.071   0.780  12.228 -0.1625  0.2000  0.2488
  111TMC2    C5 1727   3.132   0.718  12.338 -0.3388  0.9611  0.3240
  111TMC2    C6 1728   3.059   0.643  12.428 -0.0478 -0.4135 -0.0138
  111TMC2     C 1729   2.864   0.864  12.127 -0.2991 -0.1415  0.3376
  111TMC2     O 1730   2.925   0.882  12.025 -0.6081  0.0200 -0.3695
  111TMC2     H 1731   2.753   0.747  12.350  0.0426 -1.3079  1.4931
  111TMC2    H1 1732   3.128   0.842  12.159  0.4034  0.5220  1.0171
  111TMC2    H2 1733   3.102   0.574  12.499  1.8257  0.7836  0.0021
  111TMC2    C7 1734   3.267   0.748  12.374 -0.6734  0.2793  0.3392
  111TMC2    C8 1735   2.850   0.616  12.542  0.1896 -0.4089 -0.0537
  111TMC2    O1 1736   3.292   0.723  12.490  0.5841  0.1569 -0.1893
  111TMC2    O2 1737   2.732   0.582  12.547 -0.1526  0.1736 -0.2665
  111TMC2    O5 1738   2.921   0.657  12.649 -0.2358 -0.1631  0.1142
  111TMC2    H5 1739   3.007   0.693  12.617 -0.0843 -0.3322  0.3246
  112MPD2     C 1740   2.457   1.144  11.957  0.4669 -0.2371  0.6921
  112MPD2    C1 1741   2.570   1.098  11.884  0.7401 -0.5070 -0.4987
  112MPD2    C2 1742   2.664   1.019  11.952  0.1430  0.2035 -0.4082
  112MPD2    C3 1743   2.651   0.991  12.084 -0.5771  0.4732 -0.5151
  112MPD2    C4 1744   2.552   1.041  12.158  0.1303  0.3313  0.5909
  112MPD2    C5 1745   2.454   1.114  12.090 -0.2201  0.7276 -0.1019
  112MPD2     H 1746   2.746   0.986  11.891  0.8069 -0.4785  0.8561
  112MPD2    H1 1747   2.553   1.033  12.266  0.6483  0.5140  0.5973
  112MPD2    H2 1748   2.377   1.207  11.920  1.6462  0.3909 -0.7977
  112MPD2    H3 1749   2.369   1.148  12.148 -2.8104 -1.9424 -2.3096
  112MPD2     N 1750   2.741   0.913  12.156 -0.1308  0.5329 -0.2714
  112MPD2    H5 1751   2.718   0.921  12.255 -0.2360  1.1089 -0.3455
  112MPD2    N1 1752   2.588   1.125  11.745 -0.3894 -0.5508  0.0146
  112MPD2    H7 1753   2.673   1.089  11.701  0.7833  2.4351 -0.1673
  113TMC2    C1 1754   1.157   3.320   0.750 -0.5522  0.6970  0.1405
  113TMC2    C2 1755   1.038   3.385   0.781 -0.5320  0.7502  0.1181
  113TMC2    C3 1756   0.923   3.318   0.794 -0.4510  0.4613  0.2681
  113TMC2    C4 1757   1.154   3.180   0.750  0.0792 -0.2739  0.2023
  113TMC2    C5 1758   1.039   3.114   0.778  0.4496 -0.4842 -0.5870
  113TMC2    C6 1759   0.927   3.184   0.808 -0.6021  1.0424  0.0404
  113TMC2     C 1760   1.285   3.387   0.782  0.5324  0.2916  0.1659
  113TMC2     O 1761   1.281   3.498   0.830  0.3362 -0.1780 -0.7055
  113TMC2     H 1762   1.043   3.493   0.791  2.4495  0.8227 -2.1277
  113TMC2    H1 1763   1.248   3.129   0.731 -1.4260 -2.2015 -1.9835
  113TMC2    H2 1764   0.837   3.134   0.843  0.1317 -0.0887  0.3272
  113TMC2    C7 1765   1.053   2.971   0.797  0.2874  0.3691 -0.1317
  113TMC2    C8 1766   0.806   3.385   0.825  0.2236 -0.1623 -0.3864
  113TMC2    O1 1767   1.168   2.929   0.787  0.0129 -0.0130  0.4438
  113TMC2    O2 1768   0.723   3.340   0.904 -0.2743 -0.2488  0.4996
  113TMC2    O5 1769   0.801   3.502   0.768  0.4295 -0.2940  0.9979
  113TMC2    H5 1770   0.865   3.516   0.695  1.0978 -0.3155  1.5670
  114MPD2     C 1771   1.755   3.339   0.958 -0.6423 -0.0749  0.2801
  114MPD2    C1 1772   1.646   3.403   1.004 -0.1656  0.1115 -0.4777
  114MPD2    C2 1773   1.527   3.396   0.940 -0.3231 -0.0066 -0.4077
  114MPD2    C3 1774   1.520   3.327   0.824 -0.5135 -0.7626  0.1437
  114MPD2    C4 1775   1.627   3.252   0.782  0.8324 -0.7449  0.4371
  114MPD2    C5 1776   1.747   3.264   0.844  0.6898 -0.2982  0.1898
  114MPD2     H 1777   1.438   3.440   0.983 -1.1757  0.0179 -2.1700
  114MPD2    H1 1778   1.620   3.184   0.699 -1.6391 -0.6457  0.5550
  114MPD2    H2 1779   1.852   3.355   1.003 -1.0088  0.4602  0.8807
  114MPD2    H3 1780   1.829   3.212   0.797  1.8823  0.1409  1.7455
  114MPD2     N 1781   1.399   3.310   0.754 -0.0986  0.6990  0.2060
  114MPD2    H5 1782   1.402   3.246   0.675 -1.2746  0.2220  0.5518
  114MPD2    N1 1783   1.648   3.475   1.131  0.3309 -0.6211  0.2020
  114MPD2    H7 1784   1.557   3.514   1.155 -1.1272 -2.5388 -2.1055
  115TMC2    C1 1785   2.204   1.511  17.475 -0.1898  0.7690  0.7103
  115TMC2    C2 1786   2.339   1.482  17.474  0.4426  0.7333 -0.2798
  115TMC2    C3 1787   2.426   1.576  17.525  0.0552  1.5640  0.7881
  115TMC2    C4 1788   2.157   1.635  17.518  0.9060  0.2579  0.0006
  115TMC2    C5 1789   2.246   1.727  17.547 -0.2867  0.6347 -0.4814
  115TMC2    C6 1790   2.380   1.702  17.553  0.1948  0.4508 -0.0472
  115TMC2     C 1791   2.116   1.411  17.417 -0.6332  0.4339  0.0703
  115TMC2     O 1792   2.153   1.299  17.389  0.6307  0.2470 -0.1327
  115TMC2     H 1793   2.372   1.392  17.424  0.8233  1.8110 -1.9636
  115TMC2    H1 1794   2.051   1.646  17.539  0.9592 -2.7705  1.8033
  115TMC2    H2 1795   2.444   1.777  17.596 -1.4018  2.5494 -1.3179
  115TMC2    C7 1796   2.202   1.864  17.566 -0.6803  0.5275  0.2300
  115TMC2    C8 1797   2.565   1.564  17.513  0.2178 -0.0813 -0.7602
  115TMC2    O1 1798   2.093   1.866  17.619  0.6411 -0.5822 -0.8374
  115TMC2    O2 1799   2.634   1.663  17.500 -0.0571 -0.1940 -0.4910
  115TMC2    O5 1800   2.619   1.442  17.516  0.4790 -0.2785 -0.4223
  115TMC2    H5 1801   2.565   1.361  17.522 -0.8813  0.5351 -1.6712
  116MPD2     C 1802   1.649   1.284  17.258  0.0234  0.2520 -1.0115
  116MPD2    C1 1803   1.753   1.201  17.304 -0.5838  0.6573 -0.0465
  116MPD2    C2 1804   1.876   1.258  17.340  0.2770 -0.2787 -0.4984
  116MPD2    C3 1805   1.883   1.391  17.333  0.4930  0.6181  1.0379
  116MPD2    C4 1806   1.786   1.467  17.279  0.4365 -0.2980  0.1297
  116MPD2    C5 1807   1.666   1.420  17.246 -0.1476 -0.2116  0.4968
  116MPD2     H 1808   1.951   1.201  17.394  3.3565  1.3992 -3.0055
  116MPD2    H1 1809   1.804   1.573  17.281 -0.2435 -0.1742 -0.2427
  116MPD2    H2 1810   1.550   1.244  17.242 -0.2836  0.3642  0.5433
  116MPD2    H3 1811   1.585   1.477  17.203 -0.0166 -0.1315  0.3564
  116MPD2     N 1812   1.992   1.463  17.378 -0.0636 -0.0097 -0.2142
  116MPD2    H5 1813   1.986   1.564  17.371 -2.2399 -0.2477 -1.9636
  116MPD2    N1 1814   1.736   1.061  17.314 -0.2906 -0.0494  0.0638
  116MPD2    H7 1815   1.647   1.023  17.283 -1.0792  2.3223 -0.5868
  117TMC2    C1 1816   0.606   2.754  14.144  0.4097 -0.1388  0.0824
  117TMC2    C2 1817   0.707   2.672  14.140 -0.0398  0.7563 -0.4291
  117TMC2    C3 1818   0.830   2.723  14.133 -0.0970 -0.6230  0.5883
  117TMC2    C4 1819   0.623   2.887  14.146 -0.1551 -0.2414 -0.4723
  117TMC2    C5 1820   0.750   2.940  14.144  0.5599  0.5383 -0.4362
  117TMC2    C6 1821   0.858   2.856  14.129 -0.2456  0.3188  0.8143
  117TMC2     C 1822   0.473   2.697  14.100 -0.3295 -0.0132 -0.0722
  117TMC2     O 1823   0.460   2.578  14.122  0.0393 -0.5293 -0.4187
  117TMC2     H 1824   0.687   2.567  14.119 -0.1552  0.7822 -0.4501
  117TMC2    H1 1825   0.538   2.950  14.166  1.0401  0.7923  1.3444
  117TMC2    H2 1826   0.962   2.885  14.135  0.1272 -1.0034  0.7674
  117TMC2    C7 1827   0.775   3.079  14.184  0.2257 -0.3670  0.2826
  117TMC2    C8 1828   0.950   2.639  14.159 -0.7439  0.0275  0.4301
  117TMC2    O1 1829   0.894   3.115  14.192  0.3211 -0.4658 -0.1343
  117TMC2    O2 1830   0.942   2.520  14.192 -0.1416  0.6774  0.1470
  117TMC2    O5 1831   1.056   2.684  14.085 -0.5724 -0.3207  0.3761
  117TMC2    H5 1832   1.033   2.763  14.032  0.3712 -0.5817 -0.4535
  118MPD2     C 1833   0.504   3.326  14.215 -0.3716 -0.4113  0.1546
  118MPD2    C1 1834   0.638   3.290  14.219 -0.6849  0.4534 -0.6168
  118MPD2    C2 1835   0.739   3.374  14.255  0.0658 -0.0213  0.9449
  118MPD2    C3 1836   0.701   3.510  14.258 -0.5026 -0.1166  1.2717
  118MPD2    C4 1837   0.568   3.550  14.258  0.2977  0.2997 -0.0762
  118MPD2    C5 1838   0.468   3.460  14.234 -0.7221  0.0586  0.3813
  118MPD2     H 1839   0.842   3.341  14.264  0.1735  0.3119  0.9055
  118MPD2    H1 1840   0.530   3.651  14.273  0.5043  0.2626  0.6836
  118MPD2    H2 1841   0.429   3.252  14.192  1.5062 -2.2600 -0.0085
  118MPD2    H3 1842   0.365   3.492  14.238 -0.5835  0.2264  3.0385
  118MPD2     N 1843   0.793   3.616  14.245 -0.3617 -0.5219 -0.1886
  118MPD2    H5 1844   0.753   3.709  14.242 -0.1013 -0.4224 -0.6850
  118MPD2    N1 1845   0.655   3.152  14.184  0.0831 -0.3263  0.5642
  118MPD2    H7 1846   0.568   3.107  14.157  2.1068 -2.1950 -2.8463
  119TMC2    C1 1847   3.802   3.929  13.710 -0.2654 -0.5549  0.7946
  119TMC2    C2 1848   3.873   3.931  13.595  0.0904  0.5783 -0.7418
  119TMC2    C3 1849   3.810   3.875  13.487  0.8370  0.6973  0.0317
  119TMC2    C4 1850   3.684   3.863  13.726  0.0524  0.8770  0.2649
  119TMC2    C5 1851   3.639   3.795  13.615 -0.7403 -0.7808  0.0435
  119TMC2    C6 1852   3.700   3.792  13.495  0.6115  0.7150 -0.2286
  119TMC2     C 1853   3.848   4.019  13.817  0.2645 -0.1546 -0.0216
  119TMC2     O 1854   3.760   4.074  13.886  0.2554 -0.0107  0.5524
  119TMC2     H 1855   3.957   3.998  13.580  0.4397  0.2737 -0.1431
  119TMC2    H1 1856   3.628   3.870  13.818 -3.1391 -0.3775 -1.5497
  119TMC2    H2 1857   3.673   3.744  13.402  1.0775 -0.6391  0.3329
  119TMC2    C7 1858   3.510   3.727  13.621  0.2417 -0.0406 -0.2789
  119TMC2    C8 1859   3.892   3.882  13.375  0.3468 -0.3138  0.2382
  119TMC2    O1 1860   3.474   3.672  13.516  0.3325  0.4577 -0.6664
  119TMC2    O2 1861   3.898   3.794  13.293 -0.5649 -0.7891 -0.0880
  119TMC2    O5 1862   3.916   4.015  13.353  0.2573 -0.3442 -0.6537
  119TMC2    H5 1863   3.883   4.074  13.424  0.3264  1.4817 -2.1413
  120MPD2     C 1864   4.207   4.234  14.095  0.5786  0.0436 -0.1004
  120MPD2    C1 1865   4.074   4.262  14.095  0.3689  0.7024  0.0913
  120MPD2    C2 1866   3.992   4.201  14.002  0.4212  0.0655  0.0329
  120MPD2    C3 1867   4.048   4.118  13.909  0.0099 -0.2133  1.0469
  120MPD2    C4 1868   4.184   4.092  13.912  0.0362  0.2703 -0.2768
  120MPD2    C5 1869   4.262   4.146  14.013  0.3619  0.3229 -0.4154
  120MPD2     H 1870   3.889   4.232  13.994  0.6815  0.7800 -0.5188
  120MPD2    H1 1871   4.242   4.031  13.843  1.3970  0.0242  1.0826
  120MPD2    H2 1872   4.281   4.281  14.159 -1.7088  0.5022  2.1896
  120MPD2    H3 1873   4.366   4.119  14.020 -0.6601 -2.8462  2.4284
  120MPD2     N 1874   3.980   4.031  13.826  0.5075  0.1700 -0.4142
  120MPD2    H5 1875   4.038   3.966  13.775  0.3186  0.0666 -0.4972
  120MPD2    N1 1876   4.032   4.359  14.193  0.0683  0.0193 -0.0670
  120MPD2    H7 1877   4.103   4.420  14.233  1.2899 -2.3349  1.3498
  121TMC2    C1 1878   0.170   1.545  14.159 -1.3163 -0.8175 -0.0748
  121TMC2    C2 1879   0.098   1.629  14.071 -1.1462  0.5660 -0.1420
  121TMC2    C3 1880   4.703   1.644  14.100  0.0078 -0.9271 -0.1355
  121TMC2    C4 1881   0.113   1.459  14.248 -0.7529 -0.0088 -0.5647
  121TMC2    C5 1882   4.715   1.472  14.262 -0.7871 -0.0177 -0.0889
  121TMC2    C6 1883   4.641   1.563  14.185 -0.8020  0.4989 -0.4657
  121TMC2     C 1884   0.283   1.483  14.097  0.0717  0.4863  0.0083
  121TMC2     O 1885   0.320   1.374  14.141 -0.1582 -0.6017 -0.3327
  121TMC2     H 1886   0.142   1.690  13.992 -2.1749  1.6382  0.1163
  121TMC2    H1 1887   0.172   1.389  14.305  1.9235  1.4863 -1.5239
  121TMC2    H2 1888   4.535   1.578  14.201 -1.1340 -1.8812 -0.4333
  121TMC2    C7 1889   4.652   1.371  14.342  0.0642  0.2992  0.5552
  121TMC2    C8 1890   4.627   1.763  14.060 -0.0658 -0.2665  0.0000
  121TMC2    O1 1891   4.717   1.309  14.428  0.0503 -0.1764  0.7276
  121TMC2    O2 1892   4.671   1.880  14.054 -0.3080  0.2688  0.4782
  121TMC2    O5 1893   4.504   1.734  14.015 -0.2433 -0.0784  0.1496
  121TMC2    H5 1894   4.490   1.641  13.985  1.2361  0.3863 -1.9768
  122MPD2     C 1895   0.415   1.364  13.852  0.0491 -0.4435  0.0881
  122MPD2    C1 1896   0.416   1.498  13.880  0.3543  0.0529 -0.6932
  122MPD2    C2 1897   0.484   1.587  13.787 -0.0840 -0.2287 -0.2103
  122MPD2    C3 1898   0.556   1.539  13.678  0.6050  0.1473  0.3737
  122MPD2    C4 1899   0.545   1.409  13.648 -0.3163  0.3831 -0.6521
  122MPD2    C5 1900   0.478   1.320  13.735 -0.8255 -0.5073  0.0407
  122MPD2     H 1901   0.471   1.693  13.804  0.9959  0.1358 -1.6599
  122MPD2    H1 1902   0.608   1.376  13.566  0.8696  1.4209 -0.1639
  122MPD2    H2 1903   0.370   1.288  13.916  0.9317 -0.3463  0.8227
  122MPD2    H3 1904   0.490   1.215  13.714 -2.2571 -0.8081  0.7086
  122MPD2     N 1905   0.641   1.618  13.592 -0.0801 -0.0719  0.4604
  122MPD2    H5 1906   0.678   1.576  13.508 -0.7593  0.1283  0.0567
  122MPD2    N1 1907   0.334   1.550  13.988 -0.6462 -0.4386  0.2961
  122MPD2    H7 1908   0.309   1.648  13.989 -1.2251 -0.5998  1.8939
  123TMC2    C1 1909   3.374   4.720  11.207  0.1946 -0.3140 -0.7757
  123TMC2    C2 1910   3.393   0.107  11.258  0.2282  0.0548  0.3944
  123TMC2    C3 1911   3.432   0.199  11.174 -0.5495  0.2820 -0.1505
  123TMC2    C4 1912   3.376   4.696  11.071  0.2532  0.1658 -0.3256
  123TMC2    C5 1913   3.388   0.069  10.986  0.3053 -0.2244 -0.2087
  123TMC2    C6 1914   3.416   0.191  11.036 -0.5380 -0.2975  0.0899
  123TMC2     C 1915   3.330   4.614  11.297 -0.6508  0.1534  0.1067
  123TMC2     O 1916   3.310   4.655  11.409  0.3587 -0.3200  0.2859
  123TMC2     H 1917   3.392   0.120  11.366 -2.0897 -1.6085  0.5911
  123TMC2    H1 1918   3.354   4.599  11.029 -2.8585  0.1698  1.3076
  123TMC2    H2 1919   3.418   0.279  10.972 -0.7029  1.6484  2.7916
  123TMC2    C7 1920   3.387   0.053  10.846  0.1930 -0.6161 -0.3820
  123TMC2    C8 1921   3.449   0.323  11.241  0.0362  1.1044  0.9915
  123TMC2    O1 1922   3.381   0.156  10.779 -0.1156 -0.5960 -0.5085
  123TMC2    O2 1923   3.454   0.343  11.363  0.4446 -0.2955 -0.9248
  123TMC2    O5 1924   3.512   0.404  11.157  0.0820 -0.0179 -0.8066
  123TMC2    H5 1925   3.441   0.412  11.089 -0.5234  1.1926 -0.0446
  124MPD2     C 1926   3.099   4.180  11.410  0.4466  0.0886  0.7618
  124MPD2    C1 1927   3.112   4.186  11.274 -0.1589  0.6157 -0.0530
  124MPD2    C2 1928   3.197   4.282  11.226 -0.0574 -0.3055  0.5745
  124MPD2    C3 1929   3.238   4.388  11.303 -0.7212 -0.0232 -0.6434
  124MPD2    C4 1930   3.203   4.386  11.436  0.4639  0.0345  0.3980
  124MPD2    C5 1931   3.142   4.279  11.491 -0.1775 -0.1414  0.0610
  124MPD2     H 1932   3.230   4.276  11.123 -1.2837 -2.1137  0.2937
  124MPD2    H1 1933   3.210   4.469  11.505 -1.3304  2.7258 -2.6669
  124MPD2    H2 1934   3.054   4.093  11.456  0.1944  1.6388  3.4402
  124MPD2    H3 1935   3.122   4.273  11.597  0.1972 -1.6020  0.0418
  124MPD2     N 1936   3.298   4.499  11.236 -0.5530 -0.2207 -0.0625
  124MPD2    H5 1937   3.318   4.487  11.137  0.2305  1.8664 -0.1459
  124MPD2    N1 1938   3.050   4.083  11.196 -0.4780 -0.6704  0.3499
  124MPD2    H7 1939   2.986   4.020  11.244  0.6643 -2.5439 -0.6052
  125TMC2    C1 1940   3.891   2.018  10.005 -0.0089 -0.7937 -0.1997
  125TMC2    C2 1941   3.803   2.098  10.069 -0.1882 -0.1520  0.5250
  125TMC2    C3 1942   3.809   2.230  10.034 -0.5309 -0.6380 -0.2144
  125TMC2    C4 1943   3.992   2.061   9.922  0.4672 -0.1088 -0.1560
  125TMC2    C5 1944   3.987   2.194   9.893 -0.8548 -0.1734  0.2997
  125TMC2    C6 1945   3.901   2.284   9.947  0.2966  0.1463  0.4263
  125TMC2     C 1946   3.897   1.868  10.038 -0.1520  0.0951  0.1980
  125TMC2     O 1947   3.853   1.837  10.147  0.2438 -0.3120  0.2584
  125TMC2     H 1948   3.733   2.071  10.147 -0.5023 -0.6851  0.0626
  125TMC2    H1 1949   4.075   2.000   9.889 -1.6699 -1.6042 -2.8517
  125TMC2    H2 1950   3.916   2.391   9.931 -1.6808  0.1752 -1.1403
  125TMC2    C7 1951   4.107   2.250   9.843 -0.2265 -0.9293 -0.1360
  125TMC2    C8 1952   3.675   2.283  10.037  0.6300  0.0336 -0.1840
  125TMC2    O1 1953   4.104   2.365   9.796  0.9667  0.4233 -0.4580
  125TMC2    O2 1954   3.569   2.224  10.029 -0.2416  0.4880 -0.3054
  125TMC2    O5 1955   3.688   2.415  10.008  0.3881 -0.4236 -0.0054
  125TMC2    H5 1956   3.766   2.454  10.054 -0.5043  0.6240  0.6020
  126MPD1     C 1957   3.932   1.369   9.919 -0.3844 -0.6814 -0.1978
  126MPD1    C1 1958   3.976   1.436   9.809  0.0933 -0.4317  0.0243
  126MPD1    C2 1959   3.967   1.578   9.813 -0.0467  0.9617 -0.3314
  126MPD1    C3 1960   3.936   1.650   9.933 -0.2685  0.3293 -0.1287
  126MPD1    C4 1961   3.901   1.575  10.045 -0.6466 -0.4264  0.1944
  126MPD1    C5 1962   3.897   1.439  10.033  0.8220  0.2175  0.2467
  126MPD1     H 1963   3.990   1.629   9.720 -0.5236 -1.1021 -1.5833
  126MPD1    H1 1964   3.875   1.621  10.140 -0.1775 -0.0580  0.1442
  126MPD1    H2 1965   3.929   1.261   9.909  1.3686 -0.6985 -0.6248
  126MPD1    H3 1966   3.865   1.386  10.121 -2.6567  0.1196 -1.0853
  126MPD1     N 1967   3.937   1.787   9.930  0.3540 -0.1569 -0.3998
  126MPD1    H5 1968   3.989   1.818   9.848 -0.5219  3.6960  0.5078
  126MPD1    N1 1969   3.995   1.372   9.680  0.3656  0.6441  0.1618
  126MPD1    H6 1970   4.069   1.422   9.630  0.0788  2.0215  1.0875
  126MPD1    H7 1971   4.029   1.276   9.679 -1.6005 -0.0647  1.7622
  127TMC2    C1 1972   0.606   0.223   9.961 -0.8234  0.0248  0.7859
  127TMC2    C2 1973   0.608   0.157  10.079 -0.0541  0.1316 -0.5504
  127TMC2    C3 1974   0.505   0.064  10.103 -0.0129  0.5427 -0.3506
  127TMC2    C4 1975   0.513   0.200   9.864  0.3259  0.5499 -0.3463
  127TMC2    C5 1976   0.420   0.099   9.885  0.0444  1.0995 -0.2992
  127TMC2    C6 1977   0.416   0.035  10.005 -0.3058  0.1026 -0.0904
  127TMC2     C 1978   0.680   0.349   9.951  0.4500 -0.2531  0.1878
  127TMC2     O 1979   0.730   0.393  10.056  0.5859 -0.1109 -0.2185
  127TMC2     H 1980   0.668   0.195  10.160  1.5279 -1.6601 -0.8710
  127TMC2    H1 1981   0.501   0.255   9.772 -1.8997  2.8058  1.2979
  127TMC2    H2 1982   0.357   4.683  10.019  1.9663 -1.2843  0.6185
  127TMC2    C7 1983   0.308   0.092   9.796 -0.1910  0.1194 -0.0294
  127TMC2    C8 1984   0.496   4.728  10.222  0.0075 -1.0408 -0.7608
  127TMC2    O1 1985   0.324   0.139   9.686 -0.2753  0.0105  0.3120
  127TMC2    O2 1986   0.591   4.724  10.304 -0.9238 -0.7946  0.5446
  127TMC2    O5 1987   0.370   4.701  10.256  0.2334  0.2664  0.3336
  127TMC2    H5 1988   0.300   4.730  10.192  0.0411 -0.8556  0.0263
  128MPD2     C 1989   0.729   0.545   9.649 -0.4557  0.6285  0.0579
  128MPD2    C1 1990   0.729   0.524   9.782  0.5312 -0.6595 -0.0598
  128MPD2    C2 1991   0.761   0.620   9.877 -0.0293 -0.1288 -0.8586
  128MPD2    C3 1992   0.816   0.740   9.836 -0.2331 -0.6514 -0.4315
  128MPD2    C4 1993   0.813   0.761   9.697 -0.3418 -0.8785  0.0925
  128MPD2    C5 1994   0.774   0.668   9.609 -0.5571 -0.2237  0.0551
  128MPD2     H 1995   0.761   0.600   9.983 -0.8208  1.5172 -0.5514
  128MPD2    H1 1996   0.851   0.849   9.647 -0.9637 -1.4522 -1.3942
  128MPD2    H2 1997   0.693   0.469   9.580 -1.8979 -0.4978  2.0249
  128MPD2    H3 1998   0.783   0.686   9.503  0.3356  3.3784  0.7438
  128MPD2     N 1999   0.861   0.838   9.927 -0.3271  0.2011  0.2945
  128MPD2    H5 2000   0.861   0.814  10.026 -0.7599  1.3717  0.5739
  128MPD2    N1 2001   0.682   0.395   9.825 -1.1158 -0.3021  0.1953
  128MPD2    H7 2002   0.670   0.334   9.744 -0.0276 -0.7820  0.4024
  129TMC2    C1 2003   4.183   0.394   1.785  0.1123 -0.1414  0.4783
  129TMC2    C2 2004   4.257   0.283   1.764 -0.4573  0.0193 -0.1267
  129TMC2    C3 2005   4.228   0.195   1.669 -0.0041  0.2045  0.6566
  129TMC2    C4 2006   4.067   0.414   1.714  0.0824 -0.1010 -0.1952
  129TMC2    C5 2007   4.033   0.320   1.616  0.2375  0.5827 -0.1361
  129TMC2    C6 2008   4.116   0.211   1.590  0.7162  0.9299 -0.3462
  129TMC2     C 2009   4.263   0.514   1.826  0.0808 -0.5483 -0.4197
  129TMC2     O 2010   4.373   0.495   1.876 -0.4694  0.3275  0.6586
  129TMC2     H 2011   4.354   0.265   1.810  0.0826  1.5841 -0.6725
  129TMC2    H1 2012   4.007   0.502   1.732  3.5493  2.0965  0.6112
  129TMC2    H2 2013   4.098   0.135   1.514  0.0147  0.2711  0.4767
  129TMC2    C7 2014   3.912   0.333   1.535 -0.4627  0.9246  0.6843
  129TMC2    C8 2015   4.308   0.083   1.646  0.4402  0.0287  0.1794
  129TMC2    O1 2016   3.867   0.227   1.493 -0.3020 -1.0388  0.7648
  129TMC2    O2 2017   4.431   0.091   1.660  0.5986 -0.2820 -0.0485
  129TMC2    O5 2018   4.233   4.711   1.664  0.5180  0.6227 -0.2483
  129TMC2    H5 2019   4.141   4.734   1.686  0.9185  0.6597  1.3701
  130MPD2     C 2020   4.364   0.782   1.899 -1.0730 -0.4990  0.4265
  130MPD2    C1 2021   4.260   0.752   1.814  0.1332  0.6389  0.3211
  130MPD2    C2 2022   4.180   0.855   1.766  0.6512  0.5189  0.4537
  130MPD2    C3 2023   4.224   0.986   1.784 -0.6401  0.3985  0.2641
  130MPD2    C4 2024   4.323   1.017   1.877 -0.7340  0.4553  0.1533
  130MPD2    C5 2025   4.389   0.914   1.935  0.3890  0.1070  0.0542
  130MPD2     H 2026   4.104   0.840   1.690  1.7663 -1.8020 -0.1879
  130MPD2    H1 2027   4.338   1.118   1.915 -1.6438  0.1127  1.4516
  130MPD2    H2 2028   4.420   0.707   1.954  0.3465 -1.0635 -1.7820
  130MPD2    H3 2029   4.464   0.936   2.009  0.3579 -0.3778  0.2303
  130MPD2     N 2030   4.167   1.092   1.707 -0.5017  0.1089  0.1879
  130MPD2    H5 2031   4.086   1.068   1.651 -0.3210 -1.9891  0.7981
  130MPD2    N1 2032   4.208   0.629   1.779 -0.3912 -0.3101 -0.2174
  130MPD2    H7 2033   4.125   0.630   1.720 -0.5830 -1.2682  0.0430
  131TMC2    C1 2034   3.015   0.056  10.671 -0.0513  0.3264 -0.2237
  131TMC2    C2 2035   2.970   0.135  10.777  0.3647 -0.0438  0.7043
  131TMC2    C3 2036   3.003   0.269  10.778  0.3036  0.5393 -0.6265
  131TMC2    C4 2037   3.082   0.106  10.566 -0.5080 -0.2776  0.5142
  131TMC2    C5 2038   3.118   0.240  10.571  0.1444 -0.4650 -0.1485
  131TMC2    C6 2039   3.088   0.316  10.684  0.1570  0.1510 -0.6764
  131TMC2     C 2040   2.982   4.655  10.677  0.0016  1.1277  0.5747
  131TMC2     O 2041   2.922   4.619  10.777  0.7056  0.1943  0.2057
  131TMC2     H 2042   2.901   0.098  10.852  0.2367  0.0408  0.6261
  131TMC2    H1 2043   3.130   0.050  10.487 -0.0715  1.9411 -0.8025
  131TMC2    H2 2044   3.094   0.424  10.680  1.3055  0.0416 -2.0555
  131TMC2    C7 2045   3.218   0.291  10.481 -0.2841 -0.3959 -0.4984
  131TMC2    C8 2046   2.969   0.364  10.888 -0.1399  0.1429 -0.2396
  131TMC2    O1 2047   3.245   0.239  10.371 -0.5609  0.5180  0.3402
  131TMC2    O2 2048   3.052   0.436  10.933  0.4079  0.5917  0.0659
  131TMC2    O5 2049   2.859   0.313  10.952 -0.2655  0.3437 -0.2774
  131TMC2    H5 2050   2.810   0.259  10.886 -0.0357 -2.3813  1.8116
  132MPD2     C 2051   2.903   4.444  10.383 -0.2602 -0.8071  0.9548
  132MPD2    C1 2052   2.925   4.474  10.518 -0.4927 -0.1488 -0.1060
  132MPD2    C2 2053   2.898   4.383  10.615  0.4581 -0.2933 -0.6197
  132MPD2    C3 2054   2.856   4.255  10.583 -0.1355  0.7115 -0.2489
  132MPD2    C4 2055   2.822   4.230  10.450 -0.2230 -0.3360  0.2526
  132MPD2    C5 2056   2.856   4.319  10.349 -0.4283  0.2434  0.6799
  132MPD2     H 2057   2.930   4.411  10.715  3.1672 -0.0336 -1.5724
  132MPD2    H1 2058   2.789   4.135  10.410  1.5966 -0.3351 -1.2504
  132MPD2    H2 2059   2.924   4.506  10.296  1.4223  1.9659  3.3149
  132MPD2    H3 2060   2.854   4.288  10.245 -0.3857  1.5647  0.2866
  132MPD2     N 2061   2.830   4.165  10.683  0.0586  0.1888 -0.3909
  132MPD2    H5 2062   2.839   4.195  10.779  0.0569  0.1874 -0.3903
  132MPD2    N1 2063   2.969   4.604  10.546  0.5874  0.4441  0.0962
  132MPD2    H7 2064   3.024   4.648  10.473  0.6440 -0.8386 -0.6369
  133TMC2    C1 2065   2.523   1.558  10.132 -0.2506  0.1377 -0.4282
  133TMC2    C2 2066   2.630   1.512  10.201 -0.1798 -0.0143  0.5559
  133TMC2    C3 2067   2.694   1.609  10.272 -0.3896  0.1511 -0.2929
  133TMC2    C4 2068   2.471   1.687  10.146 -0.1447 -0.3890  0.1273
  133TMC2    C5 2069   2.535   1.771  10.229 -0.6268 -0.5677  0.0413
  133TMC2    C6 2070   2.654   1.736  10.293 -0.9065 -0.9600 -0.5166
  133TMC2     C 2071   2.461   1.455  10.044  0.1617 -0.6281  0.4152
  133TMC2     O 2072   2.475   1.342  10.088  0.2153  0.0032 -0.4187
  133TMC2     H 2073   2.675   1.415  10.184  0.7573  1.0543 -3.0579
  133TMC2    H1 2074   2.383   1.715  10.091 -1.0997 -2.6004  0.5003
  133TMC2    H2 2075   2.705   1.799  10.365  0.0942 -2.5218  0.1454
  133TMC2    C7 2076   2.486   1.909  10.232 -1.2330 -0.0429  0.6490
  133TMC2    C8 2077   2.827   1.568  10.324 -0.3319 -1.1922  0.7255
  133TMC2    O1 2078   2.375   1.923  10.185  0.3914 -0.0036 -0.2224
  133TMC2    O2 2079   2.854   1.448  10.340 -0.5340  0.2304  0.8018
  133TMC2    O5 2080   2.914   1.661  10.270  0.2312  0.0578  0.2116
  133TMC2    H5 2081   2.870   1.733  10.220  1.7366  0.6209 -0.2715
  134MPD2     C 2082   2.285   1.504   9.733 -0.2108 -0.3405 -0.3997
  134MPD2    C1 2083   2.320   1.436   9.849  0.6067  0.3515  0.2387
  134MPD2    C2 2084   2.284   1.302   9.867 -0.1585 -0.1795 -0.7396
  134MPD2    C3 2085   2.212   1.239   9.764  0.0398  0.4022  0.4393
  134MPD2    C4 2086   2.181   1.305   9.652 -0.0396  0.6474  0.2597
  134MPD2    C5 2087   2.220   1.436   9.636 -0.4961 -0.5407 -0.6156
  134MPD2     H 2088   2.303   1.255   9.962 -0.2611 -0.9701 -1.1071
  134MPD2    H1 2089   2.146   1.253   9.563 -0.2489  0.3866  0.4955
  134MPD2    H2 2090   2.311   1.608   9.720  2.0040 -0.9446 -0.8136
  134MPD2    H3 2091   2.189   1.495   9.550  0.1429 -0.2719 -0.6675
  134MPD2     N 2092   2.177   1.104   9.770  0.1677 -0.1748 -0.0975
  134MPD2    H5 2093   2.113   1.063   9.703 -0.1033  0.1755 -0.0545
  134MPD2    N1 2094   2.388   1.511   9.943  0.2824 -0.2178 -0.3217
  134MPD2    H7 2095   2.397   1.610   9.925  0.2144 -0.2335 -0.4355
  135TMC2    C1 2096   4.641   2.050  10.158 -0.2644 -0.8704  0.3224
  135TMC2    C2 2097   4.498   2.061  10.160  0.2106  0.0956 -0.2099
  135TMC2    C3 2098   4.421   1.953  10.170 -0.3462 -0.3585  0.6727
  135TMC2    C4 2099   4.700   1.921  10.161 -0.2184 -0.1114 -0.6884
  135TMC2    C5 2100   4.608   1.818  10.175 -0.4366 -0.4435 -0.0364
  135TMC2    C6 2101   4.469   1.826  10.181  1.1545 -0.3227 -0.2902
  135TMC2     C 2102   4.720   2.169  10.129  0.1414 -0.6082  0.0816
  135TMC2     O 2103   4.661   2.276  10.122 -0.0374  0.3952  0.1049
  135TMC2     H 2104   4.448   2.157  10.153 -1.1626 -0.4982  1.5149
  135TMC2    H1 2105   0.069   1.903  10.168 -0.3591 -0.3966  0.7727
  135TMC2    H2 2106   4.405   1.738  10.179  0.6809  0.0594 -2.9476
  135TMC2    C7 2107   4.660   1.682  10.200  0.0745  0.0050 -0.2080
  135TMC2    C8 2108   4.280   1.976  10.199 -0.8680  0.0552 -0.2612
  135TMC2    O1 2109   0.035   1.657  10.157  0.5425  0.1995  0.1423
  135TMC2    O2 2110   4.222   2.075  10.169 -0.0652 -0.2567 -0.5513
  135TMC2    O5 2111   4.239   1.896  10.298  0.0856 -0.0589 -0.0684
  135TMC2    H5 2112   4.313   1.840  10.330  0.8934  0.3686 -1.1938
  136MPD2     C 2113   0.178   2.369  10.011  0.6367  0.1920  0.2831
  136MPD2    C1 2114   0.199   2.230  10.023  0.6403 -0.5999 -0.3717
  136MPD2    C2 2115   0.317   2.182   9.975 -0.0253 -0.9155  0.4992
  136MPD2    C3 2116   0.406   2.270   9.920 -0.5193  0.5156  0.7128
  136MPD2    C4 2117   0.381   2.405   9.909  0.8246 -0.2862 -0.7839
  136MPD2    C5 2118   0.265   2.459   9.952 -0.0676  0.6033 -0.3989
  136MPD2     H 2119   0.336   2.075   9.979 -0.2417 -0.9378  0.9425
  136MPD2    H1 2120   0.445   2.471   9.852  0.5866  0.2174 -0.4624
  136MPD2    H2 2121   0.091   2.413  10.057  0.6971 -0.8282  1.3677
  136MPD2    H3 2122   0.234   2.561   9.931 -0.7494  0.1368 -1.6238
  136MPD2     N 2123   0.536   2.222   9.886 -0.0904  0.4313  0.2234
  136MPD2    H5 2124   0.603   2.293   9.860 -1.6727  1.7395 -0.2603
  136MPD2    N1 2125   0.109   2.136  10.088 -0.4603 -0.1757 -0.3450
  136MPD2    H7 2126   0.135   2.038  10.092 -0.8126 -0.2064  1.3467
  137TMC2    C1 2127   4.375   1.192   9.810 -0.3203  0.0306 -0.4886
  137TMC2    C2 2128   4.387   1.241   9.684 -0.0693 -0.4056 -0.1383
  137TMC2    C3 2129   4.376   1.372   9.669 -0.3409 -0.6475  0.3622
  137TMC2    C4 2130   4.373   1.258   9.929  0.0208 -0.7807  0.7129
  137TMC2    C5 2131   4.359   1.391   9.907  0.0627  0.7211  0.6528
  137TMC2    C6 2132   4.356   1.446   9.782  0.1956 -0.5119 -0.6704
  137TMC2     C 2133   4.432   1.058   9.831 -0.5646 -0.1051  0.3405
  137TMC2     O 2134   4.379   1.003   9.925 -0.3505  0.0652 -0.6334
  137TMC2     H 2135   4.385   1.174   9.599  0.0960  0.7500 -1.0412
  137TMC2    H1 2136   4.380   1.205  10.024  0.4079 -0.0080  1.1118
  137TMC2    H2 2137   4.335   1.552   9.770  0.9410 -0.2466  0.3669
  137TMC2    C7 2138   4.293   1.458  10.025 -0.1402 -0.7715 -0.1377
  137TMC2    C8 2139   4.349   1.441   9.548 -0.6621  0.3440  0.0404
  137TMC2    O1 2140   4.304   1.579  10.009 -0.2548 -0.6023 -0.1982
  137TMC2    O2 2141   4.272   1.536   9.538 -0.3033 -0.7926  0.0816
  137TMC2    O5 2142   4.387   1.373   9.439 -0.6767 -0.1694  0.3587
  137TMC2    H5 2143   4.453   1.306   9.468  1.1319  0.4249 -2.3331
  138MPD2     C 2144   4.683   0.867   9.641  0.3153 -0.2692  0.2718
  138MPD2    C1 2145   4.596   0.895   9.743  0.2273 -0.2483 -0.7905
  138MPD2    C2 2146   4.584   0.809   9.849 -0.6997 -0.0231 -0.6520
  138MPD2    C3 2147   4.667   0.701   9.851  0.2530 -0.0295  0.3355
  138MPD2    C4 2148   0.014   0.672   9.747  0.2874 -0.6020 -0.1679
  138MPD2    C5 2149   0.027   0.759   9.640 -0.3237  0.3551 -0.2387
  138MPD2     H 2150   4.524   0.818   9.939 -2.2523  1.0305 -1.8118
  138MPD2    H1 2151   0.087   0.592   9.750  3.2536  2.0979  0.1263
  138MPD2    H2 2152   4.684   0.922   9.547 -2.4760 -0.5629  0.0577
  138MPD2    H3 2153   0.087   0.738   9.552 -1.6589  0.9474 -1.2869
  138MPD2     N 2154   4.670   0.622   9.969 -0.3456 -0.3008  0.6886
  138MPD2    H5 2155   4.620   0.652  10.052  1.1338  2.6530  0.5077
  138MPD2    N1 2156   4.520   1.011   9.731  0.8362  0.2740 -0.0619
  138MPD2    H7 2157   4.545   1.066   9.650  0.1191  1.5303  0.5758
  139TMC2    C1 2158   0.611   4.306  13.779  0.7579  0.3803 -0.0131
  139TMC2    C2 2159   0.668   4.335  13.899 -0.3362  0.4136  0.2689
  139TMC2    C3 2160   0.609   4.435  13.966  0.9518  0.6828  0.4808
  139TMC2    C4 2161   0.495   4.370  13.727 -0.0276  0.2329  0.9305
  139TMC2    C5 2162   0.451   4.477  13.797  0.5502 -0.4131  0.3580
  139TMC2    C6 2163   0.503   4.510  13.915  0.4790 -0.5441  0.7140
  139TMC2     C 2164   0.612   4.164  13.751 -0.0221 -0.2464 -0.1260
  139TMC2     O 2165   0.583   4.135  13.636  0.6410 -0.5155 -0.6211
  139TMC2     H 2166   0.761   4.297  13.941  0.1158  0.4494 -0.7036
  139TMC2    H1 2167   0.456   4.359  13.626  0.9666 -3.1122  0.8997
  139TMC2    H2 2168   0.457   4.590  13.971  1.9219 -0.0299  1.1517
  139TMC2    C7 2169   0.307   4.496  13.779  0.7510 -0.0513  0.1764
  139TMC2    C8 2170   0.688   4.492  14.070  0.6658 -0.3342  0.1294
  139TMC2    O1 2171   0.270   4.514  13.662 -0.2518  0.3846 -0.2016
  139TMC2    O2 2172   0.807   4.488  14.050 -0.4161  0.3222  0.0728
  139TMC2    O5 2173   0.627   4.424  14.170 -0.0914  0.3010  0.1729
  139TMC2    H5 2174   0.530   4.412  14.156  0.1601 -3.7062  2.0142
  140MPD2     C 2175   0.574   3.883  13.971 -0.6117 -0.8576 -0.8129
  140MPD2    C1 2176   0.608   3.942  13.853  0.5405  0.3538 -0.5982
  140MPD2    C2 2177   0.644   3.863  13.745 -0.5070  0.8601  0.0089
  140MPD2    C3 2178   0.609   3.727  13.744 -0.2090  0.0801  0.8591
  140MPD2    C4 2179   0.574   3.670  13.864  0.6155 -0.3020 -0.1094
  140MPD2    C5 2180   0.560   3.747  13.978 -0.0980 -0.7013 -0.3996
  140MPD2     H 2181   0.683   3.915  13.659  0.0995  1.0857  0.4151
  140MPD2    H1 2182   0.551   3.564  13.873  2.5818 -0.7027  0.1678
  140MPD2    H2 2183   0.560   3.943  14.060 -0.5075 -1.1013 -0.6327
  140MPD2    H3 2184   0.530   3.708  14.074 -3.1862  1.0720 -0.6379
  140MPD2     N 2185   0.626   3.663  13.617  0.6117 -0.1210  0.3319
  140MPD2    H5 2186   0.657   3.718  13.538  1.0456 -1.5508 -0.4770
  140MPD2    N1 2187   0.617   4.083  13.859 -0.1450 -0.0441 -0.2185
  140MPD2    H7 2188   0.594   4.136  13.943 -0.2415 -0.0577 -0.2363
  141TMC2    C1 2189   0.404   0.785  14.714 -0.5062  0.3102  0.4519
  141TMC2    C2 2190   0.392   0.705  14.824  0.9283  0.8868  0.8634
  141TMC2    C3 2191   0.323   0.754  14.931 -0.1976 -0.0060 -0.3898
  141TMC2    C4 2192   0.369   0.911  14.713 -0.4825  0.1557 -0.7021
  141TMC2    C5 2193   0.310   0.963  14.826  0.8010 -0.5683 -0.7761
  141TMC2    C6 2194   0.279   0.886  14.937  0.3261 -0.0579  0.1255
  141TMC2     C 2195   0.514   0.756  14.621  0.1276 -0.7454  0.0896
  141TMC2     O 2196   0.524   0.811  14.512 -0.3847  0.2626 -0.3313
  141TMC2     H 2197   0.417   0.600  14.820 -2.6827  0.1569 -1.9391
  141TMC2    H1 2198   0.391   0.967  14.623  0.8904 -2.3425 -1.9219
  141TMC2    H2 2199   0.248   0.936  15.028  2.0865  0.5227  0.3921
  141TMC2    C7 2200   0.336   1.100  14.850 -0.6195 -0.3769 -0.4640
  141TMC2    C8 2201   0.253   0.649  15.001 -0.2393 -0.1425  0.0379
  141TMC2    O1 2202   0.267   1.152  14.939 -0.8651 -0.8295 -0.3238
  141TMC2    O2 2203   0.145   0.614  14.962  0.0829 -0.0200 -0.3559
  141TMC2    O5 2204   0.272   0.686  15.132 -0.1479  0.2924  0.0323
  141TMC2    H5 2205   0.356   0.735  15.141  0.8340 -1.1595 -1.3715
  142TMC2    C1 2206   3.129   3.870  10.539 -0.2991  0.3519  0.4433
  142TMC2    C2 2207   3.090   3.863  10.409  0.8854 -0.2124 -0.2665
  142TMC2    C3 2208   3.120   3.977  10.337  0.7778  0.3150 -0.4512
  142TMC2    C4 2209   3.177   3.986  10.596  0.9186 -0.2733 -0.6116
  142TMC2    C5 2210   3.182   4.106  10.522  0.1645  0.1119 -0.0937
  142TMC2    C6 2211   3.162   4.103  10.383 -0.3715 -0.0681  0.3427
  142TMC2     C 2212   3.087   3.756  10.620  0.4441  0.5832 -0.3305
  142TMC2     O 2213   3.016   3.675  10.571 -0.2867  0.2737 -0.0328
  142TMC2     H 2214   3.067   3.770  10.359 -0.8537 -0.1596  0.4305
  142TMC2    H1 2215   3.203   3.991  10.701 -1.1999 -3.8943  0.0645
  142TMC2    H2 2216   3.174   4.189  10.318  0.0282 -0.6899 -0.4166
  142TMC2    C7 2217   3.226   4.224  10.592 -0.5105 -0.0661  0.0253
  142TMC2    C8 2218   3.112   3.973  10.191  0.6703 -0.4768 -0.3069
  142TMC2    O1 2219   3.247   4.218  10.717 -0.0710  0.0595  0.1426
  142TMC2    O2 2220   3.197   4.018  10.113 -0.4103  0.7188 -1.1902
  142TMC2    O5 2221   2.995   3.906  10.165  0.2246  0.2766  0.0416
  142TMC2    H5 2222   2.930   3.875  10.231  2.4359 -1.1773  1.5656
  143MPD2     C 2223   3.029   3.492  11.064 -0.9783 -0.2185 -0.0017
  143MPD2    C1 2224   2.959   3.488  10.942 -0.4644 -0.3149 -0.1039
  143MPD2    C2 2225   2.992   3.576  10.842  1.0958 -0.1763  0.6209
  143MPD2    C3 2226   3.099   3.663  10.851  0.7053 -0.2798  1.0418
  143MPD2    C4 2227   3.174   3.665  10.961  0.0413  0.4091 -0.3063
  143MPD2    C5 2228   3.136   3.578  11.067 -0.2037 -0.6844  0.3519
  143MPD2     H 2229   2.929   3.572  10.754 -0.2797  1.5699  1.5274
  143MPD2    H1 2230   3.261   3.728  10.973  0.1513 -0.1619  1.8583
  143MPD2    H2 2231   3.002   3.431  11.149 -0.0084  1.6713  1.6674
  143MPD2    H3 2232   3.196   3.577  11.157  2.8286  0.9862 -1.6302
  143MPD2     N 2233   3.150   3.748  10.748 -0.3413  0.2212 -0.1894
  143MPD2    H5 2234   3.242   3.788  10.760  0.6052 -1.8369 -0.4910
  143MPD2    N1 2235   2.845   3.403  10.931 -0.1115 -0.5690 -0.4179
  143MPD2    H7 2236   2.813   3.348  11.010 -1.2150 -1.4609 -1.4850
  144TMC2    C1 2237   1.551   2.152   0.548 -0.2199 -0.4710  0.4298
  144TMC2    C2 2238   1.583   2.026   0.511 -0.0471 -0.2887 -0.4439
  144TMC2    C3 2239   1.710   1.980   0.496 -0.2921 -0.8587 -0.7296
  144TMC2    C4 2240   1.648   2.231   0.591 -0.2939 -0.2884  0.1504
  144TMC2    C5 2241   1.778   2.184   0.594 -0.6525  0.3854  0.4732
  144TMC2    C6 2242   1.810   2.063   0.537  0.6918 -0.1712  0.1645
  144TMC2     C 2243   1.408   2.194   0.527 -0.9255  0.1701 -0.2141
  144TMC2     O 2244   1.341   2.119   0.459  0.5006  0.2334  0.1605
  144TMC2     H 2245   1.500   1.957   0.493  0.3594 -0.9144  0.0912
  144TMC2    H1 2246   1.628   2.334   0.619 -1.3491 -0.4332 -0.0614
  144TMC2    H2 2247   1.915   2.039   0.521  0.9675  0.6765  0.6705
  144TMC2    C7 2248   1.887   2.252   0.658  0.5203  0.0218  0.0539
  144TMC2    C8 2249   1.728   1.840   0.479  0.1082  0.1952 -0.1124
  144TMC2    O1 2250   1.998   2.199   0.655  0.2189 -0.3973 -0.4958
  144TMC2    O2 2251   1.645   1.760   0.504 -0.5270 -0.7036 -0.5654
  144TMC2    O5 2252   1.789   1.845   0.363  0.3190  0.3359  0.0855
  144TMC2    H5 2253   1.818   1.937   0.343 -2.6997  0.5926 -3.1498
  145MPD2     C 2254   1.040   2.543   0.595 -0.2751  0.0984  0.4674
  145MPD2    C1 2255   1.041   2.419   0.537 -0.7603 -0.0860 -0.0693
  145MPD2    C2 2256   1.157   2.342   0.524 -0.0869 -0.1989  0.2564
  145MPD2    C3 2257   1.269   2.391   0.584  0.0655  0.0815  0.2717
  145MPD2    C4 2258   1.269   2.511   0.654  0.2928 -0.4723  0.0428
  145MPD2    C5 2259   1.156   2.590   0.647 -0.0751 -0.3535  0.7252
  145MPD2     H 2260   1.150   2.243   0.481  1.9560 -1.1751  2.1379
  145MPD2    H1 2261   1.357   2.557   0.698  0.2566  0.9336 -1.3370
  145MPD2    H2 2262   0.950   2.603   0.589 -0.4684 -0.0709  1.6411
  145MPD2    H3 2263   1.159   2.689   0.692 -0.8648  0.9553 -2.1386
  145MPD2     N 2264   1.386   2.318   0.586  0.1387 -0.1714 -0.1473
  145MPD2    H5 2265   1.454   2.350   0.654 -0.5231 -1.1977  0.9998
  145MPD2    N1 2266   0.925   2.353   0.483  0.4303  0.1566 -0.1622
  145MPD2    H7 2267   0.947   2.261   0.448  1.5562  0.2415  0.3114
  146TMC2    C1 2268   2.441   1.118  12.740  0.2690  0.0506  0.1972
  146TMC2    C2 2269   2.333   1.059  12.679 -0.1121 -0.1381 -0.2000
  146TMC2    C3 2270   2.352   0.968  12.580 -0.0408 -0.1125 -0.2981
  146TMC2    C4 2271   2.563   1.081  12.711 -0.1531  0.0714 -0.1351
  146TMC2    C5 2272   2.583   1.004  12.604  0.4200 -0.6153 -0.2564
  146TMC2    C6 2273   2.483   0.938  12.539 -0.5608  0.6803  0.1430
  146TMC2     C 2274   2.405   1.195  12.858 -0.3098  0.0942  0.6154
  146TMC2     O 2275   2.311   1.274  12.847 -0.2886  0.0209 -0.3833
  146TMC2     H 2276   2.229   1.077  12.706 -0.3885 -1.6246 -0.3026
  146TMC2    H1 2277   2.640   1.143  12.755  1.1474 -2.3232  0.9032
  146TMC2    H2 2278   2.503   0.889  12.445  0.3924 -0.1762  0.7948
  146TMC2    C7 2279   2.717   0.982  12.548  0.2537  0.5441  0.5783
  146TMC2    C8 2280   2.249   0.874  12.548 -0.6377  0.0268  0.9786
  146TMC2    O1 2281   2.736   0.990  12.431 -0.4493 -0.2437  0.2348
  146TMC2    O2 2282   2.275   0.754  12.536  0.9064  0.4802 -0.1972
  146TMC2    O5 2283   2.124   0.928  12.562 -0.7130  0.3450  0.2336
  146TMC2    H5 2284   2.131   1.025  12.551 -1.0838  0.1986 -1.2116
  147MPD2     C 2285   3.220   1.007  12.644  0.2573  0.1552  0.1611
  147MPD2    C1 2286   3.160   0.984  12.762  0.0893 -0.3647 -0.0564
  147MPD2    C2 2287   3.023   0.950  12.756  0.1037 -0.7876 -0.3422
  147MPD2    C3 2288   2.947   0.966  12.639  0.1729 -0.2118  0.0287
  147MPD2    C4 2289   3.019   1.019  12.527 -0.2733  0.5743 -0.5438
  147MPD2    C5 2290   3.155   1.033  12.533  0.0304  0.5205 -0.7354
  147MPD2     H 2291   2.969   0.909  12.842  0.3479  2.8643  1.5372
  147MPD2    H1 2292   2.974   1.030  12.430  0.2108 -0.7316 -0.9175
  147MPD2    H2 2293   3.325   1.030  12.633  0.1970  0.6466  0.5884
  147MPD2    H3 2294   3.203   1.059  12.439 -0.9812 -0.4262 -1.5160
  147MPD2     N 2295   2.805   0.957  12.653 -0.3037 -1.0886 -0.4101
  147MPD2    H5 2296   2.770   0.951  12.748 -1.0847  0.5217 -0.6049
  147MPD2    N1 2297   3.234   0.962  12.883  0.0359 -0.9824 -0.0124
  147MPD2    H7 2298   3.336   0.966  12.876 -0.0975  0.9157 -0.9232
  148TMC2    C1 2299   2.331   0.826  10.964 -0.3931 -0.3493 -0.6183
  148TMC2    C2 2300   2.391   0.905  11.052  0.0379  0.1482  0.1573
  148TMC2    C3 2301   2.479   0.854  11.144  0.0790  0.0128  0.4832
  148TMC2    C4 2302   2.369   0.696  10.964 -0.3983  0.0250  0.1274
  148TMC2    C5 2303   2.460   0.648  11.048 -0.3601  0.4568  0.2449
  148TMC2    C6 2304   2.508   0.719  11.147 -0.1956 -0.0634 -0.5983
  148TMC2     C 2305   2.247   0.882  10.856  0.0380 -0.3223  0.4569
  148TMC2     O 2306   2.251   1.006  10.839  0.3836  0.1568 -0.3450
  148TMC2     H 2307   2.363   1.009  11.061 -1.3112 -0.3656  2.2414
  148TMC2    H1 2308   2.328   0.637  10.883  2.7090 -2.9929  0.7220
  148TMC2    H2 2309   2.571   0.673  11.222  2.4652  1.5588 -1.8332
  148TMC2    C7 2310   2.487   0.501  11.039  1.0575 -0.4120  0.2961
  148TMC2    C8 2311   2.508   0.943  11.252  0.2768  0.4947 -0.4229
  148TMC2    O1 2312   2.449   0.448  10.932  0.1165  0.4383 -0.1882
  148TMC2    O2 2313   2.415   1.008  11.298 -0.4518  0.4135  0.3590
  148TMC2    O5 2314   2.613   0.896  11.324 -0.4619 -0.0656  0.4484
  148TMC2    H5 2315   2.664   0.837  11.265  1.1563 -0.1707  1.9471
  149MPD2     C 2316   2.009   0.935  10.705 -0.3032 -0.4125 -0.4114
  149MPD2    C1 2317   2.067   0.810  10.708 -0.1698 -0.3560 -0.4458
  149MPD2    C2 2318   2.012   0.708  10.630  0.4408  0.8847  0.4056
  149MPD2    C3 2319   1.902   0.734  10.550  0.0347  0.2107  0.0468
  149MPD2    C4 2320   1.836   0.851  10.556 -0.4104  0.7551 -0.4090
  149MPD2    C5 2321   1.889   0.948  10.641  0.2160 -0.0823  0.1647
  149MPD2     H 2322   2.056   0.609  10.637  0.0007  0.6857  0.3284
  149MPD2    H1 2323   1.743   0.865  10.501  0.5772  2.6855 -1.5902
  149MPD2    H2 2324   2.039   1.009  10.779 -0.3398 -0.9110  0.0994
  149MPD2    H3 2325   1.845   1.046  10.653  0.3878 -0.1420  1.2924
  149MPD2     N 2326   1.839   0.628  10.470 -0.2671 -0.0683  0.7181
  149MPD2    H5 2327   1.744   0.635  10.436 -0.0490 -0.3473  0.0495
  149MPD2    N1 2328   2.177   0.783  10.795 -0.4333 -0.2336 -0.8105
  149MPD2    H7 2329   2.204   0.687  10.816 -0.7659 -0.5854 -1.9883
  150TMC2    C1 2330   0.095   4.273  12.365 -0.6124  0.2544  0.1211
  150TMC2    C2 2331   0.103   4.391  12.287 -0.0677  0.3284 -0.7506
  150TMC2    C3 2332   0.225   4.447  12.282 -0.1459 -0.0318 -0.7813
  150TMC2    C4 2333   0.205   4.228  12.417 -0.2437  0.4527  0.0816
  150TMC2    C5 2334   0.322   4.295  12.408 -0.1570 -0.0582 -0.6381
  150TMC2    C6 2335   0.337   4.410  12.346 -0.7484  0.7282 -0.3262
  150TMC2     C 2336   0.005   4.174  12.321 -0.1586 -0.0099 -0.3122
  150TMC2     O 2337   0.059   4.064  12.303 -0.8333  0.1623  0.3211
  150TMC2     H 2338   0.038   4.418  12.205 -0.4541  0.3920 -0.4236
  150TMC2    H1 2339   0.208   4.133  12.469 -0.8053 -0.7090 -2.0086
  150TMC2    H2 2340   0.433   4.459  12.339 -0.1233 -0.0637  2.6204
  150TMC2    C7 2341   0.429   4.208  12.359 -0.6168  0.4462 -0.4433
  150TMC2    C8 2342   0.247   4.525  12.170 -0.6453  0.4277 -0.8243
  150TMC2    O1 2343   0.473   4.236  12.244  0.4683 -0.4611  0.2235
  150TMC2    O2 2344   0.161   4.588  12.108  0.4415 -0.0963  0.9886
  150TMC2    O5 2345   0.355   4.463  12.115 -0.4657 -0.0114 -0.5325
  150TMC2    H5 2346   0.391   4.382  12.159 -2.9955 -1.5693 -1.3599
  151MPD2     C 2347   4.319   3.963  12.125 -0.6793 -0.7985 -0.3387
  151MPD2    C1 2348   4.311   4.099  12.108  0.5199 -0.6260  0.0686
  151MPD2    C2 2349   4.411   4.177  12.173 -0.0393  0.5193  0.2173
  151MPD2    C3 2350   4.520   4.122  12.235  0.3418 -0.4062  0.0371
  151MPD2    C4 2351   4.525   3.986  12.253 -0.1022  0.0674  0.4227
  151MPD2    C5 2352   4.430   3.908  12.194 -0.2370  0.0874 -0.2372
  151MPD2     H 2353   4.413   4.284  12.157  2.5419  0.9093  3.0773
  151MPD2    H1 2354   4.604   3.934  12.305 -0.1103 -1.3677 -0.9701
  151MPD2    H2 2355   4.245   3.892  12.090 -2.7525  0.6511  1.0897
  151MPD2    H3 2356   4.421   3.800  12.202  0.6360 -0.0295 -0.8941
  151MPD2     N 2357   4.621   4.216  12.277  0.1211  0.1262 -0.4800
  151MPD2    H5 2358   4.606   4.316  12.269  1.6861  0.3798 -0.1547
  151MPD2    N1 2359   4.201   4.148  12.035 -0.2761 -0.2770  0.0602
  151MPD2    H7 2360   4.135   4.079  12.000 -0.4656 -1.1066  2.0268
  152TMC2    C1 2361   4.360   3.876  12.646 -0.0329 -0.0707 -0.6718
  152TMC2    C2 2362   4.435   3.771  12.610 -0.0918  0.0530 -0.7119
  152TMC2    C3 2363   4.571   3.802  12.592  0.2407  0.5304 -0.2437
  152TMC2    C4 2364   4.404   4.007  12.651  0.2900  0.1931  0.0771
  152TMC2    C5 2365   4.538   4.021  12.657 -0.5884  0.3228  0.0809
  152TMC2    C6 2366   4.625   3.915  12.640 -0.2142  0.6393 -0.5592
  152TMC2     C 2367   4.223   3.847  12.677  0.3418  0.7774  0.0618
  152TMC2     O 2368   4.132   3.927  12.651  0.6984 -0.1956 -0.2577
  152TMC2     H 2369   4.383   3.689  12.561  2.1853 -0.8956 -1.5530
  152TMC2    H1 2370   4.337   4.092  12.656 -2.1809 -1.6759 -1.1692
  152TMC2    H2 2371   4.730   3.930  12.659 -0.5980  0.4350  1.7576
  152TMC2    C7 2372   4.585   4.155  12.650  0.0429  0.0956 -0.6820
  152TMC2    C8 2373   4.669   3.707  12.538 -0.1503 -0.3763 -0.1096
  152TMC2    O1 2374   4.521   4.244  12.596 -0.0663 -0.1576 -0.2516
  152TMC2    O2 2375   0.047   3.749  12.518  0.0643  0.9442  0.2346
  152TMC2    O5 2376   4.595   3.622  12.468  0.4640 -0.2830 -0.6098
  152TMC2    H5 2377   4.508   3.605  12.509  1.0159 -1.3733  0.0991
  153MPD2     C 2378   4.119   3.530  12.829 -0.0274  0.9517  0.1100
  153MPD2    C1 2379   4.109   3.660  12.798 -0.2518  0.5730 -0.4331
  153MPD2    C2 2380   3.992   3.725  12.829  0.2630 -0.2487 -0.8328
  153MPD2    C3 2381   3.889   3.664  12.896  0.3076  0.0850  0.3357
  153MPD2    C4 2382   3.901   3.528  12.924  0.3593  0.2092  0.2245
  153MPD2    C5 2383   4.015   3.463  12.894 -0.6046 -0.2576 -0.5027
  153MPD2     H 2384   3.982   3.832  12.816  0.9651  0.1586  1.9649
  153MPD2    H1 2385   3.828   3.479  12.987  1.7139  0.0575  1.6820
  153MPD2    H2 2386   4.212   3.481  12.801  0.5990  1.6577  0.9802
  153MPD2    H3 2387   4.024   3.360  12.926  2.1612 -0.0081 -0.5130
  153MPD2     N 2388   3.785   3.748  12.940  0.9187 -0.4241  1.6882
  153MPD2    H5 2389   3.794   3.848  12.922 -0.3000 -0.6254 -0.1142
  153MPD2    N1 2390   4.220   3.719  12.728 -0.1778 -0.4429  0.2959
  153MPD2    H7 2391   4.305   3.664  12.733 -0.8170 -1.3157  1.4793
  154TMC2    C1 2392   1.790   3.863   0.355  0.0260  0.0481  0.3719
  154TMC2    C2 2393   1.896   3.907   0.271  0.4694 -0.2406 -0.9050
  154TMC2    C3 2394   1.987   3.819   0.228  0.2217 -0.6915 -0.1413
  154TMC2    C4 2395   1.762   3.728   0.356 -0.3087  0.5077  0.4014
  154TMC2    C5 2396   1.842   3.642   0.287  0.2115 -0.0178 -1.0040
  154TMC2    C6 2397   1.959   3.684   0.229 -0.3014  0.2097  0.0797
  154TMC2     C 2398   1.702   3.956   0.425 -0.5196  0.2835  0.1694
  154TMC2     O 2399   1.595   3.903   0.459 -0.6355 -0.6367 -0.1468
  154TMC2     H 2400   1.922   4.011   0.255  1.9905 -0.2819  1.3074
  154TMC2    H1 2401   1.684   3.700   0.426 -0.5295 -1.9717 -0.8474
  154TMC2    H2 2402   2.016   3.608   0.176  0.9922  3.1018 -2.6739
  154TMC2    C7 2403   1.824   3.500   0.310 -0.3264 -0.2036 -0.6994
  154TMC2    C8 2404   2.120   3.874   0.191 -0.3308 -0.0459  0.0463
  154TMC2    O1 2405   1.912   3.423   0.281  0.6829 -0.1172 -0.4723
  154TMC2    O2 2406   2.152   3.989   0.224 -0.2189 -0.0468  0.0499
  154TMC2    O5 2407   2.203   3.767   0.212 -0.1645  0.1987 -0.1218
  154TMC2    H5 2408   2.182   3.706   0.138 -0.0865  3.3949 -2.7575
  155MPD2     C 2409   1.784   4.295   0.532 -0.1431  0.1703 -0.5218
  155MPD2    C1 2410   1.708   4.183   0.521 -0.1878 -0.4100 -0.2917
  155MPD2    C2 2411   1.579   4.186   0.581  0.6879  0.4726  0.4741
  155MPD2    C3 2412   1.534   4.298   0.646 -0.4255 -0.9195  1.3212
  155MPD2    C4 2413   1.622   4.406   0.661 -0.0169  0.2329 -0.3187
  155MPD2    C5 2414   1.743   4.403   0.604 -0.1669  0.1547 -0.4255
  155MPD2     H 2415   1.519   4.096   0.581 -1.4476  1.9092 -0.0637
  155MPD2    H1 2416   1.602   4.490   0.727 -0.2742 -0.3969  0.4104
  155MPD2    H2 2417   1.872   4.297   0.469  0.0197 -0.1316 -0.3033
  155MPD2    H3 2418   1.809   4.489   0.605  0.0951 -0.0394 -1.0494
  155MPD2     N 2419   1.409   4.285   0.710 -0.0994  0.5552  0.2595
  155MPD2    H5 2420   1.357   4.199   0.695 -0.7637  0.8378  0.9531
  155MPD2    N1 2421   1.765   4.074   0.450  0.0995 -0.1725  0.2539
  155MPD2    H7 2422   1.865   4.077   0.437 -0.2064  1.4430 -1.6483
  156TMC2    C1 2423   4.197   1.555  11.935 -0.3880  0.3324 -0.6254
  156TMC2    C2 2424   4.212   1.443  11.856 -0.5851  0.4751  0.4410
  156TMC2    C3 2425   4.228   1.469  11.725 -0.0787  0.3520 -0.0120
  156TMC2    C4 2426   4.201   1.687  11.889  0.4520 -0.2471  0.5190
  156TMC2    C5 2427   4.197   1.700  11.751  0.5306  0.0598  1.4139
  156TMC2    C6 2428   4.200   1.591  11.665  0.1837  0.3519 -0.5414
  156TMC2     C 2429   4.191   1.537  12.078 -0.6009 -0.3768 -0.1553
  156TMC2     O 2430   4.224   1.636  12.141  0.2610  0.4556  0.0759
  156TMC2     H 2431   4.253   1.352  11.901 -0.2043  0.2096 -0.4543
  156TMC2    H1 2432   4.187   1.773  11.954 -1.1414  0.2974 -0.5204
  156TMC2    H2 2433   4.218   1.595  11.558 -0.7099 -1.4028 -0.7708
  156TMC2    C7 2434   4.180   1.833  11.690  0.2170 -0.4868 -0.2001
  156TMC2    C8 2435   4.249   1.363  11.630 -0.0017  0.2452 -0.1938
  156TMC2    O1 2436   4.203   1.930  11.760  0.3226  0.1559  0.2945
  156TMC2    O2 2437   4.298   1.396  11.519 -0.0979  0.1351 -0.0538
  156TMC2    O5 2438   4.193   1.252  11.671 -0.3342 -0.5918  0.1184
  156TMC2    H5 2439   4.167   1.240  11.765 -2.2170 -2.5546 -0.6541
  157MPD2     C 2440   4.082   1.248  12.280  0.1323  0.0803 -0.4187
  157MPD2    C1 2441   4.148   1.364  12.250  0.5329 -1.1316  0.0879
  157MPD2    C2 2442   4.222   1.428  12.349  0.3183 -0.7743  0.1782
  157MPD2    C3 2443   4.215   1.379  12.480  0.3078  0.0090  0.0508
  157MPD2    C4 2444   4.144   1.267  12.512  0.3728  0.4966 -0.6984
  157MPD2    C5 2445   4.075   1.200  12.413 -0.3506  0.3580  0.2988
  157MPD2     H 2446   4.276   1.520  12.328 -1.1501  0.4786  1.9606
  157MPD2    H1 2447   4.146   1.229  12.613 -0.8300  3.1240  0.3033
  157MPD2    H2 2448   4.008   1.207  12.213  0.3014 -1.0471  0.0864
  157MPD2    H3 2449   4.005   1.121  12.434  0.6297 -0.9421 -1.2623
  157MPD2     N 2450   4.290   1.444  12.584 -0.3183 -0.4751  0.0959
  157MPD2    H5 2451   4.361   1.508  12.550 -0.3401  0.6674  2.2034
  157MPD2    N1 2452   4.141   1.414  12.117 -0.0612  0.8015  0.4026
  157MPD2    H7 2453   4.116   1.354  12.038 -3.4798  0.5586  1.6806
  158TMC2    C1 2454   0.547   0.769  13.202 -0.4034  0.1850 -0.7869
  158TMC2    C2 2455   0.596   0.875  13.133  0.0277 -0.0674 -0.1866
  158TMC2    C3 2456   0.505   0.957  13.069  0.4683  1.1451 -0.4507
  158TMC2    C4 2457   0.410   0.745  13.206 -0.3233 -0.2915 -0.4425
  158TMC2    C5 2458   0.321   0.832  13.145 -0.3155  0.6492 -0.3400
  158TMC2    C6 2459   0.370   0.942  13.084 -0.7115 -0.2394  0.8110
  158TMC2     C 2460   0.644   0.683  13.265  0.8387 -0.3181  0.2528
  158TMC2     O 2461   0.758   0.702  13.232  0.2223  0.7749  0.5232
  158TMC2     H 2462   0.703   0.891  13.124  0.2939 -2.6225 -1.3845
  158TMC2    H1 2463   0.379   0.649  13.244  2.6353 -0.9869  0.1739
  158TMC2    H2 2464   0.300   1.014  13.042  1.7541  1.1244 -0.9828
  158TMC2    C7 2465   0.174   0.812  13.149  0.1416 -0.1759 -0.1841
  158TMC2    C8 2466   0.534   1.057  12.968  0.1734 -0.2170 -0.3259
  158TMC2    O1 2467   0.117   0.867  13.052  0.3510 -0.3791  0.7724
  158TMC2    O2 2468   0.448   1.109  12.897 -0.2547 -0.4913  0.5449
  158TMC2    O5 2469   0.669   1.075  12.960  0.4677 -0.0799 -0.7335
  158TMC2    H5 2470   0.718   1.038  13.036  2.3180  2.8784 -0.4819
  159MPD2     C 2471   0.807   0.310  13.600  0.1489 -0.0219 -0.0098
  159MPD2    C1 2472   0.672   0.339  13.621 -0.4783 -0.8469 -0.6390
  159MPD2    C2 2473   0.614   0.438  13.541  0.1983  0.4895 -0.1167
  159MPD2    C3 2474   0.673   0.510  13.438  0.1647 -0.2175  0.0323
  159MPD2    C4 2475   0.810   0.481  13.417  0.3564 -0.2241  0.0293
  159MPD2    C5 2476   0.870   0.382  13.494 -0.4413  0.0577 -0.1352
  159MPD2     H 2477   0.511   0.460  13.564  0.2560  0.0724  0.5394
  159MPD2    H1 2478   0.871   0.536  13.345 -0.5430 -1.0691 -1.3670
  159MPD2    H2 2479   0.870   0.240  13.655 -1.6631 -2.4408 -1.0010
  159MPD2    H3 2480   0.972   0.359  13.465  0.3396  1.3032  1.6485
  159MPD2     N 2481   0.595   0.595  13.359 -0.5552 -0.2118  0.5566
  159MPD2    H5 2482   0.495   0.590  13.372 -0.4370  1.4581  2.2601
  159MPD2    N1 2483   0.595   0.254  13.709  0.1430  0.2251  0.7798
  159MPD2    H7 2484   0.646   0.183  13.761  0.4430 -0.8623 -1.0126
  160TMC2    C1 2485   4.588   3.425   0.732 -0.8068  0.2559  0.0560
  160TMC2    C2 2486   4.692   3.412   0.646 -0.0079 -0.1468 -0.5203
  160TMC2    C3 2487   0.082   3.400   0.690 -0.2411 -0.1366 -0.8495
  160TMC2    C4 2488   4.614   3.454   0.864  0.3459 -0.0552 -0.5793
  160TMC2    C5 2489   0.008   3.441   0.907  0.2810 -0.3188  0.0070
  160TMC2    C6 2490   0.112   3.411   0.824 -0.8426 -0.0539  0.1914
  160TMC2     C 2491   4.455   3.430   0.676 -0.9611 -0.1822 -0.0544
  160TMC2     O 2492   4.441   3.407   0.555 -0.3440 -0.5173  0.3286
  160TMC2     H 2493   4.663   3.414   0.541  0.0904  1.8266 -0.5183
  160TMC2    H1 2494   4.539   3.468   0.941  1.4101 -1.6107  0.7633
  160TMC2    H2 2495   0.212   3.388   0.861 -0.0136  1.1581 -1.3111
  160TMC2    C7 2496   0.029   3.457   1.057  0.4972 -0.0138  0.4660
  160TMC2    C8 2497   0.167   3.312   0.610 -0.6246 -0.2696 -0.2556
  160TMC2    O1 2498   4.664   3.481   1.121  0.3248  0.6994 -0.1782
  160TMC2    O2 2499   0.259   3.249   0.657 -0.2252  0.3261 -0.2548
  160TMC2    O5 2500   0.161   3.366   0.487  0.7836  0.3867  0.0225
  160TMC2    H5 2501   0.077   3.418   0.486 -0.8080 -2.1866 -1.1701
  161MPD2     C 2502   4.176   3.489   0.622 -0.3518  0.3937  0.1538
  161MPD2    C1 2503   4.221   3.450   0.742  0.0570 -0.1538  0.1665
  161MPD2    C2 2504   4.127   3.429   0.842 -0.5482  0.1799  0.1944
  161MPD2    C3 2505   3.995   3.411   0.803 -0.7075  0.0585 -0.8508
  161MPD2    C4 2506   3.948   3.430   0.673  0.5894  0.6966  1.2138
  161MPD2    C5 2507   4.039   3.481   0.578  0.3670  0.2376 -0.6519
  161MPD2     H 2508   4.161   3.403   0.941  1.2396 -1.0502 -0.7549
  161MPD2    H1 2509   3.844   3.416   0.647  1.3100 -0.7589 -0.8958
  161MPD2    H2 2510   4.246   3.523   0.546 -0.2022 -0.1238  0.0636
  161MPD2    H3 2511   4.015   3.501   0.475  1.4632  0.0775 -0.9356
  161MPD2     N 2512   3.893   3.380   0.896 -1.1853 -0.2561 -0.4075
  161MPD2    H5 2513   3.805   3.349   0.858 -0.9383 -2.2655  0.6314
  161MPD2    N1 2514   4.356   3.444   0.770 -0.3115  0.2082  0.5828
  161MPD2    H7 2515   4.376   3.426   0.868  0.6459 -0.4884  0.2522
  162TMC2    C1 2516   2.089   0.263   0.901 -0.9254 -0.1134  0.8633
  162TMC2    C2 2517   1.955   0.261   0.920 -0.2103 -0.2126 -0.6330
  162TMC2    C3 2518   1.913   0.329   1.032  0.0389  0.8372  0.4147
  162TMC2    C4 2519   2.181   0.304   0.989  0.5454 -0.1072  0.6531
  162TMC2    C5 2520   2.127   0.352   1.111 -1.4326 -0.4308  0.7212
  162TMC2    C6 2521   1.992   0.369   1.131 -0.4646 -0.7932  0.4493
  162TMC2     C 2522   2.143   0.199   0.781  0.5109  0.4739 -0.7318
  162TMC2     O 2523   2.246   0.244   0.742 -0.0180 -0.3593 -0.2528
  162TMC2     H 2524   1.880   0.235   0.846 -1.9605  1.4177  0.5550
  162TMC2    H1 2525   2.287   0.296   0.970  0.6890 -0.5772  1.6885
  162TMC2    H2 2526   1.952   0.418   1.218  1.7747  0.7021  0.6188
  162TMC2    C7 2527   2.211   0.400   1.211 -0.0458 -0.1077  0.4240
  162TMC2    C8 2528   1.775   0.325   1.063 -0.0861 -0.2819 -0.1077
  162TMC2    O1 2529   2.154   0.454   1.301 -0.3948 -0.5505  0.2151
  162TMC2    O2 2530   1.679   0.364   0.994  0.0300  0.7021  0.2449
  162TMC2    O5 2531   1.755   0.250   1.174 -0.1470  0.1837  0.4490
  162TMC2    H5 2532   1.839   0.207   1.200  0.7869  2.2233  0.7167
  163MPD2     C 2533   2.171   4.537   0.453  0.1664  0.7365 -0.0039
  163MPD2    C1 2534   2.228   4.662   0.453  0.3438  0.4629 -0.1230
  163MPD2    C2 2535   2.215   0.017   0.559  0.4044 -0.0871 -0.4479
  163MPD2    C3 2536   2.123   4.726   0.658 -0.1029  0.1798  0.1724
  163MPD2    C4 2537   2.051   4.608   0.648 -0.6151 -0.4992 -0.4865
  163MPD2    C5 2538   2.083   4.511   0.554  0.2029  0.7524 -0.3388
  163MPD2     H 2539   2.275   0.106   0.567  1.5380 -0.8529 -0.5283
  163MPD2    H1 2540   1.983   4.582   0.728  0.9452 -1.8511  0.4033
  163MPD2    H2 2541   2.194   4.461   0.379 -1.8282 -1.1040  1.2572
  163MPD2    H3 2542   2.038   4.412   0.551  1.8649 -0.0523  1.1925
  163MPD2     N 2543   2.080   0.081   0.753  0.1902  0.2611 -0.3694
  163MPD2    H5 2544   1.997   0.054   0.805  0.4245  1.5549  0.6795
  163MPD2    N1 2545   2.315   4.677   0.350 -0.1732  0.1993 -0.0835
  163MPD2    H7 2546   2.320   4.602   0.282 -4.4950 -1.9675  1.9781
  164TMC2    C1 2547   3.028   0.443  11.946  0.6525 -0.0252  0.3349
  164TMC2    C2 2548   3.118   0.544  11.967  0.3800 -0.4398  0.1829
  164TMC2    C3 2549   3.093   0.655  11.894 -0.8894  0.0197 -0.3877
  164TMC2    C4 2550   2.915   0.454  11.865 -0.3852  0.4420  0.6950
  164TMC2    C5 2551   2.895   0.578  11.809  0.2069  0.0513 -0.2340
  164TMC2    C6 2552   2.983   0.683  11.819  0.6492 -0.5743  0.2278
  164TMC2     C 2553   3.075   0.305  11.950 -0.5784 -0.4827 -0.3829
  164TMC2     O 2554   3.119   0.262  12.057 -0.6590 -0.1585  0.2235
  164TMC2     H 2555   3.206   0.529  12.028 -1.1217  1.2142  2.7302
  164TMC2    H1 2556   2.838   0.379  11.852  0.1904  0.3630 -2.2904
  164TMC2    H2 2557   2.951   0.775  11.771  0.9000 -0.2294  0.7282
  164TMC2    C7 2558   2.768   0.602  11.740 -0.0788  0.4778  0.1042
  164TMC2    C8 2559   3.197   0.756  11.911  0.5791 -0.4347  0.1139
  164TMC2    O1 2560   2.743   0.519  11.657 -0.1229 -0.0142 -0.3122
  164TMC2    O2 2561   3.286   0.750  11.998  0.6305  0.3445  0.0156
  164TMC2    O5 2562   3.209   0.811  11.782  0.6739 -0.6159  0.1102
  164TMC2    H5 2563   3.136   0.795  11.718  1.1330 -0.5345 -0.4316
  165TMC2    C1 2564   4.039   1.902   0.447  0.1336  0.4238  0.2478
  165TMC2    C2 2565   4.057   1.763   0.451 -0.6308  1.1405  0.0315
  165TMC2    C3 2566   4.191   1.720   0.454  0.0382 -0.0876 -0.1281
  165TMC2    C4 2567   4.145   1.987   0.449  0.5588 -0.0764  0.2303
  165TMC2    C5 2568   4.276   1.931   0.454 -0.3697 -0.0050 -0.3067
  165TMC2    C6 2569   4.305   1.802   0.453  0.4840 -0.2951  0.3791
  165TMC2     C 2570   3.925   1.954   0.520 -0.0515 -0.0451 -0.0309
  165TMC2     O 2571   3.942   2.039   0.609  0.5022 -0.5690  0.1393
  165TMC2     H 2572   3.980   1.692   0.478 -0.4235  1.3024  1.0445
  165TMC2    H1 2573   4.131   2.094   0.441  2.1456  0.2118  1.3151
  165TMC2    H2 2574   4.404   1.761   0.469  1.0426  0.7206 -0.4588
  165TMC2    C7 2575   4.381   2.019   0.501  0.7690  0.2164 -0.0913
  165TMC2    C8 2576   4.204   1.584   0.496  0.5269  0.2601 -0.0438
  165TMC2    O1 2577   4.493   1.997   0.457  0.3957  0.2933 -0.0107
  165TMC2    O2 2578   4.118   1.526   0.564 -0.3546  0.7581  0.4454
  165TMC2    O5 2579   4.263   1.519   0.396 -0.2621  0.5485 -0.2628
  165TMC2    H5 2580   4.309   1.582   0.336  3.0565 -0.9799  0.6809
  166MPD2     C 2581   3.445   1.912   0.680 -0.2087 -0.1324  0.2638
  166MPD2    C1 2582   3.540   2.003   0.711 -0.0245  0.6248 -0.6444
  166MPD2    C2 2583   3.661   2.000   0.641 -0.6671 -0.0126 -0.4027
  166MPD2    C3 2584   3.692   1.899   0.553  0.1121  1.2017 -0.0477
  166MPD2    C4 2585   3.591   1.809   0.525 -0.3316  0.0221  0.2116
  166MPD2    C5 2586   3.470   1.812   0.591  0.2705  0.0704 -0.2546
  166MPD2     H 2587   3.736   2.078   0.643  1.0433 -1.6998  1.4927
  166MPD2    H1 2588   3.612   1.722   0.464 -0.3493  1.0646 -1.2793
  166MPD2    H2 2589   3.350   1.907   0.733 -0.1562  0.3729  0.4048
  166MPD2    H3 2590   3.397   1.733   0.574  0.2849 -0.0571  0.2791
  166MPD2     N 2591   3.815   1.882   0.490  0.7372 -0.1360  0.6951
  166MPD2    H5 2592   3.823   1.805   0.424  2.0858 -0.2393  0.9951
  166MPD2    N1 2593   3.519   2.096   0.820 -0.0558 -0.3686 -0.0691
  166MPD2    H7 2594   3.433   2.082   0.873  0.6539  0.0315  1.2007
  167TMC2    C1 2595   2.861   4.678  13.218  0.3609 -0.0035  0.7315
  167TMC2    C2 2596   2.815   4.689  13.348  0.5634 -0.2039  0.1568
  167TMC2    C3 2597   2.803   4.577  13.417  0.0449  0.3212 -0.5430
  167TMC2    C4 2598   2.881   4.559  13.151  0.6849 -0.3421 -0.2797
  167TMC2    C5 2599   2.873   4.446  13.232  0.7444  0.1319 -0.1300
  167TMC2    C6 2600   2.826   4.457  13.362  1.6365  0.0994 -1.1424
  167TMC2     C 2601   2.909   0.052  13.142 -0.3262 -0.7041 -0.1324
  167TMC2     O 2602   3.000   0.124  13.184 -0.3107 -0.6810 -0.2056
  167TMC2     H 2603   2.809   0.051  13.389 -1.6440  0.3457 -1.5081
  167TMC2    H1 2604   2.919   4.550  13.050 -1.1189  0.0911 -0.9987
  167TMC2    H2 2605   2.806   4.369  13.422  0.8011  0.3011 -1.1210
  167TMC2    C7 2606   2.888   4.310  13.175  0.0896  0.5918 -0.0601
  167TMC2    C8 2607   2.708   4.578  13.524 -0.0703  0.2107  0.5082
  167TMC2    O1 2608   2.884   4.216  13.249 -0.1819 -0.3444 -0.0795
  167TMC2    O2 2609   2.629   4.489  13.547 -0.0861  0.4322  0.0587
  167TMC2    O5 2610   2.747   4.675  13.605  0.0429 -0.5088  0.0573
  167TMC2    H5 2611   2.837   4.707  13.584  0.7534 -1.2074  2.0470
  168MPD2     C 2612   3.030   0.191  12.907  0.2941  0.3601  0.0270
  168MPD2    C1 2613   2.911   0.125  12.905 -0.1421 -0.7121 -0.1803
  168MPD2    C2 2614   2.832   0.127  12.786 -0.0272  0.8343 -0.5695
  168MPD2    C3 2615   2.872   0.203  12.675  0.9766 -0.3954 -0.2061
  168MPD2    C4 2616   2.996   0.267  12.671 -0.0666 -0.3581 -0.0993
  168MPD2    C5 2617   3.072   0.248  12.787  0.9072 -0.2159  0.2225
  168MPD2     H 2618   2.738   0.075  12.773  1.4552 -1.9814  0.0073
  168MPD2    H1 2619   3.037   0.308  12.580  0.1888  0.3733  0.3417
  168MPD2    H2 2620   3.104   0.183  12.985  0.2346 -0.5240 -0.0082
  168MPD2    H3 2621   3.174   0.283  12.782 -0.3997  3.3114 -1.2688
  168MPD2     N 2622   2.790   0.210  12.559 -0.6250  0.4542  0.1568
  168MPD2    H5 2623   2.841   0.246  12.479 -1.8619  0.9824 -0.3851
  168MPD2    N1 2624   2.860   0.050  13.014  0.0895 -0.1832 -0.6180
  168MPD2    H7 2625   2.776   4.732  13.000  0.6347 -1.1538 -0.0237
  169MPD1     C 2626   4.601   0.238   8.754  0.1449  0.4998 -0.1715
  169MPD1    C1 2627   4.551   0.105   8.769  0.9005  0.2278 -0.1352
  169MPD1    C2 2628   4.583   0.032   8.881 -0.0118 -0.2392  0.2631
  169MPD1    C3 2629   4.667   0.074   8.984  0.0591 -0.4821 -0.2768
  169MPD1    C4 2630   4.718   0.202   8.962 -0.3429  0.0369  0.7326
  169MPD1    C5 2631   4.691   0.272   8.848  0.5225  0.2873 -0.4985
  169MPD1     H 2632   4.552   4.666   8.878 -2.1658  0.3876  1.4759
  169MPD1    H1 2633   0.047   0.246   9.034  2.3510  1.4058 -2.6094
  169MPD1    H2 2634   4.590   0.312   8.676  0.3516  0.4458 -0.2523
  169MPD1    H3 2635   0.004   0.366   8.830  0.3784  0.3589 -0.5220
  169MPD1     N 2636   4.686   4.726   9.095  0.3986 -0.0430  0.5686
  169MPD1    H5 2637   4.624   4.647   9.110  0.8081 -0.0624  2.1762
  169MPD1    N1 2638   4.449   0.056   8.684 -0.2984 -0.0730 -0.1028
  169MPD1    H6 2639   4.448   4.693   8.694 -1.3052  0.0083  0.5516
  169MPD1    H7 2640   4.480   0.068   8.587  2.0680  0.4275  0.7070
  170MPD1     C 2641   3.203   2.141  12.862  0.0585  0.9758 -0.0719
  170MPD1    C1 2642   3.311   2.218  12.885  0.0637 -0.2177  0.0516
  170MPD1    C2 2643   3.330   2.274  13.012  0.1666  0.6289 -0.1301
  170MPD1    C3 2644   3.221   2.285  13.097 -0.9782 -0.3695  1.2341
  170MPD1    C4 2645   3.112   2.203  13.067  0.5110  0.1055  0.3220
  170MPD1    C5 2646   3.098   2.133  12.950 -0.0004 -0.2414 -0.1172
  170MPD1     H 2647   3.414   2.338  13.037 -1.0420  2.0771  0.2726
  170MPD1    H1 2648   3.021   2.193  13.125 -1.3157  0.1832 -2.4975
  170MPD1    H2 2649   3.190   2.088  12.768  0.5543  2.1474 -0.8009
  170MPD1    H3 2650   3.009   2.075  12.927  0.6908 -1.0942 -0.6221
  170MPD1     N 2651   3.222   2.370  13.213  0.1056  0.0954 -0.4805
  170MPD1    H5 2652   3.309   2.415  13.238 -0.0950  0.4907 -0.4890
  170MPD1    N1 2653   3.422   2.204  12.797 -0.2793  0.1856 -0.3034
  170MPD1    H6 2654   3.475   2.291  12.806  1.2045 -0.7574 -0.0186
  170MPD1    H7 2655   3.396   2.188  12.700  1.3435 -1.3294 -0.4875
  171MPD1     C 2656   2.527   3.612  15.498 -0.3639  0.4014 -0.0735
  171MPD1    C1 2657   2.437   3.509  15.470 -0.1258  0.5179  0.7689
  171MPD1    C2 2658   2.427   3.399  15.553  0.4608 -0.0642  0.7781
  171MPD1    C3 2659   2.521   3.375  15.648 -0.6930  0.7419 -0.2709
  171MPD1    C4 2660   2.624   3.466  15.664 -0.4718  0.5905  1.1546
  171MPD1    C5 2661   2.623   3.584  15.594  0.4476 -0.2028  0.4156
  171MPD1     H 2662   2.345   3.332  15.531 -1.0193  1.3788  1.8797
  171MPD1    H1 2663   2.710   3.444  15.725  0.1655 -1.8004 -0.5883
  171MPD1    H2 2664   2.520   3.707  15.446  1.3787 -0.0374 -1.1086
  171MPD1    H3 2665   2.707   3.651  15.606  2.3985 -2.1695 -2.4695
  171MPD1     N 2666   2.522   3.262  15.731  0.1603  0.5068  0.2206
  171MPD1    H5 2667   2.587   3.253  15.809  1.0400  0.8808 -0.4746
  171MPD1    N1 2668   2.333   3.536  15.384  0.3226  0.2288  0.1265
  171MPD1    H6 2669   2.300   3.453  15.335  1.1043 -0.2497  0.4027
  171MPD1    H7 2670   2.360   3.598  15.308  0.0598  0.3307  0.1155
  172MPD1     C 2671   1.652   2.466  17.085 -0.3419  0.2029 -0.1993
  172MPD1    C1 2672   1.570   2.562  17.142  0.0645 -0.0547  0.7493
  172MPD1    C2 2673   1.488   2.526  17.250 -0.1289 -0.0672 -0.1873
  172MPD1    C3 2674   1.507   2.403  17.324  0.8107  0.2316  0.3504
  172MPD1    C4 2675   1.598   2.315  17.268  0.9679 -0.1446  0.5576
  172MPD1    C5 2676   1.668   2.346  17.152 -0.5010  0.2090  0.0981
  172MPD1     H 2677   1.406   2.587  17.284 -0.7210 -1.3737  0.7108
  172MPD1    H1 2678   1.610   2.216  17.311 -1.7463 -0.6522  0.1108
  172MPD1    H2 2679   1.711   2.490  16.997 -1.7257 -0.2490 -1.2559
  172MPD1    H3 2680   1.736   2.270  17.114 -3.5337 -1.9912 -1.0088
  172MPD1     N 2681   1.441   2.375  17.447  0.5721  0.0660  0.5001
  172MPD1    H5 2682   1.463   2.283  17.486 -2.0969 -0.2653  1.2483
  172MPD1    N1 2683   1.551   2.679  17.075  0.1321 -0.5755  0.1709
  172MPD1    H6 2684   1.637   2.713  17.031  0.5890 -0.2917  1.2910
  172MPD1    H7 2685   1.514   2.754  17.133 -0.0577  0.1098 -0.8355
  173MPD1     C 2686   2.695   3.122  13.914  0.3996 -0.0242 -0.5231
  173MPD1    C1 2687   2.803   3.118  13.995 -0.4544  0.5387  0.1201
  173MPD1    C2 2688   2.789   3.061  14.120 -0.3527 -0.0792 -0.1644
  173MPD1    C3 2689   2.672   3.007  14.152 -0.1257 -0.1602  0.4218
  173MPD1    C4 2690   2.563   3.005  14.069 -0.3472  0.5934 -1.2540
  173MPD1    C5 2691   2.575   3.069  13.950 -0.5173  0.0657 -0.0240
  173MPD1     H 2692   2.874   3.069  14.187 -1.3820 -2.3517  1.3805
  173MPD1    H1 2693   2.465   2.977  14.107  0.7747  0.6127  1.6766
  173MPD1    H2 2694   2.711   3.167  13.817  2.6814  0.5626  0.1269
  173MPD1    H3 2695   2.492   3.069  13.879 -1.2804 -3.1468  0.8689
  173MPD1     N 2696   2.676   2.943  14.277  0.0014 -0.3000 -0.1336
  173MPD1    H5 2697   2.764   2.950  14.326 -0.5082 -0.5152  0.8127
  173MPD1    N1 2698   2.931   3.150  13.936  0.2492  0.3922  0.3284
  173MPD1    H6 2699   2.923   3.222  13.865 -1.2884 -0.3190 -0.2345
  173MPD1    H7 2700   2.993   3.197  14.001  0.8137 -0.3977  0.3597
  174MPD1     C 2701   3.399   2.477  14.393  0.9090  0.5040 -0.4266
  174MPD1    C1 2702   3.319   2.412  14.481 -0.0356 -0.1235  0.0925
  174MPD1    C2 2703   3.187   2.459  14.493 -0.6046  0.4056  0.0554
  174MPD1    C3 2704   3.132   2.550  14.403  0.5299 -0.4143 -0.7276
  174MPD1    C4 2705   3.212   2.613  14.316  0.2353  0.9963  0.2521
  174MPD1    C5 2706   3.344   2.572  14.310  0.9348 -0.4743  0.6967
  174MPD1     H 2707   3.133   2.429  14.583 -1.7036  1.8763 -0.1161
  174MPD1    H1 2708   3.186   2.701  14.257  1.7817 -0.5132 -2.7343
  174MPD1    H2 2709   3.507   2.469  14.396  1.1180  3.6129 -0.2153
  174MPD1    H3 2710   3.411   2.630  14.248  1.4039 -1.2595  0.4724
  174MPD1     N 2711   2.994   2.593  14.404  0.1442 -0.4716  0.1389
  174MPD1    H5 2712   2.968   2.673  14.347  3.5700 -0.4981 -1.4867
  174MPD1    N1 2713   3.376   2.318  14.567 -0.0805 -0.0273  0.0851
  174MPD1    H6 2714   3.463   2.276  14.534 -1.6038 -1.9140 -1.5612
  174MPD1    H7 2715   3.309   2.252  14.607  0.3202 -0.4395  0.0855
  175MPD1     C 2716   1.417   3.576  15.465 -0.9464  0.4724  0.3344
  175MPD1    C1 2717   1.313   3.495  15.468 -0.0511 -0.1334 -0.8611
  175MPD1    C2 2718   1.273   3.434  15.591  0.1582 -0.0421  0.5111
  175MPD1    C3 2719   1.335   3.471  15.705  0.4404 -0.0593 -0.5761
  175MPD1    C4 2720   1.438   3.567  15.698 -0.0924  0.3026 -0.2147
  175MPD1    C5 2721   1.486   3.615  15.580 -0.3374  0.3602  0.0236
  175MPD1     H 2722   1.191   3.364  15.601  0.9311 -0.8749  1.0284
  175MPD1    H1 2723   1.493   3.587  15.789  1.9440 -2.1512 -0.9147
  175MPD1    H2 2724   1.469   3.606  15.374 -1.7127  1.0214  0.0795
  175MPD1    H3 2725   1.573   3.679  15.576  2.1299 -2.9802  0.3378
  175MPD1     N 2726   1.317   3.418  15.835  0.1935 -0.3753 -0.7842
  175MPD1    H5 2727   1.384   3.433  15.910 -1.8072 -1.4624  1.2383
  175MPD1    N1 2728   1.271   3.437  15.346 -0.1195 -0.0133  0.5471
  175MPD1    H6 2729   1.301   3.490  15.264 -1.5233 -1.1753 -0.7411
  175MPD1    H7 2730   1.170   3.426  15.341 -0.3489  3.2496 -2.5440
  176MPD1     C 2731   2.487   0.531   0.281  0.3154  0.9673  0.2145
  176MPD1    C1 2732   2.461   0.661   0.318 -0.0836  0.5559 -0.1545
  176MPD1    C2 2733   2.505   0.762   0.235  0.4957 -0.2536 -0.3134
  176MPD1    C3 2734   2.592   0.737   0.129  0.3772 -0.4909  0.0883
  176MPD1    C4 2735   2.633   0.608   0.110  0.2377 -0.0405  0.0986
  176MPD1    C5 2736   2.579   0.508   0.184 -0.5509 -0.3006 -0.3812
  176MPD1     H 2737   2.479   0.865   0.257  1.1129 -0.1260 -0.1778
  176MPD1    H1 2738   2.695   0.585   0.025  0.7693 -0.0634  0.4889
  176MPD1    H2 2739   2.434   0.451   0.332  2.1304  0.1740  0.8217
  176MPD1    H3 2740   2.604   0.408   0.150  0.4176 -0.2832  0.2723
  176MPD1     N 2741   2.635   0.844   0.048  0.3260  0.2233  0.4001
  176MPD1    H5 2742   2.588   0.932   0.071 -0.1223 -0.4769  2.1790
  176MPD1    N1 2743   2.357   0.693   0.403  0.4310 -0.6850 -0.3681
  176MPD1    H6 2744   2.359   0.632   0.485 -1.2442  0.0921  0.2425
  176MPD1    H7 2745   2.375   0.786   0.440  0.4681 -0.1636 -1.6983
  177MPD1     C 2746   1.240   0.646  10.616  0.0383  0.4441  0.2380
  177MPD1    C1 2747   1.219   0.600  10.493 -0.5778 -0.2519  0.1274
  177MPD1    C2 2748   1.186   0.688  10.393  0.9150  0.0959 -0.0581
  177MPD1    C3 2749   1.174   0.823  10.409  0.4220 -0.2261 -0.1762
  177MPD1    C4 2750   1.193   0.877  10.542  0.1593  0.3632 -0.0855
  177MPD1    C5 2751   1.221   0.782  10.637  0.0748  0.1674  0.8413
  177MPD1     H 2752   1.188   0.650  10.291  2.1776 -0.1135  0.0385
  177MPD1    H1 2753   1.186   0.982  10.564  0.4992  0.4661 -0.4684
  177MPD1    H2 2754   1.249   0.580  10.701 -0.1918  1.2034  0.8463
  177MPD1    H3 2755   1.214   0.832  10.733  0.5648 -1.5670  1.7722
  177MPD1     N 2756   1.148   0.904  10.298 -0.4881  0.0097 -0.1042
  177MPD1    H5 2757   1.121   0.849  10.217 -2.4317  0.7514  0.0503
  177MPD1    N1 2758   1.204   0.465  10.470  0.2329 -0.0465  0.2020
  177MPD1    H6 2759   1.238   0.417  10.387 -1.4914 -1.0763  0.0759
  177MPD1    H7 2760   1.259   0.415  10.540 -0.3875 -0.2790  0.5264
  178MPD1     C 2761   3.622   0.414   0.076  0.6873  0.2076 -0.3235
  178MPD1    C1 2762   3.741   0.374   0.012  0.9118 -0.3814  0.1669
  178MPD1    C2 2763   3.787   0.452  17.653 -1.2402  0.4314  0.1979
  178MPD1    C3 2764   3.703   0.556  17.605  0.7041  0.5701 -0.4104
  178MPD1    C4 2765   3.581   0.584  17.667 -0.8854 -0.8151  0.5881
  178MPD1    C5 2766   3.548   0.514   0.023 -0.2263 -0.0838 -0.0344
  178MPD1     H 2767   3.887   0.433  17.616 -1.4902  0.0970 -0.3044
  178MPD1    H1 2768   3.516   0.661  17.628 -0.3498 -1.2143 -1.1099
  178MPD1    H2 2769   3.591   0.356   0.163 -0.7501 -0.3069 -1.1865
  178MPD1    H3 2770   3.453   0.543   0.066 -0.1609 -0.6095  0.4679
  178MPD1     N 2771   3.736   0.628  17.488 -0.8555 -0.0295  0.5176
  178MPD1    H5 2772   3.664   0.693  17.456  0.0141  1.6956  2.0578
  178MPD1    N1 2773   3.828   0.288   0.076  0.1053 -0.6698 -0.9381
  178MPD1    H6 2774   3.772   0.214   0.120  2.3047 -1.4897  0.4646
  178MPD1    H7 2775   3.885   0.241   0.006  2.4621 -0.4617  0.8431
  179MPD1     C 2776   3.593   0.073  16.127 -0.2926 -0.7346 -0.0842
  179MPD1    C1 2777   3.514   0.025  16.230 -0.7872 -0.7131  0.9278
  179MPD1    C2 2778   3.488   4.629  16.224  0.3012  0.6012 -0.2510
  179MPD1    C3 2779   3.532   4.545  16.120  0.2433  0.3400 -0.0987
  179MPD1    C4 2780   3.593   4.601  16.011  0.1139  0.1368 -0.2732
  179MPD1    C5 2781   3.636   4.736  16.021 -0.4103 -0.5639  0.4227
  179MPD1     H 2782   3.432   4.592  16.309 -0.6779  0.0218 -1.1542
  179MPD1    H1 2783   3.624   4.533  15.932 -0.8731 -0.3353 -0.2516
  179MPD1    H2 2784   3.621   0.177  16.122 -1.2810 -0.6589 -4.0572
  179MPD1    H3 2785   3.697   0.039  15.941 -0.4110  2.1328  1.8021
  179MPD1     N 2786   3.499   4.409  16.131 -0.5942 -0.3435 -0.1170
  179MPD1    H5 2787   3.468   4.365  16.217  2.0512 -1.7693  0.1194
  179MPD1    N1 2788   3.469   0.111  16.327  0.0342 -0.0803  0.0805
  179MPD1    H6 2789   3.367   0.116  16.330  0.2015  3.5566 -0.6274
  179MPD1    H7 2790   3.500   0.208  16.325 -2.2104  0.6483  0.3882
  180MPD1     C 2791   3.769   1.362  15.264 -0.4392 -0.0020 -0.0013
  180MPD1    C1 2792   3.755   1.440  15.151 -0.4589 -0.4400  0.9290
  180MPD1    C2 2793   3.660   1.394  15.058  0.7486 -0.7884  0.6238
  180MPD1    C3 2794   3.575   1.288  15.085 -0.3972  0.8754  0.0161
  180MPD1    C4 2795   3.580   1.223  15.209 -0.5156  0.7370  0.3874
  180MPD1    C5 2796   3.685   1.260  15.288 -0.3716  0.6198 -0.6563
  180MPD1     H 2797   3.654   1.439  14.960 -0.3548  1.1744  1.5750
  180MPD1    H1 2798   3.519   1.140  15.242 -0.9016  0.0919 -1.9432
  180MPD1    H2 2799   3.855   1.386  15.327  0.1557  0.9721 -1.1671
  180MPD1    H3 2800   3.698   1.214  15.385 -0.9815  0.5943 -0.5853
  180MPD1     N 2801   3.490   1.237  14.983  0.4708 -0.4195  0.5302
  180MPD1    H5 2802   3.496   1.292  14.898  0.6311  2.0186  2.1124
  180MPD1    N1 2803   3.855   1.529  15.108  0.3467  0.1616 -0.5262
  180MPD1    H6 2804   3.822   1.603  15.045  0.5673 -0.8458 -1.8267
  180MPD1    H7 2805   3.911   1.562  15.187 -1.6584  1.3595  0.4017
  181MPD1     C 2806   4.081   2.448  10.161  0.0079  0.1758 -0.1302
  181MPD1    C1 2807   4.007   2.561  10.158 -0.5413 -0.1488 -0.5483
  181MPD1    C2 2808   4.059   2.675  10.091  0.7932 -0.2970 -0.0961
  181MPD1    C3 2809   4.190   2.673  10.052  0.4295  0.1268 -0.6865
  181MPD1    C4 2810   4.267   2.560  10.073 -0.0467 -0.3263  0.1182
  181MPD1    C5 2811   4.210   2.446  10.114 -1.1813  0.3861  0.0250
  181MPD1     H 2812   3.995   2.763  10.092  1.0604 -0.1103  1.7040
  181MPD1    H1 2813   4.370   2.554  10.039  0.4474  1.9794  1.2061
  181MPD1    H2 2814   4.048   2.356  10.209 -0.1615  1.0270  1.3725
  181MPD1    H3 2815   4.258   2.349  10.126 -2.2097  0.0843  1.7148
  181MPD1     N 2816   4.253   2.785   9.992 -0.3346  0.8808 -0.4769
  181MPD1    H5 2817   4.346   2.758   9.963 -1.1213 -0.4009 -1.8638
  181MPD1    N1 2818   3.870   2.553  10.189 -0.4862 -0.0086  0.0758
  181MPD1    H6 2819   3.827   2.641  10.216 -1.8391 -0.0467 -1.8725
  181MPD1    H7 2820   3.857   2.484  10.263 -0.2171  0.5503  0.6317
  182MPD1     C 2821   1.231   1.624   1.138  0.1719  0.0426 -0.5521
  182MPD1    C1 2822   1.165   1.736   1.138  0.2596 -0.8233  0.4858
  182MPD1    C2 2823   1.071   1.759   1.052  0.2779  0.7903 -0.1973
  182MPD1    C3 2824   1.039   1.662   0.954  0.3461 -0.0044  0.0345
  182MPD1    C4 2825   1.118   1.557   0.942  0.0598 -0.1876  0.2270
  182MPD1    C5 2826   1.217   1.534   1.032  0.0081 -0.4967 -0.8071
  182MPD1     H 2827   1.012   1.850   1.056 -2.1258 -0.7704 -0.0284
  182MPD1    H1 2828   1.115   1.494   0.854 -0.3531  0.2329 -0.0607
  182MPD1    H2 2829   1.308   1.605   1.212  1.1462  4.1323 -0.5017
  182MPD1    H3 2830   1.281   1.447   1.020  0.3819 -0.4816  0.9861
  182MPD1     N 2831   0.937   1.675   0.855  0.0267 -0.3801  0.0439
  182MPD1    H5 2832   0.936   1.605   0.781  1.5636  2.4375 -2.6631
  182MPD1    N1 2833   1.185   1.831   1.240 -0.0186  0.2907  0.5612
  182MPD1    H6 2834   1.283   1.836   1.269 -0.4352  0.1877  1.9986
  182MPD1    H7 2835   1.162   1.921   1.198  1.9620 -0.0709 -1.2960
  183MPD1     C 2836   1.002   3.257   8.492 -0.0599  0.9958 -0.3291
  183MPD1    C1 2837   1.094   3.150   8.498  0.0799 -0.3433 -0.4259
  183MPD1    C2 2838   1.089   3.063   8.601 -0.6603 -0.0410  0.3594
  183MPD1    C3 2839   0.983   3.062   8.694 -0.7059  0.2972 -0.1005
  183MPD1    C4 2840   0.886   3.157   8.679  0.0778 -0.6210  0.3264
  183MPD1    C5 2841   0.901   3.262   8.590 -0.3056 -0.3363  0.0128
  183MPD1     H 2842   1.163   2.984   8.601 -1.2038 -0.5210  3.2436
  183MPD1    H1 2843   0.799   3.161   8.744 -0.4885 -2.7220 -0.3133
  183MPD1    H2 2844   1.005   3.333   8.415 -0.7337  1.6229  0.2617
  183MPD1    H3 2845   0.830   3.342   8.576 -1.3903 -0.9628  1.8772
  183MPD1     N 2846   0.982   2.963   8.804 -0.0268 -0.5292  0.2014
  183MPD1    H5 2847   1.069   2.913   8.815  0.2999  0.6076  2.6759
  183MPD1    N1 2848   1.191   3.153   8.400  0.9358 -0.0579  1.0899
  183MPD1    H6 2849   1.140   3.181   8.316 -0.3700  1.0069  2.2445
  183MPD1    H7 2850   1.218   3.056   8.387 -1.3860 -0.4314 -1.0331
  184MPD1     C 2851   0.240   0.233  10.300 -0.5968 -0.1367  0.4002
  184MPD1    C1 2852   0.195   0.226  10.177  0.2410  0.4562  0.3995
  184MPD1    C2 2853   0.248   0.319  10.090 -0.3674  0.2801 -0.2656
  184MPD1    C3 2854   0.304   0.436  10.130  0.9012  0.3747  0.6012
  184MPD1    C4 2855   0.341   0.451  10.256  0.7437  0.0856  0.0188
  184MPD1    C5 2856   0.310   0.340  10.338  0.3058  0.9941 -0.4815
  184MPD1     H 2857   0.221   0.309   9.985  3.0940 -0.7835 -1.0596
  184MPD1    H1 2858   0.398   0.535  10.294  2.7439 -0.8794 -0.8703
  184MPD1    H2 2859   0.206   0.161  10.374 -2.3248  1.2993  1.0074
  184MPD1    H3 2860   0.345   0.344  10.440 -1.4360  1.4421  0.0864
  184MPD1     N 2861   0.340   0.548  10.047 -0.4339 -0.4388  0.6580
  184MPD1    H5 2862   0.363   0.637  10.090  1.4618 -0.9087  0.6068
  184MPD1    N1 2863   0.127   0.113  10.131 -0.0391 -0.1249  0.2943
  184MPD1    H6 2864   0.057   0.143  10.063  0.9843  0.2299 -0.6100
  184MPD1    H7 2865   0.075   0.058  10.200 -3.2275  2.1658 -0.2662
  185MPD1     C 2866   0.723   0.911   9.088  0.4337  0.7876  0.7285
  185MPD1    C1 2867   0.659   0.793   9.112  0.4834 -0.4016  0.0765
  185MPD1    C2 2868   0.580   0.773   9.227 -0.2633  0.3327 -0.8968
  185MPD1    C3 2869   0.571   0.876   9.322  0.1635  0.5628  0.6449
  185MPD1    C4 2870   0.614   1.000   9.284 -0.7867  0.0216  0.9230
  185MPD1    C5 2871   0.695   1.018   9.177  0.0828  0.5204  0.3557
  185MPD1     H 2872   0.540   0.676   9.256 -0.1665  1.4492  2.8522
  185MPD1    H1 2873   0.605   1.092   9.341  1.0962 -0.3081  1.7701
  185MPD1    H2 2874   0.792   0.915   9.004  0.0082  2.5552  0.4676
  185MPD1    H3 2875   0.728   1.119   9.156 -0.7909  0.8371  0.4879
  185MPD1     N 2876   0.517   0.863   9.450 -0.0473 -0.7887  0.1352
  185MPD1    H5 2877   0.507   0.947   9.506  0.5910 -0.3824 -0.3734
  185MPD1    N1 2878   0.687   0.685   9.027  0.5506 -0.3351  0.2671
  185MPD1    H6 2879   0.668   0.599   9.077 -1.0990 -0.2276 -0.1765
  185MPD1    H7 2880   0.783   0.689   8.995  1.0234  1.0912  1.8825
  186MPD1     C 2881   3.883   3.846  16.210  0.3115 -0.8600  0.0340
  186MPD1    C1 2882   3.943   3.934  16.121  0.3392  0.3281  0.0183
  186MPD1    C2 2883   3.946   4.070  16.165  0.0837  0.2847 -0.1086
  186MPD1    C3 2884   3.910   4.104  16.289  0.0873  0.4309  0.4275
  186MPD1    C4 2885   3.861   4.011  16.380 -0.0712  0.1007 -0.2665
  186MPD1    C5 2886   3.839   3.886  16.328  0.4513  0.2189 -0.2795
  186MPD1     H 2887   3.989   4.141  16.096  1.9516 -2.0773 -1.3892
  186MPD1    H1 2888   3.834   4.032  16.482  0.8363  0.4205 -0.1000
  186MPD1    H2 2889   3.862   3.747  16.170  1.4573 -1.5870  1.2317
  186MPD1    H3 2890   3.790   3.815  16.394 -0.2811 -1.0845 -2.2296
  186MPD1     N 2891   3.894   4.243  16.329  0.2756  0.7678  0.1765
  186MPD1    H5 2892   3.863   4.263  16.424  0.2010 -1.5801  0.6387
  186MPD1    N1 2893   3.975   3.897  15.989  0.7068 -0.0924 -0.7121
  186MPD1    H6 2894   4.006   3.801  16.001  0.7057  0.1318  1.0052
  186MPD1    H7 2895   4.046   3.957  15.947  0.5226  0.7748  0.2175
  187MPD1     C 2896   3.468   1.337   0.007 -0.2023  0.5609 -0.1317
  187MPD1    C1 2897   3.343   1.391   0.042 -0.1303  0.2005 -0.3460
  187MPD1    C2 2898   3.270   1.454  17.691  0.1049 -0.7269 -0.5490
  187MPD1    C3 2899   3.314   1.454  17.562  0.4126  0.2821  0.4339
  187MPD1    C4 2900   3.442   1.411  17.536 -0.2772  0.3916  0.0846
  187MPD1    C5 2901   3.516   1.348  17.629 -0.1969 -0.2876 -0.0853
  187MPD1     H 2902   3.185   1.515  17.720  1.5504  0.2059  1.6827
  187MPD1    H1 2903   3.487   1.408  17.438  0.3414 -0.1644  0.3864
  187MPD1    H2 2904   3.535   1.288   0.077  0.2497  1.0980 -0.1895
  187MPD1    H3 2905   3.616   1.309  17.611 -1.0489 -1.7941 -1.5150
  187MPD1     N 2906   3.240   1.505  17.451 -0.2675  0.8020  0.7636
  187MPD1    H5 2907   3.290   1.520  17.364 -2.2441 -0.1574 -0.5167
  187MPD1    N1 2908   3.308   1.403   0.175  0.0334 -0.1939  0.1432
  187MPD1    H6 2909   3.210   1.418   0.198  0.1215 -0.9581  1.0209
  187MPD1    H7 2910   3.351   1.337   0.240 -1.8106 -2.9013 -1.3824
  188MPD1     C 2911   2.982   1.845  10.568  0.5072 -0.3697  0.5710
  188MPD1    C1 2912   2.848   1.888  10.559 -0.8157 -0.8357  0.5247
  188MPD1    C2 2913   2.749   1.814  10.623 -0.7881  0.1430  0.5990
  188MPD1    C3 2914   2.774   1.724  10.721 -0.0362  0.3284  0.6884
  188MPD1    C4 2915   2.910   1.679  10.724  0.3801  0.1753 -0.0342
  188MPD1    C5 2916   3.006   1.741  10.656 -0.0235 -0.8049 -0.8363
  188MPD1     H 2917   2.647   1.848  10.610 -1.3793 -1.6270  0.5441
  188MPD1    H1 2918   2.945   1.613  10.802 -2.3578 -0.5958  0.5573
  188MPD1    H2 2919   3.061   1.899  10.517 -0.1130  1.5377  1.6280
  188MPD1    H3 2920   3.109   1.709  10.664  0.0519 -0.2722  0.3994
  188MPD1     N 2921   2.681   1.666  10.812  0.2570  0.4446 -0.3351
  188MPD1    H5 2922   2.714   1.605  10.886 -2.4649  0.6808  1.0665
  188MPD1    N1 2923   2.805   1.989  10.474  0.0921 -0.9891  0.2305
  188MPD1    H6 2924   2.731   2.037  10.525  0.5286  1.2279 -1.2156
  188MPD1    H7 2925   2.871   2.064  10.456  1.3006 -1.1100  4.2704
  189MPD1     C 2926   0.361   1.874   0.219 -0.8210  0.4154  0.6514
  189MPD1    C1 2927   0.278   1.777   0.260 -0.3382 -0.0569 -0.4657
  189MPD1    C2 2928   0.141   1.809   0.268 -0.3936  0.4610  0.9417
  189MPD1    C3 2929   0.085   1.923   0.213 -0.0910 -0.2371  0.4859
  189MPD1    C4 2930   0.172   2.018   0.158 -0.0529  0.4106 -0.0102
  189MPD1    C5 2931   0.308   1.991   0.173 -0.2265  0.0551 -0.1910
  189MPD1     H 2932   0.079   1.734   0.315  0.1841  0.1119  1.1287
  189MPD1    H1 2933   0.142   2.111   0.110 -0.8890 -1.1952 -2.6247
  189MPD1    H2 2934   0.466   1.864   0.243 -0.3972  2.0025 -0.5186
  189MPD1    H3 2935   0.372   2.075   0.148 -1.2967  0.9947  0.2576
  189MPD1     N 2936   4.682   1.927   0.214 -0.5365  0.1119  0.6117
  189MPD1    H5 2937   4.637   1.839   0.234  1.1128 -1.1584 -1.3065
  189MPD1    N1 2938   0.330   1.662   0.321  0.2265  0.0755 -0.1344
  189MPD1    H6 2939   0.424   1.645   0.285  0.3035  1.9255 -0.8347
  189MPD1    H7 2940   0.272   1.579   0.315  1.2380 -0.7484  1.5941
  190MPD1     C 2941   2.977   0.648  15.528 -0.1011 -0.6251  0.4706
  190MPD1    C1 2942   2.984   0.670  15.663 -1.1245 -0.2735  0.3985
  190MPD1    C2 2943   3.095   0.743  15.709  0.3802 -0.2137 -0.5060
  190MPD1    C3 2944   3.188   0.798  15.619  0.6200  0.0031  0.7098
  190MPD1    C4 2945   3.168   0.786  15.487  0.0188  0.0095 -0.3007
  190MPD1    C5 2946   3.059   0.712  15.444 -0.3329 -0.1804  0.8582
  190MPD1     H 2947   3.108   0.752  15.816  0.2487 -2.0833 -0.3185
  190MPD1    H1 2948   3.232   0.824  15.409 -1.2795  0.0424 -1.3340
  190MPD1    H2 2949   2.901   0.578  15.495  0.0863  0.0938 -1.5054
  190MPD1    H3 2950   3.047   0.696  15.337  0.4496 -1.8996  1.0192
  190MPD1     N 2951   3.304   0.860  15.677 -0.0864  0.2402  0.1383
  190MPD1    H5 2952   3.304   0.869  15.778 -1.2592  1.5741  0.0168
  190MPD1    N1 2953   2.909   0.598  15.756 -0.5504  0.4397  0.5767
  190MPD1    H6 2954   2.906   0.662  15.835 -2.2719 -3.1941  3.4483
  190MPD1    H7 2955   2.813   0.590  15.724  0.1002  3.4671 -2.2038
  191MPD1     C 2956   2.313   2.662  13.106 -0.4986  0.5659  0.0021
  191MPD1    C1 2957   2.396   2.749  13.040  0.2329  0.0885  0.4675
  191MPD1    C2 2958   2.336   2.846  12.959 -0.3803 -0.0315 -0.4854
  191MPD1    C3 2959   2.202   2.848  12.930 -0.0193  0.5605 -0.0120
  191MPD1    C4 2960   2.123   2.762  12.998 -0.1823 -0.0915  0.0672
  191MPD1    C5 2961   2.182   2.673  13.079 -0.3872  0.2592  0.3471
  191MPD1     H 2962   2.411   2.899  12.900 -0.1477 -0.1803 -0.3251
  191MPD1    H1 2963   2.015   2.763  12.985 -0.3846 -2.5436  1.4693
  191MPD1    H2 2964   2.353   2.585  13.170 -4.0054 -0.5829  0.8026
  191MPD1    H3 2965   2.125   2.602  13.138  0.0163 -1.6621 -1.5672
  191MPD1     N 2966   2.155   2.949  12.839  0.1273  0.9077  0.2102
  191MPD1    H5 2967   2.216   3.019  12.798  1.0972  0.6484  1.2067
  191MPD1    N1 2968   2.535   2.729  13.040 -0.5540 -0.5513  0.1441
  191MPD1    H6 2969   2.583   2.693  13.122  1.0458 -0.6475 -0.8332
  191MPD1    H7 2970   2.575   2.820  13.021 -4.0600  0.5557 -1.9378
  192MPD1     C 2971   1.329   3.454  12.920 -0.1022  0.6849 -0.2539
  192MPD1    C1 2972   1.334   3.432  12.785  0.1715 -0.3405 -0.2533
  192MPD1    C2 2973   1.448   3.378  12.726  0.4340 -0.1593 -0.1495
  192MPD1    C3 2974   1.555   3.351  12.809  0.2917 -0.2454 -0.9283
  192MPD1    C4 2975   1.550   3.377  12.945 -0.6186 -0.5412 -0.3446
  192MPD1    C5 2976   1.436   3.433  13.000  0.1497 -0.0891  0.8073
  192MPD1     H 2977   1.447   3.352  12.621 -3.8335 -1.1094  0.1336
  192MPD1    H1 2978   1.630   3.365  13.017 -1.1564  0.6435  0.4502
  192MPD1    H2 2979   1.238   3.475  12.975 -0.8359 -0.7586 -0.9149
  192MPD1    H3 2980   1.423   3.450  13.106  0.8865 -2.2432  1.2487
  192MPD1     N 2981   1.677   3.299  12.767  0.2775  0.6612  0.1559
  192MPD1    H5 2982   1.747   3.286  12.840  0.5363 -2.5788 -0.6740
  192MPD1    N1 2983   1.212   3.422  12.715 -0.0641  0.2556 -0.0334
  192MPD1    H6 2984   1.146   3.485  12.760  1.4489  1.0385  1.1031
  192MPD1    H7 2985   1.222   3.446  12.617 -1.0519 -0.1212 -0.2267
  193MPD1     C 2986   2.163   2.985  16.096  0.2086 -0.3031 -0.2467
  193MPD1    C1 2987   2.143   3.099  16.171 -0.3688  0.4645  0.2724
  193MPD1    C2 2988   2.220   3.109  16.289  0.5772  0.2812  0.3086
  193MPD1    C3 2989   2.293   3.005  16.341 -0.8117 -0.6386 -0.1176
  193MPD1    C4 2990   2.302   2.896  16.260  0.1948  1.0383  0.3547
  193MPD1    C5 2991   2.232   2.880  16.145 -0.4296  0.1964 -0.5342
  193MPD1     H 2992   2.217   3.200  16.347 -2.3052  2.0690 -2.6352
  193MPD1    H1 2993   2.370   2.819  16.294 -1.1814 -0.2140  0.2617
  193MPD1    H2 2994   2.112   2.971  16.002  2.1413 -1.0711 -1.1623
  193MPD1    H3 2995   2.234   2.788  16.089  2.3229  0.2784 -0.5660
  193MPD1     N 2996   2.367   3.009  16.466  0.2893 -0.0059 -0.1587
  193MPD1    H5 2997   2.430   2.937  16.498  0.8009 -1.5880 -4.7456
  193MPD1    N1 2998   2.078   3.210  16.107 -0.4887 -0.6994 -0.4625
  193MPD1    H6 2999   2.033   3.274  16.171 -0.3965 -1.6169  0.5139
  193MPD1    H7 3000   2.014   3.187  16.031 -1.0953  0.6789 -0.3732
  194MPD1     C 3001   1.757   0.371   0.025 -0.1720  0.2770 -0.1829
  194MPD1    C1 3002   1.831   0.258  17.734 -0.0783 -0.0586  0.2565
  194MPD1    C2 3003   1.760   0.137  17.729  0.5923  0.5093 -0.2199
  194MPD1    C3 3004   1.635   0.132   0.046  0.6362 -0.1885 -0.8960
  194MPD1    C4 3005   1.579   0.245   0.108 -0.0896 -0.5823  0.6214
  194MPD1    C5 3006   1.629   0.365   0.076 -0.1632  0.0576 -0.0995
  194MPD1     H 3007   1.804   0.044  17.694 -0.2072 -0.1656  0.5369
  194MPD1    H1 3008   1.487   0.228   0.162 -1.4783 -0.6419 -1.7947
  194MPD1    H2 3009   1.793   0.473   0.012 -0.5804  0.5565  0.8205
  194MPD1    H3 3010   1.579   0.455   0.110 -2.7159 -2.5481  2.9649
  194MPD1     N 3011   1.549   0.018   0.045  0.7343  0.6378 -0.3794
  194MPD1    H5 3012   1.457   0.027   0.087  1.1349  2.1098  0.1847
  194MPD1    N1 3013   1.961   0.261  17.681 -0.0298 -0.1272  0.2016
  194MPD1    H6 3014   2.014   0.348  17.678  1.2856 -0.8735  1.9991
  194MPD1    H7 3015   2.019   0.190  17.725 -2.7015 -2.3709  0.1450
  195MPD1     C 3016   1.971   2.572   0.308 -0.9092  0.2980  0.3737
  195MPD1    C1 3017   1.892   2.463   0.338  0.5457 -0.6922  0.1950
  195MPD1    C2 3018   1.929   2.341   0.295  0.1832 -0.4275  0.5219
  195MPD1    C3 3019   2.032   2.327   0.210 -0.2266 -0.1846 -0.4277
  195MPD1    C4 3020   2.098   2.436   0.162  0.4835  0.2154  0.4840
  195MPD1    C5 3021   2.064   2.561   0.206 -0.2836  0.5774  0.8559
  195MPD1     H 3022   1.875   2.257   0.337 -0.2020 -0.1402  0.6016
  195MPD1    H1 3023   2.191   2.437   0.107  0.8317 -0.5482  1.0459
  195MPD1    H2 3024   1.947   2.670   0.349 -0.2502  0.4068  0.5017
  195MPD1    H3 3025   2.124   2.641   0.165 -1.3970  0.4961 -0.9069
  195MPD1     N 3026   2.088   2.198   0.176 -0.8365 -0.2523  0.7233
  195MPD1    H5 3027   2.180   2.188   0.133 -0.6059  1.8069  0.7363
  195MPD1    N1 3028   1.782   2.475   0.427  0.1048 -0.6753 -0.5610
  195MPD1    H6 3029   1.711   2.411   0.391 -1.9637  2.0847 -1.3928
  195MPD1    H7 3030   1.742   2.565   0.453 -0.2053 -1.0074  0.1106
  196MPD1     C 3031   0.983   0.775   0.491  0.0624  0.2303 -0.8485
  196MPD1    C1 3032   1.093   0.830   0.436 -0.2602  0.5521 -0.5090
  196MPD1    C2 3033   1.189   0.881   0.520 -0.1742  0.2430  0.3643
  196MPD1    C3 3034   1.172   0.894   0.656  0.2612 -0.5689  0.3988
  196MPD1    C4 3035   1.058   0.843   0.710  0.6793  0.2925  0.4842
  196MPD1    C5 3036   0.966   0.778   0.623 -0.3439 -0.0714  0.5317
  196MPD1     H 3037   1.285   0.903   0.474 -1.4355  1.3342 -1.7013
  196MPD1    H1 3038   1.034   0.847   0.816  2.9401 -0.0049  1.0211
  196MPD1    H2 3039   0.905   0.736   0.426 -0.6774  0.5740 -0.1646
  196MPD1    H3 3040   0.876   0.740   0.672 -1.3247  0.0511 -1.1549
  196MPD1     N 3041   1.260   0.969   0.742 -0.3687 -0.0295 -0.4736
  196MPD1    H5 3042   1.248   0.960   0.843 -0.0206 -0.6511 -0.4938
  196MPD1    N1 3043   1.123   0.818   0.295 -0.0914 -0.0778  0.3156
  196MPD1    H6 3044   1.046   0.831   0.231  1.0030 -1.7817 -1.3672
  196MPD1    H7 3045   1.203   0.874   0.266 -0.3286 -0.1012 -0.3688
  197MPD1     C 3046   0.857   2.976  17.283  0.0463 -0.1220 -0.2920
  197MPD1    C1 3047   0.953   3.021  17.371 -0.2512 -0.2721  0.9820
  197MPD1    C2 3048   1.053   3.107  17.324  0.0429  0.5511  0.4735
  197MPD1    C3 3049   1.071   3.129  17.187 -0.2347 -0.5308  0.3002
  197MPD1    C4 3050   0.985   3.070  17.098 -0.1927 -0.3229  0.4145
  197MPD1    C5 3051   0.871   3.005  17.150  1.2004 -0.6040  0.6455
  197MPD1     H 3052   1.112   3.158  17.400 -0.8321  3.6674 -0.9117
  197MPD1    H1 3053   1.001   3.072  16.991  0.4967 -1.0668  0.5082
  197MPD1    H2 3054   0.774   2.914  17.315 -0.8420  0.6812 -1.0350
  197MPD1    H3 3055   0.804   2.956  17.080  2.4382 -2.6893  0.9449
  197MPD1     N 3056   1.184   3.197  17.135  0.2034 -0.5677 -0.1968
  197MPD1    H5 3057   1.196   3.181  17.036  0.7840 -1.3402 -0.0028
  197MPD1    N1 3058   0.922   3.020  17.503  0.0486 -0.2680 -0.2275
  197MPD1    H6 3059   1.001   3.028  17.567 -0.2110  3.8602 -0.4749
  197MPD1    H7 3060   0.866   2.938  17.527 -0.5158  0.8914  2.4192
  198MPD1     C 3061   3.220   1.951  14.948 -0.1647  0.2560 -0.0458
  198MPD1    C1 3062   3.266   2.077  14.990  0.4735 -0.3305  0.1588
  198MPD1    C2 3063   3.212   2.135  15.102  0.3903  0.0766 -0.1146
  198MPD1    C3 3064   3.096   2.082  15.155 -0.3091  0.2267 -0.4903
  198MPD1    C4 3065   3.040   1.963  15.108  0.1913 -0.2529  0.2646
  198MPD1    C5 3066   3.106   1.901  15.009  1.1960  0.2150  0.5020
  198MPD1     H 3067   3.263   2.217  15.152  0.8518  0.6816 -1.5877
  198MPD1    H1 3068   2.963   1.908  15.161 -0.7286  0.0442 -0.7788
  198MPD1    H2 3069   3.256   1.898  14.861  1.5142 -1.0467  1.4469
  198MPD1    H3 3070   3.063   1.807  14.977  0.4121  1.1701 -1.2460
  198MPD1     N 3071   3.046   2.140  15.263  0.4755 -0.2589  0.1055
  198MPD1    H5 3072   3.111   2.210  15.298 -0.1148  1.2680 -1.8211
  198MPD1    N1 3073   3.379   2.137  14.942  0.2919  0.5098  0.1015
  198MPD1    H6 3074   3.391   2.236  14.965 -0.8452  0.4549  0.9250
  198MPD1    H7 3075   3.397   2.118  14.844  1.6223 -0.0432  0.4554
  199MPD1     C 3076   0.259   3.927  10.647  0.0963  0.9698 -0.6569
  199MPD1    C1 3077   0.172   3.816  10.654 -0.5095 -0.6144 -0.3416
  199MPD1    C2 3078   0.069   3.810  10.572  0.6430 -0.6099 -0.6112
  199MPD1    C3 3079   0.049   3.901  10.477  0.2674  0.2856  0.9078
  199MPD1    C4 3080   0.139   4.006  10.460 -0.5821 -0.9318 -0.5870
  199MPD1    C5 3081   0.239   4.022  10.552  0.1321 -0.6108 -0.0922
  199MPD1     H 3082   0.002   3.725  10.575  1.5417 -1.2872  0.2037
  199MPD1    H1 3083   0.126   4.079  10.381  1.6249 -0.9304 -0.9554
  199MPD1    H2 3084   0.327   3.941  10.731  1.7640 -2.0701 -1.4896
  199MPD1    H3 3085   0.303   4.110  10.548  0.7170 -1.0463 -0.5143
  199MPD1     N 3086   4.679   3.900  10.387 -0.1446 -0.0469  0.4799
  199MPD1    H5 3087   4.672   3.974  10.318 -0.3340 -0.9553 -0.4728
  199MPD1    N1 3088   0.203   3.715  10.752  0.0366  0.4466  0.7689
  199MPD1    H6 3089   0.299   3.716  10.786 -0.1893 -3.9271  1.5322
  199MPD1    H7 3090   0.194   3.626  10.703  2.5064  0.9701 -0.6298
  200MPD1     C 3091   0.397   4.416  15.342  0.3069  0.4314  0.0747
  200MPD1    C1 3092   0.500   4.408  15.255 -0.7153 -0.1331 -0.3885
  200MPD1    C2 3093   0.466   4.362  15.135  0.0846  0.4393 -0.5786
  200MPD1    C3 3094   0.332   4.322  15.105 -0.0308 -0.6932  0.1175
  200MPD1    C4 3095   0.231   4.322  15.196 -0.0287 -0.4771  0.1586
  200MPD1    C5 3096   0.269   4.369  15.320  0.1104  0.2571  0.2422
  200MPD1     H 3097   0.536   4.356  15.052  0.6023  2.4833 -0.2994
  200MPD1    H1 3098   0.126   4.305  15.178  0.3071 -2.4579  0.1421
  200MPD1    H2 3099   0.410   4.462  15.440 -1.7767  0.2815  0.4309
  200MPD1    H3 3100   0.192   4.379  15.396 -0.5279  0.5425 -0.4454
  200MPD1     N 3101   0.311   4.283  14.972  0.1769 -0.0676 -0.4747
  200MPD1    H5 3102   0.391   4.281  14.909  0.0648  0.0686 -0.6194
  200MPD1    N1 3103   0.613   4.485  15.274 -0.6275  0.0728  0.2282
  200MPD1    H6 3104   0.639   4.493  15.373 -1.1994  1.5156  0.2621
  200MPD1    H7 3105   0.700   4.454  15.230 -2.1258 -1.3776 -1.7003
  201MPD1     C 3106   2.106   0.784  13.861  0.3726  0.5965  0.2172
  201MPD1    C1 3107   2.053   0.871  13.767  0.1277 -0.3404  0.2682
  201MPD1    C2 3108   2.088   1.009  13.778 -0.0231  0.3197 -0.3446
  201MPD1    C3 3109   2.154   1.064  13.883  0.7086 -0.3400  0.4898
  201MPD1    C4 3110   2.195   0.976  13.977  0.4201 -0.0564 -0.9060
  201MPD1    C5 3111   2.169   0.840  13.966 -0.3465  0.0218 -0.2469
  201MPD1     H 3112   2.048   1.078  13.705 -0.7337 -0.5081 -0.7338
  201MPD1    H1 3113   2.249   1.004  14.066  2.8542 -1.3810 -1.9748
  201MPD1    H2 3114   2.106   0.676  13.866  1.4073  0.4582 -2.9861
  201MPD1    H3 3115   2.199   0.772  14.045 -1.9809  0.9902  1.2064
  201MPD1     N 3116   2.168   1.206  13.889  0.5964  0.0177 -0.2744
  201MPD1    H5 3117   2.114   1.255  13.819  0.0360  0.8421  0.7406
  201MPD1    N1 3118   2.012   0.810  13.646 -0.2969 -0.2883  0.1629
  201MPD1    H6 3119   1.960   0.877  13.590 -1.3344 -1.1340  0.1219
  201MPD1    H7 3120   1.947   0.732  13.657  0.0897 -0.6000  0.2475
  202MPD1     C 3121   0.739   1.673   9.521 -0.4365 -0.7239 -0.8320
  202MPD1    C1 3122   0.839   1.735   9.444  0.2670 -0.3202  0.3246
  202MPD1    C2 3123   0.954   1.763   9.504  0.4639 -0.0290 -0.0442
  202MPD1    C3 3124   0.965   1.778   9.641  0.0477 -0.4998  0.2193
  202MPD1    C4 3125   0.866   1.719   9.718  0.1386  0.3824 -0.8236
  202MPD1    C5 3126   0.758   1.670   9.652 -0.0085 -0.3347  0.3002
  202MPD1     H 3127   1.032   1.798   9.438  0.9448  1.1139  1.1214
  202MPD1    H1 3128   0.864   1.723   9.827  0.7999 -2.1740 -0.6982
  202MPD1    H2 3129   0.661   1.607   9.484 -0.5592 -1.3908  0.6348
  202MPD1    H3 3130   0.677   1.627   9.710  1.1429 -0.7253  1.6129
  202MPD1     N 3131   1.072   1.847   9.705 -0.2135 -0.1312 -0.8904
  202MPD1    H5 3132   1.074   1.849   9.807  0.0136  2.5051 -0.9309
  202MPD1    N1 3133   0.851   1.698   9.315 -0.3967  0.1006  0.5394
  202MPD1    H6 3134   0.765   1.676   9.265 -0.4419 -0.3594  0.8183
  202MPD1    H7 3135   0.905   1.758   9.253  0.7969 -1.6016 -0.0813
  203MPD1     C 3136   0.318   3.092  12.454  0.1684  0.1903  0.0220
  203MPD1    C1 3137   0.368   3.031  12.348 -0.2871  0.5271  0.7503
  203MPD1    C2 3138   0.428   2.910  12.369 -0.8416  0.2392  0.0884
  203MPD1    C3 3139   0.476   2.866  12.494 -0.3201 -0.0967  0.0537
  203MPD1    C4 3140   0.435   2.942  12.602 -0.0476  0.3411 -0.3641
  203MPD1    C5 3141   0.352   3.051  12.577  0.0025  0.2706  0.5903
  203MPD1     H 3142   0.448   2.852  12.279  1.4491  1.9986 -0.5474
  203MPD1    H1 3143   0.447   2.918  12.707  0.8798 -0.2275 -0.5968
  203MPD1    H2 3144   0.251   3.177  12.445  1.1049  1.2360  2.8078
  203MPD1    H3 3145   0.322   3.119  12.656 -1.2123 -1.1065  1.3012
  203MPD1     N 3146   0.544   2.743  12.510 -0.1459 -0.5687  0.2864
  203MPD1    H5 3147   0.548   2.692  12.422  1.1993 -0.0158  0.0262
  203MPD1    N1 3148   0.329   3.071  12.219  0.6056 -0.2082 -0.2041
  203MPD1    H6 3149   0.293   3.164  12.201  0.9237  0.2475  1.5034
  203MPD1    H7 3150   0.392   3.044  12.144  2.1126  1.9139  0.3070
  204MPD1     C 3151   4.584   3.763  17.684 -0.8343  0.8376  0.4636
  204MPD1    C1 3152   4.711   3.801  17.658 -0.1592 -0.2097 -1.0932
  204MPD1    C2 3153   0.067   3.695  17.639 -0.0140  0.4518  0.4573
  204MPD1    C3 3154   0.022   3.562  17.647  0.6566  0.1706 -0.2412
  204MPD1    C4 3155   4.628   3.525  17.677 -0.0146  0.0430  0.2136
  204MPD1    C5 3156   4.541   3.632  17.690  0.4540  0.3718  0.4945
  204MPD1     H 3157   0.172   3.714  17.618 -0.2962  0.4369 -0.9758
  204MPD1    H1 3158   4.594   3.422  17.687 -0.0879 -0.2484 -3.0211
  204MPD1    H2 3159   4.511   3.840  17.707 -0.9769  0.5728  0.9074
  204MPD1    H3 3160   4.438   3.609  17.715  0.4938 -0.3490  0.0028
  204MPD1     N 3161   0.127   3.462  17.627  0.3033  0.7405  0.2923
  204MPD1    H5 3162   0.221   3.488  17.599  0.4716  0.1093  0.2510
  204MPD1    N1 3163   0.008   3.935  17.665 -0.2081 -0.3827 -0.0134
  204MPD1    H6 3164   0.086   3.961  17.604  0.6696  1.4446  1.8591
  204MPD1    H7 3165   4.664   3.995  17.655 -0.9214 -1.3763 -0.1496
  205MPD1     C 3166   3.965   2.756  17.147 -0.3519 -0.1348 -0.7127
  205MPD1    C1 3167   4.002   2.657  17.061 -0.4502  0.4721 -1.0346
  205MPD1    C2 3168   4.113   2.578  17.086 -0.3134  0.6272  0.7486
  205MPD1    C3 3169   4.178   2.592  17.209 -0.0140  0.6988 -0.2752
  205MPD1    C4 3170   4.133   2.685  17.298  0.3349 -0.4988 -0.2282
  205MPD1    C5 3171   4.027   2.768  17.270 -0.4938 -0.2640  0.6886
  205MPD1     H 3172   4.154   2.513  17.009 -0.6732  1.5971 -0.2520
  205MPD1    H1 3173   4.176   2.690  17.397 -2.4431  1.4109  0.9165
  205MPD1    H2 3174   3.883   2.823  17.123 -0.1166  0.4826  0.2245
  205MPD1    H3 3175   3.994   2.845  17.339  1.2334  1.5430 -0.5177
  205MPD1     N 3176   4.287   2.509  17.254  0.0673  0.1782 -0.0823
  205MPD1    H5 3177   4.335   2.528  17.341  0.5666 -2.7024  0.2674
  205MPD1    N1 3178   3.952   2.660  16.931  0.4947  0.2916  0.4757
  205MPD1    H6 3179   3.979   2.581  16.873 -2.0177 -0.5895  0.4923
  205MPD1    H7 3180   3.853   2.685  16.932 -0.1823 -2.4127  0.7847
  206MPD1     C 3181   0.723   0.283  17.021  0.1893 -0.0168  0.2000
  206MPD1    C1 3182   0.589   0.304  17.035 -0.8978  0.1437  0.3285
  206MPD1    C2 3183   0.511   0.362  16.935 -0.2344 -0.3176 -0.0103
  206MPD1    C3 3184   0.579   0.405  16.818 -0.0581 -0.2141  0.5705
  206MPD1    C4 3185   0.712   0.382  16.808  0.6243  0.5065 -0.2008
  206MPD1    C5 3186   0.780   0.324  16.906 -0.1159  0.1244  0.9981
  206MPD1     H 3187   0.403   0.354  16.941 -0.3791 -0.0068 -2.3592
  206MPD1    H1 3188   0.766   0.420  16.722 -0.5827  1.8790 -0.3505
  206MPD1    H2 3189   0.778   0.221  17.090 -0.3683 -1.1918 -0.4270
  206MPD1    H3 3190   0.888   0.315  16.906 -0.0532  0.9399  1.7047
  206MPD1     N 3191   0.509   0.455  16.702  0.1267  0.2762  0.3126
  206MPD1    H5 3192   0.564   0.463  16.617 -2.4645 -0.6698 -1.4557
  206MPD1    N1 3193   0.526   0.265  17.157 -0.1211 -0.2525  1.4561
  206MPD1    H6 3194   0.425   0.259  17.152 -0.0185 -1.2110  0.6353
  206MPD1    H7 3195   0.558   0.176  17.196 -2.8232 -0.5292  2.9860
  207MPD1     C 3196   2.254   3.141  10.153 -0.3495 -0.3295  0.6935
  207MPD1    C1 3197   2.242   3.046  10.254  0.0908  0.5589 -0.0967
  207MPD1    C2 3198   2.301   3.063  10.377  0.2332 -0.2180  1.3091
  207MPD1    C3 3199   2.361   3.186  10.405 -0.4059  0.1220  0.4709
  207MPD1    C4 3200   2.369   3.282  10.303  0.2459 -0.0881 -0.3738
  207MPD1    C5 3201   2.311   3.262  10.182 -0.1495 -0.2486 -0.3539
  207MPD1     H 3202   2.293   2.986  10.452  1.8663  0.1085  1.8155
  207MPD1    H1 3203   2.419   3.377  10.317 -0.0480  0.0053  0.0505
  207MPD1    H2 3204   2.218   3.132  10.051 -1.8123  0.0814  1.1736
  207MPD1    H3 3205   2.315   3.339  10.105 -1.9699 -0.3814 -0.5877
  207MPD1     N 3206   2.412   3.221  10.535 -0.1082 -0.6101 -0.1001
  207MPD1    H5 3207   2.452   3.314  10.538 -0.3180 -0.4836 -1.3113
  207MPD1    N1 3208   2.176   2.924  10.235 -0.8077 -0.4815  0.6764
  207MPD1    H6 3209   2.163   2.882  10.326 -0.5920  1.1723  1.4681
  207MPD1    H7 3210   2.082   2.950  10.204  0.0761  0.5491 -1.1613
  208MPD1     C 3211   1.065   2.392  17.006 -0.0630 -0.7219  0.3363
  208MPD1    C1 3212   0.972   2.322  16.934  0.0824  0.1694  0.7673
  208MPD1    C2 3213   0.931   2.198  16.982  0.7524  0.7420 -0.3811
  208MPD1    C3 3214   0.992   2.144  17.099  0.4688 -0.5938  0.6215
  208MPD1    C4 3215   1.099   2.210  17.158  0.6308 -0.1627  0.4238
  208MPD1    C5 3216   1.135   2.331  17.109  0.0603 -0.1521  0.6194
  208MPD1     H 3217   0.859   2.139  16.927  0.0680  1.9020 -0.7468
  208MPD1    H1 3218   1.140   2.168  17.250 -1.5181  2.6957  2.6481
  208MPD1    H2 3219   1.089   2.495  16.982  1.9446 -1.0044  1.1407
  208MPD1    H3 3220   1.212   2.381  17.167  0.6734  1.7300 -1.8130
  208MPD1     N 3221   0.936   2.024  17.155  0.7294 -0.0559  0.2051
  208MPD1    H5 3222   0.860   1.980  17.103  0.9884 -0.2317 -0.0217
  208MPD1    N1 3223   0.895   2.380  16.832 -0.0587 -0.0750 -0.3033
  208MPD1    H6 3224   0.865   2.315  16.760 -0.3425 -0.5042  0.1992
  208MPD1    H7 3225   0.955   2.450  16.789  0.8133  0.2866  1.4674
  209MPD1     C 3226   2.042   2.553  12.273  0.4184 -0.0914  0.0601
  209MPD1    C1 3227   2.002   2.647  12.185 -0.9778 -0.2216  0.8659
  209MPD1    C2 3228   2.100   2.700  12.100 -0.2604 -1.0436  0.4895
  209MPD1    C3 3229   2.232   2.666  12.106 -0.8054  0.1769 -0.8787
  209MPD1    C4 3230   2.261   2.564  12.192  0.3743 -0.0661 -0.0698
  209MPD1    C5 3231   2.170   2.512  12.271  0.3079  0.2054 -0.3980
  209MPD1     H 3232   2.086   2.786  12.036  0.7118 -0.9804  0.3706
  209MPD1    H1 3233   2.362   2.524  12.198  0.6855  0.7024 -0.1653
  209MPD1    H2 3234   1.977   2.511  12.349  1.5396  0.4335  1.3085
  209MPD1    H3 3235   2.200   2.431  12.337 -1.3923 -2.2878 -2.6516
  209MPD1     N 3236   2.328   2.748  12.034  0.0881  1.1191  0.2530
  209MPD1    H5 3237   2.275   2.817  11.982  1.3134  0.8143 -1.4263
  209MPD1    N1 3238   1.873   2.690  12.198  0.1090 -0.0683  0.0740
  209MPD1    H6 3239   1.836   2.714  12.106 -1.5262  0.3913  0.8562
  209MPD1    H7 3240   1.807   2.624  12.239  0.9992 -1.1051 -0.1436
  210MPD1     C 3241   3.278   3.111  11.673  0.1663 -0.3651 -0.2708
  210MPD1    C1 3242   3.237   2.992  11.719 -0.4805 -0.4369  0.2355
  210MPD1    C2 3243   3.114   2.992  11.791 -0.2209  0.0519  0.6270
  210MPD1    C3 3244   3.046   3.109  11.818 -0.4949  0.1389 -0.1148
  210MPD1    C4 3245   3.098   3.226  11.777  0.5614  0.4648 -0.1110
  210MPD1    C5 3246   3.215   3.228  11.708  0.2945 -0.1778  1.2488
  210MPD1     H 3247   3.073   2.895  11.817 -1.0106  1.0206  3.0154
  210MPD1    H1 3248   3.060   3.324  11.803 -1.2295 -0.1465 -0.4706
  210MPD1    H2 3249   3.361   3.115  11.604 -0.2265 -1.8323 -0.8268
  210MPD1    H3 3250   3.263   3.322  11.689  2.1051 -1.7151 -1.6894
  210MPD1     N 3251   2.920   3.113  11.886  0.0906 -0.2944  0.2820
  210MPD1    H5 3252   2.873   3.203  11.893 -1.7668 -1.2507  0.2688
  210MPD1    N1 3253   3.298   2.874  11.681  0.1124  0.7514  0.4542
  210MPD1    H6 3254   3.387   2.879  11.632  0.4204 -2.1734  0.6831
  210MPD1    H7 3255   3.299   2.812  11.762 -2.2953  0.3998  0.2104
  211MPD1     C 3256   0.496   1.838  15.690 -0.5441 -0.6110  0.3143
  211MPD1    C1 3257   0.559   1.913  15.785 -0.6793  1.7333  0.1577
  211MPD1    C2 3258   0.487   2.008  15.848  0.2130 -0.0533 -0.5164
  211MPD1    C3 3259   0.357   2.022  15.818  0.9929  0.0151 -0.5571
  211MPD1    C4 3260   0.293   1.949  15.722 -0.1411  0.2588  0.4673
  211MPD1    C5 3261   0.365   1.851  15.658 -0.5148  0.1750 -0.3991
  211MPD1     H 3262   0.529   2.066  15.929 -1.0464 -0.0911  0.1677
  211MPD1    H1 3263   0.187   1.948  15.699 -0.3350 -1.4047  1.4288
  211MPD1    H2 3264   0.557   1.771  15.630 -0.6947  1.1796 -1.8253
  211MPD1    H3 3265   0.317   1.775  15.597  2.8273 -2.0682 -0.1762
  211MPD1     N 3266   0.285   2.113  15.897  0.0460  0.4604  0.2409
  211MPD1    H5 3267   0.346   2.180  15.943 -0.1323 -0.0857  1.2538
  211MPD1    N1 3268   0.694   1.896  15.821 -0.1703  1.0850  0.3231
  211MPD1    H6 3269   0.730   1.980  15.865  2.1400  0.0761  0.3479
  211MPD1    H7 3270   0.750   1.865  15.742 -1.1942 -1.2070  0.5162
  212MPD1     C 3271   4.635   0.667  16.409 -0.1335  0.4335 -0.9577
  212MPD1    C1 3272   4.552   0.735  16.496  0.3980  0.4810 -0.0691
  212MPD1    C2 3273   4.455   0.657  16.557 -0.8641  0.5349 -0.6131
  212MPD1    C3 3274   4.475   0.522  16.575  0.2476  0.1278 -0.1595
  212MPD1    C4 3275   4.583   0.467  16.516 -0.3159 -0.5788  0.5097
  212MPD1    C5 3276   4.658   0.537  16.429  0.3818 -0.3350 -0.4420
  212MPD1     H 3277   4.363   0.707  16.584  0.5830  2.7954  0.1483
  212MPD1    H1 3278   4.613   0.364  16.531  1.6051 -0.2817 -1.2936
  212MPD1    H2 3279   4.709   0.707  16.340 -0.3462 -0.5972 -1.7846
  212MPD1    H3 3280   0.004   0.486  16.382  0.3864 -0.5950 -0.1538
  212MPD1     N 3281   4.402   0.439  16.660  0.0717 -0.1921 -0.1644
  212MPD1    H5 3282   4.418   0.339  16.655  0.1638 -0.2671  1.4959
  212MPD1    N1 3283   4.536   0.871  16.468 -0.4392 -0.3961  0.5513
  212MPD1    H6 3284   4.498   0.919  16.550 -1.5634 -1.1543  0.4828
  212MPD1    H7 3285   4.625   0.916  16.449 -0.8586  0.7932  1.4110
  213MPD1     C 3286   3.154   1.186  15.442 -0.5515  0.3368  0.2465
  213MPD1    C1 3287   3.117   1.278  15.350 -0.0889  1.1045  0.3057
  213MPD1    C2 3288   2.985   1.312  15.349  0.4937 -0.2562 -0.0831
  213MPD1    C3 3289   2.892   1.278  15.449 -0.2382 -0.2270 -0.2923
  213MPD1    C4 3290   2.941   1.192  15.549  0.0769  0.1384  0.1075
  213MPD1    C5 3291   3.063   1.139  15.535  0.2746  0.2631  0.1506
  213MPD1     H 3292   2.941   1.357  15.261 -1.2889 -1.7772  0.0272
  213MPD1    H1 3293   2.875   1.151  15.624 -0.7171  0.4704 -0.4077
  213MPD1    H2 3294   3.238   1.118  15.439 -1.3590 -0.5679 -1.9919
  213MPD1    H3 3295   3.094   1.066  15.609 -4.1922 -0.7486  1.0461
  213MPD1     N 3296   2.765   1.328  15.439 -0.0028 -0.4030  0.2731
  213MPD1    H5 3297   2.745   1.393  15.364  2.0368 -2.2832 -1.9374
  213MPD1    N1 3298   3.191   1.279  15.227 -0.0437 -0.0295  0.5186
  213MPD1    H6 3299   3.181   1.360  15.167 -0.7059 -1.7984 -1.7764
  213MPD1    H7 3300   3.290   1.262  15.244  0.1588  1.0156  0.3297
  214MPD1     C 3301   2.300   0.588  15.269  0.6281  0.1280 -0.5068
  214MPD1    C1 3302   2.327   0.679  15.174 -0.0010  0.3876 -0.6778
  214MPD1    C2 3303   2.321   0.810  15.209  0.9380  0.3875 -0.6067
  214MPD1    C3 3304   2.300   0.850  15.342  0.0358  0.2026  0.1708
  214MPD1    C4 3305   2.283   0.756  15.434 -0.0908 -0.0744 -0.1828
  214MPD1    C5 3306   2.280   0.624  15.403  0.2552 -0.5228  0.4547
  214MPD1     H 3307   2.349   0.882  15.133  2.0768  0.0443 -0.5050
  214MPD1    H1 3308   2.274   0.786  15.538  1.3043 -0.8347  0.1533
  214MPD1    H2 3309   2.310   0.483  15.246  0.4405 -0.7777  3.5734
  214MPD1    H3 3310   2.257   0.554  15.483 -1.0993 -1.4213 -0.7377
  214MPD1     N 3311   2.307   0.986  15.386  0.5223  0.3881 -0.3153
  214MPD1    H5 3312   2.286   1.010  15.482  2.2648  2.9657 -0.5906
  214MPD1    N1 3313   2.327   0.641  15.034  0.2068 -0.0293  0.1826
  214MPD1    H6 3314   2.404   0.684  14.983 -0.8753 -0.2235 -1.6033
  214MPD1    H7 3315   2.359   0.544  15.040 -0.4257 -0.1686  1.4229
  215MPD1     C 3316   1.128   2.646  10.664  0.1922 -1.0682 -0.1695
  215MPD1    C1 3317   1.128   2.759  10.740 -0.2148  0.3616 -0.1188
  215MPD1    C2 3318   1.235   2.781  10.829  0.1290  0.2112 -0.3532
  215MPD1    C3 3319   1.332   2.686  10.848 -0.2152 -0.1281 -0.6219
  215MPD1    C4 3320   1.324   2.565  10.779 -0.5224 -0.3338  0.2659
  215MPD1    C5 3321   1.226   2.553  10.683 -0.1523  0.2119 -0.7960
  215MPD1     H 3322   1.240   2.868  10.893  0.9619 -0.7317  0.8670
  215MPD1    H1 3323   1.401   2.489  10.785  0.5658  0.7938  0.4569
  215MPD1    H2 3324   1.044   2.627  10.598  1.5609 -0.8527 -1.9633
  215MPD1    H3 3325   1.238   2.461  10.626 -2.1642 -0.5102 -0.0424
  215MPD1     N 3326   1.444   2.716  10.936  0.3741 -0.3749 -0.3573
  215MPD1    H5 3327   1.441   2.800  10.993 -1.9824 -1.1262  0.6624
  215MPD1    N1 3328   1.042   2.865  10.704 -0.4858  0.5000 -0.2244
  215MPD1    H6 3329   1.029   2.933  10.779  0.6139  0.8948 -0.3940
  215MPD1    H7 3330   0.953   2.828  10.673 -0.1040  0.0579 -0.8016
  216MPD1     C 3331   3.716   4.689   0.118  0.1642 -0.0776 -0.2514
  216MPD1    C1 3332   3.833   4.652   0.051  0.5673 -0.1883 -0.6914
  216MPD1    C2 3333   3.909   4.551   0.111  0.2030  0.2690 -0.2737
  216MPD1    C3 3334   3.855   4.482   0.223 -0.6719 -0.3910  0.1937
  216MPD1    C4 3335   3.736   4.520   0.276  0.7904 -0.1611  1.1356
  216MPD1    C5 3336   3.673   4.627   0.231 -0.6874  0.6920  0.0702
  216MPD1     H 3337   4.001   4.514   0.067  1.0899  0.2096  1.6718
  216MPD1    H1 3338   3.688   4.468   0.358 -1.8490  0.2689 -0.1050
  216MPD1    H2 3339   3.661   0.039   0.085 -1.0646 -1.2087 -1.2510
  216MPD1    H3 3340   3.583   4.662   0.281 -1.1064  1.0623 -0.9422
  216MPD1     N 3341   3.920   4.370   0.286  0.7629  0.1593 -0.2093
  216MPD1    H5 3342   3.878   4.329   0.369  1.0770 -0.3764 -0.3140
  216MPD1    N1 3343   3.886   0.007  17.703 -0.6814 -1.1112 -0.3617
  216MPD1    H6 3344   3.926   4.682  17.633  2.9556  0.9317 -0.0984
  216MPD1    H7 3345   3.814   0.057  17.652 -0.3747  0.4306  0.7294
  217MPD1     C 3346   0.555   1.972   9.016 -0.3802 -0.5526 -0.1601
  217MPD1    C1 3347   0.468   1.941   9.118 -0.5993 -0.2342 -0.5052
  217MPD1    C2 3348   0.515   1.964   9.244 -0.3160  0.0626 -0.2169
  217MPD1    C3 3349   0.631   2.032   9.274  0.5167  0.0900 -0.5069
  217MPD1    C4 3350   0.707   2.071   9.168  0.0788  0.3945  0.1139
  217MPD1    C5 3351   0.669   2.042   9.044 -0.0385 -0.2130 -0.2045
  217MPD1     H 3352   0.466   1.940   9.337  0.6747 -0.6442  0.1158
  217MPD1    H1 3353   0.795   2.128   9.195  0.6477 -1.7617  2.7170
  217MPD1    H2 3354   0.532   1.949   8.913 -1.2267 -1.6844  0.2763
  217MPD1    H3 3355   0.733   2.074   8.962 -0.5055  0.3329 -0.3624
  217MPD1     N 3356   0.674   2.047   9.412  0.1049 -0.5794 -0.3667
  217MPD1    H5 3357   0.614   2.012   9.486  0.9028 -1.6751 -0.2472
  217MPD1    N1 3358   0.357   1.852   9.094  0.0618  0.2388  0.0675
  217MPD1    H6 3359   0.284   1.850   9.165 -2.3349  0.7062 -2.3818
  217MPD1    H7 3360   0.307   1.848   9.006  0.0954 -2.1174  0.1487
  218MPD1     C 3361   1.378   2.874  12.763  0.5330  0.1040  0.1564
  218MPD1    C1 3362   1.484   2.933  12.824 -0.5505 -0.1585  0.1684
  218MPD1    C2 3363   1.599   2.866  12.848  0.1645 -0.8826 -0.7929
  218MPD1    C3 3364   1.613   2.743  12.786 -0.0725  0.6747 -0.3093
  218MPD1    C4 3365   1.510   2.690  12.715  0.2384  0.2442  0.3614
  218MPD1    C5 3366   1.390   2.754  12.709 -0.0142  0.7372 -0.0623
  218MPD1     H 3367   1.687   2.916  12.886  0.3191 -0.2217 -2.0048
  218MPD1    H1 3368   1.509   2.590  12.673 -0.9374  0.6471 -0.5769
  218MPD1    H2 3369   1.281   2.922  12.772  0.6320  0.8305 -2.5703
  218MPD1    H3 3370   1.309   2.694  12.670  0.2161  0.0255  0.5539
  218MPD1     N 3371   1.745   2.688  12.789  0.2859  0.5246  0.2864
  218MPD1    H5 3372   1.815   2.749  12.830  1.9298 -1.5222  0.4853
  218MPD1    N1 3373   1.462   3.050  12.895 -0.0773 -0.1264  0.0173
  218MPD1    H6 3374   1.379   3.102  12.869  0.2726 -0.2099 -1.2575
  218MPD1    H7 3375   1.541   3.113  12.902 -0.9956  1.1940 -1.7164
  219MPD1     C 3376   2.381   3.070  12.323  0.3659  0.6358 -0.3014
  219MPD1    C1 3377   2.267   3.017  12.277  0.2064  0.0487  0.1534
  219MPD1    C2 3378   2.207   2.921  12.354 -0.0554 -0.3423  0.3093
  219MPD1    C3 3379   2.270   2.854  12.455 -0.3667  0.0845  0.5367
  219MPD1    C4 3380   2.396   2.904  12.491  0.4821 -0.1319  0.9685
  219MPD1    C5 3381   2.454   3.009  12.418 -0.4859 -0.6345  0.1536
  219MPD1     H 3382   2.114   2.880  12.318  0.1120 -0.1093 -0.3970
  219MPD1    H1 3383   2.438   2.877  12.587 -0.8821  1.6644  2.0783
  219MPD1    H2 3384   2.428   3.159  12.281  1.3542 -0.5410 -1.7013
  219MPD1    H3 3385   2.550   3.052  12.442 -0.2516 -2.0179  1.6438
  219MPD1     N 3386   2.198   2.757  12.537 -0.1419 -0.0703  0.5988
  219MPD1    H5 3387   2.098   2.741  12.526 -0.2532  1.4737 -0.7852
  219MPD1    N1 3388   2.202   3.077  12.168 -0.3341 -0.4765 -0.0372
  219MPD1    H6 3389   2.139   3.021  12.110  0.1176  0.0950 -1.0919
  219MPD1    H7 3390   2.261   3.140  12.113 -0.1096  0.5474  1.3942
  220MPD1     C 3391   1.372   4.150  10.074 -0.3964 -0.2485 -0.3104
  220MPD1    C1 3392   1.379   4.098  10.202 -0.1279 -0.0185  0.2006
  220MPD1    C2 3393   1.427   3.968  10.225  0.0079  0.6522  0.4837
  220MPD1    C3 3394   1.452   3.888  10.116 -0.1729  0.8307  0.3138
  220MPD1    C4 3395   1.452   3.940   9.989  0.1818  0.5238  0.1114
  220MPD1    C5 3396   1.407   4.071   9.968 -0.0767 -0.1186 -0.8055
  220MPD1     H 3397   1.431   3.939  10.330 -1.3388  2.5372  1.0618
  220MPD1    H1 3398   1.469   3.889   9.895  0.2764  0.1949  0.3060
  220MPD1    H2 3399   1.344   4.250  10.044  2.7268  0.9948  0.9382
  220MPD1    H3 3400   1.393   4.124   9.875 -0.0490  0.8779 -0.2446
  220MPD1     N 3401   1.474   3.752  10.141 -0.2162 -0.2149  0.2167
  220MPD1    H5 3402   1.459   3.724  10.238 -0.7044 -1.0872 -0.1104
  220MPD1    N1 3403   1.344   4.181  10.314  0.0500  0.3637  0.1537
  220MPD1    H6 3404   1.289   4.261  10.282  0.3559  0.5174  0.0052
  220MPD1    H7 3405   1.301   4.126  10.387 -0.0353 -1.6947 -1.4357
  221MPD1     C 3406   1.145   1.022  16.680 -0.4640 -0.3669 -0.3844
  221MPD1    C1 3407   1.015   0.989  16.730  0.3576  0.0940  0.7091
  221MPD1    C2 3408   0.898   1.022  16.656  0.2536  0.8044  0.0087
  221MPD1    C3 3409   0.919   1.097  16.543 -0.0568  0.6105  0.0628
  221MPD1    C4 3410   1.043   1.114  16.491 -0.1478  0.4698  0.3243
  221MPD1    C5 3411   1.153   1.073  16.551  0.3043 -0.1854  0.5707
  221MPD1     H 3412   0.800   0.998  16.695  0.1418 -1.3454 -1.6245
  221MPD1    H1 3413   1.056   1.163  16.394  3.6115  2.3860  1.7596
  221MPD1    H2 3414   1.236   1.006  16.737  0.3807  3.0546 -0.7697
  221MPD1    H3 3415   1.250   1.084  16.504 -0.8688 -1.8954 -2.2443
  221MPD1     N 3416   0.812   1.148  16.465 -0.1864 -0.4838  0.4503
  221MPD1    H5 3417   0.839   1.180  16.373  0.9768  0.1254  1.0011
  221MPD1    N1 3418   1.005   0.940  16.857  0.1309 -0.4720 -0.3355
  221MPD1    H6 3419   1.075   0.869  16.876 -0.7842 -1.4248 -0.5471
  221MPD1    H7 3420   0.913   0.901  16.878 -0.5790 -1.0305 -4.4925
  222MPD1     C 3421   4.164   4.193  17.137  0.0726  0.6818 -0.0758
  222MPD1    C1 3422   4.076   4.236  17.235  0.4626  0.7783 -0.0453
  222MPD1    C2 3423   4.100   4.351  17.299  0.1096 -0.2259 -0.0618
  222MPD1    C3 3424   4.192   4.437  17.243 -0.3451  0.1773  0.9209
  222MPD1    C4 3425   4.276   4.398  17.142 -0.6999  0.4459 -0.8234
  222MPD1    C5 3426   4.275   4.265  17.098  0.1052  0.5559 -0.0366
  222MPD1     H 3427   4.027   4.385  17.371 -1.6286  0.3990 -2.1298
  222MPD1    H1 3428   4.340   4.468  17.090  1.1815  0.0845  1.0075
  222MPD1    H2 3429   4.147   4.098  17.088 -1.1966  1.6683 -1.5476
  222MPD1    H3 3430   4.346   4.234  17.022 -1.0873  1.2073 -1.4149
  222MPD1     N 3431   4.204   4.567  17.290  0.6194  0.5681 -0.2716
  222MPD1    H5 3432   4.257   4.622  17.223  0.8011  0.5110 -0.1734
  222MPD1    N1 3433   3.988   4.140  17.288 -0.1930  0.1753 -0.1765
  222MPD1    H6 3434   3.953   4.070  17.223  2.0734 -0.4364 -0.7350
  222MPD1    H7 3435   3.901   4.179  17.324  0.4753 -1.6271  3.4123
  223MPD1     C 3436   4.702   0.375  16.897 -0.7448 -0.2065 -0.2699
  223MPD1    C1 3437   4.672   0.239  16.898  0.7208  0.0938 -0.7578
  223MPD1    C2 3438   4.611   0.197  17.020  0.7921  0.8119 -0.3373
  223MPD1    C3 3439   4.562   0.279  17.117  0.1098  0.5722  0.0108
  223MPD1    C4 3440   4.599   0.415  17.106 -0.2654 -0.2828 -0.6702
  223MPD1    C5 3441   4.663   0.458  16.991 -0.0201  0.0117  0.4862
  223MPD1     H 3442   4.576   0.094  17.025  1.0359  0.7739  0.6646
  223MPD1    H1 3443   4.565   0.486  17.180 -3.0812 -2.0754 -0.2586
  223MPD1    H2 3444   0.009   0.417  16.807  1.4450 -0.7494  0.5680
  223MPD1    H3 3445   4.697   0.561  16.982 -2.4281  0.6448 -1.1315
  223MPD1     N 3446   4.478   0.220  17.213 -0.0953 -0.0248  0.5047
  223MPD1    H5 3447   4.466   0.120  17.208  0.3316  0.1210 -3.9818
  223MPD1    N1 3448   4.711   0.158  16.791  0.3341 -0.2115 -0.4343
  223MPD1    H6 3449   0.050   0.190  16.732 -1.5181 -0.0287 -2.7616
  223MPD1    H7 3450   4.722   0.057  16.805 -0.6201 -0.6100 -2.4630
  224MPD1     C 3451   0.479   3.494   8.777  0.4887 -0.0870 -0.5035
  224MPD1    C1 3452   0.395   3.382   8.753  0.1111  0.9393 -0.0052
  224MPD1    C2 3453   0.403   3.276   8.838  0.7344 -0.2231 -0.0818
  224MPD1    C3 3454   0.483   3.288   8.954 -0.2262 -0.0310 -0.5001
  224MPD1    C4 3455   0.561   3.403   8.974 -0.1956 -0.8544 -0.4971
  224MPD1    C5 3456   0.563   3.504   8.882  0.0456  0.0446 -0.9047
  224MPD1     H 3457   0.342   3.190   8.814  1.6554 -0.8254 -0.2715
  224MPD1    H1 3458   0.627   3.406   9.060 -0.4952 -0.8888 -0.2647
  224MPD1    H2 3459   0.482   3.583   8.714 -1.0631 -0.6186 -1.3281
  224MPD1    H3 3460   0.625   3.591   8.900  2.6213 -1.9071 -0.4188
  224MPD1     N 3461   0.504   3.192   9.052 -0.2044  0.2100  0.2260
  224MPD1    H5 3462   0.561   3.223   9.130  0.4836  0.7818 -0.5034
  224MPD1    N1 3463   0.328   3.365   8.631  0.2294  0.0431 -0.8440
  224MPD1    H6 3464   0.233   3.333   8.651  1.5819 -3.4285 -0.0213
  224MPD1    H7 3465   0.317   3.454   8.582 -1.7150  0.8651  1.0569
  225MPD1     C 3466   2.470   3.364  11.862 -0.2793 -0.1448 -0.0886
  225MPD1    C1 3467   2.353   3.377  11.799 -0.5942 -0.3908 -0.5541
  225MPD1    C2 3468   2.238   3.413  11.870 -0.3255 -0.0221 -0.2983
  225MPD1    C3 3469   2.243   3.409  12.012  0.2645 -0.5112 -0.5013
  225MPD1    C4 3470   2.363   3.383  12.077  0.6773 -0.0910 -0.0168
  225MPD1    C5 3471   2.480   3.360  12.003 -0.6959 -0.1855  0.1296
  225MPD1     H 3472   2.147   3.418  11.811  0.1229 -1.0866 -1.0640
  225MPD1    H1 3473   2.370   3.368  12.184  1.7541  0.1686 -0.0457
  225MPD1    H2 3474   2.560   3.348  11.804  0.3143 -1.3464  1.1623
  225MPD1    H3 3475   2.574   3.328  12.046 -0.9914 -1.4996 -0.2138
  225MPD1     N 3476   2.118   3.426  12.090 -0.9399  0.2330 -0.3827
  225MPD1    H5 3477   2.121   3.406  12.189  1.8580 -1.8797 -0.8737
  225MPD1    N1 3478   2.363   3.379  11.662 -0.0150 -0.1330 -0.1138
  225MPD1    H6 3479   2.273   3.361  11.617 -0.3140 -0.1088  0.4690
  225MPD1    H7 3480   2.431   3.309  11.633  1.0100 -0.1447  2.3000
  226MPD1     C 3481   4.065   1.925   9.632 -0.1064 -0.6491  0.2621
  226MPD1    C1 3482   4.022   2.044   9.576 -0.2975  0.3501  0.0206
  226MPD1    C2 3483   4.113   2.119   9.502  0.0819 -0.3029 -0.5214
  226MPD1    C3 3484   4.245   2.078   9.481 -0.1611  0.4496 -0.5712
  226MPD1    C4 3485   4.286   1.957   9.543  0.3379  0.3194 -0.3721
  226MPD1    C5 3486   4.195   1.881   9.605 -0.1107 -0.7477  0.1096
  226MPD1     H 3487   4.088   2.213   9.454 -1.2653 -0.6534 -0.4941
  226MPD1    H1 3488   4.388   1.922   9.556  0.7502  0.7604 -2.4003
  226MPD1    H2 3489   3.991   1.855   9.670  0.1077 -0.1981  1.4993
  226MPD1    H3 3490   4.228   1.780   9.625 -0.3129 -0.4845  1.7195
  226MPD1     N 3491   4.344   2.154   9.412  0.3804  0.5577 -0.0630
  226MPD1    H5 3492   4.327   2.251   9.390 -2.6663 -0.7621 -3.5374
  226MPD1    N1 3493   3.898   2.083   9.612 -0.8574  0.0971 -0.0191
  226MPD1    H6 3494   3.866   2.162   9.556  1.0635  0.3722 -0.7313
  226MPD1    H7 3495   3.834   2.006   9.629  0.9129 -1.5375 -0.8091
  227MPD1     C 3496   4.638   3.067   9.241  0.1472  0.0284 -0.0218
  227MPD1    C1 3497   4.730   2.997   9.164  0.6045  0.5754 -0.7573
  227MPD1    C2 3498   4.722   2.862   9.176 -0.0259 -0.5917  0.1070
  227MPD1    C3 3499   4.621   2.792   9.229 -0.2601 -0.4561  0.2519
  227MPD1    C4 3500   4.530   2.866   9.302  0.1129  0.3270 -0.2078
  227MPD1    C5 3501   4.542   3.004   9.316  0.0106 -0.4437  0.0813
  227MPD1     H 3502   0.067   2.810   9.129  0.0009  0.4518 -0.9995
  227MPD1    H1 3503   4.456   2.816   9.362  1.2190  0.1144  0.9671
  227MPD1    H2 3504   4.630   3.174   9.256  0.8193  0.0710  0.0152
  227MPD1    H3 3505   4.473   3.070   9.368  1.9490 -0.5346  2.7604
  227MPD1     N 3506   4.627   2.649   9.221 -0.7375  0.3170 -0.5078
  227MPD1    H5 3507   4.711   2.614   9.176  0.2687 -0.2234  1.8296
  227MPD1    N1 3508   0.096   3.063   9.093 -0.5481 -0.4284 -0.2541
  227MPD1    H6 3509   0.141   3.016   9.015 -0.3187 -3.7299  1.8875
  227MPD1    H7 3510   0.074   3.156   9.059  0.0077 -0.0404  0.4569
  228MPD1     C 3511   4.091   0.914  13.005 -0.8777  0.2254  0.2553
  228MPD1    C1 3512   4.007   1.008  12.943 -0.6528  0.4905 -1.0368
  228MPD1    C2 3513   3.873   1.006  12.988  1.0312  0.4085  0.6894
  228MPD1    C3 3514   3.819   0.917  13.086  0.3577 -0.3901 -0.0095
  228MPD1    C4 3515   3.915   0.838  13.142 -0.4378  0.4810  0.1059
  228MPD1    C5 3516   4.045   0.841  13.101  0.7548  0.0855  0.0098
  228MPD1     H 3517   3.813   1.068  12.922 -0.8617  1.2263  3.1821
  228MPD1    H1 3518   3.895   0.756  13.210  0.5070 -0.9883 -1.3892
  228MPD1    H2 3519   4.195   0.908  12.976 -0.9886 -0.6545  0.0339
  228MPD1    H3 3520   4.116   0.771  13.144 -0.3283 -1.3389 -0.5176
  228MPD1     N 3521   3.678   0.906  13.108  0.4880 -0.6910  0.1739
  228MPD1    H5 3522   3.613   0.974  13.070 -0.5297 -2.2596 -0.8581
  228MPD1    N1 3523   4.062   1.086  12.834 -0.3208  0.1927 -0.0541
  228MPD1    H6 3524   4.150   1.134  12.850  0.5487 -1.1830 -0.6516
  228MPD1    H7 3525   3.996   1.158  12.805 -1.0715 -1.2648 -1.9870
  229MPD1     C 3526   3.246   4.490  14.716  0.0059  0.0820 -0.6835
  229MPD1    C1 3527   3.227   4.507  14.848  0.4470  0.4417  0.3290
  229MPD1    C2 3528   3.322   4.479  14.940 -0.1440  0.6085  0.1539
  229MPD1    C3 3529   3.448   4.452  14.895  0.1793  0.2893  0.8635
  229MPD1    C4 3530   3.468   4.446  14.759  0.6377  0.2462  0.1905
  229MPD1    C5 3531   3.364   4.462  14.669  0.6391 -0.2289  0.1716
  229MPD1     H 3532   3.304   4.494  15.046 -0.5282  0.7263  0.0727
  229MPD1    H1 3533   3.565   4.427  14.715  0.3585  0.2340 -0.4177
  229MPD1    H2 3534   3.157   4.506  14.655  0.0567 -0.6662 -0.9508
  229MPD1    H3 3535   3.380   4.465  14.562  0.2866 -0.6480  0.1055
  229MPD1     N 3536   3.564   4.446  14.981  0.1955  0.7734  0.5393
  229MPD1    H5 3537   3.648   4.432  14.926  1.2069  1.6048  1.8538
  229MPD1    N1 3538   3.092   4.524  14.897  0.1063 -0.1272  0.6116
  229MPD1    H6 3539   3.095   4.581  14.981  0.0091  0.0049  0.5253
  229MPD1    H7 3540   3.038   4.579  14.830  1.0520 -1.5858 -1.3637
  230MPD1     C 3541   3.951   0.093  15.837 -0.2205  0.2094 -0.7904
  230MPD1    C1 3542   3.919   0.145  15.715 -0.6989  0.4569  0.2943
  230MPD1    C2 3543   3.883   0.061  15.611 -0.8324 -0.0361 -0.0363
  230MPD1    C3 3544   3.890   4.665  15.617 -0.6726  0.2377  0.3942
  230MPD1    C4 3545   3.921   4.612  15.737  0.3637  0.6282  0.4862
  230MPD1    C5 3546   3.955   4.693  15.843 -0.2716 -0.1454 -0.0941
  230MPD1     H 3547   3.853   0.106  15.517 -0.1078 -0.1136 -0.3081
  230MPD1    H1 3548   3.910   4.507  15.762  2.7480  0.2810  0.0015
  230MPD1    H2 3549   3.996   0.151  15.916  0.6186 -2.7511  0.9170
  230MPD1    H3 3550   3.974   4.642  15.937  1.6150  0.8530  0.0656
  230MPD1     N 3551   3.852   4.590  15.502  0.6608 -0.5403 -0.0205
  230MPD1    H5 3552   3.804   4.644  15.431  1.8943  1.3384  0.5694
  230MPD1    N1 3553   3.892   0.283  15.706  0.4020 -0.1029 -0.1011
  230MPD1    H6 3554   3.971   0.323  15.756  0.2747  0.5658 -0.4327
  230MPD1    H7 3555   3.893   0.323  15.612  2.1746  2.3984  1.0074
  231MPD1     C 3556   1.494   1.713  15.606 -0.1866  0.2194  0.2808
  231MPD1    C1 3557   1.474   1.697  15.472  0.2108  0.1745 -0.3692
  231MPD1    C2 3558   1.583   1.726  15.388  0.1634  0.3325 -0.2344
  231MPD1    C3 3559   1.696   1.790  15.438 -0.6762 -0.4192 -0.5510
  231MPD1    C4 3560   1.707   1.826  15.576  0.1781 -0.6317  0.1893
  231MPD1    C5 3561   1.607   1.771  15.654  0.0740  0.1582 -0.5899
  231MPD1     H 3562   1.575   1.707  15.281  0.3416 -2.0627  0.1832
  231MPD1    H1 3563   1.787   1.878  15.627  0.8197 -3.5208  2.1362
  231MPD1    H2 3564   1.414   1.680  15.672  0.0351 -0.5929  0.1402
  231MPD1    H3 3565   1.606   1.797  15.760  1.3041  1.9162 -0.9983
  231MPD1     N 3566   1.803   1.811  15.345  0.4378 -0.4209 -0.3267
  231MPD1    H5 3567   1.776   1.788  15.250 -2.2930 -1.1889  0.6245
  231MPD1    N1 3568   1.361   1.632  15.418  0.2024  0.1695  0.0494
  231MPD1    H6 3569   1.335   1.672  15.328  2.1537  0.6419 -0.3126
  231MPD1    H7 3570   1.279   1.623  15.477 -1.6639  2.3353 -2.2230
  232MPD1     C 3571   3.768   3.256   0.239  0.3965  0.2495  0.1903
  232MPD1    C1 3572   3.674   3.210   0.151 -0.4460  0.1429  0.5222
  232MPD1    C2 3573   3.597   3.101   0.187 -0.0715 -0.2063 -0.2827
  232MPD1    C3 3574   3.631   3.031   0.299 -0.4449  0.2579 -0.2823
  232MPD1    C4 3575   3.736   3.078   0.379  0.4434  0.4703  0.0192
  232MPD1    C5 3576   3.797   3.195   0.358  0.1525  0.2354  0.1529
  232MPD1     H 3577   3.512   3.063   0.131 -1.0770 -1.1269  1.8648
  232MPD1    H1 3578   3.776   3.023   0.463 -1.2330 -2.4121 -1.0703
  232MPD1    H2 3579   3.821   3.349   0.223 -0.4525  0.8704  1.0221
  232MPD1    H3 3580   3.880   3.233   0.417 -1.3682  2.1744  1.0276
  232MPD1     N 3581   3.558   2.914   0.328 -0.2556 -0.2466  0.0252
  232MPD1    H5 3582   3.491   2.881   0.259  1.5224 -1.8708 -0.9143
  232MPD1    N1 3583   3.643   3.292   0.035 -0.5862  0.4981 -0.0395
  232MPD1    H6 3584   3.719   3.347  17.745 -0.4922  0.6879  0.4122
  232MPD1    H7 3585   3.588   3.248  17.710  1.6701 -0.3949 -1.1965
  233MPD1     C 3586   3.943   2.391   0.992 -0.3349 -0.3151  0.7167
  233MPD1    C1 3587   4.020   2.467   1.070  1.1594  0.4697  1.1013
  233MPD1    C2 3588   4.130   2.411   1.127  0.0360 -0.9157  0.1448
  233MPD1    C3 3589   4.166   2.278   1.105  0.7887  0.0741 -0.3640
  233MPD1    C4 3590   4.090   2.198   1.022  0.8615 -0.2530  0.1876
  233MPD1    C5 3591   3.983   2.259   0.957  0.0186 -0.0036 -0.2818
  233MPD1     H 3592   4.183   2.468   1.202  0.7171  0.1401 -1.1252
  233MPD1    H1 3593   4.119   2.098   0.991  0.3064 -0.9170  1.7792
  233MPD1    H2 3594   3.856   2.436   0.946  0.9951  1.6874  0.1780
  233MPD1    H3 3595   3.912   2.200   0.900 -1.7759  0.2997  1.6364
  233MPD1     N 3596   4.287   2.220   1.148  0.5286 -0.4721  0.0298
  233MPD1    H5 3597   4.314   2.132   1.104 -3.0888 -0.7263 -1.6469
  233MPD1    N1 3598   3.974   2.588   1.121 -0.6354  1.2005 -0.1474
  233MPD1    H6 3599   4.055   2.647   1.141 -0.0603  0.0709  0.8202
  233MPD1    H7 3600   3.908   2.644   1.067 -2.1204  0.4593  0.9138
  234MPD1     C 3601   1.936   3.139  10.363  0.3188 -0.6371 -0.6319
  234MPD1    C1 3602   1.841   3.039  10.390  0.2106 -0.1093  0.5140
  234MPD1    C2 3603   1.761   2.990  10.291 -0.1502 -0.9357  0.5788
  234MPD1    C3 3604   1.760   3.048  10.162 -0.1261 -0.3836 -0.0779
  234MPD1    C4 3605   1.840   3.157  10.140 -0.8292 -0.3024 -0.9233
  234MPD1    C5 3606   1.928   3.195  10.240  0.1851 -0.2650  0.0856
  234MPD1     H 3607   1.698   2.906  10.319 -1.1257 -0.0469  1.0835
  234MPD1    H1 3608   1.853   3.202  10.042  0.9973  3.3143  0.9873
  234MPD1    H2 3609   2.013   3.179  10.427 -0.3387  2.3699 -1.6943
  234MPD1    H3 3610   1.992   3.282  10.226  3.0673 -2.5849 -1.1912
  234MPD1     N 3611   1.684   2.985  10.060 -0.0011 -0.3916  0.1874
  234MPD1    H5 3612   1.629   2.907  10.094 -1.1992 -0.5617 -2.1568
  234MPD1    N1 3613   1.846   2.982  10.514 -0.1010 -0.6299 -0.1815
  234MPD1    H6 3614   1.891   3.049  10.576  1.0496  0.6478 -2.3997
  234MPD1    H7 3615   1.754   2.955  10.547  0.3856 -0.8311  1.0122
  235MPD1     C 3616   2.259   3.509  11.085  0.1269 -0.3763 -0.5575
  235MPD1    C1 3617   2.280   3.526  10.948 -0.1147 -0.3354 -0.3079
  235MPD1    C2 3618   2.393   3.589  10.908 -0.4902  0.7343 -0.3687
  235MPD1    C3 3619   2.485   3.631  11.010  0.2181  0.0585  0.3485
  235MPD1    C4 3620   2.464   3.606  11.143  0.7674 -0.3336 -0.6439
  235MPD1    C5 3621   2.359   3.528  11.176  0.1362  0.1208 -0.3506
  235MPD1     H 3622   2.416   3.618  10.806 -0.7533  4.1191  0.5503
  235MPD1    H1 3623   2.531   3.642  11.220  0.0236  1.5098 -0.8360
  235MPD1    H2 3624   2.171   3.452  11.112 -1.3356  2.1740  0.1506
  235MPD1    H3 3625   2.341   3.522  11.283 -1.7772  0.8461 -0.6422
  235MPD1     N 3626   2.597   3.707  10.969  0.1239 -0.2659  0.2521
  235MPD1    H5 3627   2.593   3.751  10.878 -0.6018  0.9403  0.8647
  235MPD1    N1 3628   2.183   3.497  10.847 -0.5440 -0.2234  0.0466
  235MPD1    H6 3629   2.118   3.422  10.871 -0.5892 -0.1792  0.0654
  235MPD1    H7 3630   2.229   3.480  10.758 -2.0002  2.1977 -1.1684
  236MPD1     C 3631   2.118   4.419  10.571 -0.2777 -0.7542  0.1399
  236MPD1    C1 3632   2.043   4.399  10.457  0.6288  0.3086 -0.1280
  236MPD1    C2 3633   1.979   4.517  10.408 -0.4718  0.0108  0.0857
  236MPD1    C3 3634   2.010   4.646  10.455  0.0567  0.1456 -0.1808
  236MPD1    C4 3635   2.105   4.658  10.555 -0.7267  0.2245 -0.5613
  236MPD1    C5 3636   2.144   4.544  10.626  0.8067 -0.2837 -0.3029
  236MPD1     H 3637   1.909   4.502  10.327 -1.1849 -0.9874  0.8845
  236MPD1    H1 3638   2.123   0.020  10.593 -3.5230  0.7514 -0.6279
  236MPD1    H2 3639   2.156   4.333  10.625  0.4943 -0.9248 -0.6628
  236MPD1    H3 3640   2.201   4.551  10.718  0.0168  2.3515 -0.0092
  236MPD1     N 3641   1.956   0.029  10.410  0.1817  0.5605  0.5709
  236MPD1    H5 3642   1.991   0.114  10.452  2.7444 -0.6316  0.8635
  236MPD1    N1 3643   2.030   4.271  10.395 -0.3656 -0.1511  0.2378
  236MPD1    H6 3644   1.996   4.274  10.299 -2.2683 -2.8358  0.7946
  236MPD1    H7 3645   2.115   4.216  10.406 -0.2814  0.2157  1.3363
  237MPD1     C 3646   2.065   3.299  15.751 -0.1619 -0.3867 -0.3584
  237MPD1    C1 3647   1.995   3.360  15.649  0.3555 -0.6273  0.5540
  237MPD1    C2 3648   1.903   3.277  15.578  0.2627 -0.7110 -0.6735
  237MPD1    C3 3649   1.903   3.140  15.597  0.3214 -0.1168 -0.3788
  237MPD1    C4 3650   1.986   3.090  15.689  0.1766 -0.0770 -0.0897
  237MPD1    C5 3651   2.063   3.165  15.772  0.4930  0.0120  0.2090
  237MPD1     H 3652   1.846   3.317  15.496  2.3039  0.3802 -1.5556
  237MPD1    H1 3653   1.984   2.984  15.710 -0.4871 -0.0744 -0.1147
  237MPD1    H2 3654   2.141   3.353  15.807 -0.4665  1.1841 -1.4559
  237MPD1    H3 3655   2.118   3.129  15.858  1.8600  0.2148 -0.5849
  237MPD1     N 3656   1.825   3.048  15.520  0.6155 -0.2212  0.1989
  237MPD1    H5 3657   1.839   2.949  15.537  1.4047 -0.2933 -0.8130
  237MPD1    N1 3658   1.991   3.497  15.635 -0.2298  0.4402  0.3558
  237MPD1    H6 3659   1.976   3.517  15.536 -1.8217  1.3753  0.7801
  237MPD1    H7 3660   2.067   3.553  15.674  1.1712 -0.5970 -0.9012
  238MPD1     C 3661   3.776   1.994  15.343  0.3501 -0.5754  0.3750
  238MPD1    C1 3662   3.849   1.916  15.253 -0.1459 -0.4636  0.2685
  238MPD1    C2 3663   3.777   1.851  15.154 -0.1597  0.2684 -0.1400
  238MPD1    C3 3664   3.637   1.848  15.151  0.7603 -0.3016  0.1607
  238MPD1    C4 3665   3.571   1.915  15.254  1.1153  0.4447  0.0737
  238MPD1    C5 3666   3.640   1.992  15.344 -0.8316  0.2251  0.2937
  238MPD1     H 3667   3.843   1.797  15.087  0.9429 -0.8169  1.7990
  238MPD1    H1 3668   3.463   1.920  15.255  1.1169  0.9742 -2.3355
  238MPD1    H2 3669   3.823   2.042  15.428  0.7504  0.0845 -0.2115
  238MPD1    H3 3670   3.581   2.058  15.408  0.7080  1.0737  0.8314
  238MPD1     N 3671   3.564   1.762  15.068 -0.6084 -0.0777 -0.4127
  238MPD1    H5 3672   3.463   1.766  15.079 -0.4999  0.0108  0.5536
  238MPD1    N1 3673   3.987   1.895  15.273  0.0206  0.4405 -0.3092
  238MPD1    H6 3674   4.030   1.896  15.180  0.3165  1.6614 -0.1618
  238MPD1    H7 3675   4.029   1.978  15.315  0.2511 -0.5282  1.3478
  239MPD1     C 3676   3.857   2.212  14.991  0.0444 -0.5276  0.3702
  239MPD1    C1 3677   3.951   2.284  14.930 -0.1788 -0.1106  0.5898
  239MPD1    C2 3678   3.911   2.373  14.827  0.0587 -0.1709 -0.1057
  239MPD1    C3 3679   3.781   2.411  14.813  0.0545  0.3397 -0.5143
  239MPD1    C4 3680   3.687   2.345  14.894 -0.5554  0.5139  0.4891
  239MPD1    C5 3681   3.727   2.242  14.972 -0.4345  0.3666  0.5285
  239MPD1     H 3682   3.986   2.416  14.762 -0.0969  0.7414  0.3256
  239MPD1    H1 3683   3.581   2.362  14.878 -1.1107 -3.0637  0.3801
  239MPD1    H2 3684   3.876   2.135  15.065  1.7012  1.1644  1.7116
  239MPD1    H3 3685   3.659   2.174  15.021 -1.1248  0.3783 -0.4070
  239MPD1     N 3686   3.733   2.515  14.732  0.7130  0.1427 -0.4675
  239MPD1    H5 3687   3.636   2.541  14.746  0.9957  1.5898 -1.2955
  239MPD1    N1 3688   4.087   2.248  14.937 -0.3126 -0.7263 -0.1933
  239MPD1    H6 3689   4.112   2.197  15.022 -1.7616  1.4447  1.5540
  239MPD1    H7 3690   4.148   2.330  14.937 -1.0840 -0.1562 -2.2385
  240MPD1     C 3691   2.725   2.014  13.542  0.4206  0.2676  0.4182
  240MPD1    C1 3692   2.665   1.963  13.652  0.0494 -0.1376  0.1178
  240MPD1    C2 3693   2.739   1.946  13.762  0.0754  0.1983 -0.1710
  240MPD1    C3 3694   2.872   1.977  13.773 -0.1153  0.2362 -0.6695
  240MPD1    C4 3695   2.928   2.034  13.661 -0.6190  0.3825  0.2870
  240MPD1    C5 3696   2.851   2.064  13.552  0.3786  0.4761  0.1394
  240MPD1     H 3697   2.691   1.896  13.845  2.1554  0.7268  1.3474
  240MPD1    H1 3698   3.034   2.055  13.663 -0.4094 -0.6786  0.3351
  240MPD1    H2 3699   2.673   2.024  13.448 -0.9188 -0.3365  1.0803
  240MPD1    H3 3700   2.899   2.093  13.459 -0.5180  1.8525  0.1143
  240MPD1     N 3701   2.943   1.945  13.894 -0.2341  0.1045  0.0188
  240MPD1    H5 3702   2.895   1.890  13.965  1.9540 -2.8132 -0.7429
  240MPD1    N1 3703   2.527   1.935  13.655  0.0951  0.4360  0.1218
  240MPD1    H6 3704   2.484   1.965  13.742  0.9014 -1.8193  1.2973
  240MPD1    H7 3705   2.471   1.969  13.577  1.5018  0.3372 -0.9356
  241MPD1     C 3706   3.694   2.118  14.662 -0.0357 -1.5490  0.2828
  241MPD1    C1 3707   3.692   2.161  14.529  0.0741  0.2655  0.5823
  241MPD1    C2 3708   3.593   2.116  14.445  0.2678 -0.7990  0.1924
  241MPD1    C3 3709   3.490   2.029  14.497 -0.0368  0.0572 -0.2864
  241MPD1    C4 3710   3.486   2.004  14.634  0.3860 -0.3644  0.4065
  241MPD1    C5 3711   3.591   2.047  14.711 -0.1385 -0.2094  0.6938
  241MPD1     H 3712   3.599   2.134  14.339 -4.2954 -1.4231 -0.1644
  241MPD1    H1 3713   3.403   1.951  14.679 -1.9674  1.9332 -1.2120
  241MPD1    H2 3714   3.777   2.145  14.727  0.7884  1.1305 -1.8529
  241MPD1    H3 3715   3.593   2.023  14.817 -0.8875 -0.7164  0.5998
  241MPD1     N 3716   3.387   1.974  14.417 -0.0884 -0.8002  0.1105
  241MPD1    H5 3717   3.298   1.953  14.460 -0.8786  0.1500 -1.0720
  241MPD1    N1 3718   3.803   2.226  14.475 -0.5418  0.0986 -0.2919
  241MPD1    H6 3719   3.789   2.272  14.386  0.0544 -1.7496 -1.3488
  241MPD1    H7 3720   3.855   2.289  14.535  0.6982 -0.7785 -0.4303
  242MPD1     C 3721   3.285   0.629  16.276 -0.3034  0.2166  0.0679
  242MPD1    C1 3722   3.393   0.690  16.220 -0.5989 -0.2914  0.0592
  242MPD1    C2 3723   3.428   0.671  16.090  0.4733 -0.3871  0.0292
  242MPD1    C3 3724   3.344   0.590  16.016 -0.0183  0.4132  0.3036
  242MPD1    C4 3725   3.241   0.524  16.077  0.1872  0.5805 -0.0687
  242MPD1    C5 3726   3.208   0.544  16.206  0.3321  0.2023 -0.4080
  242MPD1     H 3727   3.516   0.718  16.048  2.0573 -0.4597  3.2947
  242MPD1    H1 3728   3.178   0.466  16.011 -0.1022  0.5280  0.2553
  242MPD1    H2 3729   3.248   0.653  16.376 -1.6540 -1.5225 -0.0037
  242MPD1    H3 3730   3.129   0.489  16.256 -0.3877  0.0123 -1.7638
  242MPD1     N 3731   3.354   0.562  15.873  0.6229  0.0900 -0.2171
  242MPD1    H5 3732   3.293   0.490  15.835  0.4159 -0.9465  2.1135
  242MPD1    N1 3733   3.475   0.770  16.307  0.0432  0.3838  0.4114
  242MPD1    H6 3734   3.418   0.832  16.364 -1.4596 -0.3169 -0.3147
  242MPD1    H7 3735   3.535   0.842  16.267 -0.3497  0.3396 -0.2550
  243MPD1     C 3736   3.969   3.596  17.533  0.1996 -0.0566 -0.1588
  243MPD1    C1 3737   4.020   3.518  17.639 -0.1114 -0.0659  0.3203
  243MPD1    C2 3738   4.140   3.458  17.614 -0.1218  0.6615  0.6269
  243MPD1    C3 3739   4.214   3.464  17.501  0.4054  0.3142 -0.6417
  243MPD1    C4 3740   4.162   3.544  17.399 -0.0235  0.3833  0.2513
  243MPD1    C5 3741   4.046   3.611  17.422  0.0529 -0.4940 -0.2959
  243MPD1     H 3742   4.169   3.389  17.693 -2.8966  0.2025  1.2179
  243MPD1    H1 3743   4.216   3.576  17.311 -0.6607 -0.0422 -0.2874
  243MPD1    H2 3744   3.868   3.637  17.531 -0.1733 -0.9872 -0.3045
  243MPD1    H3 3745   4.021   3.685  17.347  0.4821 -0.3112 -0.2589
  243MPD1     N 3746   4.341   3.401  17.505  0.5463 -0.5907 -0.0764
  243MPD1    H5 3747   4.365   3.348  17.588  0.0867 -0.4539  0.1389
  243MPD1    N1 3748   3.930   3.465  17.731  0.6067 -0.6996  0.2827
  243MPD1    H6 3749   3.981   3.445   0.068 -0.3775 -2.6604  0.3915
  243MPD1    H7 3750   3.849   3.525  17.746  0.8057  0.4118 -3.1451
  244MPD1     C 3751   4.585   2.632   0.096 -0.0786 -0.2585  0.2271
  244MPD1    C1 3752   4.546   2.758   0.144 -0.4570  0.8336  0.2763
  244MPD1    C2 3753   4.561   2.867   0.070 -0.0935  0.4343 -0.2140
  244MPD1    C3 3754   4.618   2.860  17.690 -0.4865  0.3630  0.1340
  244MPD1    C4 3755   4.664   2.737  17.650 -0.2467  0.3248  0.7434
  244MPD1    C5 3756   4.640   2.627  17.722  0.4848  0.3514 -0.6741
  244MPD1     H 3757   4.537   2.962   0.116  0.7535  1.5523 -2.0700
  244MPD1    H1 3758   4.717   2.727  17.556 -0.0256  1.1821  0.7807
  244MPD1    H2 3759   4.571   2.539   0.151 -1.4844 -0.0904  0.1500
  244MPD1    H3 3760   4.678   2.533  17.683  1.0468  1.6835 -3.3242
  244MPD1     N 3761   4.614   2.976  17.619 -0.8586 -0.4091 -0.6540
  244MPD1    H5 3762   4.562   3.048  17.668 -1.3727 -1.4056  0.2546
  244MPD1    N1 3763   4.469   2.763   0.266 -0.9194  0.3177 -0.0321
  244MPD1    H6 3764   4.496   2.842   0.323  0.4899 -0.0835 -0.1456
  244MPD1    H7 3765   4.493   2.688   0.329 -3.8914 -0.2073  0.5029
  245MPD1     C 3766   1.244   3.960  13.339  0.3067  0.3802 -0.1600
  245MPD1    C1 3767   1.363   3.962  13.273 -0.1527 -0.1763 -0.1787
  245MPD1    C2 3768   1.473   4.013  13.341  0.7493 -0.2748 -0.4021
  245MPD1    C3 3769   1.465   4.052  13.475  0.0760  0.8412  0.0019
  245MPD1    C4 3770   1.343   4.046  13.537 -0.3439  0.1902  0.5012
  245MPD1    C5 3771   1.237   3.998  13.468 -0.2329 -0.1729 -0.0383
  245MPD1     H 3772   1.561   4.035  13.282  0.1410 -0.5163 -1.4016
  245MPD1    H1 3773   1.331   4.073  13.642  2.4083  2.6561  0.1753
  245MPD1    H2 3774   1.150   3.938  13.292  0.7759 -0.9137 -0.4735
  245MPD1    H3 3775   1.150   4.030  13.524 -2.0801  0.1187 -3.0509
  245MPD1     N 3776   1.586   4.103  13.537  0.5960  0.2122 -0.1572
  245MPD1    H5 3777   1.669   4.116  13.480  0.4574 -0.8709 -0.6002
  245MPD1    N1 3778   1.373   3.940  13.135  0.6390  0.1963 -0.6598
  245MPD1    H6 3779   1.467   3.971  13.110  0.8753  0.5882  0.7064
  245MPD1    H7 3780   1.306   3.998  13.084 -0.5939  0.7713  1.5989
  246MPD1     C 3781   2.543   2.415  10.242  0.3748  0.0913 -0.3215
  246MPD1    C1 3782   2.669   2.364  10.258  0.2933 -0.8533 -0.3721
  246MPD1    C2 3783   2.675   2.221  10.282 -0.2100  0.5827  0.0821
  246MPD1    C3 3784   2.567   2.142  10.252  0.7764 -1.0789  0.3820
  246MPD1    C4 3785   2.441   2.195  10.227  0.0910 -0.0608 -0.1849
  246MPD1    C5 3786   2.439   2.331  10.227 -0.8710 -0.5340 -0.1509
  246MPD1     H 3787   2.772   2.183  10.312  0.8691  2.4675 -1.0571
  246MPD1    H1 3788   2.352   2.149  10.186 -0.2059 -1.5428  2.1141
  246MPD1    H2 3789   2.522   2.521  10.253 -2.4038 -0.7102  2.1129
  246MPD1    H3 3790   2.347   2.371  10.186 -0.4841  0.0867 -0.4053
  246MPD1     N 3791   2.581   2.004  10.261  0.4711 -0.0349 -0.5900
  246MPD1    H5 3792   2.671   1.963  10.286  1.5723  3.4912  1.2172
  246MPD1    N1 3793   2.779   2.449  10.302 -0.2277 -0.1973  0.1154
  246MPD1    H6 3794   2.869   2.401  10.300  0.1839  0.6669 -1.7765
  246MPD1    H7 3795   2.787   2.531  10.242  3.6444 -0.5331  0.1517
  247MPD1     C 3796   1.788   4.487  17.227 -0.0507  0.1786 -0.5078
  247MPD1    C1 3797   1.758   4.561  17.111 -0.4517  0.1927  0.2840
  247MPD1    C2 3798   1.721   4.482  16.997  0.5234 -0.5286 -0.2444
  247MPD1    C3 3799   1.726   4.338  16.998  0.4142  0.1743 -1.0225
  247MPD1    C4 3800   1.761   4.274  17.113  0.0634  0.0427 -0.6758
  247MPD1    C5 3801   1.791   4.354  17.221 -0.5407 -0.1864 -0.6508
  247MPD1     H 3802   1.684   4.532  16.907 -2.5161 -1.4206  0.5063
  247MPD1    H1 3803   1.779   4.167  17.110 -1.2047 -0.2023  0.9479
  247MPD1    H2 3804   1.810   4.533  17.323  0.3829 -0.3100 -0.3760
  247MPD1    H3 3805   1.816   4.299  17.311  1.0444  1.3302 -0.1702
  247MPD1     N 3806   1.692   4.249  16.894  0.4026  0.0817  0.2495
  247MPD1    H5 3807   1.711   4.149  16.904  1.1170  0.2308  0.3718
  247MPD1    N1 3808   1.738   4.706  17.114  0.3052  0.4584  0.1744
  247MPD1    H6 3809   1.725   0.010  17.023 -0.3129 -0.2562 -0.0649
  247MPD1    H7 3810   1.801   0.029  17.166  1.6206  1.5694 -2.7439
  248MPD1     C 3811   1.571   3.091   0.467 -0.5930 -0.7915 -0.0029
  248MPD1    C1 3812   1.476   3.186   0.450 -0.3962  0.4267 -0.0184
  248MPD1    C2 3813   1.518   3.313   0.426  0.0675 -0.0217 -0.1625
  248MPD1    C3 3814   1.652   3.342   0.393 -0.5866  0.6988 -0.5476
  248MPD1    C4 3815   1.743   3.241   0.405 -0.9634  0.2614  0.2324
  248MPD1    C5 3816   1.703   3.117   0.443  0.4394  0.5614 -0.2074
  248MPD1     H 3817   1.440   3.387   0.418  1.6486  1.7710  0.9845
  248MPD1    H1 3818   1.846   3.250   0.374 -0.6306  3.4431  2.2657
  248MPD1    H2 3819   1.546   2.994   0.507  0.2744 -0.8897  0.3060
  248MPD1    H3 3820   1.774   3.036   0.453  3.0984  2.9803  0.7947
  248MPD1     N 3821   1.697   3.474   0.359  0.1645 -0.0696  0.1284
  248MPD1    H5 3822   1.627   3.548   0.365 -0.5797 -0.6686 -1.2532
  248MPD1    N1 3823   1.340   3.158   0.480  0.2757 -0.5240 -0.0485
  248MPD1    H6 3824   1.321   3.059   0.465  2.4153 -0.9878  0.2978
  248MPD1    H7 3825   1.271   3.212   0.428  1.0871 -0.3248 -0.9087
  249MPD1     C 3826   2.633   3.204   9.932 -0.5326  0.1435  0.0402
  249MPD1    C1 3827   2.698   3.264   9.822 -0.1209  0.3932 -0.2334
  249MPD1    C2 3828   2.808   3.349   9.842 -0.1707 -0.1422 -0.7444
  249MPD1    C3 3829   2.845   3.386   9.970 -0.4957  0.2894  0.1253
  249MPD1    C4 3830   2.775   3.331  10.076 -0.6195  0.1275  0.1965
  249MPD1    C5 3831   2.669   3.248  10.057 -0.7684 -0.5060  0.5352
  249MPD1     H 3832   2.860   3.379   9.751  0.5839  0.2786 -0.1671
  249MPD1    H1 3833   2.802   3.359  10.178 -1.8721 -0.6092  0.7314
  249MPD1    H2 3834   2.543   3.145   9.919 -0.1300 -0.0668 -1.7387
  249MPD1    H3 3835   2.606   3.214  10.139  0.4207  0.1032  1.6899
  249MPD1     N 3836   2.964   3.464   9.984  0.4141  0.1236 -0.1250
  249MPD1    H5 3837   3.005   3.503   9.900 -0.3632  0.7042 -0.2319
  249MPD1    N1 3838   2.669   3.214   9.694 -0.2524 -0.1089 -0.2386
  249MPD1    H6 3839   2.571   3.188   9.688  0.1012 -1.1491 -1.3387
  249MPD1    H7 3840   2.693   3.282   9.623 -0.0949  0.5973  0.4864
  250MPD2     C 3841   0.220   2.983  12.887 -0.1636 -0.2556 -1.0825
  250MPD2    C1 3842   0.115   3.023  12.814 -1.0755 -0.1290 -0.0127
  250MPD2    C2 3843   0.022   2.929  12.776  0.3093 -0.3176  0.0105
  250MPD2    C3 3844   0.040   2.799  12.785 -0.0543  0.6923  0.7422
  250MPD2    C4 3845   0.156   2.754  12.847 -0.0402 -0.2234  0.1547
  250MPD2    C5 3846   0.231   2.848  12.908 -0.5699  0.3491 -0.1535
  250MPD2     H 3847   4.676   2.968  12.719  0.1000  1.3239  1.4472
  250MPD2    H1 3848   0.160   2.647  12.866  0.6340 -0.8498 -3.4715
  250MPD2    H2 3849   0.293   3.053  12.926 -0.1225 -1.6009  1.2899
  250MPD2    H3 3850   0.309   2.814  12.976 -0.1168 -1.4142 -1.5481
  250MPD2     N 3851   4.685   2.701  12.741  0.1826 -0.6294  0.3048
  250MPD2    H5 3852   4.704   2.605  12.767 -0.3598 -0.6569  0.6196
  250MPD2    N1 3853   0.089   3.163  12.796  0.0659 -0.4201 -0.3651
  250MPD2    H7 3854   0.156   3.218  12.848 -1.3818  1.2419 -0.2678
  251TMC3    C1 3855   4.731   3.367  12.736 -0.4570  0.1328  0.8821
  251TMC3    C2 3856   4.611   3.427  12.768  0.5256  0.2413  0.1640
  251TMC3    C3 3857   4.620   3.543  12.842  0.6640 -0.5724 -0.5777
  251TMC3    C4 3858   0.114   3.430  12.763  0.4517  0.1516 -0.2084
  251TMC3    C5 3859   0.108   3.558  12.811 -0.3188 -0.6536 -0.3328
  251TMC3    C6 3860   4.732   3.611  12.872 -0.4935 -0.2002 -0.2156
  251TMC3     C 3861   4.726   3.226  12.723  0.3965  0.1621  0.1595
  251TMC3     O 3862   4.613   3.190  12.699 -0.3860  0.3118  0.5379
  251TMC3     H 3863   4.518   3.371  12.770  0.0959  0.8536 -4.4405
  251TMC3    H1 3864   0.208   3.384  12.734  1.0677  1.8103 -0.8394
  251TMC3    H2 3865   4.727   3.700  12.934 -0.4368 -0.2618 -0.1223
  251TMC3    C7 3866   0.239   3.603  12.863 -0.2071  0.3468 -0.8105
  251TMC3    C8 3867   4.532   3.542  12.958  0.0833 -0.1012  0.0172
  251TMC3    O1 3868   0.315   3.508  12.890 -0.1476 -0.0790 -0.1174
  251TMC3    O2 3869   4.410   3.536  12.935  0.6669 -0.3829  0.4528
  252TMC3    C1 3870   0.032   4.658   9.307 -0.2463  0.1611  0.5887
  252TMC3    C2 3871   0.148   4.614   9.369 -0.3112 -0.5079  0.1015
  252TMC3    C3 3872   0.139   4.543   9.480 -0.1419 -0.1514 -0.1436
  252TMC3    C4 3873   4.648   4.623   9.339 -0.0569 -0.6599  0.3619
  252TMC3    C5 3874   4.637   4.542   9.449 -0.0274  0.8320  0.2817
  252TMC3    C6 3875   0.013   4.502   9.521 -0.1363 -1.1612  0.5572
  252TMC3     C 3876   0.045   0.006   9.189  0.1474 -0.2035  0.8093
  252TMC3     O 3877   0.147   0.072   9.174 -0.1803  0.2529  0.0031
  252TMC3     H 3878   0.247   4.654   9.348 -0.3398 -0.9370 -0.8413
  252TMC3    H1 3879   4.558   4.670   9.300 -0.0859  0.2101  1.4817
  252TMC3    H2 3880   0.007   4.438   9.608 -2.5674 -1.9721 -0.1966
  252TMC3    C7 3881   4.507   4.515   9.496  0.0455 -0.0083 -0.6232
  252TMC3    C8 3882   0.268   4.500   9.540  0.7396 -0.1148 -0.0425
  252TMC3    O1 3883   4.406   4.544   9.430 -0.4774  0.1135 -0.3641
  252TMC3    O2 3884   0.361   4.515   9.466  0.4396 -0.7558  0.2826
  253MPD2     C 3885   1.319   3.084  14.860 -0.1979 -0.5715 -0.0728
  253MPD2    C1 3886   1.195   3.030  14.904  0.3169 -0.4682 -0.2377
  253MPD2    C2 3887   1.155   3.052  15.031 -0.5668  0.1697  0.0463
  253MPD2    C3 3888   1.232   3.120  15.123  0.3681  0.0601 -0.3169
  253MPD2    C4 3889   1.355   3.168  15.083  0.1305  0.1592  0.1003
  253MPD2    C5 3890   1.391   3.151  14.955 -0.6627 -0.2956 -0.7963
  253MPD2     H 3891   1.062   3.003  15.058 -0.0954  0.0416  1.4479
  253MPD2    H1 3892   1.412   3.234  15.148  0.3349 -0.7037  0.7919
  253MPD2    H2 3893   1.361   3.067  14.761  1.4673 -2.7074  1.0123
  253MPD2    H3 3894   1.485   3.195  14.924 -0.7615  0.8364  0.5497
  253MPD2     N 3895   1.191   3.139  15.252  0.1397 -0.4910  0.0694
  253MPD2    H5 3896   1.252   3.187  15.318 -0.9378 -0.0091  0.6978
  253MPD2    N1 3897   1.096   2.972  14.821  0.2310  0.1393  0.3093
  253MPD2    H7 3898   1.015   2.945  14.876 -0.9781  2.0604 -0.5214
  254TMC3    C1 3899   1.068   3.121  15.446 -0.0058 -0.7021 -0.1584
  254TMC3    C2 3900   0.952   3.141  15.509 -0.4550 -0.2652 -0.1199
  254TMC3    C3 3901   0.934   3.108  15.638 -0.3809 -0.4428  0.3224
  254TMC3    C4 3902   1.178   3.076  15.519 -0.2142 -0.6861 -0.3367
  254TMC3    C5 3903   1.161   3.046  15.654  0.6997 -0.9480 -0.1227
  254TMC3    C6 3904   1.040   3.060  15.713  0.4540  0.2164 -0.4925
  254TMC3     C 3905   1.068   3.104  15.303 -0.4131  0.3255  0.2251
  254TMC3     O 3906   0.959   3.076  15.256  0.1680  0.2242  0.2418
  254TMC3     H 3907   0.865   3.178  15.455  2.1668  0.8762 -3.5831
  254TMC3    H1 3908   1.270   3.060  15.465  0.5083  0.5979  0.5246
  254TMC3    H2 3909   1.034   3.050  15.820  2.9887 -1.4476 -0.5104
  254TMC3    C7 3910   1.264   2.984  15.734  0.3931  0.5548 -0.7514
  254TMC3    C8 3911   0.832   3.166  15.725 -0.5079 -0.2793  0.2991
  254TMC3    O1 3912   1.215   2.919  15.827 -0.3081  0.0689  0.3499
  254TMC3    O2 3913   0.813   3.096  15.822 -0.1361  0.0648 -0.0749
  255MPD2     C 3914   4.012   0.422  10.320 -0.1180  0.2364  0.3830
  255MPD2    C1 3915   4.116   0.479  10.396 -0.0288 -0.6314  0.1573
  255MPD2    C2 3916   4.241   0.422  10.406 -0.4945  0.6204  0.9280
  255MPD2    C3 3917   4.274   0.322  10.326 -0.5120 -0.5037  0.2890
  255MPD2    C4 3918   4.176   0.265  10.241  0.4743  0.3530  0.4146
  255MPD2    C5 3919   4.047   0.316  10.240 -0.6957 -0.3700 -0.4313
  255MPD2     H 3920   4.314   0.474  10.467 -1.7644  1.0549  2.0955
  255MPD2    H1 3921   4.205   0.183  10.176 -3.2274 -0.1674 -0.6241
  255MPD2    H2 3922   3.919   0.471  10.297  0.2806  0.2065 -1.2933
  255MPD2    H3 3923   3.969   0.284  10.171  0.6205  0.0492 -2.0966
  255MPD2     N 3924   4.412   0.287  10.336  0.3409 -0.4180 -0.2524
  255MPD2    H5 3925   4.469   0.349  10.393 -0.3974  1.0498 -1.0874
  255MPD2    N1 3926   4.093   0.608  10.444 -0.2476  0.1390 -0.7816
  255MPD2    H7 3927   4.012   0.661  10.412 -1.9401 -0.1359  2.9541
  256TMC3    C1 3928   4.154   0.795  10.569 -0.4345 -0.8889 -0.1283
  256TMC3    C2 3929   4.205   0.871  10.470  0.1055  0.0881  0.3838
  256TMC3    C3 3930   4.245   0.998  10.490  0.5719  0.6914  0.0149
  256TMC3    C4 3931   4.152   0.851  10.693 -0.2368  0.1980  0.5824
  256TMC3    C5 3932   4.173   0.984  10.703  0.1941 -0.6186  0.9387
  256TMC3    C6 3933   4.224   1.061  10.610  0.0716 -0.3420  0.3191
  256TMC3     C 3934   4.162   0.652  10.551 -0.7378 -0.3572 -0.3998
  256TMC3     O 3935   4.225   0.602  10.641  0.5099  0.0824 -0.7449
  256TMC3     H 3936   4.221   0.833  10.370 -1.2400  1.0693 -0.2077
  256TMC3    H1 3937   4.111   0.797  10.777 -0.1193  0.1129  0.5857
  256TMC3    H2 3938   4.236   1.169  10.617  0.5818 -0.4752  1.5327
  256TMC3    C7 3939   4.079   1.046  10.788 -0.1267 -0.3160  0.0887
  256TMC3    C8 3940   4.347   1.048  10.398  0.0625 -0.1459 -0.4282
  256TMC3    O1 3941   3.992   0.975  10.838  0.4088  0.4098 -0.6927
  256TMC3    O2 3942   4.380   0.978  10.306  0.4409  0.2280 -0.4576
  257MPD2     C 3943   3.432   3.144  13.026  0.2430 -0.0988  0.3383
  257MPD2    C1 3944   3.300   3.096  13.018 -0.4710  0.4315 -0.4214
  257MPD2    C2 3945   3.268   2.997  13.101  0.3633 -0.3884 -0.3379
  257MPD2    C3 3946   3.350   2.955  13.206 -0.5655  0.3063  0.5390
  257MPD2    C4 3947   3.468   3.020  13.222 -0.4231 -0.6059 -0.6557
  257MPD2    C5 3948   3.516   3.102  13.127 -0.0122 -0.1966 -1.0575
  257MPD2     H 3949   3.182   2.934  13.085  1.8115 -2.0120 -1.8198
  257MPD2    H1 3950   3.533   2.989  13.304 -1.9165 -0.5082  0.5681
  257MPD2    H2 3951   3.469   3.220  12.959 -0.4830 -0.8535 -0.9096
  257MPD2    H3 3952   3.609   3.157  13.135  0.5008 -1.0399 -1.1661
  257MPD2     N 3953   3.308   2.844  13.284 -0.3707  0.4998 -0.7970
  257MPD2    H5 3954   3.231   2.787  13.252 -1.7517  2.1761 -0.4347
  257MPD2    N1 3955   3.219   3.146  12.918 -0.0796 -0.0649  0.2099
  257MPD2    H7 3956   3.256   3.218  12.856  0.2115 -0.3085  0.0959
  258TMC3    C1 3957   3.329   2.661  13.427 -0.4962  0.0358  0.6403
  258TMC3    C2 3958   3.227   2.600  13.346 -0.0461 -0.1504 -0.4054
  258TMC3    C3 3959   3.167   2.490  13.399 -0.2054 -0.2172 -0.1486
  258TMC3    C4 3960   3.379   2.605  13.541 -0.0683  0.1541 -0.4831
  258TMC3    C5 3961   3.325   2.482  13.574 -0.7603  0.4042  0.2854
  258TMC3    C6 3962   3.222   2.429  13.511  0.0223 -0.4698 -0.6889
  258TMC3     C 3963   3.376   2.789  13.395 -0.2365 -0.7848 -0.0610
  258TMC3     O 3964   3.476   2.829  13.454  0.0175  0.1150  0.1009
  258TMC3     H 3965   3.190   2.637  13.252 -1.9363 -0.9742  0.0204
  258TMC3    H1 3966   3.442   2.659  13.610 -1.0300  1.5861 -0.7184
  258TMC3    H2 3967   3.183   2.334  13.545  0.3415 -0.7145 -1.0138
  258TMC3    C7 3968   3.353   2.430  13.700  0.3602  0.0524 -0.0042
  258TMC3    C8 3969   3.125   2.395  13.307  0.7947 -0.3234 -0.4839
  258TMC3    O1 3970   3.258   2.370  13.748  0.0771  0.4995  0.3473
  258TMC3    O2 3971   3.008   2.362  13.315  0.0205 -0.8229  0.5435
  259MPD2     C 3972   2.527   3.525   0.834  0.1828  0.2700 -0.5560
  259MPD2    C1 3973   2.647   3.591   0.841  0.1182 -0.0327  0.2200
  259MPD2    C2 3974   2.767   3.529   0.809 -0.3535  0.1714 -0.6324
  259MPD2    C3 3975   2.760   3.408   0.746  0.6962  0.1422  0.5261
  259MPD2    C4 3976   2.636   3.336   0.744 -0.3672 -0.1219 -0.6006
  259MPD2    C5 3977   2.526   3.390   0.791 -0.1798  0.1564 -0.0216
  259MPD2     H 3978   2.863   3.576   0.830 -0.9040  1.4314 -0.9095
  259MPD2    H1 3979   2.618   3.239   0.699 -1.4713 -0.7384  1.1721
  259MPD2    H2 3980   2.433   3.564   0.871  0.5171  0.1654  0.3966
  259MPD2    H3 3981   2.428   3.343   0.795 -1.2537  2.3485 -0.2780
  259MPD2     N 3982   2.880   3.348   0.708 -0.0349  0.2733  0.0871
  259MPD2    H5 3983   2.961   3.407   0.688 -0.4951  0.7435 -0.4037
  259MPD2    N1 3984   2.637   3.715   0.908 -0.6207 -0.0496  0.1843
  259MPD2    H7 3985   2.543   3.749   0.923 -0.7175  0.0601 -0.6496
  260TMC3    C1 3986   3.025   3.172   0.669 -0.1711  0.3562 -0.1014
  260TMC3    C2 3987   3.091   3.230   0.565  0.4619 -0.4078  0.1423
  260TMC3    C3 3988   3.196   3.157   0.511  0.1302 -0.0410 -0.1519
  260TMC3    C4 3989   3.056   3.046   0.717  0.3315  0.3113 -0.2330
  260TMC3    C5 3990   3.168   2.992   0.671  0.4841 -0.0615  0.3448
  260TMC3    C6 3991   3.249   3.052   0.580 -0.2995 -0.1412  1.2085
  260TMC3     C 3992   2.892   3.213   0.699  0.5450 -0.1759 -0.1954
  260TMC3     O 3993   2.816   3.123   0.723  0.5839 -0.0911 -0.0144
  260TMC3     H 3994   3.060   3.327   0.526 -3.3970 -1.6145  0.3046
  260TMC3    H1 3995   3.002   3.008   0.802  2.0772  2.7524  1.9617
  260TMC3    H2 3996   3.347   3.012   0.555  0.1661  1.8697 -0.1638
  260TMC3    C7 3997   3.135   2.856   0.632  0.2235  0.4327  0.3050
  260TMC3    C8 3998   3.195   3.142   0.367 -0.2477 -0.0153 -0.3488
  260TMC3    O1 3999   3.197   2.813   0.536 -0.0740  0.0425  0.1338
  260TMC3    O2 4000   3.142   3.233   0.307  0.5023 -0.3691  0.1262
  261MPD2     C 4001   3.847   2.763  12.518  0.1701 -0.0638  0.9415
  261MPD2    C1 4002   3.980   2.794  12.486 -0.1749 -0.1063 -0.2657
  261MPD2    C2 4003   4.001   2.884  12.389 -0.1726 -0.3404  0.4434
  261MPD2    C3 4004   3.907   2.950  12.319  0.1974 -0.4465  0.0121
  261MPD2    C4 4005   3.776   2.918  12.353  0.0313  0.2376  0.9355
  261MPD2    C5 4006   3.744   2.823  12.451  0.1679 -0.7943  0.5635
  261MPD2     H 4007   4.104   2.902  12.359 -0.2002 -1.0018 -0.0410
  261MPD2    H1 4008   3.685   2.953  12.305 -0.7334 -0.3232  1.9549
  261MPD2    H2 4009   3.823   2.684  12.587 -1.8563 -0.1845  0.0975
  261MPD2    H3 4010   3.640   2.792  12.462 -0.5617  0.8137 -1.8547
  261MPD2     N 4011   3.951   3.050  12.225 -0.4590 -0.6540 -0.0526
  261MPD2    H5 4012   4.047   3.067  12.197 -0.5482  0.8853  0.5520
  261MPD2    N1 4013   4.093   2.727  12.540  0.2211  0.2678  0.5755
  261MPD2    H7 4014   4.185   2.749  12.503  0.7309 -1.0852  1.0485
  262TMC3    C1 4015   3.914   3.209  12.064 -0.4721  0.0923 -0.1220
  262TMC3    C2 4016   3.858   3.327  12.040  0.1066 -0.2085  0.3568
  262TMC3    C3 4017   3.920   3.402  11.949  0.9135  0.1237 -0.4243
  262TMC3    C4 4018   4.020   3.152  11.998  0.0576 -0.4595 -1.4880
  262TMC3    C5 4019   4.081   3.232  11.901 -0.6264 -0.1376 -0.0233
  262TMC3    C6 4020   4.034   3.362  11.882 -0.4049 -0.8771 -0.4439
  262TMC3     C 4021   3.859   3.138  12.171 -0.2799 -0.3831 -0.6877
  262TMC3     O 4022   3.742   3.154  12.193 -0.4811  0.2496 -0.6618
  262TMC3     H 4023   3.782   3.373  12.102 -0.4238  1.3871 -1.4587
  262TMC3    H1 4024   4.044   3.047  12.002  1.7181 -0.0315 -0.0154
  262TMC3    H2 4025   4.081   3.425  11.808  0.2836 -0.6141  0.2214
  262TMC3    C7 4026   4.165   3.164  11.800 -0.2548  0.1707 -0.8000
  262TMC3    C8 4027   3.874   3.534  11.917  0.0065 -0.4154 -0.2124
  262TMC3    O1 4028   4.202   3.047  11.821  0.3246  0.0036  0.5445
  262TMC3    O2 4029   3.953   3.603  11.852  0.2461  0.3165  0.1932
  263MPD2     C 4030   0.234   2.470  11.652  0.2658 -0.1943  0.0094
  263MPD2    C1 4031   0.316   2.444  11.545 -0.1375  0.4295 -0.2951
  263MPD2    C2 4032   0.255   2.427  11.423 -0.2230 -0.4934 -0.1944
  263MPD2    C3 4033   0.113   2.427  11.406 -0.5283 -0.3085  0.0913
  263MPD2    C4 4034   0.037   2.464  11.516  1.4560 -0.8840 -0.8572
  263MPD2    C5 4035   0.098   2.488  11.636  0.1482  0.0282  0.6896
  263MPD2     H 4036   0.328   2.415  11.344 -1.7294 -0.2179 -1.6476
  263MPD2    H1 4037   4.669   2.476  11.499  0.8303 -2.5049  1.7928
  263MPD2    H2 4038   0.275   2.493  11.750  3.1815  1.0668 -1.4930
  263MPD2    H3 4039   0.026   2.485  11.717  1.9421  1.1518  2.3354
  263MPD2     N 4040   0.070   2.410  11.274 -0.0497  0.6441  0.2213
  263MPD2    H5 4041   0.141   2.382  11.208 -0.6343 -1.0228  0.2941
  263MPD2    N1 4042   0.455   2.433  11.573 -0.1396 -1.0602  0.0028
  263MPD2    H7 4043   0.479   2.387  11.660  1.5269 -3.8217 -1.9295
  264TMC3    C1 4044   4.678   2.442  11.084  0.1944  0.5940 -0.3426
  264TMC3    C2 4045   4.560   2.475  11.024 -0.4733 -0.0684  0.2685
  264TMC3    C3 4046   4.559   2.504  10.886 -0.2460 -0.4409  0.3141
  264TMC3    C4 4047   0.055   2.433  11.011 -0.3125 -0.2978  0.3333
  264TMC3    C5 4048   0.045   2.446  10.868 -0.2955 -0.6324 -0.3008
  264TMC3    C6 4049   4.672   2.489  10.811 -0.1302 -0.5605  0.6921
  264TMC3     C 4050   4.683   2.433  11.230 -0.1678  0.1610 -0.6169
  264TMC3     O 4051   4.579   2.451  11.293  0.2737 -0.1289 -0.1133
  264TMC3     H 4052   4.475   2.499  11.087 -0.2581 -1.6006  1.1377
  264TMC3    H1 4053   0.154   2.414  11.050 -0.5650 -2.9220 -0.2780
  264TMC3    H2 4054   4.675   2.521  10.708  1.4540 -0.7338  0.6882
  264TMC3    C7 4055   0.170   2.501  10.806 -0.4304  0.6756 -0.4222
  264TMC3    C8 4056   4.434   2.568  10.823  0.0139 -0.5476 -0.3284
  264TMC3    O1 4057   0.179   2.487  10.686 -0.0037  0.2866  0.1964
  264TMC3    O2 4058   4.364   2.491  10.758  0.7477 -0.0717  0.0553
  265MPD2     C 4059   2.469   2.417  15.734 -0.2634 -0.0648 -0.5802
  265MPD2    C1 4060   2.491   2.533  15.665 -0.0213  0.3547  0.0061
  265MPD2    C2 4061   2.542   2.529  15.542 -1.3198  0.7706  0.4567
  265MPD2    C3 4062   2.576   2.406  15.480 -0.3828 -0.0366 -0.4422
  265MPD2    C4 4063   2.553   2.289  15.546 -0.0099  0.0491  0.9076
  265MPD2    C5 4064   2.507   2.301  15.675  0.5707 -0.4453 -0.2771
  265MPD2     H 4065   2.538   2.618  15.480 -0.5169  0.3601 -0.1942
  265MPD2    H1 4066   2.588   2.193  15.510 -2.8780 -0.1600 -1.2561
  265MPD2    H2 4067   2.424   2.421  15.833 -0.5371 -2.0355 -0.6415
  265MPD2    H3 4068   2.494   2.205  15.723  0.4884 -0.8719 -1.1572
  265MPD2     N 4069   2.635   2.392  15.350 -0.5055  0.2166 -0.7139
  265MPD2    H5 4070   2.651   2.297  15.317 -0.5442  0.1123 -0.4323
  265MPD2    N1 4071   2.478   2.664  15.717  0.8376 -0.5463  0.1821
  265MPD2    H7 4072   2.513   2.745  15.667  1.0642  0.0800  1.3614
  266TMC3    C1 4073   2.454   2.837  15.877  0.1180 -0.3228  0.1991
  266TMC3    C2 4074   2.495   2.872  16.001  0.1952 -0.1922  0.2599
  266TMC3    C3 4075   2.512   3.000  16.040 -0.1778 -0.0836  0.1991
  266TMC3    C4 4076   2.427   2.937  15.785  0.3371 -1.0753  0.2248
  266TMC3    C5 4077   2.444   3.066  15.824 -0.3702  0.0545 -0.2477
  266TMC3    C6 4078   2.491   3.103  15.950 -0.2205 -0.3521  0.6985
  266TMC3     C 4079   2.451   2.697  15.845 -0.1728 -0.2370  0.2582
  266TMC3     O 4080   2.416   2.623  15.933 -0.0747 -0.3407  0.1891
  266TMC3     H 4081   2.525   2.787  16.061  1.7381  0.6338  0.6370
  266TMC3    H1 4082   2.385   2.913  15.687  1.0429 -2.4891  0.2563
  266TMC3    H2 4083   2.518   3.206  15.969  0.7620 -0.1628 -1.6756
  266TMC3    C7 4084   2.435   3.157  15.718  0.0214  0.3560  0.2650
  266TMC3    C8 4085   2.585   3.025  16.163 -0.1303 -0.4940 -0.3440
  266TMC3    O1 4086   2.366   3.129  15.616 -0.3545  0.0051 -0.3914
  266TMC3    O2 4087   2.630   2.925  16.216  0.2976 -0.9254  0.2930
  267MPD2     C 4088   4.687   3.817   0.777  0.0062 -0.5032  0.6196
  267MPD2    C1 4089   4.709   3.913   0.677  0.1065  0.0895  0.0495
  267MPD2    C2 4090   4.593   3.957   0.617  0.4322 -0.1501  1.1870
  267MPD2    C3 4091   4.466   3.893   0.645 -0.2707  0.3100  0.0335
  267MPD2    C4 4092   4.454   3.800   0.740 -0.6134  0.1926 -0.1858
  267MPD2    C5 4093   4.561   3.764   0.815  0.2568 -0.1720  0.6686
  267MPD2     H 4094   4.608   4.037   0.546 -0.4384  0.5837  1.8296
  267MPD2    H1 4095   4.366   3.739   0.753 -0.0212 -0.3449  1.2849
  267MPD2    H2 4096   0.029   3.781   0.840  0.6431  1.3079  0.8541
  267MPD2    H3 4097   4.545   3.698   0.899  0.8163 -0.4917  0.5293
  267MPD2     N 4098   4.344   3.930   0.585  0.3712  0.3465 -0.1537
  267MPD2    H5 4099   4.262   3.891   0.630  0.6278 -0.2534 -0.2144
  267MPD2    N1 4100   0.102   3.949   0.638 -0.1663  0.1802  0.3000
  267MPD2    H7 4101   0.177   3.889   0.671  0.6087 -0.4980 -2.7042
  268TMC3    C1 4102   0.282   4.074   0.558 -0.4093 -0.2152  0.1948
  268TMC3    C2 4103   0.330   4.163   0.459  0.7041  0.3214 -0.4881
  268TMC3    C3 4104   0.464   4.190   0.458 -0.2799  0.0886  0.4537
  268TMC3    C4 4105   0.371   4.002   0.632  0.0229  0.4667 -0.2409
  268TMC3    C5 4106   0.504   4.019   0.612  0.3233 -0.2689  0.7325
  268TMC3    C6 4107   0.554   4.122   0.540 -0.1931 -0.5134 -0.0119
  268TMC3     C 4108   0.139   4.055   0.564 -0.0030 -0.3612 -0.5637
  268TMC3     O 4109   0.070   4.152   0.531  0.0494 -0.3119 -0.3167
  268TMC3     H 4110   0.265   4.214   0.388 -0.3018 -0.5792 -0.2053
  268TMC3    H1 4111   0.338   3.942   0.716  0.0750 -1.4011 -1.5549
  268TMC3    H2 4112   0.647   4.174   0.560 -1.3316  1.4011  0.2515
  268TMC3    C7 4113   0.593   3.951   0.707  0.3374  0.0706  0.7013
  268TMC3    C8 4114   0.493   4.295   0.364  0.6809 -0.0284 -0.4005
  268TMC3    O1 4115   0.542   3.891   0.801 -0.0095  0.0115  0.0973
  268TMC3    O2 4116   0.407   4.374   0.322  0.4838 -0.1668 -0.5103
  269MPD2     C 4117   0.574   3.217  15.452 -0.1605  0.1914 -0.0194
  269MPD2    C1 4118   0.496   3.294  15.540  0.6240 -0.1710 -0.2300
  269MPD2    C2 4119   0.482   3.436  15.525  0.2254 -0.0747 -0.3725
  269MPD2    C3 4120   0.558   3.493  15.424  0.9078  0.0054  0.0412
  269MPD2    C4 4121   0.630   3.414  15.338  0.1833 -0.1434  0.1273
  269MPD2    C5 4122   0.636   3.280  15.350 -0.2084  0.1920  0.6971
  269MPD2     H 4123   0.426   3.503  15.590  0.6274 -0.0377 -0.0683
  269MPD2    H1 4124   0.674   3.459  15.250 -0.3883  1.3729  0.6145
  269MPD2    H2 4125   0.577   3.109  15.461  1.7178  0.2569  0.1916
  269MPD2    H3 4126   0.694   3.230  15.273 -1.2702 -0.6410  0.4275
  269MPD2     N 4127   0.554   3.634  15.409 -0.1040 -0.0643  0.4617
  269MPD2    H5 4128   0.495   3.689  15.469  2.4655  1.1935  1.8270
  269MPD2    N1 4129   0.415   3.217  15.630  0.2549  0.4624 -0.5453
  269MPD2    H7 4130   0.434   3.118  15.622 -2.4970 -0.2327  1.4750
  270TMC3    C1 4131   0.216   3.158  15.753 -0.0234  0.4794  0.1340
  270TMC3    C2 4132   0.084   3.201  15.746 -0.4676  0.5111  0.0317
  270TMC3    C3 4133   4.728   3.106  15.738 -0.1714  0.3491  0.4705
  270TMC3    C4 4134   0.254   3.031  15.758 -0.0574 -0.8290  0.3904
  270TMC3    C5 4135   0.157   2.935  15.755  0.5489  0.4530  0.3454
  270TMC3    C6 4136   0.027   2.974  15.744  0.2912  0.0769  0.0628
  270TMC3     C 4137   0.312   3.259  15.711  0.3849  0.5184  0.6651
  270TMC3     O 4138   0.280   3.375  15.725  0.4504  0.5670 -0.3133
  270TMC3     H 4139   0.061   3.306  15.752 -0.7451  0.3435  1.9277
  270TMC3    H1 4140   0.357   3.005  15.782 -0.1040 -1.6396 -0.2959
  270TMC3    H2 4141   4.679   2.907  15.751  0.1481  0.1339 -1.2843
  270TMC3    C7 4142   0.195   2.808  15.711  0.1098  0.1208  0.1954
  270TMC3    C8 4143   4.625   3.132  15.636  0.3879  0.6943  0.1469
  270TMC3    O1 4144   0.311   2.796  15.667  0.3275  0.1150 -0.0397
  270TMC3    O2 4145   4.577   3.244  15.632 -0.0800 -0.0703  0.0323
  271MPD2     C 4146   4.171   3.065  13.837 -0.0261 -0.0123 -0.3140
  271MPD2    C1 4147   4.097   3.056  13.958  0.0026  0.3634  0.5665
  271MPD2    C2 4148   3.962   3.097  13.959  0.1021  0.0817 -0.0538
  271MPD2    C3 4149   3.901   3.132  13.840 -0.6086 -0.0058 -0.6257
  271MPD2    C4 4150   3.969   3.138  13.725  0.6114  1.0052 -0.3018
  271MPD2    C5 4151   4.098   3.102  13.725 -0.1010  0.0287  0.0458
  271MPD2     H 4152   3.910   3.096  14.054 -1.4972 -0.2255 -0.9364
  271MPD2    H1 4153   3.927   3.159  13.628  2.2761  0.4025 -1.1676
  271MPD2    H2 4154   4.274   3.036  13.820 -0.1199 -0.2429 -0.4914
  271MPD2    H3 4155   4.148   3.106  13.629 -0.1900 -0.3148 -0.0138
  271MPD2     N 4156   3.763   3.165  13.847 -0.0533 -0.3631 -0.2051
  271MPD2    H5 4157   3.728   3.166  13.942 -0.9991 -1.6048 -0.5235
  271MPD2    N1 4158   4.152   3.030  14.087 -0.4473 -0.1835  0.2451
  271MPD2    H7 4159   4.093   3.010  14.167 -2.4601 -0.3110 -1.2538
  272TMC3    C1 4160   4.330   2.962  14.227 -0.4057  0.5415  0.0519
  272TMC3    C2 4161   4.461   2.919  14.239  0.3983 -0.0307  0.6857
  272TMC3    C3 4162   4.503   2.881  14.361 -0.5801 -0.0648  0.0083
  272TMC3    C4 4163   4.244   2.968  14.333  0.0529  0.1448 -0.0809
  272TMC3    C5 4164   4.294   2.933  14.455  0.3513  0.9811  0.0974
  272TMC3    C6 4165   4.416   2.885  14.467 -0.3500 -0.5006 -0.0380
  272TMC3     C 4166   4.287   3.003  14.097 -0.0153  0.4621 -0.2864
  272TMC3     O 4167   4.383   3.013  14.022  0.3280  0.1004 -0.3353
  272TMC3     H 4168   4.533   2.921  14.159  0.9096 -0.9546  1.1275
  272TMC3    H1 4169   4.136   2.977  14.326 -0.0355 -0.6097  0.2671
  272TMC3    H2 4170   4.456   2.870  14.566 -1.4176  0.0746  0.4786
  272TMC3    C7 4171   4.247   3.021  14.561  0.3503  0.1320 -0.1638
  272TMC3    C8 4172   4.647   2.839  14.367 -1.1291 -0.4167 -0.0091
  272TMC3    O1 4173   4.127   3.044  14.562  0.2026 -0.0176  0.4286
  272TMC3    O2 4174   4.729   2.904  14.304 -0.1461 -0.3408  0.4266
  273MPD2     C 4175   0.593   1.204  12.151 -0.8372  0.1347 -0.5787
  273MPD2    C1 4176   0.711   1.208  12.084  0.6621  0.5382  0.5794
  273MPD2    C2 4177   0.712   1.228  11.948  0.5788 -0.3200 -0.5865
  273MPD2    C3 4178   0.603   1.282  11.885 -0.9154 -0.4439 -0.2049
  273MPD2    C4 4179   0.492   1.312  11.961  0.8170  0.0897  0.1357
  273MPD2    C5 4180   0.491   1.269  12.092 -0.5235  0.6750  0.0380
  273MPD2     H 4181   0.802   1.203  11.894 -0.2390 -0.7106 -1.7743
  273MPD2    H1 4182   0.407   1.359  11.913 -0.2319 -2.2171 -0.2443
  273MPD2    H2 4183   0.593   1.166  12.252 -0.2446  0.3350 -0.5020
  273MPD2    H3 4184   0.394   1.281  12.139 -0.5342  1.0300 -0.0806
  273MPD2     N 4185   0.598   1.322  11.744 -0.4803  0.3551 -0.7338
  273MPD2    H5 4186   0.508   1.351  11.709 -1.0923 -1.3920 -0.6116
  273MPD2    N1 4187   0.823   1.178  12.166  0.3401 -0.4162  0.5103
  273MPD2    H7 4188   0.807   1.150  12.262 -1.0341  1.9370  0.9664
  274TMC3    C1 4189   0.656   1.345  11.522  0.6238 -0.0022  0.0190
  274TMC3    C2 4190   0.529   1.332  11.483  0.6584 -0.0934 -0.9731
  274TMC3    C3 4191   0.492   1.405  11.369 -0.0682 -0.2083 -0.2639
  274TMC3    C4 4192   0.751   1.418  11.454  0.0215  0.7706  0.1231
  274TMC3    C5 4193   0.713   1.491  11.343  0.3832 -0.3084  0.3267
  274TMC3    C6 4194   0.581   1.483  11.301 -0.1182  0.2385 -0.2636
  274TMC3     C 4195   0.693   1.299  11.650 -0.5841 -0.4940  0.0478
  274TMC3     O 4196   0.815   1.281  11.661  1.1387 -0.4604 -0.3884
  274TMC3     H 4197   0.457   1.270  11.536  1.0307  0.5817  0.3182
  274TMC3    H1 4198   0.851   1.439  11.490 -1.0858  1.1882  2.9586
  274TMC3    H2 4199   0.541   1.567  11.245 -0.0286  0.4941  0.0559
  274TMC3    C7 4200   0.775   1.624  11.337 -0.5409 -0.8111 -0.6184
  274TMC3    C8 4201   0.359   1.390  11.320  0.0148 -0.2461  0.0316
  274TMC3    O1 4202   0.703   1.720  11.301  0.2593  0.7057  0.2107
  274TMC3    O2 4203   0.264   1.361  11.391 -0.8588 -0.4074  0.0723
  275MPD2     C 4204   1.294   3.998  14.444 -0.5781 -0.3989  0.3539
  275MPD2    C1 4205   1.266   3.874  14.501  0.3041  0.4073 -0.7961
  275MPD2    C2 4206   1.131   3.838  14.520 -0.1918  0.3420  0.4493
  275MPD2    C3 4207   1.031   3.924  14.484 -0.5792 -0.5900  0.2051
  275MPD2    C4 4208   1.065   4.042  14.421 -0.1899 -0.0361 -0.4507
  275MPD2    C5 4209   1.198   4.082  14.397  0.2583 -0.0861 -0.0879
  275MPD2     H 4210   1.118   3.733  14.545 -0.0478  0.1027 -0.4589
  275MPD2    H1 4211   0.989   4.116  14.399  1.0675  1.7357  1.1867
  275MPD2    H2 4212   1.397   4.029  14.431 -1.4089  1.4768 -1.8329
  275MPD2    H3 4213   1.222   4.181  14.360 -0.8634  0.5686  0.9364
  275MPD2     N 4214   0.894   3.890  14.516  0.1496 -0.4229  0.4291
  275MPD2    H5 4215   0.826   3.963  14.495 -1.7503 -2.5342 -0.8713
  275MPD2    N1 4216   1.351   3.780  14.560 -0.7720 -0.2348 -0.0694
  275MPD2    H7 4217   1.298   3.696  14.579 -3.7888  1.0309 -3.0019
  276TMC3    C1 4218   1.532   3.728  14.715  0.1094 -0.1914  0.0593
  276TMC3    C2 4219   1.443   3.637  14.775 -0.6238 -0.4233 -0.7373
  276TMC3    C3 4220   1.466   3.593  14.899 -0.0875  0.6231 -0.0075
  276TMC3    C4 4221   1.643   3.769  14.780 -0.0400  0.3022 -0.2969
  276TMC3    C5 4222   1.656   3.737  14.913 -0.2475  0.1812  0.1170
  276TMC3    C6 4223   1.572   3.649  14.969 -0.0122 -0.2572  0.0375
  276TMC3     C 4224   1.482   3.805  14.600  0.3954 -1.0691  0.0827
  276TMC3     O 4225   1.553   3.897  14.563 -0.4334  0.0470  0.3487
  276TMC3     H 4226   1.361   3.596  14.717 -1.8350 -0.0734  0.7130
  276TMC3    H1 4227   1.698   3.854  14.742  0.7489 -0.5188 -0.9676
  276TMC3    H2 4228   1.592   3.615  15.070 -0.5272 -1.5867 -0.3084
  276TMC3    C7 4229   1.698   3.851  14.996  0.2770 -0.3166  0.2931
  276TMC3    C8 4230   1.350   3.549  14.977 -0.5414  0.0221 -0.1218
  276TMC3    O1 4231   1.649   3.860  15.109  0.0065  0.0792 -0.0008
  276TMC3    O2 4232   1.366   3.569  15.098 -0.3595  0.3102  0.0104
  277MPD2     C 4233   2.713   2.981  13.475 -0.0901 -0.3652 -0.7278
  277MPD2    C1 4234   2.585   2.931  13.472  0.4945  0.7796  0.2365
  277MPD2    C2 4235   2.542   2.847  13.572  0.8294 -0.2175 -0.5542
  277MPD2    C3 4236   2.628   2.819  13.684 -0.7155  0.2222 -0.3557
  277MPD2    C4 4237   2.756   2.882  13.690  0.1099 -0.1345  0.0413
  277MPD2    C5 4238   2.796   2.960  13.582 -0.3458  0.1241 -0.0510
  277MPD2     H 4239   2.447   2.795  13.567  2.4664 -3.1438 -1.2775
  277MPD2    H1 4240   2.814   2.892  13.781 -0.8971  0.4664  0.6138
  277MPD2    H2 4241   2.752   3.046  13.397 -2.7427  0.6924 -1.2008
  277MPD2    H3 4242   2.889   3.015  13.591  0.3569 -0.9207 -0.8954
  277MPD2     N 4243   2.568   2.750  13.794 -0.2248  0.0999  1.4631
  277MPD2    H5 4244   2.475   2.709  13.791 -0.8707  1.7681 -1.0349
  277MPD2    N1 4245   2.500   2.974  13.363 -0.1964 -0.0953  0.0922
  277MPD2    H7 4246   2.532   3.020  13.279 -1.1338  1.0641  0.3690
  278TMC3    C1 4247   2.552   2.663  13.997  0.7953  0.0965  0.8442
  278TMC3    C2 4248   2.597   2.588  14.096  0.3544  0.1717 -0.2222
  278TMC3    C3 4249   2.509   2.525  14.176  0.3000  0.5304  0.3538
  278TMC3    C4 4250   2.415   2.686  13.983  0.6052  0.0271  0.2011
  278TMC3    C5 4251   2.331   2.627  14.070  0.8996 -0.1934  0.2426
  278TMC3    C6 4252   2.372   2.536  14.158  0.0024 -0.7844 -0.0017
  278TMC3     C 4253   2.647   2.704  13.896  0.7998  0.4558 -0.1393
  278TMC3     O 4254   2.767   2.714  13.919 -0.8123  0.9182  0.1556
  278TMC3     H 4255   2.703   2.572  14.108  0.1112 -2.0899 -1.0941
  278TMC3    H1 4256   2.379   2.754  13.907 -3.1967 -1.3441  0.7967
  278TMC3    H2 4257   2.303   2.483  14.223 -1.1252 -1.5213 -1.7847
  278TMC3    C7 4258   2.192   2.626  14.048 -0.8965  0.7374  0.1657
  278TMC3    C8 4259   2.561   2.406  14.246 -0.2018 -0.6356  0.5248
  278TMC3    O1 4260   2.122   2.621  14.151 -0.1883 -0.1409  0.3772
  278TMC3    O2 4261   2.677   2.415  14.285  0.1650 -0.0617  0.3641
  279MPD2     C 4262   1.801   2.195  17.624  0.5167  0.9782 -0.1992
  279MPD2    C1 4263   1.762   2.305  17.709  1.1824  0.0090  0.1259
  279MPD2    C2 4264   1.777   2.434  17.665  1.1488 -0.8240  0.3192
  279MPD2    C3 4265   1.836   2.455  17.540 -0.3434  0.1988  0.1638
  279MPD2    C4 4266   1.869   2.351  17.454  0.0313 -0.1914  0.0267
  279MPD2    C5 4267   1.846   2.221  17.497 -0.0785  0.2402 -0.2921
  279MPD2     H 4268   1.759   2.517  17.733 -0.0180 -0.7622 -0.0699
  279MPD2    H1 4269   1.924   2.361  17.361  0.2510  0.2984  0.2060
  279MPD2    H2 4270   1.809   2.092  17.657 -1.8700  0.3840 -1.4321
  279MPD2    H3 4271   1.874   2.143  17.427 -2.0184  0.3960 -1.2221
  279MPD2     N 4272   1.850   2.586  17.483 -0.2206 -0.4239 -0.2288
  279MPD2    H5 4273   1.876   2.593  17.386  2.2344  0.3337  0.4897
  279MPD2    N1 4274   1.698   2.265   0.079  0.2137  0.5596 -0.2151
  279MPD2    H7 4275   1.738   2.181   0.120  1.0948  1.4827  0.7954
  280TMC3    C1 4276   1.502   2.421   0.085  0.6493  0.4384  0.3658
  280TMC3    C2 4277   1.451   2.368  17.719  0.1182  0.0552  0.7956
  280TMC3    C3 4278   1.338   2.433  17.661 -0.4013  0.8814  0.1712
  280TMC3    C4 4279   1.443   2.521   0.153  0.4382  0.0619  0.3367
  280TMC3    C5 4280   1.334   2.585   0.095 -0.2230 -0.2036 -0.0052
  280TMC3    C6 4281   1.290   2.543  17.719  0.1905  0.1056 -0.0156
  280TMC3     C 4282   1.610   2.343   0.154  0.5347 -0.4825  0.0399
  280TMC3     O 4283   1.580   2.321   0.272 -0.7310  0.2963 -0.0990
  280TMC3     H 4284   1.502   2.283  17.676 -0.5199 -1.7346  3.5841
  280TMC3    H1 4285   1.474   2.551   0.252  1.6381 -2.3330  0.6964
  280TMC3    H2 4286   1.216   2.611  17.677  0.9761 -0.5108 -2.4397
  280TMC3    C7 4287   1.306   2.721   0.152  0.2903  0.1397 -0.2855
  280TMC3    C8 4288   1.351   2.461  17.517  0.2425  0.0696 -0.3298
  280TMC3    O1 4289   1.382   2.764   0.239  0.2460 -0.1543 -0.4456
  280TMC3    O2 4290   1.321   2.569  17.478  0.0716 -0.4943 -0.5365
  281TMC3    C1 4291   0.622   3.482  13.463  0.3318  0.7409  0.5594
  281TMC3    C2 4292   0.689   3.562  13.367  0.2665 -0.5927  0.0517
  281TMC3    C3 4293   0.699   3.503  13.241  0.2383  0.1574  0.0132
  281TMC3    C4 4294   0.575   3.355  13.435  1.2606  0.0704 -0.9716
  281TMC3    C5 4295   0.570   3.317  13.306 -0.4426  0.3264 -0.3364
  281TMC3    C6 4296   0.634   3.386  13.209 -0.0092 -0.5518  0.1335
  281TMC3     C 4297   0.591   3.527  13.598 -0.0170  0.3962 -0.9708
  281TMC3     O 4298   0.548   3.450  13.681  0.1685 -0.2246 -0.0369
  281TMC3     H 4299   0.751   3.647  13.392  1.6053 -1.3063 -0.8641
  281TMC3    H1 4300   0.530   3.298  13.516  1.4968  1.9201  0.4505
  281TMC3    H2 4301   0.623   3.337  13.113  1.3583  0.0715 -0.3446
  281TMC3    C7 4302   0.478   3.217  13.268  0.1055  0.3630 -0.4491
  281TMC3    C8 4303   0.674   3.603  13.140  0.3851  0.7983  0.2401
  281TMC3    O1 4304   0.430   3.224  13.155 -0.0406  0.5645  0.2551
  281TMC3    O2 4305   0.673   3.553  13.028 -0.0092  0.1834  0.2462
  282MPD2     C 4306   2.145   0.001  14.961  0.1378 -0.5790 -0.3182
  282MPD2    C1 4307   2.075   4.662  15.061 -0.4302 -0.4768 -0.1089
  282MPD2    C2 4308   1.968   4.589  15.020  0.2633  0.7489 -0.0600
  282MPD2    C3 4309   1.949   4.565  14.885  0.1647  0.0794  0.4637
  282MPD2    C4 4310   2.030   4.621  14.793  0.6715 -0.3053 -0.6209
  282MPD2    C5 4311   2.132   4.709  14.831 -0.0291  0.6779 -0.6808
  282MPD2     H 4312   1.894   4.560  15.094  0.1184  0.0490 -0.4818
  282MPD2    H1 4313   2.013   4.608  14.687  0.8075 -1.4592 -0.4975
  282MPD2    H2 4314   2.222   0.076  14.974  0.8481 -1.0929 -1.6488
  282MPD2    H3 4315   2.197   0.025  14.763  0.8933  0.0824 -0.2758
  282MPD2     N 4316   1.834   4.483  14.857 -0.2984  0.7537  0.4303
  282MPD2    H5 4317   1.782   4.446  14.937  0.2036  2.4604  1.5522
  282MPD2    N1 4318   2.100   4.668  15.200  0.0390 -0.1179 -0.1766
  282MPD2    H7 4319   2.047   4.599  15.253  1.2052  0.1026  1.2879
  283TMC3    C1 4320   2.217   4.721  15.401  0.4546  0.4682 -1.0851
  283TMC3    C2 4321   2.282   0.079  15.472 -0.2338  0.9308  0.2659
  283TMC3    C3 4322   2.315   0.047  15.598  0.2185  0.2056 -0.4109
  283TMC3    C4 4323   2.196   4.593  15.446 -0.3399  0.5254  0.1427
  283TMC3    C5 4324   2.254   4.561  15.574  0.1437  0.5445  0.3736
  283TMC3    C6 4325   2.310   4.657  15.652 -0.5844 -0.3767 -1.1346
  283TMC3     C 4326   2.201   0.008  15.261  0.1478  0.5087 -0.4512
  283TMC3     O 4327   2.249   0.109  15.209  0.0192  0.4872  0.4080
  283TMC3     H 4328   2.277   0.184  15.446  1.7968  1.2440  1.1402
  283TMC3    H1 4329   2.164   4.512  15.382 -0.2336 -0.5637  1.4609
  283TMC3    H2 4330   2.347   4.640  15.752  1.0355  0.2441 -1.6305
  283TMC3    C7 4331   2.222   4.435  15.650  0.4594  0.4560  0.5566
  283TMC3    C8 4332   2.381   0.149  15.680 -0.6751  0.4245 -0.1512
  283TMC3    O1 4333   2.235   4.429  15.771  0.6530  0.3643 -0.1604
  283TMC3    O2 4334   2.399   0.144  15.799  0.3267 -0.1800 -0.1768
  284MPD2     C 4335   0.081   3.483  12.150  0.0290  0.2255 -0.6973
  284MPD2    C1 4336   0.181   3.455  12.064 -0.7035 -0.6606  0.0850
  284MPD2    C2 4337   0.300   3.402  12.112  0.7598 -0.1402 -0.5644
  284MPD2    C3 4338   0.323   3.397  12.247  0.3299 -0.6715 -0.2596
  284MPD2    C4 4339   0.220   3.432  12.329  0.1635 -0.2977  0.6698
  284MPD2    C5 4340   0.100   3.465  12.285  0.5211 -0.2824 -0.5703
  284MPD2     H 4341   0.382   3.373  12.047 -1.3237 -0.4372 -3.0844
  284MPD2    H1 4342   0.229   3.434  12.437 -3.4356 -0.2196  0.9864
  284MPD2    H2 4343   4.718   3.507  12.118  0.8304  2.5732 -1.4009
  284MPD2    H3 4344   0.024   3.470  12.362  2.8715  0.0175  1.7018
  284MPD2     N 4345   0.454   3.371  12.303 -0.5006  0.6545  0.2473
  284MPD2    H5 4346   0.461   3.376  12.404  1.3861  2.6200  0.0293
  284MPD2    N1 4347   0.176   3.477  11.924  0.0953 -0.3142  0.2459
  284MPD2    H7 4348   0.256   3.440  11.873 -0.5843 -1.4025 -0.0461
  285TMC3    C1 4349   0.125   3.578  11.727  0.3630 -0.2583  0.9208
  285TMC3    C2 4350   0.210   3.487  11.668  0.3137 -0.2023  0.1547
  285TMC3    C3 4351   0.305   3.531  11.590 -0.0988  0.0709 -0.3622
  285TMC3    C4 4352   0.138   3.709  11.701 -0.1325  0.2746 -0.0134
  285TMC3    C5 4353   0.247   3.747  11.629 -0.3950 -0.7747  0.2150
  285TMC3    C6 4354   0.338   3.660  11.580  0.2200  0.0405 -0.0266
  285TMC3     C 4355   0.077   3.545  11.860 -0.2785  0.2264 -0.1963
  285TMC3     O 4356   4.716   3.598  11.908 -0.3502 -0.1879 -0.1878
  285TMC3     H 4357   0.185   3.383  11.681 -0.2804  0.0421  0.9556
  285TMC3    H1 4358   0.083   3.781  11.761 -1.0652 -1.7517  1.5870
  285TMC3    H2 4359   0.423   3.693  11.520  0.0873  3.4255  1.6592
  285TMC3    C7 4360   0.298   3.876  11.684 -0.1172  0.3166 -0.3450
  285TMC3    C8 4361   0.392   3.427  11.530  0.7464  0.0044 -0.0732
  285TMC3    O1 4362   0.218   3.965  11.701 -0.6034 -0.0004  0.8222
  285TMC3    O2 4363   0.329   3.322  11.513 -0.3026  0.3162  0.4801
  286MPD2     C 4364   0.658   2.037   0.457  0.3734  0.2075  0.1399
  286MPD2    C1 4365   0.690   2.069   0.586  0.7584 -0.3066 -0.2354
  286MPD2    C2 4366   0.823   2.064   0.631  0.3334  0.4253  0.6640
  286MPD2    C3 4367   0.917   2.008   0.549  0.3533 -0.1089  0.3282
  286MPD2    C4 4368   0.877   1.966   0.426 -0.0591  0.2657 -1.1118
  286MPD2    C5 4369   0.752   1.980   0.375  0.1428  0.3017  0.9077
  286MPD2     H 4370   0.847   2.093   0.732  1.6626 -1.8342  0.9840
  286MPD2    H1 4371   0.961   1.937   0.364  0.3520  1.0172 -0.8992
  286MPD2    H2 4372   0.555   2.044   0.423 -0.7942 -1.8343  3.2982
  286MPD2    H3 4373   0.729   1.953   0.273  0.5824 -1.9670  1.4110
  286MPD2     N 4374   1.046   1.970   0.595  0.2269 -0.5109  0.8074
  286MPD2    H5 4375   1.097   1.908   0.532 -0.1925 -1.1806  1.1230
  286MPD2    N1 4376   0.599   2.126   0.679  0.0409 -0.1030  0.3198
  286MPD2    H7 4377   0.638   2.151   0.769 -2.0063 -2.5942  1.9182
  287TMC3    C1 4378   1.229   1.927   0.742 -0.0909  0.1997  0.1463
  287TMC3    C2 4379   1.250   1.806   0.681 -0.0325 -0.3787  0.4530
  287TMC3    C3 4380   1.366   1.745   0.721  0.0160  0.3013  0.2245
  287TMC3    C4 4381   1.313   1.973   0.841 -0.3052 -0.1368 -0.0337
  287TMC3    C5 4382   1.413   1.897   0.883  0.2674 -0.7560  0.1742
  287TMC3    C6 4383   1.445   1.776   0.825 -0.0092  0.3148 -0.1927
  287TMC3     C 4384   1.109   2.001   0.711 -0.3544 -0.6679 -0.1674
  287TMC3     O 4385   1.078   2.091   0.785 -0.3718  0.0239 -0.4728
  287TMC3     H 4386   1.181   1.761   0.611  0.5824 -1.3206  0.4615
  287TMC3    H1 4387   1.293   2.066   0.895 -1.5749 -1.0780  1.1113
  287TMC3    H2 4388   1.524   1.707   0.853  0.8863  0.7141 -1.7470
  287TMC3    C7 4389   1.456   1.916   1.023 -0.4940 -0.7185  0.1884
  287TMC3    C8 4390   1.366   1.606   0.677 -0.3289  0.5898 -0.1693
  287TMC3    O1 4391   1.423   2.019   1.082  0.0696  0.4941 -0.2931
  287TMC3    O2 4392   1.265   1.547   0.700  0.7086  0.0952  0.4774
  288TMC3    C1 4393   2.779   2.626  14.510  0.4992 -0.7714  0.0729
  288TMC3    C2 4394   2.692   2.572  14.595  0.0606 -0.2200 -0.1651
  288TMC3    C3 4395   2.572   2.633  14.613 -0.2545 -0.0629 -0.5516
  288TMC3    C4 4396   2.763   2.744  14.445  0.5805  0.2354 -0.8685
  288TMC3    C5 4397   2.632   2.798  14.452  0.2203 -0.2597  0.1382
  288TMC3    C6 4398   2.540   2.753  14.548 -0.0780  0.1482  1.2080
  288TMC3     C 4399   2.897   2.539  14.485 -0.1460 -0.5637 -0.0772
  288TMC3     O 4400   2.897   2.438  14.555  0.0720 -0.2984 -0.2079
  288TMC3     H 4401   2.731   2.508  14.673 -1.3816  0.8097  1.3887
  288TMC3    H1 4402   2.832   2.767  14.364  0.5182 -0.2843 -1.0748
  288TMC3    H2 4403   2.444   2.802  14.543 -1.3580 -2.4888 -0.1989
  288TMC3    C7 4404   2.574   2.878  14.348  0.4944 -0.8702 -0.7911
  288TMC3    C8 4405   2.490   2.606  14.728 -0.0343 -0.5084  0.4000
  288TMC3    O1 4406   2.452   2.878  14.328 -0.1529  0.4439  0.2896
  288TMC3    O2 4407   2.426   2.693  14.778 -0.0377  0.3492 -0.4901
  289MPD2     C 4408   2.973   1.427  14.541  0.8229  0.0681  0.2119
  289MPD2    C1 4409   2.926   1.542  14.476 -0.6015  0.5056  0.2752
  289MPD2    C2 4410   2.786   1.575  14.474 -0.6337 -0.5953 -0.1531
  289MPD2    C3 4411   2.700   1.489  14.536  0.2031  0.2330  0.2884
  289MPD2    C4 4412   2.746   1.363  14.578 -0.7553 -0.4544  0.4940
  289MPD2    C5 4413   2.884   1.339  14.581 -0.1903 -0.0487  0.2759
  289MPD2     H 4414   2.749   1.668  14.432 -1.3552 -1.0595 -0.5505
  289MPD2    H1 4415   2.672   1.289  14.605 -1.4571  0.9444  2.3619
  289MPD2    H2 4416   3.080   1.409  14.541  0.3770 -2.6244 -0.6652
  289MPD2    H3 4417   2.916   1.241  14.616  1.2172 -0.1649 -1.3397
  289MPD2     N 4418   2.555   1.504  14.537  0.2344 -0.1616  0.1547
  289MPD2    H5 4419   2.493   1.428  14.561 -0.4065  0.3110  0.0151
  289MPD2    N1 4420   3.013   1.618  14.396  0.0920  0.5814  0.1449
  289MPD2    H7 4421   3.112   1.598  14.408  0.2125  0.2342 -1.4655
  290TMC3    C1 4422   2.360   1.622  14.468  0.3646 -0.0390  0.4896
  290TMC3    C2 4423   2.308   1.742  14.421 -0.1869 -0.3259  0.3369
  290TMC3    C3 4424   2.176   1.741  14.379  0.3177  0.1177  0.0292
  290TMC3    C4 4425   2.288   1.504  14.461 -0.6458 -0.2996  0.0134
  290TMC3    C5 4426   2.167   1.506  14.398  0.3012  0.6439 -0.3954
  290TMC3    C6 4427   2.106   1.622  14.357 -0.6612 -0.2915  0.2197
  290TMC3     C 4428   2.494   1.627  14.514 -0.2866  0.3319  0.4991
  290TMC3     O 4429   2.548   1.740  14.514 -0.2421 -0.2632 -0.9153
  290TMC3     H 4430   2.357   1.834  14.451  0.7328 -0.6441 -0.2042
  290TMC3    H1 4431   2.322   1.409  14.500 -1.3919 -1.1197 -1.3436
  290TMC3    H2 4432   1.998   1.630  14.347 -0.5351 -0.5048 -1.3207
  290TMC3    C7 4433   2.082   1.387  14.385  0.2250 -0.0140  0.5570
  290TMC3    C8 4434   2.124   1.856  14.306 -0.0103  0.4481  0.4828
  290TMC3    O1 4435   1.965   1.418  14.399  0.6539 -0.5112  0.1604
  290TMC3    O2 4436   2.033   1.822  14.228  0.0693 -0.5138 -0.2314
  291MPD2     C 4437   1.738   1.296  17.717  0.6890  0.1642  0.5072
  291MPD2    C1 4438   1.809   1.283   0.085  0.3881  0.5208  0.3468
  291MPD2    C2 4439   1.893   1.383   0.116 -0.9672  0.3758  0.7502
  291MPD2    C3 4440   1.891   1.497   0.038 -0.3570  0.5830 -0.5482
  291MPD2    C4 4441   1.806   1.516  17.684  0.1959  0.1647  0.8501
  291MPD2    C5 4442   1.730   1.406  17.642  0.6948 -0.6919 -0.7499
  291MPD2     H 4443   1.951   1.367   0.207 -2.0748  0.7919  1.5345
  291MPD2    H1 4444   1.798   1.613  17.636  2.3802  1.1183  2.4623
  291MPD2    H2 4445   1.673   1.215  17.685  0.5558  0.2244  0.6228
  291MPD2    H3 4446   1.677   1.414  17.548  0.7576  1.8087 -0.5601
  291MPD2     N 4447   1.971   1.608   0.074  0.3761 -0.7855 -0.1377
  291MPD2    H5 4448   1.942   1.693   0.027 -2.6564 -1.4867  0.4435
  291MPD2    N1 4449   1.798   1.170   0.179 -0.1825 -0.6479  0.2574
  291MPD2    H7 4450   1.870   1.174   0.250 -0.8008 -0.5615  0.8827
  292TMC3    C1 4451   1.731   0.972   0.294  0.7589 -0.6462 -0.2458
  292TMC3    C2 4452   1.737   1.033   0.418  0.5969 -0.5137  0.4147
  292TMC3    C3 4453   1.707   0.946   0.522  0.7717 -0.4106 -0.6195
  292TMC3    C4 4454   1.712   0.839   0.273  0.2134 -0.1642 -0.1574
  292TMC3    C5 4455   1.690   0.757   0.381  0.2089  0.4385 -1.2384
  292TMC3    C6 4456   1.680   0.809   0.508  0.5283  0.4541 -0.3900
  292TMC3     C 4457   1.721   1.059   0.174  0.1160  0.8017 -0.3220
  292TMC3     O 4458   1.633   1.039   0.094  0.1239  0.1900 -0.0109
  292TMC3     H 4459   1.768   1.135   0.434  0.8297 -0.9842  2.9160
  292TMC3    H1 4460   1.695   0.800   0.173 -1.2749  0.5051 -0.1779
  292TMC3    H2 4461   1.698   0.743   0.592 -0.6715  0.9733  0.2611
  292TMC3    C7 4462   1.674   0.620   0.365 -0.0413  0.8666 -0.5996
  292TMC3    C8 4463   1.720   1.003   0.654 -0.5702  0.5610 -0.2656
  292TMC3    O1 4464   1.716   0.578   0.260 -0.1430  0.0543 -0.1552
  292TMC3    O2 4465   1.745   1.123   0.663  0.0185 -0.1412 -0.0571
  293MPD2     C 4466   3.430   2.556  12.741 -0.1602 -0.4595 -0.7372
  293MPD2    C1 4467   3.358   2.594  12.851 -1.0169 -0.4406  0.3990
  293MPD2    C2 4468   3.426   2.634  12.965  0.2606  0.0833 -0.9167
  293MPD2    C3 4469   3.560   2.664  12.953  0.1118 -0.1034 -0.1829
  293MPD2    C4 4470   3.622   2.640  12.836 -0.1591 -0.0659 -0.0098
  293MPD2    C5 4471   3.558   2.585  12.733 -0.3958  0.0381 -0.4004
  293MPD2     H 4472   3.379   2.650  13.062  1.7432  2.6281 -0.6009
  293MPD2    H1 4473   3.726   2.662  12.816 -0.6030  0.4677 -1.7803
  293MPD2    H2 4474   3.389   2.504  12.655 -2.5444  0.8794 -0.4083
  293MPD2    H3 4475   3.612   2.557  12.643  0.0460 -0.7014  0.0890
  293MPD2     N 4476   3.622   2.733  13.063 -0.1610  0.8283 -0.0020
  293MPD2    H5 4477   3.569   2.750  13.148 -1.9338 -0.0307 -0.9330
  293MPD2    N1 4478   3.227   2.557  12.843  0.5081 -0.1428  0.0627
  293MPD2    H7 4479   3.199   2.500  12.764  2.1647 -0.1547 -0.5147
  294TMC3    C1 4480   3.009   2.564  12.885 -0.2312 -0.1959  0.0040
  294TMC3    C2 4481   2.991   2.446  12.808 -0.2136 -0.3189  0.4411
  294TMC3    C3 4482   2.890   2.441  12.713 -0.1255  0.6496  0.3044
  294TMC3    C4 4483   2.921   2.663  12.870 -0.3817  0.4307 -0.2106
  294TMC3    C5 4484   2.833   2.658  12.763 -0.2887 -0.1055  1.0171
  294TMC3    C6 4485   2.811   2.549  12.685  0.4288  0.3844  0.4817
  294TMC3     C 4486   3.135   2.594  12.939 -0.2073 -0.0064  0.8798
  294TMC3     O 4487   3.149   2.676  13.027  0.2187 -0.0620  0.0805
  294TMC3     H 4488   3.058   2.361  12.808 -0.4751 -0.5231 -0.5999
  294TMC3    H1 4489   2.935   2.756  12.924  2.0471  0.2413 -0.5143
  294TMC3    H2 4490   2.734   2.563  12.610  1.2618  0.5463 -0.3513
  294TMC3    C7 4491   2.783   2.781  12.702 -0.1804 -0.4808  0.0541
  294TMC3    C8 4492   2.896   2.332  12.614 -0.5300  0.4679  0.8920
  294TMC3    O1 4493   2.708   2.846  12.776  0.2636 -0.2806 -0.5492
  294TMC3    O2 4494   3.000   2.274  12.589 -0.0225 -0.0607 -0.5512
  295MPD2     C 4495   3.934   0.766   1.087  0.3038 -0.4703  0.0131
  295MPD2    C1 4496   3.999   0.870   1.031  0.4520 -0.5755  0.2540
  295MPD2    C2 4497   3.999   0.993   1.100 -0.9276  0.9592 -0.6582
  295MPD2    C3 4498   3.932   1.006   1.219 -0.3701  0.5291  0.2107
  295MPD2    C4 4499   3.875   0.893   1.279  0.9919  0.4466 -0.6504
  295MPD2    C5 4500   3.877   0.771   1.208  0.7224  0.2579  0.3593
  295MPD2     H 4501   4.059   1.071   1.055  0.1200  0.8012  0.4864
  295MPD2    H1 4502   3.838   0.903   1.380  1.1943  1.2560 -0.6564
  295MPD2    H2 4503   3.930   0.672   1.033  0.1358 -0.5165  0.1065
  295MPD2    H3 4504   3.825   0.680   1.238 -2.1424  1.8490  0.1914
  295MPD2     N 4505   3.952   1.117   1.299  0.0365 -0.2820 -0.3479
  295MPD2    H5 4506   3.918   1.102   1.393  1.6950 -0.5429  0.2152
  295MPD2    N1 4507   4.074   0.864   0.905 -0.1101  0.3185 -0.0684
  295MPD2    H7 4508   4.094   0.955   0.867 -1.7907  0.7890  0.1819
  296TMC3    C1 4509   4.045   1.306   1.389  0.0067 -0.4431  0.6719
  296TMC3    C2 4510   4.056   1.442   1.383  0.9908 -0.1455  0.4085
  296TMC3    C3 4511   4.106   1.506   1.494  0.6416  1.3598 -0.1357
  296TMC3    C4 4512   4.095   1.233   1.492 -0.7975 -0.0523  0.0265
  296TMC3    C5 4513   4.133   1.301   1.600 -0.2937 -0.1894 -0.6253
  296TMC3    C6 4514   4.146   1.437   1.601 -0.4091 -0.5653 -0.2293
  296TMC3     C 4515   4.008   1.236   1.267 -0.1133 -0.1783 -0.7496
  296TMC3     O 4516   4.034   1.290   1.158 -0.0161  0.4869 -0.6081
  296TMC3     H 4517   4.025   1.492   1.292 -0.7297 -1.0664  0.4881
  296TMC3    H1 4518   4.118   1.130   1.465 -0.6026 -0.5115  1.9493
  296TMC3    H2 4519   4.178   1.487   1.692  0.5427 -0.1752 -0.7773
  296TMC3    C7 4520   4.202   1.225   1.706  0.2815  0.1766 -0.4119
  296TMC3    C8 4521   4.161   1.634   1.472  0.4671  0.3012  0.0121
  296TMC3    O1 4522   4.272   1.290   1.783 -0.2528 -0.2684 -0.2145
  296TMC3    O2 4523   4.269   1.652   1.532 -0.3654  0.1140  0.1596
  297MPD2     C 4524   1.696   3.179  16.401  0.1154  0.0337 -0.9385
  297MPD2    C1 4525   1.663   3.262  16.295 -0.1438 -0.7650 -0.4225
  297MPD2    C2 4526   1.753   3.350  16.249  0.2786  0.3285 -0.3992
  297MPD2    C3 4527   1.878   3.349  16.308  0.0997  0.2246 -0.2448
  297MPD2    C4 4528   1.913   3.268  16.410  0.4750  0.2321 -0.2995
  297MPD2    C5 4529   1.823   3.175  16.452 -0.3127  0.1199 -0.5152
  297MPD2     H 4530   1.729   3.414  16.164  2.4431  0.1783 -1.1179
  297MPD2    H1 4531   2.010   3.267  16.459  0.0779  1.6745  0.5309
  297MPD2    H2 4532   1.632   3.104  16.446 -1.3941  0.2972 -2.6470
  297MPD2    H3 4533   1.835   3.118  16.544  0.4958  0.6681 -0.2804
  297MPD2     N 4534   1.985   3.434  16.268 -0.4801 -0.4420 -0.0397
  297MPD2    H5 4535   2.062   3.443  16.333  1.2806  3.3883 -2.6793
  297MPD2    N1 4536   1.540   3.249  16.226 -0.2566 -0.1202 -0.1155
  297MPD2    H7 4537   1.529   3.308  16.144 -1.3877  2.6690  2.0048
  298TMC3    C1 4538   1.316   3.195  16.184  0.6931  0.3445  0.0265
  298TMC3    C2 4539   1.330   3.248  16.059 -0.3662 -0.3926 -0.6538
  298TMC3    C3 4540   1.212   3.293  16.008  0.7238 -0.6572 -0.1827
  298TMC3    C4 4541   1.204   3.184  16.262  0.0870  0.6713  0.8856
  298TMC3    C5 4542   1.092   3.237  16.205  0.6647  0.1135 -0.6838
  298TMC3    C6 4543   1.090   3.292  16.078  0.2179  0.2358 -0.3069
  298TMC3     C 4544   1.437   3.157  16.258 -0.5760  0.5035 -0.7100
  298TMC3     O 4545   1.425   3.071  16.350  0.3438 -0.1085 -0.0448
  298TMC3     H 4546   1.412   3.227  15.991 -0.3338 -0.9161 -0.4530
  298TMC3    H1 4547   1.205   3.137  16.359 -1.0708 -0.6129  0.2803
  298TMC3    H2 4548   0.999   3.331  16.033 -2.6299 -2.9719  2.6679
  298TMC3    C7 4549   1.031   3.320  16.304 -0.5370  0.2193 -0.3029
  298TMC3    C8 4550   1.207   3.345  15.873 -0.0123 -0.2684 -0.2365
  298TMC3    O1 4551   1.031   3.275  16.419 -0.1827 -0.0876 -0.5709
  298TMC3    O2 4552   1.095   3.334  15.820 -0.8886  0.0043  0.3595
  299MPD2     C 4553   1.367   3.368  10.660 -0.4219  0.3556 -0.1921
  299MPD2    C1 4554   1.392   3.473  10.575 -0.1481 -0.1338 -0.6374
  299MPD2    C2 4555   1.324   3.477  10.453 -0.2283 -0.2657 -0.1597
  299MPD2    C3 4556   1.223   3.383  10.432 -0.0205  0.1047 -0.1324
  299MPD2    C4 4557   1.199   3.282  10.514  0.6245  0.1871 -0.4755
  299MPD2    C5 4558   1.263   3.282  10.633  0.0348 -0.0690 -0.6272
  299MPD2     H 4559   1.351   3.553  10.381 -2.1182 -0.1119 -0.7156
  299MPD2    H1 4560   1.116   3.217  10.489  0.2699 -0.1725  1.6936
  299MPD2    H2 4561   1.427   3.352  10.750  0.4270 -2.4065 -1.2532
  299MPD2    H3 4562   1.242   3.209  10.711 -0.8936 -0.3347 -1.1283
  299MPD2     N 4563   1.143   3.382  10.315 -0.6017  0.0220 -0.6204
  299MPD2    H5 4564   1.075   3.310  10.296 -2.0173  0.3583  3.1256
  299MPD2    N1 4565   1.484   3.577  10.614 -0.4535  0.3401  0.3560
  299MPD2    H7 4566   1.544   3.558  10.694 -0.0173 -1.3371 -0.3836
  300TMC3    C1 4567   1.048   3.446  10.118  0.1233 -0.1874 -0.0584
  300TMC3    C2 4568   0.996   3.555  10.067 -0.3295 -0.4900  0.9313
  300TMC3    C3 4569   0.869   3.557  10.017  0.6104  0.0386 -0.5117
  300TMC3    C4 4570   0.987   3.325  10.107  0.4593  0.0049 -0.0950
  300TMC3    C5 4571   0.862   3.327  10.055  0.0786 -0.6641 -0.7337
  300TMC3    C6 4572   0.800   3.439  10.013 -0.0598  0.1850 -0.2038
  300TMC3     C 4573   1.147   3.477  10.216 -0.1342  0.0858  0.4914
  300TMC3     O 4574   1.181   3.595  10.225 -0.7297  0.2790 -1.2357
  300TMC3     H 4575   1.052   3.648  10.061 -1.4224  0.0973 -0.1290
  300TMC3    H1 4576   1.019   3.226  10.139 -0.9649 -0.3120  0.3606
  300TMC3    H2 4577   0.697   3.439   9.980  0.2207  1.1742 -1.0963
  300TMC3    C7 4578   0.788   3.206  10.043  0.3910 -0.3280  0.1861
  300TMC3    C8 4579   0.780   3.668  10.043  0.3207  0.0876  0.7602
  300TMC3    O1 4580   0.728   3.178   9.942 -0.3215  0.0876  0.6972
  300TMC3    O2 4581   0.673   3.669   9.982  0.1460  0.0799  0.9238
  301MPD2     C 4582   3.698   4.146   1.284 -0.1739 -0.1193 -0.1139
  301MPD2    C1 4583   3.593   4.099   1.212 -0.4165 -0.3253  0.1197
  301MPD2    C2 4584   3.570   3.962   1.198 -0.5405 -0.1886  0.5658
  301MPD2    C3 4585   3.657   3.875   1.255  0.0623 -0.0485  0.1694
  301MPD2    C4 4586   3.761   3.923   1.332 -0.7843 -0.5150 -0.1429
  301MPD2    C5 4587   3.779   4.055   1.360  0.0607  0.1692  0.4435
  301MPD2     H 4588   3.485   3.936   1.136 -0.6574 -0.0305  0.6598
  301MPD2    H1 4589   3.832   3.861   1.387 -1.0957 -1.8819 -1.2875
  301MPD2    H2 4590   3.714   4.252   1.303  1.4695 -0.0400 -1.8579
  301MPD2    H3 4591   3.841   4.095   1.440  1.8616 -1.3242 -0.1964
  301MPD2     N 4592   3.650   3.737   1.230  0.2253 -0.2056  0.2402
  301MPD2    H5 4593   3.722   3.679   1.272 -0.9458 -0.4622  1.8646
  301MPD2    N1 4594   3.495   4.182   1.147 -0.0117 -0.4656 -0.0757
  301MPD2    H7 4595   3.418   4.133   1.104 -0.6912 -0.0847  0.7059
  302TMC3    C1 4596   3.600   3.527   1.122  0.0247  0.8732  0.2402
  302TMC3    C2 4597   3.722   3.478   1.160 -0.0707  0.0694 -0.0992
  302TMC3    C3 4598   3.772   3.368   1.099 -0.0116 -0.0092  0.0858
  302TMC3    C4 4599   3.520   3.455   1.037 -1.1076  0.2837  0.3404
  302TMC3    C5 4600   3.562   3.339   1.003 -0.4961 -0.1275  0.4671
  302TMC3    C6 4601   3.688   3.291   1.031  0.2873  0.2687  0.5756
  302TMC3     C 4602   3.563   3.667   1.148  0.3569  0.4401 -0.3069
  302TMC3     O 4603   3.463   3.699   1.088 -0.1637 -0.3414  0.3551
  302TMC3     H 4604   3.803   3.546   1.184 -0.9336  0.7054  1.0132
  302TMC3    H1 4605   3.417   3.485   1.026 -1.2029 -0.3882 -0.6723
  302TMC3    H2 4606   3.716   3.191   1.000  1.4893  0.8579 -0.2639
  302TMC3    C7 4607   3.551   3.318   0.858  0.1693 -0.2870 -0.3793
  302TMC3    C8 4608   3.901   3.376   1.034  0.1923  0.0658 -0.2256
  302TMC3    O1 4609   3.644   3.265   0.802 -0.1583  0.1673  0.0860
  302TMC3    O2 4610   3.983   3.439   1.097 -0.2233 -0.1462  0.0150
  303MPD2     C 4611   3.707   3.180  11.283  0.1564  0.2608 -0.2687
  303MPD2    C1 4612   3.705   3.056  11.221  0.0719  0.6959  1.1238
  303MPD2    C2 4613   3.740   3.032  11.086  0.1164 -0.1235  0.3882
  303MPD2    C3 4614   3.768   3.147  11.014  0.2140 -0.5129  0.4494
  303MPD2    C4 4615   3.761   3.276  11.072  0.5605  0.4791 -0.5654
  303MPD2    C5 4616   3.728   3.289  11.200 -0.6948  0.5086  0.1202
  303MPD2     H 4617   3.735   2.933  11.043  2.2620 -0.5129  1.0255
  303MPD2    H1 4618   3.773   3.363  11.009 -1.1616  2.1878  1.4564
  303MPD2    H2 4619   3.679   3.205  11.385 -2.3721  1.2100 -1.1778
  303MPD2    H3 4620   3.718   3.388  11.243 -2.3335  0.3692  0.0704
  303MPD2     N 4621   3.789   3.143  10.872  0.5415 -0.0300 -0.2993
  303MPD2    H5 4622   3.809   3.228  10.822  2.0568 -1.3456 -1.9292
  303MPD2    N1 4623   3.665   2.944  11.302  0.4813  0.4435 -0.8156
  303MPD2    H7 4624   3.640   2.956  11.400  1.6034  0.6038 -0.5550
  304TMC3    C1 4625   3.592   2.722  11.350 -0.8565  0.4575  0.1220
  304TMC3    C2 4626   3.467   2.768  11.379 -0.0957  0.6453  0.5154
  304TMC3    C3 4627   3.374   2.671  11.387 -0.0886 -0.1047  0.2719
  304TMC3    C4 4628   3.631   2.597  11.346  0.1630  0.0615 -0.5397
  304TMC3    C5 4629   3.539   2.497  11.373  0.7964  0.1950 -0.3212
  304TMC3    C6 4630   3.410   2.542  11.394 -0.3589 -0.4125  0.2730
  304TMC3     C 4631   3.671   2.813  11.259  0.5358 -0.1343  0.6292
  304TMC3     O 4632   3.733   2.762  11.173  0.0386 -0.4329 -0.0266
  304TMC3     H 4633   3.452   2.875  11.366 -0.3530  0.7594  1.7811
  304TMC3    H1 4634   3.731   2.574  11.313  0.6075 -0.1988  0.9619
  304TMC3    H2 4635   3.336   2.465  11.412 -0.7163  0.0338  0.7172
  304TMC3    C7 4636   3.534   2.386  11.276  0.5528  0.1592 -0.0458
  304TMC3    C8 4637   3.253   2.696  11.311  0.8023 -0.0766 -0.0854
  304TMC3    O1 4638   3.418   2.361  11.242 -0.5622  0.0062 -0.1635
  304TMC3    O2 4639   3.191   2.800  11.321  0.1469  0.6965 -0.1335
  305MPD2     C 4640   2.896   4.682  14.467 -0.1225 -0.4131  0.7450
  305MPD2    C1 4641   2.768   4.655  14.504  0.1627 -0.7401  0.6948
  305MPD2    C2 4642   2.667   4.630  14.408  0.2589  0.2475  0.0930
  305MPD2    C3 4643   2.702   4.643  14.277  0.7534  0.4822  0.1522
  305MPD2    C4 4644   2.823   4.688  14.236  0.0190  0.7699 -0.3282
  305MPD2    C5 4645   2.922   4.700  14.331 -0.3116  0.7241 -0.2690
  305MPD2     H 4646   2.568   4.596  14.437  0.6415 -0.2453  0.8204
  305MPD2    H1 4647   2.843   4.698  14.130 -0.1857  0.0602 -0.4304
  305MPD2    H2 4648   2.980   4.673  14.535 -0.2127  1.2307  1.0729
  305MPD2    H3 4649   3.019   4.732  14.293 -0.1156  0.3775 -0.0594
  305MPD2     N 4650   2.613   4.625  14.168 -0.0924 -0.2567 -0.5777
  305MPD2    H5 4651   2.647   4.656  14.078  0.4882  2.0127  0.4194
  305MPD2    N1 4652   2.730   4.645  14.639  0.4661 -0.1128 -0.1582
  305MPD2    H7 4653   2.633   4.625  14.660 -0.1055  1.6504 -1.1925
  306TMC3    C1 4654   2.743   4.664  14.867 -0.4980 -0.5453  0.0505
  306TMC3    C2 4655   2.676   4.542  14.885  0.2395  0.2859 -0.6167
  306TMC3    C3 4656   2.641   4.502  15.008 -0.4950  0.2947 -0.4979
  306TMC3    C4 4657   2.751   0.006  14.973  0.3870  0.5073  0.1149
  306TMC3    C5 4658   2.692   4.712  15.093  0.4023  0.3776 -0.0985
  306TMC3    C6 4659   2.629   4.590  15.106  0.3981 -0.4434 -0.0783
  306TMC3     C 4660   2.807   4.678  14.742  0.4677 -0.0810 -0.3863
  306TMC3     O 4661   2.929   4.702  14.747 -0.0789 -0.5907 -0.0967
  306TMC3     H 4662   2.674   4.472  14.802 -0.6298 -1.3880  0.7960
  306TMC3    H1 4663   2.797   0.103  14.955  1.3911  0.0090 -0.0024
  306TMC3    H2 4664   2.554   4.567  15.182 -1.0138  1.8590 -0.7759
  306TMC3    C7 4665   2.684   0.057  15.206 -0.3035  0.5117  0.1740
  306TMC3    C8 4666   2.713   4.390  15.054 -0.6022 -0.8632 -0.8273
  306TMC3    O1 4667   2.584   0.038  15.272  0.1294 -0.4667 -0.2413
  306TMC3    O2 4668   2.753   4.314  14.970  0.2850  0.0046  0.0883
  307MPD2     C 4669   0.695   3.469   0.396  0.0908 -0.1983  0.0644
  307MPD2    C1 4670   0.562   3.479   0.448 -0.3854 -0.2928  0.5302
  307MPD2    C2 4671   0.512   3.378   0.532 -0.3417 -0.3917 -0.3046
  307MPD2    C3 4672   0.586   3.266   0.561  0.0772 -0.5792  0.2609
  307MPD2    C4 4673   0.718   3.257   0.516 -0.4600 -0.1069  0.0992
  307MPD2    C5 4674   0.770   3.360   0.434 -0.3974 -0.4237 -0.0606
  307MPD2     H 4675   0.410   3.378   0.569 -0.0920 -0.3850  0.3887
  307MPD2    H1 4676   0.789   3.177   0.535  0.1319  0.4263  0.1306
  307MPD2    H2 4677   0.727   3.544   0.325  0.1132 -0.2839 -0.0154
  307MPD2    H3 4678   0.863   3.356   0.378 -0.0979  0.3134  0.3931
  307MPD2     N 4679   0.529   3.172   0.641  0.5905 -0.7023  0.1783
  307MPD2    H5 4680   0.431   3.181   0.669  0.0633  0.8301 -2.1147
  307MPD2    N1 4681   0.466   3.574   0.410 -0.0923 -0.2518  0.4465
  307MPD2    H7 4682   0.376   3.580   0.458 -0.3021  0.4893 -0.0425
  308TMC3    C1 4683   0.341   2.799   0.668 -0.4660 -0.0486 -0.3326
  308TMC3    C2 4684   0.249   2.844   0.758 -0.0866 -1.1423 -0.4655
  308TMC3    C3 4685   0.273   2.960   0.824  0.6014  0.6552 -0.4790
  308TMC3    C4 4686   0.462   2.855   0.650 -0.0839 -0.7232 -0.2391
  308TMC3    C5 4687   0.487   2.961   0.731 -0.2208 -0.4678 -0.0333
  308TMC3    C6 4688   0.391   3.019   0.808 -0.4169  0.5172 -0.0417
  308TMC3     C 4689   0.309   2.683   0.584  0.1688 -0.4401  0.3907
  308TMC3     O 4690   0.396   2.606   0.550  0.0155  0.7579 -0.7287
  308TMC3     H 4691   0.161   2.786   0.783 -0.7176 -0.5406 -1.3245
  308TMC3    H1 4692   0.536   2.819   0.579 -0.5871  1.0196 -1.6702
  308TMC3    H2 4693   0.402   3.115   0.858 -0.6678 -0.0451  1.0884
  308TMC3    C7 4694   0.585   3.048   0.672 -0.1517 -0.2232  0.6632
  308TMC3    C8 4695   0.167   3.040   0.876  0.3268  0.6409  0.0538
  308TMC3    O1 4696   0.691   2.993   0.646  0.3645  0.2868 -0.1934
  308TMC3    O2 4697   0.176   3.108   0.977  0.1740 -0.1239  0.0646
  309MPD2     C 4698   4.424   2.943  17.283  0.3527 -0.0336  0.6569
  309MPD2    C1 4699   4.355   3.041  17.207  0.6370  0.1002 -0.2869
  309MPD2    C2 4700   4.251   3.095  17.269 -0.6430  0.4010 -0.3724
  309MPD2    C3 4701   4.213   3.066  17.398 -0.0599 -0.4330  0.2719
  309MPD2    C4 4702   4.281   2.974  17.471 -0.0388 -0.4109  0.0008
  309MPD2    C5 4703   4.385   2.911  17.413  0.2994  0.1028 -1.1804
  309MPD2     H 4704   4.198   3.177  17.221  2.3242  0.8379 -2.8367
  309MPD2    H1 4705   4.255   2.939  17.571 -0.3315  0.7907  0.3463
  309MPD2    H2 4706   4.516   2.892  17.255  0.0301  1.2285 -2.7727
  309MPD2    H3 4707   4.444   2.844  17.475  1.8386  1.2372 -1.4194
  309MPD2     N 4708   4.094   3.113  17.458  0.5373  0.1164 -0.3943
  309MPD2    H5 4709   4.077   3.051  17.537  2.3931 -2.1011 -1.6991
  309MPD2    N1 4710   4.405   3.097  17.085  0.5584  0.2070 -0.5974
  309MPD2    H7 4711   4.364   3.184  17.053  1.6793  1.1086  0.4100
  310TMC3    C1 4712   4.526   3.086  16.869 -0.2404 -0.3205 -0.0872
  310TMC3    C2 4713   4.439   3.163  16.802 -0.1042 -0.3449  0.0815
  310TMC3    C3 4714   4.445   3.171  16.667  0.0270  0.0699 -0.0281
  310TMC3    C4 4715   4.622   3.018  16.797 -0.2880  0.1731 -0.5365
  310TMC3    C5 4716   4.633   3.031  16.659  0.0086  0.7432 -0.2139
  310TMC3    C6 4717   4.535   3.099  16.590  0.5451  0.2790 -0.4147
  310TMC3     C 4718   4.506   3.038  17.009 -0.2631  0.0914  0.9565
  310TMC3     O 4719   4.570   2.934  17.030 -0.1109  0.4679 -0.7129
  310TMC3     H 4720   4.371   3.225  16.859  0.0991  0.3856 -0.4831
  310TMC3    H1 4721   4.679   2.937  16.842  0.1573 -0.1643 -1.6944
  310TMC3    H2 4722   4.526   3.093  16.482 -1.2553  1.2197 -0.3056
  310TMC3    C7 4723   4.709   2.932  16.585 -0.1215 -0.2506 -0.4600
  310TMC3    C8 4724   4.346   3.254  16.613 -0.4194  0.1035 -0.3886
  310TMC3    O1 4725   4.709   2.927  16.460 -0.1251 -0.3842 -0.0034
  310TMC3    O2 4726   4.242   3.269  16.670  0.4070 -0.0506 -0.1738
  311MPD2     C 4727   1.156   4.584  12.436 -0.5496  1.0092  0.3121
  311MPD2    C1 4728   1.232   4.562  12.547 -0.3259  0.0208  1.0538
  311MPD2    C2 4729   1.201   4.475  12.647 -0.1421  0.3899  0.1724
  311MPD2    C3 4730   1.075   4.411  12.641  0.5106 -0.7740  0.3553
  311MPD2    C4 4731   1.001   4.420  12.527 -0.2580  0.3820  0.7277
  311MPD2    C5 4732   1.036   4.512  12.428 -0.0239 -1.1144  0.1285
  311MPD2     H 4733   1.271   4.463  12.730 -0.0877  1.9718  0.3652
  311MPD2    H1 4734   0.902   4.379  12.512  0.3466 -0.6182 -0.6359
  311MPD2    H2 4735   1.182   4.658  12.361  0.2077 -1.0809 -1.4860
  311MPD2    H3 4736   0.961   4.539  12.354 -0.0727  1.6047  1.1473
  311MPD2     N 4737   1.021   4.341  12.754  0.1660 -0.2902  0.9322
  311MPD2    H5 4738   1.070   4.359  12.842  0.2658  1.8544  0.4214
  311MPD2    N1 4739   1.356   4.631  12.558  0.1427 -0.3082  0.2257
  311MPD2    H7 4740   1.412   4.611  12.640 -2.2023 -0.1996  1.8649
  312TMC3    C1 4741   0.846   4.255  12.882 -0.1771 -0.4192 -0.3139
  312TMC3    C2 4742   0.718   4.209  12.867  0.1366  0.5551 -0.9111
  312TMC3    C3 4743   0.616   4.299  12.878  0.3041  0.2906  0.6971
  312TMC3    C4 4744   0.872   4.369  12.958  0.3182  0.1222 -0.1390
  312TMC3    C5 4745   0.765   4.451  12.980 -0.1570 -1.5235  0.3677
  312TMC3    C6 4746   0.642   4.429  12.931  0.5059 -0.2819  0.4734
  312TMC3     C 4747   0.910   4.264  12.753 -0.0138  0.8991 -0.6281
  312TMC3     O 4748   0.854   4.211  12.659  0.4656  0.0536  0.1829
  312TMC3     H 4749   0.701   4.114  12.819 -0.7239  0.5566 -0.6129
  312TMC3    H1 4750   0.972   4.396  12.989 -0.6318  1.4979  1.6724
  312TMC3    H2 4751   0.565   4.505  12.921  0.9403  0.2426  1.1174
  312TMC3    C7 4752   0.804   4.589  12.988  0.5975 -0.1784  0.1660
  312TMC3    C8 4753   0.484   4.263  12.818 -0.8079  0.6740  0.7324
  312TMC3    O1 4754   0.749   4.674  12.912  0.0938 -0.3335 -0.4132
  312TMC3    O2 4755   0.454   4.149  12.783 -0.1331  0.9632  0.1550
  313MPD2     C 4756   0.568   3.754  11.259 -0.5520  0.8832 -0.2475
  313MPD2    C1 4757   0.431   3.775  11.261 -0.2673 -0.7792  0.3131
  313MPD2    C2 4758   0.347   3.697  11.197 -0.8125  0.3625  0.2215
  313MPD2    C3 4759   0.391   3.592  11.121 -0.2837  0.3559 -0.1220
  313MPD2    C4 4760   0.522   3.561  11.118 -0.1492 -0.1443  0.3717
  313MPD2    C5 4761   0.613   3.644  11.186 -0.1003 -0.5692  0.1117
  313MPD2     H 4762   0.240   3.717  11.195 -0.9812 -0.2263  3.1068
  313MPD2    H1 4763   0.560   3.474  11.066  0.4745 -0.5839  1.5755
  313MPD2    H2 4764   0.645   3.813  11.307 -2.1822  0.8315  2.4293
  313MPD2    H3 4765   0.717   3.619  11.203  0.7758  3.2614  0.3385
  313MPD2     N 4766   0.292   3.525  11.049  0.8466  0.7652  0.2238
  313MPD2    H5 4767   0.196   3.557  11.055  1.3260  2.0010  1.3012
  313MPD2    N1 4768   0.377   3.895  11.324 -0.3719 -0.2953 -0.4838
  313MPD2    H7 4769   0.277   3.912  11.313 -0.2446  0.9859  0.3084
  314TMC3    C1 4770   0.414   4.108  11.390 -0.2861 -0.3494 -0.0307
  314TMC3    C2 4771   0.500   4.200  11.444  0.6252 -0.0915  0.4341
  314TMC3    C3 4772   0.473   4.330  11.412  0.0541 -0.0008 -0.2545
  314TMC3    C4 4773   0.303   4.146  11.313  0.2684 -0.1460  0.1227
  314TMC3    C5 4774   0.285   4.276  11.286  0.2471  0.0830  0.0238
  314TMC3    C6 4775   0.371   4.372  11.337 -0.2142 -0.2176  0.1764
  314TMC3     C 4776   0.451   3.973  11.399 -0.3007  0.4197  0.1464
  314TMC3     O 4777   0.558   3.940  11.450 -0.1097 -0.2086  0.2884
  314TMC3     H 4778   0.577   4.158  11.508  2.0203  0.7462 -0.6953
  314TMC3    H1 4779   0.249   4.075  11.252  1.5840 -0.7830 -0.3080
  314TMC3    H2 4780   0.351   4.477  11.325 -0.3558 -0.0385  1.9383
  314TMC3    C7 4781   0.204   4.321  11.173  0.7868  0.4534  0.5782
  314TMC3    C8 4782   0.579   4.425  11.438  0.3711 -0.3120 -0.2996
  314TMC3    O1 4783   0.194   4.440  11.141 -0.0670 -0.0255 -0.2972
  314TMC3    O2 4784   0.580   4.532  11.373 -0.2671  0.2356  0.6110
  315MPD2     C 4785   0.225   2.644   0.189 -0.4442 -0.1099  0.0746
  315MPD2    C1 4786   0.367   2.646   0.201  0.8630 -0.4213  0.1006
  315MPD2    C2 4787   0.439   2.764   0.202  0.1226  0.0125  0.5412
  315MPD2    C3 4788   0.377   2.882   0.168 -0.4069  0.1637  0.2805
  315MPD2    C4 4789   0.238   2.885   0.150  0.3163 -0.1026 -0.2291
  315MPD2    C5 4790   0.166   2.767   0.161  0.7164  0.2660  1.0318
  315MPD2     H 4791   0.547   2.772   0.203  0.0929  0.3438  0.9373
  315MPD2    H1 4792   0.186   2.977   0.127  0.8470 -0.6184 -3.4574
  315MPD2    H2 4793   0.161   2.557   0.198  0.7535 -1.0444 -0.6068
  315MPD2    H3 4794   0.060   2.778   0.144  0.9395 -0.4449 -0.8352
  315MPD2     N 4795   0.456   3.004   0.174 -0.7788  0.1407  0.2765
  315MPD2    H5 4796   0.556   2.998   0.158 -0.7982  1.0985 -0.1902
  315MPD2    N1 4797   0.443   2.533   0.233  0.5377 -0.1361 -0.0796
  315MPD2    H7 4798   0.542   2.543   0.250 -0.1039 -0.7575  3.9157
  316TMC3    C1 4799   0.500   3.233   0.120  0.5160  0.4420 -0.4359
  316TMC3    C2 4800   0.627   3.212   0.132  0.3655  0.0363  0.0662
  316TMC3    C3 4801   0.708   3.323   0.095 -0.2164  0.4982  0.2785
  316TMC3    C4 4802   0.448   3.347   0.062  1.5462 -0.0154 -0.4262
  316TMC3    C5 4803   0.530   3.451   0.019  0.1115  0.0715 -0.2061
  316TMC3    C6 4804   0.660   3.436   0.045  0.2983 -0.5190 -0.5923
  316TMC3     C 4805   0.406   3.131   0.153  0.2342 -0.5247 -0.2908
  316TMC3     O 4806   0.292   3.165   0.183 -0.5695 -0.6950 -0.3744
  316TMC3     H 4807   0.670   3.145   0.205  1.3166  1.0913  0.4682
  316TMC3    H1 4808   0.341   3.343   0.051  1.6033 -1.6035 -0.3998
  316TMC3    H2 4809   0.732   3.508   0.010  1.6366 -1.2922  0.5811
  316TMC3    C7 4810   0.488   3.539  17.665 -0.0387  0.2635  0.3204
  316TMC3    C8 4811   0.854   3.306   0.106 -0.2111 -0.3990  0.1153
  316TMC3    O1 4812   0.364   3.557  17.658  0.3596 -0.1272 -0.0656
  316TMC3    O2 4813   0.921   3.408   0.121  0.1849 -1.0464  0.3120
  317MPD2     C 4814   2.427   1.375  13.099 -0.1632 -0.2581  0.1372
  317MPD2    C1 4815   2.514   1.269  13.066  0.7373 -0.7090 -0.0291
  317MPD2    C2 4816   2.625   1.241  13.149 -0.6971  0.5032 -0.7759
  317MPD2    C3 4817   2.654   1.322  13.255 -0.4480 -0.7280 -0.3510
  317MPD2    C4 4818   2.571   1.429  13.288 -0.1532 -0.3815 -0.0266
  317MPD2    C5 4819   2.459   1.452  13.213  0.2741  0.1947  0.3091
  317MPD2     H 4820   2.682   1.152  13.127  0.6620  0.7348  1.7457
  317MPD2    H1 4821   2.592   1.481  13.381 -2.3410 -2.2510  1.5183
  317MPD2    H2 4822   2.324   1.380  13.066 -0.1080 -1.0561 -0.1734
  317MPD2    H3 4823   2.379   1.513  13.254  0.3039  1.2836 -1.2636
  317MPD2     N 4824   2.756   1.278  13.334  0.3765  0.2542 -0.1195
  317MPD2    H5 4825   2.799   1.191  13.303  0.0315 -0.5593  1.7046
  317MPD2    N1 4826   2.496   1.178  12.962  0.2655  0.4057  0.3052
  317MPD2    H7 4827   2.561   1.101  12.951  0.4651  0.4741  1.0336
  318TMC3    C1 4828   2.853   1.228  13.538 -0.1644 -0.1161  0.4945
  318TMC3    C2 4829   2.780   1.113  13.535  0.7085 -0.2101  0.0155
  318TMC3    C3 4830   2.831   0.987  13.567 -0.3949  0.3574  0.2856
  318TMC3    C4 4831   2.987   1.215  13.556  0.3308 -0.5630 -0.4100
  318TMC3    C5 4832   3.042   1.097  13.595 -0.4136  0.3657 -0.3249
  318TMC3    C6 4833   2.965   0.979  13.595 -0.0913 -0.8314  0.1702
  318TMC3     C 4834   2.811   1.329  13.449  0.2579  0.0085 -0.0376
  318TMC3     O 4835   2.802   1.442  13.495 -0.1120  0.6784 -0.6006
  318TMC3     H 4836   2.674   1.137  13.535  0.5125 -1.0319  1.5938
  318TMC3    H1 4837   3.044   1.306  13.540 -0.1534 -0.3031 -0.6498
  318TMC3    H2 4838   3.014   0.883  13.605  0.7971 -0.3654  0.2922
  318TMC3    C7 4839   3.189   1.081  13.557  0.0217 -0.1702  0.0673
  318TMC3    C8 4840   2.758   0.874  13.506 -0.4455  0.2909 -0.3514
  318TMC3    O1 4841   3.238   1.155  13.473 -0.1989  0.0113 -0.3979
  318TMC3    O2 4842   2.793   0.762  13.536 -0.2313 -0.3075 -0.2976
  319MPD2     C 4843   3.780   2.233  16.836  0.4796 -0.3795 -0.0892
  319MPD2    C1 4844   3.698   2.123  16.872 -0.7669 -0.6757  0.7297
  319MPD2    C2 4845   3.583   2.093  16.801  0.1333  0.1555  0.6324
  319MPD2    C3 4846   3.543   2.162  16.692 -0.1768  0.0039 -0.1124
  319MPD2    C4 4847   3.626   2.269  16.661 -0.2116  0.1497 -0.2441
  319MPD2    C5 4848   3.738   2.307  16.731  0.9470  0.0196 -0.2270
  319MPD2     H 4849   3.532   2.006  16.842  1.3138 -0.7861  0.0884
  319MPD2    H1 4850   3.611   2.328  16.571 -1.9779 -0.9795 -0.6651
  319MPD2    H2 4851   3.860   2.269  16.899  0.9722  1.6900 -1.8877
  319MPD2    H3 4852   3.790   2.394  16.692 -0.0999  0.5717 -0.3961
  319MPD2     N 4853   3.423   2.146  16.617  0.1316 -0.4955  0.4957
  319MPD2    H5 4854   3.411   2.209  16.538  1.8432  0.2170  0.8178
  319MPD2    N1 4855   3.726   2.056  16.997  0.4164 -0.0494 -0.4830
  319MPD2    H7 4856   3.645   2.004  17.030  0.0912  0.1474 -0.9764
  320TMC3    C1 4857   3.215   2.037  16.566  0.1857 -0.1383  0.0036
  320TMC3    C2 4858   3.163   2.155  16.516  0.0756  0.5061 -0.8441
  320TMC3    C3 4859   3.046   2.153  16.447 -0.4803  0.8118 -0.0165
  320TMC3    C4 4860   3.150   1.917  16.545 -0.0577  0.4382 -0.6034
  320TMC3    C5 4861   3.024   1.922  16.484  0.1649 -0.0521  0.5243
  320TMC3    C6 4862   2.974   2.037  16.434 -0.4966  0.4707 -0.2662
  320TMC3     C 4863   3.337   2.041  16.643  0.1432 -0.2997 -0.4402
  320TMC3     O 4864   3.374   1.932  16.697  0.0552 -0.1769  0.3640
  320TMC3     H 4865   3.213   2.246  16.546  1.6896  0.2597 -2.7619
  320TMC3    H1 4866   3.191   1.826  16.588  0.8283  0.5213 -1.2738
  320TMC3    H2 4867   2.875   2.038  16.391 -1.1129 -1.4760  1.1105
  320TMC3    C7 4868   2.977   1.805  16.414 -1.1247 -0.3239 -0.3771
  320TMC3    C8 4869   3.011   2.278  16.380 -0.4560 -0.1475 -0.6897
  320TMC3    O1 4870   2.916   1.826  16.311  0.9818 -0.2671  0.0927
  320TMC3    O2 4871   3.057   2.383  16.413  0.0115  0.5706 -0.1022
  321TMC3    C1 4872   3.859   1.993  17.193 -0.4577  0.7414  0.4815
  321TMC3    C2 4873   3.774   1.899  17.232  0.4448 -0.0029  0.0837
  321TMC3    C3 4874   3.776   1.856  17.366 -0.5716  0.1116 -0.5964
  321TMC3    C4 4875   3.943   2.062  17.279  0.3181  0.2805 -0.2836
  321TMC3    C5 4876   3.939   2.016  17.413 -0.2327 -0.1418  0.1637
  321TMC3    C6 4877   3.851   1.924  17.457 -0.6434  0.2267  0.1766
  321TMC3     C 4878   3.854   2.057  17.062 -0.2480 -0.4501  0.6584
  321TMC3     O 4879   3.966   2.091  17.026  0.4404 -0.0276 -0.2518
  321TMC3     H 4880   3.719   1.835  17.164  4.0152 -0.9971 -1.8707
  321TMC3    H1 4881   4.015   2.132  17.236  0.9188 -1.8724 -2.7778
  321TMC3    H2 4882   3.865   1.891  17.559  0.6744  0.5807  0.1194
  321TMC3    C7 4883   4.067   1.987  17.482  0.1581  0.1791 -0.3285
  321TMC3    C8 4884   3.776   1.711  17.392  0.0860  0.7395 -0.7755
  321TMC3    O1 4885   4.079   1.878  17.537 -0.5011 -0.1898 -0.3311
  321TMC3    O2 4886   3.697   1.645  17.325  0.3381  0.0873  0.5018
  322MPD2     C 4887   2.487   4.180  13.498 -0.4726 -0.5597 -0.3896
  322MPD2    C1 4888   2.495   4.133  13.630  0.1802 -0.6321 -0.6858
  322MPD2    C2 4889   2.425   4.011  13.651 -0.5588 -0.1317 -0.3620
  322MPD2    C3 4890   2.359   3.941  13.556 -0.2242  0.1140  0.5929
  322MPD2    C4 4891   2.358   3.994  13.430  0.8069 -0.4461 -0.5673
  322MPD2    C5 4892   2.424   4.109  13.398 -0.0127  0.2672 -0.3210
  322MPD2     H 4893   2.431   3.961  13.747 -1.0190  0.7907  0.1368
  322MPD2    H1 4894   2.304   3.949  13.346 -0.8713 -0.2067  0.3854
  322MPD2    H2 4895   2.526   4.277  13.470  0.7226  0.1236  3.6631
  322MPD2    H3 4896   2.418   4.145  13.296 -0.3772  0.5884 -0.1898
  322MPD2     N 4897   2.287   3.820  13.595 -0.1129 -0.1901  0.0125
  322MPD2    H5 4898   2.284   3.799  13.694 -1.2367 -0.7326 -0.1353
  322MPD2    N1 4899   2.565   4.216  13.726 -0.0460 -0.1315  0.2027
  322MPD2    H7 4900   2.620   4.293  13.688 -0.4416  1.6884  3.3249
  323TMC3    C1 4901   2.630   4.288  13.931  0.1262  0.3169 -0.2069
  323TMC3    C2 4902   2.754   4.322  13.889  0.4758  0.4566  0.4231
  323TMC3    C3 4903   2.854   4.353  13.976  0.6576  0.5836  0.6807
  323TMC3    C4 4904   2.608   4.290  14.072 -0.2612  0.3555  0.1257
  323TMC3    C5 4905   2.709   4.325  14.161  0.3852 -0.2373 -0.1516
  323TMC3    C6 4906   2.836   4.355  14.110  0.3422  0.9212  0.3811
  323TMC3     C 4907   2.557   4.196  13.857  0.0188  0.3917 -0.0957
  323TMC3     O 4908   2.484   4.121  13.918 -0.6453  0.9674 -0.0019
  323TMC3     H 4909   2.775   4.323  13.783 -1.4269  0.6103  0.0537
  323TMC3    H1 4910   2.510   4.253  14.101 -0.1413  0.8232  1.1509
  323TMC3    H2 4911   2.920   4.376  14.174 -0.9951  0.0346  2.4257
  323TMC3    C7 4912   2.707   4.252  14.283 -0.1511 -0.5265 -0.2459
  323TMC3    C8 4913   2.994   4.351  13.928 -0.4728 -0.1605 -0.6110
  323TMC3    O1 4914   2.614   4.176  14.311 -0.1374 -0.0014 -0.4526
  323TMC3    O2 4915   3.062   4.408  14.007 -0.1372  0.0762 -0.1196
  324MPD2     C 4916   4.209   0.208  14.584  0.5891 -0.1632  0.5810
  324MPD2    C1 4917   4.194   0.336  14.526 -0.7785 -0.0597  0.3920
  324MPD2    C2 4918   4.065   0.370  14.475  0.4724 -0.4731  0.3005
  324MPD2    C3 4919   3.960   0.282  14.491 -0.3260  0.0601 -0.0471
  324MPD2    C4 4920   3.979   0.158  14.550 -0.1823 -0.1222 -0.1475
  324MPD2    C5 4921   4.103   0.120  14.596  0.1526  0.1792 -0.1914
  324MPD2     H 4922   4.040   0.463  14.424 -1.7851 -0.5704  1.2586
  324MPD2    H1 4923   3.886   0.107  14.569 -0.0063 -1.3291 -2.5815
  324MPD2    H2 4924   4.305   0.168  14.616 -0.6290 -0.6980  3.5828
  324MPD2    H3 4925   4.114   0.018  14.633 -1.5714 -0.3966 -1.2371
  324MPD2     N 4926   3.824   0.311  14.459  0.0311 -0.0394  0.7496
  324MPD2    H5 4927   3.756   0.238  14.477  0.4888 -0.2384  1.6780
  324MPD2    N1 4928   4.305   0.428  14.506  0.3878  0.4553 -0.7201
  324MPD2    H7 4929   4.288   0.522  14.470  0.0503  1.5587  2.3048
  325TMC3    C1 4930   3.633   0.444  14.387 -0.1638  1.0800  0.7230
  325TMC3    C2 4931   3.569   0.333  14.329 -0.0007  0.6480 -0.5595
  325TMC3    C3 4932   3.457   0.350  14.256  0.8263 -0.5259  0.5253
  325TMC3    C4 4933   3.593   0.572  14.363  0.2060 -0.1956 -0.0721
  325TMC3    C5 4934   3.485   0.588  14.287  0.0082 -0.0775 -0.3519
  325TMC3    C6 4935   3.423   0.479  14.227  0.2328 -0.3095 -0.0510
  325TMC3     C 4936   3.774   0.430  14.408 -0.1547  0.7623 -0.4308
  325TMC3     O 4937   3.835   0.537  14.404  0.2691  0.0707 -1.1370
  325TMC3     H 4938   3.610   0.232  14.335 -1.7095  0.0444  1.1519
  325TMC3    H1 4939   3.651   0.659  14.394  0.0755 -0.7687  1.7479
  325TMC3    H2 4940   3.334   0.498  14.168  0.5054  1.4509  0.1174
  325TMC3    C7 4941   3.464   0.717  14.227  0.6230 -0.4973 -0.4203
  325TMC3    C8 4942   3.376   0.236  14.212 -0.1978 -0.5418 -0.7331
  325TMC3    O1 4943   3.430   0.712  14.111 -0.0164 -0.4841 -0.2968
  325TMC3    O2 4944   3.430   0.129  14.199 -0.3644  0.2597 -0.2226
  326MPD2     C 4945   0.098   1.704  11.513 -0.2855  0.1575 -0.0860
  326MPD2    C1 4946   0.056   1.716  11.383 -0.1142  0.4221  0.0425
  326MPD2    C2 4947   0.151   1.738  11.281  0.4607  0.4313 -0.0435
  326MPD2    C3 4948   0.294   1.758  11.319  0.5421  0.0937 -0.0324
  326MPD2    C4 4949   0.328   1.748  11.451 -0.4537 -0.6239  0.4055
  326MPD2    C5 4950   0.229   1.723  11.545 -0.8163 -0.3204  1.0884
  326MPD2     H 4951   0.110   1.740  11.181  0.8690  0.4851 -0.2114
  326MPD2    H1 4952   0.429   1.766  11.488  0.6470  0.1864 -3.0332
  326MPD2    H2 4953   0.033   1.669  11.592 -0.2640  2.6901  1.0336
  326MPD2    H3 4954   0.252   1.724  11.651 -1.5329 -0.1603  1.2441
  326MPD2     N 4955   0.397   1.788  11.225  0.1267 -0.7730  0.4996
  326MPD2    H5 4956   0.486   1.824  11.256 -0.4854 -0.8319  2.2938
  326MPD2    N1 4957   4.660   1.693  11.343 -0.1225  0.0399 -0.3023
  326MPD2    H7 4958   4.649   1.708  11.244 -1.4537  2.4666  0.2330
  327TMC3    C1 4959   4.436   1.653  11.348  0.0762  0.6081 -0.2395
  327TMC3    C2 4960   4.382   1.760  11.280  0.1241  0.5548 -0.4297
  327TMC3    C3 4961   4.355   1.752  11.148 -0.6879 -0.7507  0.0917
  327TMC3    C4 4962   4.452   1.534  11.289  0.1155  0.2384  0.3109
  327TMC3    C5 4963   4.424   1.530  11.155  0.5885  1.1675  0.9129
  327TMC3    C6 4964   4.376   1.636  11.084 -0.2741 -0.6188  0.2878
  327TMC3     C 4965   4.554   1.674  11.428 -0.3440 -0.1148 -0.4215
  327TMC3     O 4966   4.545   1.700  11.547  0.0030  0.1440  0.6030
  327TMC3     H 4967   4.396   1.855  11.329  1.3306 -0.6072  1.4965
  327TMC3    H1 4968   4.492   1.447  11.339 -0.7516 -0.4434 -0.1852
  327TMC3    H2 4969   4.351   1.624  10.979 -0.8738 -2.0958  0.6011
  327TMC3    C7 4970   4.495   1.435  11.082 -0.1637 -0.3169 -0.3766
  327TMC3    C8 4971   4.286   1.860  11.073  0.1952 -0.4592  0.1581
  327TMC3    O1 4972   4.467   1.420  10.963  0.0531 -0.9355 -0.7034
  327TMC3    O2 4973   4.225   1.826  10.974  0.4743  0.3712  0.3672
  328MPD2     C 4974   3.155   1.290  17.234  0.2108  0.2034  0.5700
  328MPD2    C1 4975   3.025   1.250  17.214 -0.3875 -0.2482 -0.1941
  328MPD2    C2 4976   2.956   1.300  17.103  0.5291 -0.6724 -0.3688
  328MPD2    C3 4977   3.008   1.401  17.025  0.0445  0.8853  0.4829
  328MPD2    C4 4978   3.135   1.445  17.063  0.4033 -0.5081 -0.7202
  328MPD2    C5 4979   3.214   1.379  17.147 -0.4448 -0.6145 -0.7465
  328MPD2     H 4980   2.854   1.270  17.085 -0.1268  1.8077 -0.7120
  328MPD2    H1 4981   3.184   1.521  17.002 -0.5977  0.6049 -0.1483
  328MPD2    H2 4982   3.222   1.247  17.307  0.9312  0.9371  0.3425
  328MPD2    H3 4983   3.321   1.397  17.150 -0.4915 -0.1395 -1.9582
  328MPD2     N 4984   2.932   1.474  16.928  0.7490 -0.1236 -0.0786
  328MPD2    H5 4985   2.977   1.555  16.886 -0.9952  1.1300  0.4754
  328MPD2    N1 4986   2.971   1.169  17.320  0.1132  0.5888 -0.2830
  328MPD2    H7 4987   3.028   1.150  17.402 -0.1944 -1.6032 -0.5695
  329TMC3    C1 4988   2.818   1.106  17.466 -0.3935 -0.6724  0.8131
  329TMC3    C2 4989   2.859   1.202  17.547  0.6282 -0.5698 -0.0413
  329TMC3    C3 4990   2.834   1.191  17.681  0.0255 -0.0573  0.2840
  329TMC3    C4 4991   2.757   0.990  17.500 -0.0417  0.2483  0.4362
  329TMC3    C5 4992   2.734   0.978  17.633  0.9339  0.9489 -0.2107
  329TMC3    C6 4993   2.772   1.072  17.726 -0.0418  0.5943 -0.2893
  329TMC3     C 4994   2.846   1.123  17.329 -0.3915 -0.3517 -0.2360
  329TMC3     O 4995   2.789   1.064  17.244 -0.5113  0.0303  0.0637
  329TMC3     H 4996   2.894   1.299  17.513  2.0199 -1.2632 -0.5992
  329TMC3    H1 4997   2.734   0.912  17.428 -2.7736  1.1451  0.3187
  329TMC3    H2 4998   2.761   1.062   0.084 -0.8140 -0.9123 -0.5225
  329TMC3    C7 4999   2.714   0.845  17.685 -0.4842  0.1205  0.1884
  329TMC3    C8 5000   2.783   1.311   0.007 -0.0731 -0.3740  0.3196
  329TMC3    O1 5001   2.775   0.761  17.620  0.0091  0.3671  1.0959
  329TMC3    O2 5002   2.690   1.282   0.082 -0.2649 -1.2008 -0.6008
  330TMC3    C1 5003   0.964   1.269  10.067 -0.1930 -0.2286 -0.0264
  330TMC3    C2 5004   0.887   1.183   9.983  0.1770 -0.0177 -0.2188
  330TMC3    C3 5005   0.908   1.053  10.005  0.4966  0.1756 -0.2575
  330TMC3    C4 5006   1.049   1.220  10.165  0.3923  0.7753  0.6455
  330TMC3    C5 5007   1.061   1.088  10.184 -0.5389 -0.1561  0.0221
  330TMC3    C6 5008   0.985   1.003  10.108 -1.1782  0.2341 -0.3740
  330TMC3     C 5009   0.916   1.403  10.087  0.1485 -0.2561  0.3414
  330TMC3     O 5010   0.967   1.460  10.186  0.0962 -0.6664 -0.0303
  330TMC3     H 5011   0.831   1.215   9.896 -1.9919 -1.9736  0.4546
  330TMC3    H1 5012   1.101   1.288  10.232 -1.2544  1.2256  1.4535
  330TMC3    H2 5013   0.997   0.896  10.115 -0.1812  0.2040 -2.6754
  330TMC3    C7 5014   1.134   1.038  10.295  0.0831 -0.4747  0.0434
  330TMC3    C8 5015   0.881   0.968   9.896  0.1877 -0.3672 -0.1175
  330TMC3    O1 5016   1.159   1.119  10.381  0.4279  0.2051 -0.3766
  330TMC3    O2 5017   0.869   1.019   9.789 -0.4980 -0.0750 -0.0331
  331MPD2     C 5018   3.861   4.556  13.201 -0.2427  0.5456 -0.6778
  331MPD2    C1 5019   3.872   4.489  13.085 -0.5025 -0.4225 -0.0160
  331MPD2    C2 5020   3.818   4.363  13.070 -0.1829 -0.1801 -0.1210
  331MPD2    C3 5021   3.746   4.310  13.170  0.1881  0.0899 -0.1372
  331MPD2    C4 5022   3.739   4.376  13.290 -0.8553  0.0875 -0.3922
  331MPD2    C5 5023   3.798   4.496  13.311  0.0393 -0.2356 -0.1240
  331MPD2     H 5024   3.832   4.305  12.979 -3.2981 -2.6842  0.9959
  331MPD2    H1 5025   3.691   4.334  13.378  0.6086 -0.9030 -0.0673
  331MPD2    H2 5026   3.898   4.658  13.207 -1.7324  0.8614  3.0014
  331MPD2    H3 5027   3.790   4.550  13.405  1.8825  1.5096 -0.9716
  331MPD2     N 5028   3.686   4.182  13.153  0.4720  0.0180  1.0273
  331MPD2    H5 5029   3.717   4.127  13.073  1.0586  2.6335 -0.5392
  331MPD2    N1 5030   3.943   4.560  12.985  0.4863 -0.0650  0.0291
  331MPD2    H7 5031   3.974   4.654  13.005  0.2589  0.4162 -1.8177
  332TMC3    C1 5032   3.557   3.985  13.193 -0.7437  0.1174  0.1100
  332TMC3    C2 5033   3.421   3.959  13.197 -0.8371 -0.8393  0.1460
  332TMC3    C3 5034   3.370   3.875  13.102 -0.0182  0.2634 -0.3159
  332TMC3    C4 5035   3.642   3.916  13.119  0.3844 -0.0744  0.5565
  332TMC3    C5 5036   3.588   3.811  13.042  0.1906 -1.0609 -0.7905
  332TMC3    C6 5037   3.454   3.797  13.033 -0.3681  0.5181 -0.7793
  332TMC3     C 5038   3.595   4.119  13.242 -0.2487 -0.2490 -0.9229
  332TMC3     O 5039   3.536   4.167  13.335  0.1087  0.2222  0.2603
  332TMC3     H 5040   3.347   4.019  13.247  0.4673  2.5396 -2.0283
  332TMC3    H1 5041   3.750   3.931  13.113 -0.1355  3.2213 -0.3272
  332TMC3    H2 5042   3.414   3.720  12.968 -0.9167 -1.5816  2.0594
  332TMC3    C7 5043   3.668   3.701  12.991  0.0958  0.2370 -0.0208
  332TMC3    C8 5044   3.276   3.940  13.012  0.3428  0.0692  0.3477
  332TMC3    O1 5045   3.628   3.582  13.002 -0.6923 -0.3639 -0.0221
  332TMC3    O2 5046   3.265   3.868  12.914  0.5678  0.0015 -0.4512
  333MPD2     C 5047   3.758   0.134  11.302 -0.0262 -1.1401 -0.1117
  333MPD2    C1 5048   3.743   0.065  11.182  0.5688 -0.4736 -0.0112
  333MPD2    C2 5049   3.712   4.664  11.189  0.1286  0.1451 -0.5222
  333MPD2    C3 5050   3.684   4.602  11.308 -0.0451 -0.5485 -0.2041
  333MPD2    C4 5051   3.700   4.675  11.427  0.0734  0.5596  0.6706
  333MPD2    C5 5052   3.720   0.071  11.418  0.2749 -0.6641  0.3042
  333MPD2     H 5053   3.713   4.600  11.102  2.6181  0.6824 -0.8901
  333MPD2    H1 5054   3.692   4.634  11.527  0.9723 -0.4385  0.3467
  333MPD2    H2 5055   3.797   0.235  11.307  0.6004 -1.2596 -2.1732
  333MPD2    H3 5056   3.724   0.131  11.509 -3.3567 -0.4995  0.3913
  333MPD2     N 5057   3.652   4.467  11.308  0.0721 -0.0125 -0.5034
  333MPD2    H5 5058   3.648   4.416  11.220  0.8598 -0.5745 -0.2153
  333MPD2    N1 5059   3.769   0.126  11.058  0.0207  0.4025 -0.1268
  333MPD2    H7 5060   3.807   0.220  11.058  0.6395  0.1650  1.6284
  334TMC3    C1 5061   3.789   0.165  10.829  0.5254 -0.0383  0.2326
  334TMC3    C2 5062   3.861   0.115  10.725 -0.3654 -0.5049  0.0201
  334TMC3    C3 5063   3.958   0.202  10.680 -0.1717 -0.0867 -0.2863
  334TMC3    C4 5064   3.778   0.302  10.856 -0.1652 -0.1490 -0.2572
  334TMC3    C5 5065   3.866   0.378  10.795 -0.4694 -0.5648 -0.2836
  334TMC3    C6 5066   3.969   0.332  10.712  0.0105 -0.0110  0.1193
  334TMC3     C 5067   3.753   0.074  10.933  0.6246  0.2056 -0.4842
  334TMC3     O 5068   3.714   4.700  10.900 -0.1832  0.0984  0.0344
  334TMC3     H 5069   3.883   0.010  10.711  0.5577 -0.1857 -0.9010
  334TMC3    H1 5070   3.711   0.340  10.932  1.3300  1.3437  0.3093
  334TMC3    H2 5071   4.034   0.406  10.668  0.2295 -0.6638 -0.6586
  334TMC3    C7 5072   3.878   0.515  10.848 -0.4683  0.4787 -0.2889
  334TMC3    C8 5073   4.073   0.136  10.627 -0.0559  0.2234 -0.2812
  334TMC3    O1 5074   3.981   0.579  10.849  0.5046  0.1971 -0.4355
  334TMC3    O2 5075   4.056   0.027  10.573  0.5048 -0.0809  0.3789
  335TMC3    C1 5076   3.867   0.719  17.312  0.3645  0.4572  0.2974
  335TMC3    C2 5077   3.752   0.760  17.252 -0.2095  0.5652  0.1368
  335TMC3    C3 5078   3.757   0.889  17.190 -0.3341  0.5985 -0.4801
  335TMC3    C4 5079   3.974   0.806  17.332 -0.0501 -1.0250 -0.1482
  335TMC3    C5 5080   3.972   0.934  17.274 -0.1539 -0.5191 -0.6718
  335TMC3    C6 5081   3.862   0.967  17.198  0.3778 -1.0163 -0.5202
  335TMC3     C 5082   3.859   0.617  17.417 -0.3653 -0.4546  0.8295
  335TMC3     O 5083   3.960   0.560  17.460 -0.2334 -0.2458  0.2892
  335TMC3     H 5084   3.677   0.686  17.230  0.6993 -0.0969 -0.7416
  335TMC3    H1 5085   4.058   0.768  17.389  0.3634 -2.4671 -1.6879
  335TMC3    H2 5086   3.856   1.062  17.145  1.2818 -0.5565  0.1866
  335TMC3    C7 5087   4.102   0.997  17.255 -0.3098  0.0760  0.3982
  335TMC3    C8 5088   3.686   0.900  17.066  0.3659  0.3525 -0.4300
  335TMC3    O1 5089   4.110   1.081  17.167  0.4972  0.0536 -0.6547
  335TMC3    O2 5090   3.742   0.941  16.968 -0.6899 -0.0288  0.5796
  336MPD2     C 5091   3.468   3.745  16.526  0.0567 -0.3500  0.2189
  336MPD2    C1 5092   3.446   3.710  16.395 -0.0615  1.1257  0.0949
  336MPD2    C2 5093   3.435   3.574  16.362 -0.7656  0.4031  0.7927
  336MPD2    C3 5094   3.463   3.473  16.455  0.4295 -0.0385 -0.0161
  336MPD2    C4 5095   3.511   3.516  16.578  0.6111  0.5644  0.4498
  336MPD2    C5 5096   3.521   3.646  16.608  0.4211  0.2728  0.0075
  336MPD2     H 5097   3.411   3.544  16.260  2.0172  0.0944  0.2405
  336MPD2    H1 5098   3.560   3.441  16.640  2.6745  1.3557 -0.2348
  336MPD2    H2 5099   3.470   3.848  16.560 -4.0482  0.2921 -1.6152
  336MPD2    H3 5100   3.562   3.681  16.701 -0.5195 -2.5178  1.4556
  336MPD2     N 5101   3.465   3.334  16.422 -0.1440 -0.0618  0.6335
  336MPD2    H5 5102   3.483   3.271  16.499 -0.0233 -0.1831  0.5058
  336MPD2    N1 5103   3.414   3.804  16.301  0.0985 -0.2389 -0.2025
  336MPD2    H7 5104   3.406   3.767  16.207 -0.9923 -0.9517  0.1752
  337TMC3    C1 5105   3.389   4.015  16.180 -0.3273 -0.6567  0.2120
  337TMC3    C2 5106   3.298   3.960  16.100  0.5447 -0.2357  0.4269
  337TMC3    C3 5107   3.260   4.028  15.986 -0.3135 -0.1024 -0.3694
  337TMC3    C4 5108   3.448   4.136  16.159  0.1034 -0.4441 -0.0832
  337TMC3    C5 5109   3.413   4.198  16.043 -0.1300  0.1237  0.8413
  337TMC3    C6 5110   3.335   4.135  15.949 -0.0118  0.1236 -0.1961
  337TMC3     C 5111   3.421   3.946  16.304  0.1767  0.1280 -0.5940
  337TMC3     O 5112   3.446   4.014  16.406 -0.2890  0.5603  1.0370
  337TMC3     H 5113   3.238   3.875  16.128 -0.8994  0.2514 -1.1789
  337TMC3    H1 5114   3.524   4.168  16.228  2.8347 -3.1264 -1.8520
  337TMC3    H2 5115   3.311   4.197  15.864  0.1742  1.5823  0.8150
  337TMC3    C7 5116   3.474   4.331  16.016  0.0993  0.2963  0.0775
  337TMC3    C8 5117   3.118   4.056  15.981  0.0157  0.0055 -0.1363
  337TMC3    O1 5118   3.483   4.365  15.898  0.8005 -0.1429 -0.1002
  337TMC3    O2 5119   3.062   4.025  16.086  0.2917  0.0097 -0.8139
  338MPD2     C 5120   4.169   2.961   1.029 -0.0672 -0.6365 -0.4615
  338MPD2    C1 5121   4.066   2.899   0.968 -0.1891  0.9121 -0.4930
  338MPD2    C2 5122   3.943   2.920   1.022  0.7968 -0.5536 -0.3590
  338MPD2    C3 5123   3.931   2.989   1.144  0.0198 -0.3477  0.0053
  338MPD2    C4 5124   4.040   3.033   1.213  0.3956 -0.0309  0.0407
  338MPD2    C5 5125   4.165   3.025   1.151  0.1009  0.5851 -0.1585
  338MPD2     H 5126   3.851   2.898   0.968  1.2433 -0.2953 -1.2160
  338MPD2    H1 5127   4.042   3.083   1.309  1.4282 -1.6802  0.8643
  338MPD2    H2 5128   4.263   2.953   0.977  1.5503  0.7237  2.2759
  338MPD2    H3 5129   4.256   3.063   1.197 -0.4246 -0.8053  2.0546
  338MPD2     N 5130   3.802   3.000   1.200 -0.1644  0.1681  0.0686
  338MPD2    H5 5131   3.726   2.972   1.139 -0.9294  1.7508  0.2988
  338MPD2    N1 5132   4.073   2.825   0.847 -0.1962 -0.4031 -0.1715
  338MPD2    H7 5133   3.984   2.789   0.815 -0.2045 -0.1423 -0.4347
  339TMC3    C1 5134   3.632   3.045   1.354  0.3539 -0.2277 -0.2367
  339TMC3    C2 5135   3.570   3.160   1.392 -0.0305 -0.4301 -0.2114
  339TMC3    C3 5136   3.430   3.166   1.374  0.8224  0.0429  0.4618
  339TMC3    C4 5137   3.565   2.938   1.300  0.1571 -0.1668 -0.4428
  339TMC3    C5 5138   3.429   2.947   1.297  0.5318  0.3217  0.2523
  339TMC3    C6 5139   3.359   3.062   1.319  0.4786 -0.1045  0.4941
  339TMC3     C 5140   3.768   3.065   1.319  0.2111 -0.2462  0.6689
  339TMC3     O 5141   3.832   3.133   1.394 -0.0339  0.4228  0.0249
  339TMC3     H 5142   3.615   3.238   1.453  0.4066 -0.3200 -0.6718
  339TMC3    H1 5143   3.618   2.859   1.248 -1.0015 -0.9962 -0.3398
  339TMC3    H2 5144   3.259   3.081   1.282  1.2035 -2.7645 -2.8889
  339TMC3    C7 5145   3.367   2.865   1.198 -0.2186 -0.0003 -0.7575
  339TMC3    C8 5146   3.361   3.285   1.414 -0.0466  0.3190 -0.5033
  339TMC3    O1 5147   3.336   2.923   1.098  0.3777 -0.2336 -0.1802
  339TMC3    O2 5148   3.404   3.394   1.374 -0.1153 -0.3241  0.1129
  340MPD2     C 5149   3.874   1.435  11.018 -0.0620 -0.2367 -0.2655
  340MPD2    C1 5150   3.816   1.340  10.936  0.0271 -0.1992  0.9787
  340MPD2    C2 5151   3.901   1.249  10.872 -0.2676 -0.3122 -0.2531
  340MPD2    C3 5152   4.035   1.260  10.885  0.5149  0.1033 -0.1226
  340MPD2    C4 5153   4.091   1.365  10.951 -0.4407  0.1059 -0.5519
  340MPD2    C5 5154   4.012   1.453  11.017 -0.6314 -0.7395 -0.3062
  340MPD2     H 5155   3.858   1.164  10.818  0.4902 -0.6414 -0.3314
  340MPD2    H1 5156   4.199   1.369  10.962 -0.4216 -1.3801 -0.1881
  340MPD2    H2 5157   3.806   1.494  11.079 -0.5700 -0.5963 -0.4819
  340MPD2    H3 5158   4.059   1.530  11.077 -2.5234 -0.0568  0.3113
  340MPD2     N 5159   4.114   1.170  10.819 -0.4991  0.7062  1.1655
  340MPD2    H5 5160   4.212   1.195  10.819  0.0296 -1.4066  1.3366
  340MPD2    N1 5161   3.678   1.348  10.924 -0.1362  0.3249 -0.9875
  340MPD2    H7 5162   3.638   1.415  10.989 -0.0713 -2.7769  2.2278
  341TMC3    C1 5163   3.616   1.184  10.741 -0.0098 -0.3940 -0.4956
  341TMC3    C2 5164   3.576   1.055  10.743 -0.0461  0.3496  0.0615
  341TMC3    C3 5165   3.612   0.980  10.635 -0.4245 -0.2615  0.0480
  341TMC3    C4 5166   3.700   1.235  10.645 -0.3034 -0.7003  0.1939
  341TMC3    C5 5167   3.749   1.150  10.552 -0.0865 -0.0433  0.2910
  341TMC3    C6 5168   3.698   1.023  10.535 -0.2087  0.1231 -0.0169
  341TMC3     C 5169   3.588   1.266  10.864  0.2907  0.3088  0.0703
  341TMC3     O 5170   3.469   1.245  10.901 -0.2666  0.1858 -0.2346
  341TMC3     H 5171   3.498   1.021  10.809 -0.1410 -3.3866 -2.0020
  341TMC3    H1 5172   3.759   1.324  10.664  0.3527 -1.0705 -0.1376
  341TMC3    H2 5173   3.729   0.969  10.447  0.8585  1.9910 -0.7739
  341TMC3    C7 5174   3.858   1.187  10.456  0.5743 -0.3945 -0.2193
  341TMC3    C8 5175   3.534   0.856  10.608 -0.7776 -0.0855 -0.8226
  341TMC3    O1 5176   3.921   1.098  10.402  0.8252  0.5350 -0.6338
  341TMC3    O2 5177   3.427   0.841  10.665 -0.0252  0.9419  0.3671
  342MPD2     C 5178   1.493   3.927   0.056  0.4587  0.0293  0.1794
  342MPD2    C1 5179   1.626   3.922   0.024 -0.5617  0.3153 -0.4679
  342MPD2    C2 5180   1.698   4.044   0.056 -0.2281  0.4866 -0.4758
  342MPD2    C3 5181   1.646   4.141   0.136  0.4462 -0.2328 -0.7002
  342MPD2    C4 5182   1.512   4.143   0.172 -0.7695  0.1002 -0.6594
  342MPD2    C5 5183   1.439   4.034   0.129  0.3410  0.6309 -0.2891
  342MPD2     H 5184   1.803   4.047   0.029  0.3388 -0.1860  1.6276
  342MPD2    H1 5185   1.460   4.228   0.213  0.3721  1.0930 -1.2631
  342MPD2    H2 5186   1.421   3.852   0.025  0.7173  0.3695 -1.2293
  342MPD2    H3 5187   1.332   4.042   0.143  0.0889  0.8770 -2.3047
  342MPD2     N 5188   1.720   4.262   0.171  0.3918 -0.3493  0.0672
  342MPD2    H5 5189   1.662   4.335   0.211 -0.3312 -0.8071 -0.1527
  342MPD2    N1 5190   1.689   3.817  17.699  0.6873  0.3404 -0.3743
  342MPD2    H7 5191   1.786   3.834  17.676 -0.2733  1.8793 -3.3140
  343TMC3    C1 5192   1.708   3.630  17.552  0.0418  0.1083  0.0485
  343TMC3    C2 5193   1.824   3.674  17.491 -0.0285  0.0871  0.1487
  343TMC3    C3 5194   1.871   3.595  17.385 -0.4807 -0.1322 -0.0610
  343TMC3    C4 5195   1.664   3.504  17.523  0.3146 -0.6363  0.3447
  343TMC3    C5 5196   1.725   3.433  17.428  0.2594  0.8550  0.1411
  343TMC3    C6 5197   1.822   3.476  17.347 -0.8020  0.0096 -0.5540
  343TMC3     C 5198   1.624   3.709  17.645 -0.6038 -0.5590 -0.7365
  343TMC3     O 5199   1.508   3.668  17.668  0.2455  0.0896 -0.2483
  343TMC3     H 5200   1.871   3.769  17.514  3.0620 -1.7853  1.5922
  343TMC3    H1 5201   1.566   3.465  17.548 -0.0558  1.0615  1.4680
  343TMC3    H2 5202   1.872   3.410  17.277 -1.8176 -3.1099  1.6811
  343TMC3    C7 5203   1.680   3.293  17.399  0.7790  0.3267  0.6575
  343TMC3    C8 5204   2.017   3.610  17.376  0.7783  0.1085 -0.3385
  343TMC3    O1 5205   1.662   3.255  17.284  0.9567 -0.5473 -0.1844
  343TMC3    O2 5206   2.064   3.706  17.436 -0.7780  0.1079  0.3899
  344MPD2     C 5207   2.177   3.945  10.371  0.1129  0.8870  0.2022
  344MPD2    C1 5208   2.152   3.971  10.500  0.4561  0.1708  0.4273
  344MPD2    C2 5209   2.245   4.050  10.565  1.1273  0.2073 -0.4005
  344MPD2    C3 5210   2.348   4.116  10.498 -0.0394 -0.1861  0.3921
  344MPD2    C4 5211   2.375   4.087  10.364  0.0647  0.7743 -0.7591
  344MPD2    C5 5212   2.284   4.007  10.304 -0.1417  0.1834 -0.0852
  344MPD2     H 5213   2.220   4.072  10.668 -1.5528 -2.8208 -0.4077
  344MPD2    H1 5214   2.461   4.116  10.305  0.9569 -0.1088  0.1116
  344MPD2    H2 5215   2.119   3.876  10.312 -0.1961  1.1285  0.2241
  344MPD2    H3 5216   2.302   3.978  10.201  0.7196  0.0766  0.0932
  344MPD2     N 5217   2.422   4.220  10.557 -0.1574  0.1986 -0.3174
  344MPD2    H5 5218   2.477   4.277  10.494 -0.8733  0.5906 -0.5804
  344MPD2    N1 5219   2.030   3.935  10.568 -0.1434 -0.3321  0.0581
  344MPD2    H7 5220   2.015   3.969  10.662 -1.3706 -1.0493  0.1194
  345TMC3    C1 5221   2.479   4.387  10.708  0.3115 -0.8316 -0.6373
  345TMC3    C2 5222   2.509   4.421  10.835  0.5577 -0.9857  0.7538
  345TMC3    C3 5223   2.566   4.548  10.855 -0.0432  0.1139  0.4518
  345TMC3    C4 5224   2.481   4.480  10.609 -0.4140 -0.2560  0.2198
  345TMC3    C5 5225   2.537   4.603  10.627  0.9485 -0.5698  0.0417
  345TMC3    C6 5226   2.584   4.636  10.748 -0.3866  0.4291 -0.2377
  345TMC3     C 5227   2.431   4.249  10.687 -1.0237 -0.8455 -0.4833
  345TMC3     O 5228   2.394   4.182  10.782 -0.0942 -0.6501 -0.5884
  345TMC3     H 5229   2.503   4.348  10.915  2.1176 -1.2897  0.6033
  345TMC3    H1 5230   2.427   4.453  10.519 -0.1822 -0.5113  0.1572
  345TMC3    H2 5231   2.637   4.730  10.765 -0.9939  0.5105  1.2304
  345TMC3    C7 5232   2.528   4.707  10.530 -0.6405 -0.2020  0.0645
  345TMC3    C8 5233   2.557   4.602  10.990  0.7246 -0.7061  0.1455
  345TMC3    O1 5234   2.559   0.075  10.574  0.2130  0.0092  0.4742
  345TMC3    O2 5235   2.556   4.524  11.084 -0.5202  0.3825  0.0897
  346MPD2     C 5236   2.601   0.913  14.487  0.2883 -0.7650  0.2751
  346MPD2    C1 5237   2.700   0.889  14.397  0.2123  0.1257  1.0143
  346MPD2    C2 5238   2.828   0.915  14.442 -0.7779 -0.2614  0.6603
  346MPD2    C3 5239   2.855   0.950  14.575  0.2477  0.0064  0.3934
  346MPD2    C4 5240   2.753   0.973  14.663  0.6039  0.5349 -0.7277
  346MPD2    C5 5241   2.625   0.959  14.613  0.3518 -0.0177  0.1307
  346MPD2     H 5242   2.905   0.903  14.367 -1.0413 -0.7198  0.4635
  346MPD2    H1 5243   2.764   1.013  14.763 -2.0415  0.9075 -0.5925
  346MPD2    H2 5244   2.495   0.910  14.465 -0.0568  0.4323  1.7900
  346MPD2    H3 5245   2.537   0.993  14.667 -1.3416  0.5331 -2.9541
  346MPD2     N 5246   2.989   0.992  14.605  0.1418 -0.2309 -0.1413
  346MPD2    H5 5247   3.052   0.970  14.528 -1.2880 -2.1221 -0.7506
  346MPD2    N1 5248   2.679   0.839  14.266 -0.3816  0.1032 -0.1282
  346MPD2    H7 5249   2.765   0.827  14.212 -0.4003 -2.1756  0.3532
  347TMC3    C1 5250   3.175   1.051  14.734  0.7451 -0.0456 -0.0103
  347TMC3    C2 5251   3.252   1.087  14.627  0.3825 -0.4219  0.2333
  347TMC3    C3 5252   3.380   1.137  14.643 -0.1363 -0.1447 -0.6960
  347TMC3    C4 5253   3.233   1.057  14.858  0.2215 -1.2161  0.2114
  347TMC3    C5 5254   3.366   1.076  14.862 -1.3425  0.5431 -0.0126
  347TMC3    C6 5255   3.440   1.124  14.764  0.4850  0.0570 -0.5239
  347TMC3     C 5256   3.037   1.020  14.729  0.4345 -0.1701  0.0458
  347TMC3     O 5257   2.987   1.025  14.839  0.1802  0.8121 -0.0518
  347TMC3     H 5258   3.205   1.112  14.532 -0.5048 -1.0322  0.5039
  347TMC3    H1 5259   3.180   1.028  14.947 -0.1887 -1.0030  0.0353
  347TMC3    H2 5260   3.546   1.144  14.770  0.0853  1.9520  0.3694
  347TMC3    C7 5261   3.408   1.123  14.991  0.0857 -0.4620 -0.5412
  347TMC3    C8 5262   3.403   1.259  14.583  0.0538  0.1934 -0.2765
  347TMC3    O1 5263   3.376   1.055  15.088 -0.2845 -1.1117 -0.2076
  347TMC3    O2 5264   3.415   1.347  14.668  0.0984 -0.1012 -1.0968
  348MPD2     C 5265   1.725   0.162  11.824 -0.4518 -0.0068 -0.1544
  348MPD2    C1 5266   1.597   0.172  11.873  0.4409 -0.2873  0.6898
  348MPD2    C2 5267   1.512   0.279  11.836 -0.0244 -0.2309  0.8038
  348MPD2    C3 5268   1.551   0.366  11.732 -0.2470  0.2983 -0.2921
  348MPD2    C4 5269   1.670   0.336  11.666 -0.0134 -0.7653 -0.6597
  348MPD2    C5 5270   1.756   0.240  11.716  0.1612 -0.8365 -0.1747
  348MPD2     H 5271   1.413   0.289  11.879 -0.7548 -1.6825 -0.5467
  348MPD2    H1 5272   1.707   0.396  11.584  1.3169 -0.9512 -0.1995
  348MPD2    H2 5273   1.804   0.106  11.874 -0.9502 -1.1671 -0.6814
  348MPD2    H3 5274   1.858   0.229  11.680  0.1622 -0.6650 -0.2254
  348MPD2     N 5275   1.468   0.474  11.698 -0.3073  0.1064  0.1162
  348MPD2    H5 5276   1.382   0.480  11.751 -0.0198  1.9052  0.3901
  348MPD2    N1 5277   1.545   0.086  11.967  0.3428  0.3267 -0.0818
  348MPD2    H7 5278   1.453   0.103  12.006  0.8013  0.0251  1.1144
  349TMC3    C1 5279   1.510   4.630  12.095 -0.2328 -0.1407  0.3003
  349TMC3    C2 5280   1.556   4.527  12.173 -0.9023 -0.0218 -0.0649
  349TMC3    C3 5281   1.467   4.444  12.238  0.4046  1.0075  0.1588
  349TMC3    C4 5282   1.381   4.642  12.061 -0.8676 -0.2370  0.5374
  349TMC3    C5 5283   1.294   4.557  12.126  0.6650  0.3795  0.0079
  349TMC3    C6 5284   1.337   4.464  12.222  0.6656  0.7575 -0.5600
  349TMC3     C 5285   1.605   4.713  12.024 -0.0995 -0.4934 -0.1055
  349TMC3     O 5286   1.721   4.677  12.026 -0.0008  0.2203 -0.2023
  349TMC3     H 5287   1.662   4.518  12.193 -1.3054 -1.0965  1.5819
  349TMC3    H1 5288   1.346   4.703  11.979 -1.6577 -2.0869 -0.4909
  349TMC3    H2 5289   1.266   4.417  12.289  2.1292 -2.4817 -1.2923
  349TMC3    C7 5290   1.158   4.593  12.107 -0.1928 -0.3457 -0.5844
  349TMC3    C8 5291   1.523   4.372  12.356  0.1591  0.1926 -0.0993
  349TMC3    O1 5292   1.076   4.503  12.106  0.3254  0.4077  0.2018
  349TMC3    O2 5293   1.641   4.391  12.389 -0.4498 -0.3610  0.4801
  350MPD2     C 5294   4.629   3.507  10.106 -0.4916  0.0479  0.2220
  350MPD2    C1 5295   4.583   3.390  10.151  0.0800  0.5062 -0.1682
  350MPD2    C2 5296   4.620   3.340  10.273  0.5158  0.7437 -0.1274
  350MPD2    C3 5297   4.713   3.401  10.344 -0.7834 -1.1732 -0.0572
  350MPD2    C4 5298   0.035   3.518  10.297  0.6750  0.2686 -0.5201
  350MPD2    C5 5299   4.721   3.572  10.189  0.6321 -0.8180  0.1220
  350MPD2     H 5300   4.579   3.246  10.306  1.5227 -0.3806 -2.0793
  350MPD2    H1 5301   0.103   3.573  10.360  3.3471 -2.3423 -1.1200
  350MPD2    H2 5302   4.595   3.559  10.018  0.5450 -1.4547 -1.0748
  350MPD2    H3 5303   0.009   3.673  10.159 -1.1754  0.2222  2.0732
  350MPD2     N 5304   0.001   3.347  10.476  0.1045 -0.1183  0.1828
  350MPD2    H5 5305   4.704   3.254  10.499  0.2732 -0.3490 -0.4914
  350MPD2    N1 5306   4.499   3.305  10.079 -0.1629 -0.3859 -0.2002
  350MPD2    H7 5307   4.474   3.218  10.125  0.3364 -0.2718  0.2945
  351TMC3    C1 5308   4.403   3.216   9.885 -0.3434  0.3556  0.0403
  351TMC3    C2 5309   4.479   3.177   9.780  0.5166 -0.0560 -0.2425
  351TMC3    C3 5310   4.476   3.040   9.752 -0.2410  0.1065 -0.6233
  351TMC3    C4 5311   4.329   3.135   9.962  0.2962 -0.9343  0.2105
  351TMC3    C5 5312   4.322   2.999   9.929  0.0171 -0.4950  0.1052
  351TMC3    C6 5313   4.390   2.959   9.819  0.0945 -0.6909 -0.3336
  351TMC3     C 5314   4.441   3.338   9.960 -0.4203  0.0407  0.6783
  351TMC3     O 5315   4.452   3.441   9.888 -0.0385  0.5140 -0.7791
  351TMC3     H 5316   4.544   3.250   9.734  0.3695  1.4671  1.9951
  351TMC3    H1 5317   4.271   3.175  10.044 -1.1551  0.2349 -1.3746
  351TMC3    H2 5318   4.370   2.859   9.784  1.3591 -0.6821 -1.0882
  351TMC3    C7 5319   4.213   2.916   9.986 -0.4622 -0.1070 -0.8526
  351TMC3    C8 5320   4.576   2.985   9.660  0.3837  0.1854  0.0651
  351TMC3    O1 5321   4.110   2.966  10.023 -0.1223 -0.3743  1.3834
  351TMC3    O2 5322   4.650   3.065   9.607  0.1080  0.3745  0.3676
  352MPD2     C 5323   3.280   0.404   0.789  0.0139 -0.3635 -0.3463
  352MPD2    C1 5324   3.164   0.355   0.839 -0.3245  0.1593 -0.5722
  352MPD2    C2 5325   3.158   0.230   0.903 -0.0816  0.4491 -0.4328
  352MPD2    C3 5326   3.282   0.160   0.919 -0.4116  0.0128 -0.2305
  352MPD2    C4 5327   3.398   0.219   0.886  0.9658  0.0954  0.2883
  352MPD2    C5 5328   3.396   0.337   0.813 -0.2440  0.4467 -0.7257
  352MPD2     H 5329   3.061   0.208   0.946 -0.4710  1.5605 -0.7421
  352MPD2    H1 5330   3.493   0.167   0.884  0.8229 -0.1313 -0.5723
  352MPD2    H2 5331   3.280   0.495   0.729 -0.2858  0.0225  0.2485
  352MPD2    H3 5332   3.484   0.381   0.769  1.4807 -0.1335  2.1256
  352MPD2     N 5333   3.289   0.030   0.972  1.2192 -0.0830 -0.0057
  352MPD2    H5 5334   3.383   4.730   0.969  1.1543 -0.1390 -1.7121
  352MPD2    N1 5335   3.053   0.446   0.817  0.1706 -0.1719 -0.1227
  352MPD2    H7 5336   3.074   0.530   0.764 -0.0192  0.2154  0.4093
  353TMC3    C1 5337   3.216   4.536   1.028 -0.6989  0.0564  0.3554
  353TMC3    C2 5338   3.331   4.489   1.078 -0.6439 -0.1958 -0.3288
  353TMC3    C3 5339   3.362   4.352   1.085 -0.5430 -0.8588  0.4587
  353TMC3    C4 5340   3.116   4.448   0.982 -0.2283 -0.2013 -0.2824
  353TMC3    C5 5341   3.152   4.319   0.984 -0.0105 -0.1549  0.3560
  353TMC3    C6 5342   3.269   4.264   1.040 -0.3019  0.0346 -0.4084
  353TMC3     C 5343   3.186   4.680   1.004 -0.5754 -0.0294 -0.4930
  353TMC3     O 5344   3.069   4.705   0.996  0.1626  0.1021  0.5669
  353TMC3     H 5345   3.407   4.558   1.114 -1.4223  0.9415 -0.8982
  353TMC3    H1 5346   3.033   4.492   0.927  0.1940  1.1930  0.1928
  353TMC3    H2 5347   3.275   4.156   1.033 -0.4154  0.0374 -0.5383
  353TMC3    C7 5348   3.052   4.219   0.947 -0.1921  0.4807 -0.4657
  353TMC3    C8 5349   3.483   4.315   1.154 -0.3133  0.2833  0.4683
  353TMC3    O1 5350   3.077   4.096   0.958 -0.3444  0.1914  0.1860
  353TMC3    O2 5351   3.560   4.401   1.198 -0.3774  0.7577  1.0197
  354TMC3    C1 5352   0.782   1.800  13.535 -0.1690 -0.1280  0.1035
  354TMC3    C2 5353   0.815   1.933  13.552  0.7251 -0.0293 -0.7060
  354TMC3    C3 5354   0.914   1.984  13.479 -0.7046  0.5722 -0.0366
  354TMC3    C4 5355   0.845   1.719  13.443  0.1662  1.1797 -0.1198
  354TMC3    C5 5356   0.946   1.770  13.372  0.6278 -0.1994  0.2165
  354TMC3    C6 5357   0.978   1.904  13.383 -0.4349 -0.5398 -0.5122
  354TMC3     C 5358   0.675   1.751  13.621  0.3851  0.4302 -0.5232
  354TMC3     O 5359   0.642   1.824  13.711 -0.1315 -0.3520  0.1575
  354TMC3     H 5360   0.761   1.995  13.622  1.7933  1.9734 -1.6285
  354TMC3    H1 5361   0.832   1.612  13.445 -0.7824  1.3057  0.3982
  354TMC3    H2 5362   1.050   1.946  13.314 -0.8517 -0.3938 -0.8605
  354TMC3    C7 5363   0.979   1.704  13.250 -0.1837  0.2721 -0.2541
  354TMC3    C8 5364   0.916   2.126  13.460 -0.7832 -0.1664 -0.0472
  354TMC3    O1 5365   0.905   1.620  13.208 -0.5040  0.4683  0.1635
  354TMC3    O2 5366   0.865   2.200  13.541 -0.8033 -0.3832  0.4725
  355MPD2     C 5367   0.314   2.763  11.810  0.1318  0.7362 -0.2815
  355MPD2    C1 5368   0.382   2.766  11.691  0.0488 -0.1458 -0.0371
  355MPD2    C2 5369   0.518   2.737  11.679 -0.0966  0.6659  0.3973
  355MPD2    C3 5370   0.596   2.719  11.796 -0.0802 -0.2929 -0.0807
  355MPD2    C4 5371   0.525   2.735  11.916 -0.6978 -0.3421 -0.3429
  355MPD2    C5 5372   0.391   2.745  11.929 -1.3499  0.2032 -0.4258
  355MPD2     H 5373   0.568   2.712  11.586  0.0272 -2.4350  1.2947
  355MPD2    H1 5374   0.580   2.711  12.007  0.1914  0.3202 -0.7054
  355MPD2    H2 5375   0.207   2.777  11.813  0.0587  0.4908 -1.9413
  355MPD2    H3 5376   0.346   2.742  12.027  0.8507  0.9795  0.6105
  355MPD2     N 5377   0.736   2.698  11.793  0.8830 -0.2481 -0.5570
  355MPD2    H5 5378   0.768   2.691  11.889 -1.1616 -0.2467  0.1205
  355MPD2    N1 5379   0.308   2.802  11.576 -0.1054 -0.0869 -0.1280
  355MPD2    H7 5380   0.209   2.791  11.597 -0.4979  0.4255 -1.7061
  356TMC3    C1 5381   0.955   2.747  11.704 -0.3411  0.6785 -0.0373
  356TMC3    C2 5382   1.015   2.806  11.597 -0.5345 -0.7093  0.0825
  356TMC3    C3 5383   1.080   2.925  11.624  0.1877  0.0458 -0.5902
  356TMC3    C4 5384   0.968   2.798  11.834  0.0744 -0.4541  0.2942
  356TMC3    C5 5385   1.049   2.902  11.854 -0.2915  0.3690 -0.4752
  356TMC3    C6 5386   1.106   2.965  11.752 -0.0504  0.1455  0.1562
  356TMC3     C 5387   0.822   2.698  11.682 -0.3217 -0.1113  0.6080
  356TMC3     O 5388   0.786   2.678  11.567  0.1938  0.1665 -0.1614
  356TMC3     H 5389   0.990   2.780  11.494  2.2218  1.5354 -1.1300
  356TMC3    H1 5390   0.924   2.752  11.921 -1.1561  0.6142  0.2357
  356TMC3    H2 5391   1.149   3.062  11.774 -0.0358 -0.2806  1.9500
  356TMC3    C7 5392   1.045   2.967  11.984  0.3074 -0.1306 -0.4111
  356TMC3    C8 5393   1.138   3.001  11.510 -0.7937 -0.6067 -0.1741
  356TMC3    O1 5394   0.946   2.955  12.054  0.0295  0.5567 -0.2342
  356TMC3    O2 5395   1.099   2.968  11.398  0.1145 -0.1637 -0.3724
  357MPD2     C 5396   0.051   1.771   0.602 -1.3629  0.4331  0.5306
  357MPD2    C1 5397   0.146   1.824   0.692 -0.0110 -0.3248 -0.4875
  357MPD2    C2 5398   0.105   1.904   0.795  0.7386 -0.4997 -0.6474
  357MPD2    C3 5399   4.709   1.940   0.815 -0.2285  0.2897 -0.1117
  357MPD2    C4 5400   4.614   1.873   0.739 -0.3150 -0.3794  0.5297
  357MPD2    C5 5401   4.656   1.798   0.627 -0.1136  0.0224 -0.0485
  357MPD2     H 5402   0.180   1.951   0.858 -0.3866  1.1820 -0.5683
  357MPD2    H1 5403   4.508   1.894   0.751 -0.4681  0.0965 -1.6682
  357MPD2    H2 5404   0.072   1.700   0.524  0.1641 -0.3076  1.6059
  357MPD2    H3 5405   4.577   1.754   0.567 -0.2574  1.6945 -1.0686
  357MPD2     N 5406   4.659   2.003   0.928  0.6680 -0.0601  0.2555
  357MPD2    H5 5407   4.560   2.022   0.936  0.3820 -2.2343  2.0283
  357MPD2    N1 5408   0.281   1.790   0.659 -0.0031  0.9286  0.2638
  357MPD2    H7 5409   0.298   1.748   0.568  1.1333  0.2124  0.8034
  358TMC3    C1 5410   0.519   1.799   0.700 -0.2559  0.3500  0.2819
  358TMC3    C2 5411   0.541   1.724   0.587 -0.3999  0.1661 -0.5358
  358TMC3    C3 5412   0.669   1.686   0.566  0.8445 -0.0807  0.0687
  358TMC3    C4 5413   0.619   1.808   0.792  0.5718 -0.3015  0.2430
  358TMC3    C5 5414   0.742   1.765   0.765  0.7003 -0.2230 -0.1670
  358TMC3    C6 5415   0.772   1.711   0.650 -0.1688  0.5112 -0.1592
  358TMC3     C 5416   0.384   1.821   0.745 -0.4142  0.2493  0.5032
  358TMC3     O 5417   0.382   1.848   0.866  0.3560 -0.1408 -0.1755
  358TMC3     H 5418   0.469   1.704   0.508  0.8127 -1.1789 -1.3075
  358TMC3    H1 5419   0.598   1.854   0.888  0.4503  0.2606 -0.0543
  358TMC3    H2 5420   0.873   1.718   0.612 -0.0808 -1.4250 -0.2543
  358TMC3    C7 5421   0.840   1.766   0.872  0.3497 -0.9219 -0.3093
  358TMC3    C8 5422   0.700   1.651   0.423 -0.4525 -0.3002  0.8662
  358TMC3    O1 5423   0.811   1.839   0.966 -0.5021  0.0715 -1.2159
  358TMC3    O2 5424   0.614   1.650   0.337 -0.2291  0.3299 -0.0089
  359MPD2     C 5425   1.037   1.065  12.859  0.5906  0.3024 -0.8368
  359MPD2    C1 5426   0.975   1.017  12.752  0.2574 -0.4662 -0.0549
  359MPD2    C2 5427   0.911   0.902  12.765 -0.6781  0.1809 -0.2981
  359MPD2    C3 5428   0.900   0.833  12.881  0.4894  0.0737 -0.0161
  359MPD2    C4 5429   0.949   0.891  12.993  0.5803 -1.2678 -0.2689
  359MPD2    C5 5430   1.019   1.008  12.981 -1.0378 -0.3206 -0.5416
  359MPD2     H 5431   0.871   0.854  12.677  1.4075  0.4693 -1.3954
  359MPD2    H1 5432   0.929   0.842  13.087  0.0284  0.9631  0.7791
  359MPD2    H2 5433   1.094   1.157  12.854  3.3029 -1.3806 -0.7568
  359MPD2    H3 5434   1.056   1.059  13.070 -0.5300 -0.5074 -0.6449
  359MPD2     N 5435   0.834   0.705  12.893  0.3984 -0.4845 -0.3720
  359MPD2    H5 5436   0.833   0.664  12.986  0.2617  1.9377  0.6983
  359MPD2    N1 5437   0.999   1.072  12.624  0.1255  0.6741  1.1604
  359MPD2    H7 5438   0.987   1.005  12.548 -2.2078  2.1330  0.2340
  360TMC3    C1 5439   1.082   1.229  12.463 -0.0520 -0.7203  0.3668
  360TMC3    C2 5440   1.165   1.340  12.433  0.4743 -0.3068  0.0146
  360TMC3    C3 5441   1.222   1.337  12.309 -0.1437  0.2764  0.4515
  360TMC3    C4 5442   1.015   1.161  12.363  0.0079 -0.3084 -0.7862
  360TMC3    C5 5443   1.053   1.192  12.235 -0.6652 -0.1126 -0.3408
  360TMC3    C6 5444   1.168   1.265  12.207  0.0144  0.4580  0.4550
  360TMC3     C 5445   1.053   1.198  12.600  0.4871 -1.1833 -0.2181
  360TMC3     O 5446   1.083   1.282  12.680  0.0544  0.2122 -0.5026
  360TMC3     H 5447   1.216   1.394  12.513  2.8204 -0.1628 -1.5770
  360TMC3    H1 5448   0.933   1.093  12.385 -0.9220  1.4157  1.0205
  360TMC3    H2 5449   1.185   1.285  12.102  1.7006  0.0918  0.6703
  360TMC3    C7 5450   0.960   1.195  12.126  0.1558  1.2799 -0.1661
  360TMC3    C8 5451   1.342   1.406  12.280  0.5548 -0.5975  0.1287
  360TMC3    O1 5452   0.997   1.235  12.019  0.0261 -0.1480  0.4896
  360TMC3    O2 5453   1.389   1.492  12.354  0.0224 -0.7573  0.0734
  361MPD2     C 5454   2.886   4.515  16.540  0.0100  0.1364 -0.4713
  361MPD2    C1 5455   2.877   4.559  16.671  0.4063 -0.1851  0.1097
  361MPD2    C2 5456   2.924   4.478  16.772  0.3215 -0.0576  0.1711
  361MPD2    C3 5457   2.973   4.346  16.739 -1.4297  0.0891  0.4883
  361MPD2    C4 5458   2.977   4.307  16.607  0.3909  0.2489 -0.6182
  361MPD2    C5 5459   2.925   4.387  16.509 -0.4474  0.2776  0.1023
  361MPD2     H 5460   2.913   4.513  16.874  0.4388 -3.0157  1.2016
  361MPD2    H1 5461   3.018   4.211  16.578  1.1715  0.5215 -0.4246
  361MPD2    H2 5462   2.856   4.574  16.454 -1.3017 -0.4433 -0.4074
  361MPD2    H3 5463   2.909   4.358  16.406 -3.1546  0.2045  0.5245
  361MPD2     N 5464   3.017   4.253  16.838  0.2066  0.9397 -0.0600
  361MPD2    H5 5465   3.029   4.155  16.811 -1.4392  0.2742  1.6219
  361MPD2    N1 5466   2.816   4.681  16.707 -0.4038  0.3907 -0.1208
  361MPD2    H7 5467   2.777   4.687  16.801 -2.3777 -0.8729 -0.8754
  362TMC3    C1 5468   2.729   0.160  16.667 -0.1482 -0.9432 -0.1375
  362TMC3    C2 5469   2.649   0.137  16.769 -0.4736 -0.6589  0.5507
  362TMC3    C3 5470   2.567   0.242  16.806 -0.1299  0.0272 -0.4305
  362TMC3    C4 5471   2.731   0.276  16.588 -0.2521  0.3600 -0.1482
  362TMC3    C5 5472   2.644   0.374  16.628  0.6960 -0.0047  0.1059
  362TMC3    C6 5473   2.565   0.361  16.741  0.3019 -0.3786  0.4576
  362TMC3     C 5474   2.807   0.048  16.619 -1.1646  0.2411  0.1715
  362TMC3     O 5475   2.864   0.062  16.511 -0.0670 -0.3808 -0.0165
  362TMC3     H 5476   2.638   0.042  16.821  0.3619 -0.4010  1.2028
  362TMC3    H1 5477   2.767   0.275  16.485 -0.6512  2.0886 -0.3078
  362TMC3    H2 5478   2.504   0.440  16.783  0.2815 -0.3644  0.4023
  362TMC3    C7 5479   2.609   0.483  16.538 -0.3042  0.6877  0.1895
  362TMC3    C8 5480   2.502   0.223  16.932  0.4876 -0.2441 -0.4977
  362TMC3    O1 5481   2.497   0.529  16.554 -1.0354 -0.8153 -0.1306
  362TMC3    O2 5482   2.558   0.151  17.012  0.0083  0.0954 -0.5219
  363TMC3    C1 5483   0.900   2.813   8.956 -0.4442 -0.0030  0.0073
  363TMC3    C2 5484   1.023   2.796   9.010 -0.4151 -0.6176  0.2085
  363TMC3    C3 5485   1.047   2.713   9.114  0.1127 -0.3095  0.3570
  363TMC3    C4 5486   0.794   2.743   9.001 -0.5143 -0.0422 -0.4424
  363TMC3    C5 5487   0.819   2.654   9.109  0.1661  0.1774  0.5014
  363TMC3    C6 5488   0.943   2.636   9.164  0.3582 -0.1455  0.4515
  363TMC3     C 5489   0.878   2.931   8.875  0.5647 -0.3165  0.4619
  363TMC3     O 5490   0.763   2.973   8.893 -0.2059 -0.3760 -0.8369
  363TMC3     H 5491   1.108   2.861   8.989 -1.0960  0.7356  1.6167
  363TMC3    H1 5492   0.700   2.750   8.947 -1.1856  1.5057  0.9421
  363TMC3    H2 5493   0.958   2.562   9.242  1.7296 -1.0126 -0.6301
  363TMC3    C7 5494   0.705   2.571   9.142 -0.5542  0.0367  0.3571
  363TMC3    C8 5495   1.183   2.711   9.184 -0.4626 -0.4228  0.5784
  363TMC3    O1 5496   0.616   2.559   9.061 -0.0875  0.0096  0.1037
  363TMC3    O2 5497   1.273   2.783   9.137 -0.0137 -0.4793 -0.3023
  364MPD2     C 5498   4.158   2.364  11.022  0.0627  0.0805  0.9339
  364MPD2    C1 5499   4.161   2.258  10.928 -0.3286 -0.5937  0.7533
  364MPD2    C2 5500   4.196   2.131  10.968  0.2254  0.3208 -0.0930
  364MPD2    C3 5501   4.239   2.107  11.097 -0.2077 -0.4263 -0.6909
  364MPD2    C4 5502   4.243   2.206  11.185  0.1363  0.3647 -0.2653
  364MPD2    C5 5503   4.205   2.329  11.147  0.2276 -0.0882  1.2069
  364MPD2     H 5504   4.182   2.039  10.912  0.7232  1.3784 -1.9527
  364MPD2    H1 5505   4.276   2.204  11.288  0.6169  2.3137 -0.3637
  364MPD2    H2 5506   4.135   2.464  10.989  2.1638 -0.1607 -1.3388
  364MPD2    H3 5507   4.200   2.412  11.217 -3.3751 -1.5726  2.7151
  364MPD2     N 5508   4.295   1.983  11.138 -0.0307  0.3159  0.3003
  364MPD2    H5 5509   4.345   1.985  11.227 -1.6350  1.0501  1.1883
  364MPD2    N1 5510   4.150   2.289  10.797  0.2664  0.1511 -0.2325
  364MPD2    H7 5511   4.168   2.384  10.766  0.9526  0.1735  0.2479
  365TMC3    C1 5512   4.149   2.283  10.575  0.1893  0.3572 -0.2483
  365TMC3    C2 5513   4.257   2.247  10.513 -0.7583  0.2022  0.2163
  365TMC3    C3 5514   4.326   2.339  10.441  0.2807  0.4965  0.3996
  365TMC3    C4 5515   4.096   2.410  10.575  0.6813  0.1955  0.6127
  365TMC3    C5 5516   4.155   2.498  10.493  0.1880 -0.2252 -0.1583
  365TMC3    C6 5517   4.278   2.471  10.439 -0.8480  0.4179 -0.1349
  365TMC3     C 5518   4.122   2.203  10.693 -0.3229  0.4224  0.4057
  365TMC3     O 5519   4.119   2.079  10.689 -0.3543 -0.0504 -0.2321
  365TMC3     H 5520   4.288   2.143  10.513  0.1711  0.4742 -0.9528
  365TMC3    H1 5521   3.998   2.421  10.620  1.5816 -1.4740  2.9918
  365TMC3    H2 5522   4.326   2.547  10.378  0.2305 -0.3030 -0.1820
  365TMC3    C7 5523   4.143   2.645  10.518  0.3203 -0.0596  0.5503
  365TMC3    C8 5524   4.469   2.330  10.424 -0.2837  0.3542 -0.2493
  365TMC3    O1 5525   4.207   2.728  10.455  0.0648  0.7041 -0.2514
  365TMC3    O2 5526   4.526   2.436  10.410 -0.2574 -0.3659  0.2574
  366MPD2     C 5527   3.137   2.799  15.152  0.1025  0.7648 -0.1658
  366MPD2    C1 5528   3.180   2.871  15.257 -1.1911  0.2472  0.3617
  366MPD2    C2 5529   3.312   2.878  15.278 -0.0707  0.2666  0.4169
  366MPD2    C3 5530   3.401   2.825  15.188  0.5203  0.6209 -0.3112
  366MPD2    C4 5531   3.365   2.763  15.074 -0.1755  1.0712  0.0665
  366MPD2    C5 5532   3.228   2.743  15.065 -0.0161 -0.3120  0.1279
  366MPD2     H 5533   3.342   2.925  15.371 -1.5099  0.0838  0.9894
  366MPD2    H1 5534   3.427   2.739  14.989  1.3881 -0.1229  1.5586
  366MPD2    H2 5535   3.031   2.782  15.134  0.3198 -0.1744 -0.5548
  366MPD2    H3 5536   3.188   2.685  14.983 -1.9241  0.8232  0.2645
  366MPD2     N 5537   3.535   2.854  15.211  0.0918 -0.1548  0.5223
  366MPD2    H5 5538   3.552   2.905  15.297 -0.3276 -0.0730  0.5553
  366MPD2    N1 5539   3.099   2.926  15.356 -0.1072  0.2413  0.1391
  366MPD2    H7 5540   3.143   2.964  15.439  0.9387  0.6030 -0.5728
  367TMC3    C1 5541   2.917   3.015  15.461  0.5948  0.1452 -0.0658
  367TMC3    C2 5542   3.000   3.053  15.562  0.1893 -0.6418 -0.2304
  367TMC3    C3 5543   2.982   3.175  15.614  0.3398 -0.2739  0.6667
  367TMC3    C4 5544   2.825   3.102  15.407 -0.5543  0.4419  0.2245
  367TMC3    C5 5545   2.804   3.215  15.471  0.2659 -0.7518 -0.0901
  367TMC3    C6 5546   2.884   3.259  15.579 -0.3048 -0.4736 -0.6911
  367TMC3     C 5547   2.962   2.925  15.356 -0.5077  0.1130  0.5189
  367TMC3     O 5548   2.880   2.901  15.268 -0.0754  0.1027 -0.3180
  367TMC3     H 5549   3.065   2.982  15.611  0.7217  0.8159  1.1533
  367TMC3    H1 5550   2.759   3.073  15.326 -1.5852 -1.1449  1.6192
  367TMC3    H2 5551   2.860   3.352  15.630 -1.0635 -1.5256  0.8539
  367TMC3    C7 5552   2.759   3.322  15.386  0.1755 -0.7713  0.1179
  367TMC3    C8 5553   3.099   3.238  15.676 -0.0015  0.7275 -0.4761
  367TMC3    O1 5554   2.807   3.431  15.404 -0.2337 -0.5616 -0.4500
  367TMC3    O2 5555   3.181   3.168  15.733 -0.2534  0.6163 -0.3085
  368MPD2     C 5556   4.060   4.652  13.551 -0.4887  0.3470  0.0214
  368MPD2    C1 5557   4.120   0.022  13.487  0.3157  0.1126 -0.4912
  368MPD2    C2 5558   4.235   4.734  13.411 -0.4347 -0.0027  0.2444
  368MPD2    C3 5559   4.281   4.604  13.398 -0.8276  0.0409 -0.7201
  368MPD2    C4 5560   4.218   4.500  13.467 -0.2709  0.5505  0.0011
  368MPD2    C5 5561   4.109   4.525  13.544 -0.2760 -0.3848  0.0665
  368MPD2     H 5562   4.281   0.077  13.354 -0.2592 -0.1017  0.2481
  368MPD2    H1 5563   4.265   4.403  13.469 -0.2744  0.5083 -1.4232
  368MPD2    H2 5564   3.978   4.665  13.621 -0.8765  3.3139 -0.9742
  368MPD2    H3 5565   4.068   4.443  13.601 -0.9612 -0.7123 -0.9078
  368MPD2     N 5566   4.403   4.582  13.331 -0.3710 -0.8216  0.5728
  368MPD2    H5 5567   4.468   4.506  13.349  0.2590  0.3430  3.1747
  368MPD2    N1 5568   4.050   0.141  13.504 -0.9200  0.4607 -0.4289
  368MPD2    H7 5569   3.954   0.124  13.530 -0.5297 -2.6193 -1.0832
  369TMC3    C1 5570   4.034   0.379  13.464 -0.1787  0.1716 -0.7694
  369TMC3    C2 5571   4.104   0.445  13.368 -0.9517 -0.0189  0.6267
  369TMC3    C3 5572   4.066   0.440  13.237 -0.5893  0.6193  0.0253
  369TMC3    C4 5573   3.914   0.340  13.432 -0.5899  0.0213  0.0114
  369TMC3    C5 5574   3.873   0.338  13.302 -0.0941  0.4371  0.2239
  369TMC3    C6 5575   3.950   0.386  13.198  0.0513  0.6394  0.6204
  369TMC3     C 5576   4.111   0.262  13.496  0.0517  0.2657 -0.4648
  369TMC3     O 5577   4.228   0.272  13.465  0.1433  0.9682  0.0628
  369TMC3     H 5578   4.203   0.479  13.398 -0.6346  0.2277 -0.6775
  369TMC3    H1 5579   3.846   0.315  13.512 -0.4743  0.9102  0.3893
  369TMC3    H2 5580   3.930   0.359  13.095 -0.8452 -0.3742  1.0531
  369TMC3    C7 5581   3.767   0.239  13.284  0.0162 -0.6610 -0.0379
  369TMC3    C8 5582   4.181   0.431  13.153  0.1180  0.3464  0.1490
  369TMC3    O1 5583   3.734   0.169  13.377  0.1106  0.1648 -0.1641
  369TMC3    O2 5584   4.188   0.494  13.050  0.0574  0.0787  0.2090
  370TMC3    C1 5585   3.867   0.768  16.227 -0.3271 -0.1597 -0.8732
  370TMC3    C2 5586   3.776   0.689  16.291 -0.8019  0.4126  0.2127
  370TMC3    C3 5587   3.753   0.565  16.246 -0.0184  0.6952  0.1060
  370TMC3    C4 5588   3.904   0.738  16.101  0.4025  0.3472  1.2151
  370TMC3    C5 5589   3.909   0.599  16.081 -0.4838 -0.1464  0.5891
  370TMC3    C6 5590   3.841   0.508  16.155 -0.2497  0.4127 -0.1533
  370TMC3     C 5591   3.936   0.855  16.314 -1.3278  0.6099 -1.0230
  370TMC3     O 5592   3.952   0.838  16.433  0.4749  0.4555 -0.1726
  370TMC3     H 5593   3.739   0.723  16.388 -2.7179 -0.2348 -0.2820
  370TMC3    H1 5594   3.963   0.813  16.048 -0.2950 -0.5351 -0.8053
  370TMC3    H2 5595   3.834   0.405  16.124  0.6555  0.5452 -0.7898
  370TMC3    C7 5596   3.990   0.565  15.970 -0.3983 -0.0452  0.2870
  370TMC3    C8 5597   3.681   0.464  16.323  0.5267  0.3450 -0.5128
  370TMC3    O1 5598   3.974   0.633  15.874 -0.9178 -0.6037 -0.9563
  370TMC3    O2 5599   3.712   0.347  16.302 -0.4141  0.1019 -0.6270
  371TMC3    C1 5600   0.633   3.856  15.342 -0.0139  0.3753 -0.1945
  371TMC3    C2 5601   0.566   3.906  15.455 -0.0589 -0.5405 -0.0899
  371TMC3    C3 5602   0.561   4.035  15.460 -0.0273 -0.7779  0.2193
  371TMC3    C4 5603   0.700   3.932  15.248  0.3516 -0.5844  0.0410
  371TMC3    C5 5604   0.675   4.069  15.253  0.5283  0.1764 -0.5304
  371TMC3    C6 5605   0.608   4.117  15.363  0.3352  0.3293 -0.1187
  371TMC3     C 5606   0.643   3.710  15.329 -0.1845  0.3894  0.4490
  371TMC3     O 5607   0.738   3.678  15.256 -0.2349  0.1983  0.2887
  371TMC3     H 5608   0.540   3.853  15.546  1.7509  0.9206  1.2736
  371TMC3    H1 5609   0.748   3.892  15.160 -0.6328 -0.3963 -0.5862
  371TMC3    H2 5610   0.613   4.221  15.393  0.5514  0.1981  0.3108
  371TMC3    C7 5611   0.757   4.166  15.174 -0.4239  0.0883 -0.5828
  371TMC3    C8 5612   0.547   4.082  15.591 -0.5621 -0.7014 -0.1722
  371TMC3    O1 5613   0.790   4.269  15.234  0.1191 -0.4110 -0.2915
  371TMC3    O2 5614   0.630   4.050  15.679  0.1622 -0.5327  0.7215
  372MPD2     C 5615   4.634   0.740  13.211  0.2862 -0.3341  0.6206
  372MPD2    C1 5616   0.002   0.689  13.286 -0.1089  0.8893  0.0950
  372MPD2    C2 5617   4.719   0.582  13.374 -0.1807  1.0931  0.1852
  372MPD2    C3 5618   4.589   0.542  13.399 -1.0201  0.8147 -0.5098
  372MPD2    C4 5619   4.482   0.597  13.329  0.3759  0.1126  0.3096
  372MPD2    C5 5620   4.506   0.703  13.241  0.1296 -0.2428 -0.2490
  372MPD2     H 5621   0.056   0.536  13.438 -1.0207 -0.7366 -0.1460
  372MPD2    H1 5622   4.383   0.555  13.343 -0.7575  2.5764 -0.1392
  372MPD2    H2 5623   4.645   0.819  13.138  0.6543 -1.0419 -0.0825
  372MPD2    H3 5624   4.429   0.768  13.199 -0.9668 -1.1073  0.4203
  372MPD2     N 5625   4.569   0.441  13.504 -0.1753  0.0499 -0.1812
  372MPD2    H5 5626   4.640   0.375  13.535 -1.3530 -0.7199  0.8844
  372MPD2    N1 5627   0.135   0.727  13.250 -0.5932 -0.5744  0.6942
  372MPD2    H7 5628   0.215   0.690  13.300  0.0250 -0.8533 -0.5333
  373TMC3    C1 5629   4.466   0.329  13.679 -0.1673  0.4432  0.8055
  373TMC3    C2 5630   4.363   0.324  13.761  0.1902  0.1298  0.1588
  373TMC3    C3 5631   4.324   0.197  13.796 -0.5176  0.0820  0.4904
  373TMC3    C4 5632   4.543   0.218  13.637  0.1471 -1.1796  0.1949
  373TMC3    C5 5633   4.491   0.093  13.665  0.1603 -1.0717 -0.5837
  373TMC3    C6 5634   4.384   0.085  13.749  1.0858 -1.1212  0.0820
  373TMC3     C 5635   4.457   0.434  13.581  0.4162 -0.4782 -0.2474
  373TMC3     O 5636   4.371   0.525  13.586  0.2803  0.1136  0.2813
  373TMC3     H 5637   4.312   0.412  13.799 -1.6297  0.2129 -2.4909
  373TMC3    H1 5638   4.641   0.227  13.593 -1.1759  1.1021 -2.3010
  373TMC3    H2 5639   4.330   4.732  13.774  0.5480 -0.6129  0.7794
  373TMC3    C7 5640   4.586   4.723  13.672  0.2835 -0.7680  0.0110
  373TMC3    C8 5641   4.228   0.183  13.904  0.1334 -0.3720 -0.1213
  373TMC3    O1 5642   4.696   0.007  13.623 -0.3329  0.3089 -0.2173
  373TMC3    O2 5643   4.124   0.249  13.889 -0.5778  0.0292  0.1382
  374TMC3    C1 5644   0.370   0.664   9.849  0.8020  0.8788 -0.3831
  374TMC3    C2 5645   0.385   0.785   9.915 -0.6679  0.6556 -0.3985
  374TMC3    C3 5646   0.434   0.889   9.842  0.4473 -0.2369 -0.0830
  374TMC3    C4 5647   0.384   0.655   9.710 -0.1774 -0.0568 -0.4446
  374TMC3    C5 5648   0.440   0.760   9.643 -0.6975  0.2211 -0.5715
  374TMC3    C6 5649   0.455   0.879   9.706  0.5696 -0.2121  0.5044
  374TMC3     C 5650   0.351   0.541   9.910  1.2716  0.0594  0.6687
  374TMC3     O 5651   0.330   0.447   9.828 -0.5651 -0.1215  0.3035
  374TMC3     H 5652   0.352   0.799  10.017 -2.0676  0.6527 -0.8465
  374TMC3    H1 5653   0.380   0.564   9.652 -2.0108 -0.5548  0.4900
  374TMC3    H2 5654   0.468   0.976   9.660 -1.8312 -0.7312 -1.2785
  374TMC3    C7 5655   0.455   0.753   9.498  0.4682  0.0824  0.0763
  374TMC3    C8 5656   0.454   1.011   9.905  0.3014  0.7881 -0.1980
  374TMC3    O1 5657   0.422   0.649   9.445  1.0656 -0.2598 -0.0010
  374TMC3    O2 5658   0.433   1.110   9.835 -0.6666 -0.1364 -0.4836
  375MPD2     C 5659   0.545   0.859  16.915  0.6053  0.1519 -0.4042
  375MPD2    C1 5660   0.469   0.902  16.807 -0.4237  0.9925  0.2589
  375MPD2    C2 5661   0.520   0.878  16.680 -0.1181 -0.7674  0.3029
  375MPD2    C3 5662   0.634   0.799  16.668  0.0523 -0.2345  0.3481
  375MPD2    C4 5663   0.710   0.751  16.776 -0.3705 -0.1948  0.3426
  375MPD2    C5 5664   0.659   0.786  16.902  0.4959  0.2879  0.3180
  375MPD2     H 5665   0.466   0.910  16.592 -0.5929 -1.1196  0.4706
  375MPD2    H1 5666   0.805   0.702  16.764  0.2119  0.6736  1.3108
  375MPD2    H2 5667   0.526   0.886  17.018  1.5880 -0.5851 -0.0306
  375MPD2    H3 5668   0.711   0.764  16.994 -1.8080 -1.0315  1.3205
  375MPD2     N 5669   0.682   0.762  16.541  0.1333 -0.2246 -0.5904
  375MPD2    H5 5670   0.763   0.702  16.540  0.8674  0.7545  0.7094
  375MPD2    N1 5671   0.351   0.973  16.827  0.4544  0.6935  0.0961
  375MPD2    H7 5672   0.293   0.990  16.745  3.0418 -3.8040 -2.7303
  376TMC3    C1 5673   0.728   0.755  16.312  0.2253  1.2556  0.2508
  376TMC3    C2 5674   0.865   0.801  16.326 -0.2045 -0.9375 -0.1379
  376TMC3    C3 5675   0.935   0.826  16.208  0.0891 -0.3158  1.0123
  376TMC3    C4 5676   0.671   0.742  16.182  0.2833  1.2938 -0.4986
  376TMC3    C5 5677   0.751   0.775  16.073 -0.2888  1.4484  0.7410
  376TMC3    C6 5678   0.877   0.826  16.086  0.0694 -0.1100  0.5566
  376TMC3     C 5679   0.635   0.789  16.415 -0.4146 -0.6500 -0.1022
  376TMC3     O 5680   0.531   0.851  16.383  0.7189 -0.3106  0.0575
  376TMC3     H 5681   0.907   0.829  16.422 -1.0210 -0.1435 -0.0088
  376TMC3    H1 5682   0.564   0.729  16.174  0.2037  1.8606 -0.3616
  376TMC3    H2 5683   0.930   0.864  16.000  0.4033 -2.6246 -0.3477
  376TMC3    C7 5684   0.685   0.800  15.944 -0.2918  0.5663 -0.6498
  376TMC3    C8 5685   1.076   0.839  16.211 -0.2738  0.8216  0.0881
  376TMC3    O1 5686   0.742   0.872  15.866  0.3647  0.3414 -0.0614
  376TMC3    O2 5687   1.131   0.891  16.115  0.2741 -0.6713 -0.0228
  377MPD2     C 5688   3.380   0.625  12.806  0.4903  0.5422  0.1563
  377MPD2    C1 5689   3.475   0.590  12.893  0.5008 -0.1424 -0.2778
  377MPD2    C2 5690   3.440   0.528  13.010  0.9748 -0.0446 -0.0620
  377MPD2    C3 5691   3.306   0.499  13.035 -1.0001 -0.1132 -0.0529
  377MPD2    C4 5692   3.209   0.545  12.954  0.3113 -0.3073 -0.4258
  377MPD2    C5 5693   3.247   0.605  12.841  0.2438  0.6127  0.2496
  377MPD2     H 5694   3.518   0.495  13.077 -0.7374 -0.0872  1.9185
  377MPD2    H1 5695   3.102   0.540  12.973  0.0637 -2.5034 -2.3686
  377MPD2    H2 5696   3.417   0.656  12.710  1.8493  1.5675  1.0192
  377MPD2    H3 5697   3.169   0.659  12.788  0.6137 -1.0185 -1.9735
  377MPD2     N 5698   3.263   0.430  13.151  0.0766 -0.0322 -0.8291
  377MPD2    H5 5699   3.170   0.390  13.151 -0.3703  1.0105  0.4720
  377MPD2    N1 5700   3.608   0.630  12.853 -0.4110 -0.0357 -0.9254
  377MPD2    H7 5701   3.621   0.691  12.773  1.1462 -0.9077 -1.3383
  378TMC3    C1 5702   3.866   0.761  12.670 -0.6782 -0.3643  1.1205
  378TMC3    C2 5703   3.813   0.745  12.798 -0.2995 -0.2930  0.2838
  378TMC3    C3 5704   3.834   0.632  12.866  0.2394 -0.0003 -0.1160
  378TMC3    C4 5705   3.959   0.669  12.624 -0.1177  0.1015  0.0841
  378TMC3    C5 5706   3.999   0.569  12.706  0.2915 -0.2797 -0.2427
  378TMC3    C6 5707   3.924   0.545  12.821 -0.0416  0.3278 -0.5329
  378TMC3     C 5708   3.758   0.798  12.579  0.9141  0.7510  0.4297
  378TMC3     O 5709   3.652   0.785  12.639  0.0608 -0.0434  0.1373
  378TMC3     H 5710   3.737   0.813  12.834  0.0628  0.1977  0.1053
  378TMC3    H1 5711   3.996   0.679  12.522  0.5226 -1.1160  0.1929
  378TMC3    H2 5712   3.946   0.457  12.881  0.5444  2.0766  1.8191
  378TMC3    C7 5713   4.125   0.506  12.672 -0.4133 -0.8481 -0.2135
  378TMC3    C8 5714   3.711   0.568  12.907 -0.3087 -0.4036  0.1699
  378TMC3    O1 5715   4.149   0.395  12.713 -0.0913  0.7914  0.7380
  378TMC3    O2 5716   3.725   0.465  12.973 -0.0141 -0.2661 -0.0879
  379MPD2     C 5717   4.212   3.536  16.200 -0.7424  0.5497 -0.4486
  379MPD2    C1 5718   4.132   3.460  16.284 -0.5086 -0.2120 -0.2045
  379MPD2    C2 5719   4.188   3.379  16.383 -0.4768  0.0629 -0.3346
  379MPD2    C3 5720   4.325   3.377  16.397 -0.6362  0.4591 -0.1449
  379MPD2    C4 5721   4.406   3.447  16.302 -0.2545  0.3945  0.7250
  379MPD2    C5 5722   4.347   3.529  16.210  0.2706  0.3129  0.3604
  379MPD2     H 5723   4.125   3.321  16.449 -1.2438  1.8929  0.5638
  379MPD2    H1 5724   4.514   3.436  16.310  0.1588  1.8226 -2.9883
  379MPD2    H2 5725   4.168   3.585  16.115  0.3413 -1.5573 -2.2314
  379MPD2    H3 5726   4.404   3.588  16.139  0.7691  0.8256  1.1871
  379MPD2     N 5727   4.399   3.298  16.487  0.4813  0.2043 -0.9046
  379MPD2    H5 5728   4.499   3.293  16.471  0.9922 -1.8927  3.0421
  379MPD2    N1 5729   3.990   3.465  16.258  0.5508  0.0176 -0.0735
  379MPD2    H7 5730   3.952   3.518  16.181  0.2138  0.5681  0.4668
  380TMC3    C1 5731   3.788   3.363  16.236  0.0319  0.5308 -0.3478
  380TMC3    C2 5732   3.835   3.265  16.155 -0.0834 -0.5823 -0.4052
  380TMC3    C3 5733   3.812   3.272  16.019  0.9263 -0.2254  0.3619
  380TMC3    C4 5734   3.726   3.472  16.182  0.2471  0.5385  0.9800
  380TMC3    C5 5735   3.687   3.464  16.050  0.1148 -0.1473 -0.0436
  380TMC3    C6 5736   3.729   3.371  15.968 -0.3925  0.6409  0.3049
  380TMC3     C 5737   3.894   3.394  16.332 -0.6623 -0.1919 -0.1672
  380TMC3     O 5738   3.901   3.316  16.428  0.5551 -0.6276 -0.3540
  380TMC3     H 5739   3.890   3.185  16.203  0.8104 -0.1310 -0.6782
  380TMC3    H1 5740   3.692   3.551  16.248  1.9585 -0.4561  3.0265
  380TMC3    H2 5741   3.732   3.395  15.863  1.2395 -0.0898  0.1803
  380TMC3    C7 5742   3.564   3.537  16.011 -0.4133  0.6976  0.2907
  380TMC3    C8 5743   3.938   3.271  15.948 -0.6272  0.1128  0.7444
  380TMC3    O1 5744   3.537   3.643  16.069 -0.2403 -0.4007 -0.0415
  380TMC3    O2 5745   3.952   3.352  15.858  0.4222 -0.3410 -0.3183
  381TMC3    C1 5746   3.886   4.489  16.317  0.3895  0.4738 -0.4599
  381TMC3    C2 5747   3.945   4.600  16.274  0.8938  0.2992  0.3184
  381TMC3    C3 5748   3.908   4.719  16.331  0.8114  0.5762 -0.6594
  381TMC3    C4 5749   3.790   4.488  16.409 -0.4136 -0.0942  0.6952
  381TMC3    C5 5750   3.741   4.607  16.454 -1.0291  0.0228 -0.0444
  381TMC3    C6 5751   3.805   4.723  16.429  0.5095  0.1197 -0.4323
  381TMC3     C 5752   3.923   4.359  16.258 -0.0501 -0.0140  0.2464
  381TMC3     O 5753   3.985   4.360  16.152  0.2306 -0.0383 -0.4266
  381TMC3     H 5754   4.028   4.583  16.207  0.8086 -0.1245  0.3197
  381TMC3    H1 5755   3.725   4.404  16.431  0.9103 -2.1232 -3.2583
  381TMC3    H2 5756   3.767   0.079  16.470  0.4080 -0.2042  0.2186
  381TMC3    C7 5757   3.654   4.580  16.570 -0.1368 -0.0873 -0.0983
  381TMC3    C8 5758   3.998   0.098  16.307  0.3471  0.3299 -0.4504
  381TMC3    O1 5759   3.673   4.485  16.644 -0.5640  0.0849 -0.0644
  381TMC3    O2 5760   4.085   0.083  16.222  0.2841 -0.4985 -0.0136
  382MPD2     C 5761   3.184   2.323  16.847  1.3033  0.5550  0.0495
  382MPD2    C1 5762   3.271   2.264  16.937 -0.4622 -0.3562 -0.1334
  382MPD2    C2 5763   3.245   2.134  16.985  0.1030  0.7084  0.5416
  382MPD2    C3 5764   3.128   2.065  16.952  0.2300  0.1037 -0.5170
  382MPD2    C4 5765   3.051   2.121  16.853 -0.9240 -0.3933  0.3525
  382MPD2    C5 5766   3.077   2.251  16.807 -0.0212 -0.1834 -0.1496
  382MPD2     H 5767   3.325   2.096  17.047  0.5195  0.0877 -0.3594
  382MPD2    H1 5768   2.959   2.075  16.816 -2.5144  2.1016  1.1639
  382MPD2    H2 5769   3.199   2.426  16.816  0.7030  0.0397 -1.9880
  382MPD2    H3 5770   3.004   2.294  16.739 -1.3978  0.3800  1.6680
  382MPD2     N 5771   3.078   1.944  17.014 -0.2289  0.1854 -0.5999
  382MPD2    H5 5772   2.992   1.909  16.972 -0.5858  0.1506  0.1479
  382MPD2    N1 5773   3.383   2.335  16.996 -0.2349  0.1299  0.2642
  382MPD2    H7 5774   3.421   2.285  17.075  1.5459 -0.0965 -0.7254
  383TMC3    C1 5775   3.069   1.771  17.187 -0.1322  0.0904  1.0853
  383TMC3    C2 5776   2.940   1.763  17.166 -0.2490 -0.1690  0.0063
  383TMC3    C3 5777   2.869   1.673  17.236  0.0546  0.3618 -0.0385
  383TMC3    C4 5778   3.132   1.690  17.285 -0.0826  0.6187 -0.8078
  383TMC3    C5 5779   3.054   1.594  17.345  0.3139 -0.3936  0.2384
  383TMC3    C6 5780   2.921   1.579  17.324  0.5459  0.2968 -0.3037
  383TMC3     C 5781   3.144   1.872  17.117  0.0565 -0.7249  0.3223
  383TMC3     O 5782   3.263   1.887  17.142  0.2132  0.3100 -0.3401
  383TMC3     H 5783   2.883   1.827  17.099  1.2690  2.5122  1.2699
  383TMC3    H1 5784   3.236   1.704  17.312 -0.6332 -0.9403  2.1169
  383TMC3    H2 5785   2.864   1.518  17.394  0.3634 -0.2058 -0.8840
  383TMC3    C7 5786   3.111   1.531  17.461 -0.1398  0.2250 -0.0768
  383TMC3    C8 5787   2.727   1.666  17.195  0.2150 -0.0443  0.0260
  383TMC3    O1 5788   3.037   1.485  17.547  0.0817  0.0491  0.1321
  383TMC3    O2 5789   2.665   1.760  17.147  0.1762 -0.3242 -0.0391
  384MPD2     C 5790   4.243   3.576  12.016  0.2092  0.5396 -0.1816
  384MPD2    C1 5791   4.244   3.537  12.147  0.1502  0.0497 -0.3609
  384MPD2    C2 5792   4.327   3.437  12.183  0.5111  0.1953 -0.5395
  384MPD2    C3 5793   4.422   3.383  12.100  0.2693  0.3444  0.3391
  384MPD2    C4 5794   4.425   3.423  11.973  0.1090 -0.1645 -0.2922
  384MPD2    C5 5795   4.334   3.520  11.932  0.7933  0.3635 -0.3138
  384MPD2     H 5796   4.325   3.409  12.287  2.6707  1.6707 -0.1022
  384MPD2    H1 5797   4.488   3.374  11.899  1.3456  0.1781  0.5366
  384MPD2    H2 5798   4.186   3.660  11.977  0.1845  0.9975  0.8234
  384MPD2    H3 5799   4.325   3.552  11.829 -0.5502  0.3435 -0.1984
  384MPD2     N 5800   4.505   3.286  12.154 -0.1192 -0.7599  1.0265
  384MPD2    H5 5801   4.480   3.274  12.251  0.0806 -1.3970  0.9971
  384MPD2    N1 5802   4.155   3.596  12.238 -0.6450 -0.5837  0.5175
  384MPD2    H7 5803   4.145   3.553  12.329  0.5035 -0.2142  0.8122
  385TMC3    C1 5804   4.665   3.119  12.190 -0.3607 -0.2150  0.5023
  385TMC3    C2 5805   4.657   2.989  12.153  0.1976  0.5153 -0.5630
  385TMC3    C3 5806   4.601   2.897  12.237 -0.1742  0.1535 -0.3438
  385TMC3    C4 5807   4.628   3.156  12.318 -0.0229  0.1274  0.2139
  385TMC3    C5 5808   4.581   3.063  12.402 -0.4265  0.4232  0.3143
  385TMC3    C6 5809   4.570   2.932  12.366  0.1625  0.1795 -0.6916
  385TMC3     C 5810   4.598   3.206  12.090  0.2022 -0.1932  0.3216
  385TMC3     O 5811   4.619   3.195  11.968 -0.1995  0.3241  0.6281
  385TMC3     H 5812   4.671   2.973  12.047 -3.7807 -1.1449 -0.8282
  385TMC3    H1 5813   4.650   3.259  12.343 -0.7478 -0.3830  2.9857
  385TMC3    H2 5814   4.524   2.856  12.428  0.2636  0.2451 -0.5356
  385TMC3    C7 5815   4.461   3.123  12.460 -0.8464 -0.4402  0.3365
  385TMC3    C8 5816   4.567   2.760  12.195  0.8647 -0.1782  0.5108
  385TMC3    O1 5817   4.434   3.235  12.417  0.7686 -0.2821 -0.2891
  385TMC3    O2 5818   4.567   2.664  12.271  0.0464 -0.0001  0.9257
  386TMC3    C1 5819   0.290   1.088  11.787  0.1397 -0.3551 -0.3701
  386TMC3    C2 5820   0.200   1.119  11.690 -0.4535  0.3528  0.3676
  386TMC3    C3 5821   0.088   1.199  11.724  0.5545 -0.2949  0.0708
  386TMC3    C4 5822   0.257   1.104  11.922 -0.0353 -0.0238 -0.2994
  386TMC3    C5 5823   0.146   1.179  11.953  0.2787 -0.0235 -0.2639
  386TMC3    C6 5824   0.063   1.237  11.855  0.1413  0.1797  0.4062
  386TMC3     C 5825   0.395   0.997  11.739  0.2309  0.2829 -0.3433
  386TMC3     O 5826   0.460   1.029  11.641 -0.1826 -0.7404 -0.1767
  386TMC3     H 5827   0.219   1.089  11.587 -0.6510  1.5082 -0.0109
  386TMC3    H1 5828   0.320   1.071  12.003 -0.0039 -2.4944 -1.3340
  386TMC3    H2 5829   4.716   1.298  11.882  0.1115  0.9789 -1.5074
  386TMC3    C7 5830   0.105   1.172  12.088 -0.3508  0.9178 -0.1335
  386TMC3    C8 5831   4.722   1.224  11.627 -0.0470 -0.6197 -0.5867
  386TMC3    O1 5832   0.193   1.147  12.175 -0.1316 -0.1494 -0.0599
  386TMC3    O2 5833   4.611   1.253  11.668 -0.0934 -0.0052  0.0479
  387MPD2     C 5834   2.012   1.356  10.515 -0.4630  1.1424  0.2508
  387MPD2    C1 5835   2.105   1.285  10.582  0.7270  0.2571  0.0124
  387MPD2    C2 5836   2.135   1.155  10.536 -0.4830  0.1922  0.3279
  387MPD2    C3 5837   2.078   1.102  10.422 -0.0877  0.0575  0.9038
  387MPD2    C4 5838   1.977   1.172  10.361  0.1900 -0.3129 -0.5043
  387MPD2    C5 5839   1.947   1.300  10.408  0.1562  0.3735  0.0557
  387MPD2     H 5840   2.222   1.113  10.585  1.2179  1.0850 -1.9049
  387MPD2    H1 5841   1.924   1.137  10.273 -0.8158  2.4000 -0.9574
  387MPD2    H2 5842   1.980   1.457  10.539 -2.6280  0.9659 -1.9002
  387MPD2    H3 5843   1.872   1.355  10.352  2.4084  0.5684 -2.7209
  387MPD2     N 5844   2.118   0.977  10.382 -0.2668 -0.6524 -0.3508
  387MPD2    H5 5845   2.174   0.930  10.453 -0.5905  2.5189  2.0216
  387MPD2    N1 5846   2.184   1.325  10.690 -0.7432  0.1661 -0.3468
  387MPD2    H7 5847   2.257   1.260  10.715 -0.8612  0.6052  1.1563
  388TMC3    C1 5848   2.279   1.462  10.850  0.5758 -0.1521  0.8304
  388TMC3    C2 5849   2.338   1.584  10.843 -0.0731  0.0710  0.0266
  388TMC3    C3 5850   2.466   1.594  10.892  0.2551 -0.3533 -0.4037
  388TMC3    C4 5851   2.339   1.354  10.902  0.0211 -0.3973 -0.0664
  388TMC3    C5 5852   2.467   1.369  10.957  0.1030 -0.2402  0.4879
  388TMC3    C6 5853   2.530   1.485  10.956 -0.3593  0.1237 -0.0410
  388TMC3     C 5854   2.163   1.446  10.758  0.7849 -0.1533  0.2086
  388TMC3     O 5855   2.092   1.542  10.732  0.0851  0.0099  0.8769
  388TMC3     H 5856   2.291   1.665  10.789 -1.1717  0.1058  1.0305
  388TMC3    H1 5857   2.289   1.258  10.899  0.2918 -0.6592  3.1359
  388TMC3    H2 5858   2.635   1.497  10.980 -0.5505 -1.1322  1.4617
  388TMC3    C7 5859   2.553   1.254  10.949  0.4664 -0.2310  0.6266
  388TMC3    C8 5860   2.544   1.697  10.815 -0.2609 -0.5351 -0.0217
  388TMC3    O1 5861   2.647   1.243  11.029  0.2704 -0.2834 -0.3608
  388TMC3    O2 5862   2.476   1.787  10.759  0.5438 -0.9914 -0.4197
  389MPD2     C 5863   1.387   4.367  11.092 -0.8246  0.3234 -0.6279
  389MPD2    C1 5864   1.283   4.279  11.074  0.3644  0.7489  0.7890
  389MPD2    C2 5865   1.255   4.179  11.166  0.5469  0.0833  0.4969
  389MPD2    C3 5866   1.338   4.164  11.281  0.2729 -0.2602 -0.2857
  389MPD2    C4 5867   1.440   4.254  11.294 -0.0515  0.5024  0.1117
  389MPD2    C5 5868   1.464   4.358  11.208 -1.0625  0.5700  0.0548
  389MPD2     H 5869   1.178   4.107  11.140  0.7357  0.1858 -0.3237
  389MPD2    H1 5870   1.504   4.259  11.381 -0.0589 -0.6529  0.1951
  389MPD2    H2 5871   1.402   4.451  11.024 -2.8230  1.5345  0.4464
  389MPD2    H3 5872   1.544   4.426  11.233  1.2951 -1.3623 -2.1961
  389MPD2     N 5873   1.325   4.076  11.386 -0.6392 -0.1572 -0.0038
  389MPD2    H5 5874   1.388   4.083  11.465  1.4470 -3.0663 -1.4083
  389MPD2    N1 5875   1.203   4.299  10.960  0.1308  0.7581  0.9202
  389MPD2    H7 5876   1.228   4.377  10.901 -2.7930  1.3348  0.4444
  390TMC3    C1 5877   1.249   3.891  11.512 -0.3499 -0.3275 -0.1387
  390TMC3    C2 5878   1.202   3.769  11.493  0.6376  0.1140  0.1791
  390TMC3    C3 5879   1.230   3.669  11.579  0.4558  0.4924  0.0127
  390TMC3    C4 5880   1.318   3.928  11.624  0.6587  0.1889 -0.5434
  390TMC3    C5 5881   1.345   3.826  11.713 -0.4738  0.5853 -0.2979
  390TMC3    C6 5882   1.309   3.695  11.695 -0.0494  0.1448 -0.2761
  390TMC3     C 5883   1.230   3.978  11.395 -1.0590  0.2414 -0.0474
  390TMC3     O 5884   1.149   3.940  11.309 -0.1330  0.0623 -0.0259
  390TMC3     H 5885   1.130   3.749  11.415  0.5917 -1.3303  0.5987
  390TMC3    H1 5886   1.339   4.030  11.652 -1.2247  0.5647 -0.5005
  390TMC3    H2 5887   1.356   3.617  11.754 -0.5123  1.3912  1.7392
  390TMC3    C7 5888   1.343   3.864  11.850 -0.3978 -0.7085 -0.0273
  390TMC3    C8 5889   1.138   3.552  11.575  0.7869  0.5251  0.2795
  390TMC3    O1 5890   1.396   3.967  11.883 -0.7348  0.5915 -0.3509
  390TMC3    O2 5891   1.062   3.534  11.477 -0.1694  0.2268  0.8146
  391MPD2     C 5892   0.858   0.555  11.324  0.5161 -0.4037 -0.7073
  391MPD2    C1 5893   0.959   0.649  11.324 -0.0498  0.2075  0.1252
  391MPD2    C2 5894   0.973   0.736  11.219  0.7390 -0.5500  0.2792
  391MPD2    C3 5895   0.872   0.742  11.114 -0.0106 -0.3816  0.3975
  391MPD2    C4 5896   0.772   0.644  11.118 -0.0357  0.3709 -0.5013
  391MPD2    C5 5897   0.772   0.550  11.219  0.4353  0.7206  0.5380
  391MPD2     H 5898   1.063   0.796  11.215  0.0542  0.2902 -2.4894
  391MPD2    H1 5899   0.688   0.645  11.050  0.3572 -0.8944 -1.0118
  391MPD2    H2 5900   0.838   0.479  11.400  0.2819  1.3937  1.0231
  391MPD2    H3 5901   0.699   0.471  11.213 -0.8978  2.2401 -2.8234
  391MPD2     N 5902   0.890   0.834  11.012  0.2813  0.3468 -0.2517
  391MPD2    H5 5903   0.983   0.868  10.993  0.9233 -0.9924  0.5324
  391MPD2    N1 5904   1.040   0.659  11.444 -0.2906 -0.3270 -0.0534
  391MPD2    H7 5905   1.028   0.588  11.516 -0.1801 -0.6432 -0.3493
  392TMC3    C1 5906   0.849   0.950  10.820 -0.6636  0.1268 -0.0772
  392TMC3    C2 5907   0.790   0.934  10.692  0.3070 -0.3008  0.3861
  392TMC3    C3 5908   0.836   1.017  10.591 -0.5954  0.2699 -0.2691
  392TMC3    C4 5909   0.953   1.029  10.845  0.2640  0.0760 -0.2526
  392TMC3    C5 5910   0.993   1.109  10.740  0.2548 -0.0006 -0.1905
  392TMC3    C6 5911   0.937   1.101  10.616 -0.4341 -0.7253 -0.2531
  392TMC3     C 5912   0.795   0.873  10.927  0.2779  0.0922  0.1532
  392TMC3     O 5913   0.678   0.845  10.935 -0.2406 -0.2478  0.1878
  392TMC3     H 5914   0.706   0.865  10.690  0.6150 -0.6357 -0.8506
  392TMC3    H1 5915   1.005   1.050  10.937  3.1013 -1.2332 -1.5714
  392TMC3    H2 5916   0.977   1.160  10.535  1.9899 -3.2767 -0.9265
  392TMC3    C7 5917   1.091   1.212  10.767 -0.1069  0.4128  0.4871
  392TMC3    C8 5918   0.785   1.003  10.461  0.4182 -0.5664 -0.0556
  392TMC3    O1 5919   1.115   1.237  10.882 -0.5101 -0.4785 -0.7813
  392TMC3    O2 5920   0.747   0.890  10.440 -0.7050 -0.3026 -0.3522
  393TMC3    C1 5921   3.972   3.676  10.430  0.0035 -0.0547  0.3572
  393TMC3    C2 5922   3.904   3.607  10.335  0.0133  0.3915 -0.4040
  393TMC3    C3 5923   3.813   3.513  10.381 -0.1736  0.2821  0.5355
  393TMC3    C4 5924   3.960   3.642  10.561  0.4264 -0.5419 -0.1209
  393TMC3    C5 5925   3.882   3.540  10.591  0.2952  0.1453 -0.2408
  393TMC3    C6 5926   3.814   3.469  10.506  0.6967  0.6409 -0.7684
  393TMC3     C 5927   4.046   3.792  10.386  0.2672 -0.0228 -0.6987
  393TMC3     O 5928   4.024   3.840  10.273 -0.0592 -0.0919  0.1337
  393TMC3     H 5929   3.935   3.615  10.232  1.1854 -0.3779 -0.1153
  393TMC3    H1 5930   4.004   3.697  10.643  1.6433 -1.4666 -0.1518
  393TMC3    H2 5931   3.754   3.388  10.546 -0.0487  2.3315  1.5606
  393TMC3    C7 5932   3.922   3.462  10.706 -0.2039  0.9832  0.1887
  393TMC3    C8 5933   3.739   3.435  10.292 -0.8469  0.0781 -0.2144
  393TMC3    O1 5934   3.837   3.389  10.758 -0.0812  0.6686 -0.1966
  393TMC3    O2 5935   3.698   3.329  10.343 -0.1717  0.0592 -0.4066
  394TMC3    C1 5936   1.045   4.294  10.789 -0.8506  0.1882 -0.3051
  394TMC3    C2 5937   0.925   4.253  10.736  0.2523  0.2020  0.5654
  394TMC3    C3 5938   0.898   4.277  10.610  0.3062  0.1120 -0.4256
  394TMC3    C4 5939   1.132   4.371  10.720  0.1362  0.3952 -0.2479
  394TMC3    C5 5940   1.101   4.396  10.589 -0.0652 -0.1022 -0.0633
  394TMC3    C6 5941   0.988   4.349  10.531 -0.2882 -0.0065 -0.4306
  394TMC3     C 5942   1.091   4.230  10.917  1.0909  0.1362 -0.5149
  394TMC3     O 5943   1.023   4.147  10.979  0.1845 -0.0991 -0.1771
  394TMC3     H 5944   0.870   4.178  10.792  0.4247 -2.0544 -2.2757
  394TMC3    H1 5945   1.231   4.404  10.749  0.6835 -1.6049  0.1670
  394TMC3    H2 5946   0.957   4.377  10.431 -1.4116  2.2741  0.5644
  394TMC3    C7 5947   1.166   4.499  10.520 -0.1940  0.3954  0.1161
  394TMC3    C8 5948   0.787   4.200  10.555 -0.2854 -0.0966 -0.8149
  394TMC3    O1 5949   1.284   4.510  10.543 -0.1956 -0.5263 -0.3091
  394TMC3    O2 5950   0.714   4.156  10.639  0.2518  1.1828  0.9859
  395TMC3    C1 5951   1.206   1.154  14.939 -1.0362  0.0411  0.8987
  395TMC3    C2 5952   1.083   1.213  14.930  0.0955  0.5973  0.2662
  395TMC3    C3 5953   1.091   1.347  14.889  0.2204  0.2679  0.3765
  395TMC3    C4 5954   1.323   1.221  14.915  0.7255  0.6110  0.1236
  395TMC3    C5 5955   1.322   1.350  14.872  0.2952  0.8545 -0.5164
  395TMC3    C6 5956   1.206   1.420  14.871 -0.3606  0.0014  0.5611
  395TMC3     C 5957   1.219   1.054  15.037 -0.1338 -0.4470  0.3937
  395TMC3     O 5958   1.293   0.957  15.024 -0.1538 -0.1279 -0.8882
  395TMC3     H 5959   0.991   1.161  14.955  0.6879  1.0309  3.3850
  395TMC3    H1 5960   1.417   1.168  14.927  0.5148  0.5020  1.2899
  395TMC3    H2 5961   1.208   1.519  14.827  1.2997 -0.6763 -0.8963
  395TMC3    C7 5962   1.448   1.425  14.880 -0.4591  0.1742  0.2061
  395TMC3    C8 5963   0.972   1.415  14.869 -0.0704 -0.0126  0.7467
  395TMC3    O1 5964   1.445   1.533  14.938  0.4044 -0.1239 -0.4233
  395TMC3    O2 5965   0.977   1.538  14.868  0.0385 -0.1898  0.0945
  396MPD2     C 5966   1.078   2.066  16.669  0.1312 -0.3144  0.2554
  396MPD2    C1 5967   1.200   2.080  16.737  0.4512  0.0917 -0.0118
  396MPD2    C2 5968   1.283   2.186  16.694  0.5933  0.2713  0.6962
  396MPD2    C3 5969   1.245   2.274  16.597  0.2508 -0.5738 -0.9105
  396MPD2    C4 5970   1.117   2.273  16.548  0.1810  0.1923 -0.0989
  396MPD2    C5 5971   1.032   2.172  16.590 -0.3057  0.0967  0.2773
  396MPD2     H 5972   1.382   2.194  16.737  0.8863 -1.7394  0.3992
  396MPD2    H1 5973   1.074   2.350  16.484  0.7374  0.5933  0.0060
  396MPD2    H2 5974   1.011   1.982  16.685 -0.0902 -0.0103  0.9180
  396MPD2    H3 5975   0.936   2.161  16.542 -1.2276  0.6690  1.9825
  396MPD2     N 5976   1.341   2.367  16.547 -0.0293  0.0522  0.1315
  396MPD2    H5 5977   1.424   2.385  16.603  0.8930  1.7160 -1.7464
  396MPD2    N1 5978   1.225   1.993  16.842  0.1179  0.4167 -0.2547
  396MPD2    H7 5979   1.168   1.913  16.866  0.4070  0.4500  0.5315
  397TMC3    C1 5980   1.301   1.944  17.062 -0.4430  0.1053 -0.1740
  397TMC3    C2 5981   1.414   1.933  17.143 -0.2924 -0.1967  0.3580
  397TMC3    C3 5982   1.429   1.822  17.223 -0.0655 -0.3909  1.1365
  397TMC3    C4 5983   1.208   1.837  17.056 -0.4040  0.3174  1.0617
  397TMC3    C5 5984   1.229   1.731  17.140  0.3397 -0.5488  0.3444
  397TMC3    C6 5985   1.341   1.717  17.224  0.1986 -0.2786 -0.3056
  397TMC3     C 5986   1.322   2.016  16.938 -0.0278  0.5235  0.1241
  397TMC3     O 5987   1.420   2.086  16.931  0.2102  0.2695  0.1116
  397TMC3     H 5988   1.470   2.024  17.161 -1.0118  0.1862  0.6326
  397TMC3    H1 5989   1.115   1.840  17.000 -0.1710 -2.2859  0.5557
  397TMC3    H2 5990   1.354   1.628  17.285  3.3172  1.9931  2.3389
  397TMC3    C7 5991   1.107   1.648  17.152 -0.4267  0.6430 -0.9459
  397TMC3    C8 5992   1.553   1.785  17.297  0.0766 -0.2449  0.2253
  397TMC3    O1 5993   1.023   1.660  17.063 -0.5350  0.2968  0.5788
  397TMC3    O2 5994   1.549   1.694  17.377  0.6111  0.3032  0.5713
  398MPD2     C 5995   4.070   2.465  17.702 -0.0385  0.2923 -0.2122
  398MPD2    C1 5996   4.159   2.466   0.055  0.2954 -0.3446 -0.1309
  398MPD2    C2 5997   4.205   2.588   0.098 -0.8750 -0.5633 -0.2004
  398MPD2    C3 5998   4.150   2.704   0.057  0.1580  0.2711  0.0548
  398MPD2    C4 5999   4.061   2.697  17.703  0.3172 -0.1198 -0.1188
  398MPD2    C5 6000   4.029   2.580  17.646 -0.1590  0.0019  0.3945
  398MPD2     H 6001   4.271   2.604   0.182 -1.3295 -0.9220  0.2300
  398MPD2    H1 6002   4.020   2.784  17.652  2.0963  0.6708 -0.2014
  398MPD2    H2 6003   4.023   2.375  17.665 -1.3843  0.9396 -0.0907
  398MPD2    H3 6004   3.952   2.574  17.571 -0.6346 -4.1030  1.1826
  398MPD2     N 6005   4.187   2.818   0.121  0.0357 -0.4803  0.0598
  398MPD2    H5 6006   4.266   2.817   0.184 -0.0298 -1.9453  0.1126
  398MPD2    N1 6007   4.208   2.350   0.115 -0.4073 -0.0395 -0.0284
  398MPD2    H7 6008   4.288   2.355   0.177 -2.2403  0.1812  2.3322
  399TMC3    C1 6009   4.258   2.116   0.114 -0.8827 -0.4685 -0.0178
  399TMC3    C2 6010   4.393   2.136   0.128  0.0554 -0.6542 -0.0774
  399TMC3    C3 6011   4.471   2.028   0.145 -0.0224  0.5094 -0.0115
  399TMC3    C4 6012   4.201   1.987   0.101  0.1956 -0.5465  0.1135
  399TMC3    C5 6013   4.284   1.878   0.084  0.2109  0.4811  0.4167
  399TMC3    C6 6014   4.413   1.898   0.120 -0.2213 -0.1200 -0.4988
  399TMC3     C 6015   4.164   2.226   0.084 -0.1248  0.5775 -0.5650
  399TMC3     O 6016   4.051   2.195   0.050  0.2348 -0.2246 -0.3419
  399TMC3     H 6017   4.437   2.234   0.142  0.2241 -0.7382 -0.0269
  399TMC3    H1 6018   4.093   1.978   0.090 -0.0318  0.6440  1.3318
  399TMC3    H2 6019   4.476   1.810   0.127 -0.8787 -0.5740 -0.3406
  399TMC3    C7 6020   4.241   1.750   0.112  0.4489  0.5684 -0.5301
  399TMC3    C8 6021   4.611   2.044   0.175 -0.4381  0.5192 -0.7410
  399TMC3    O1 6022   4.313   1.684   0.184  0.0543  0.0124  0.4070
  399TMC3    O2 6023   4.648   2.162   0.168  0.2065 -0.5049 -0.6244
  400TMC3    C1 6024   2.730   1.554  16.823 -0.2423 -0.1879  0.3932
  400TMC3    C2 6025   2.621   1.511  16.754 -0.4032  0.1942  0.2888
  400TMC3    C3 6026   2.552   1.601  16.683 -0.1784  0.2160 -0.5150
  400TMC3    C4 6027   2.777   1.682  16.836  0.4717  0.2597  0.2649
  400TMC3    C5 6028   2.693   1.773  16.771  0.6397 -0.2533 -0.1861
  400TMC3    C6 6029   2.588   1.737  16.695  0.1460  0.5540 -0.7036
  400TMC3     C 6030   2.801   1.448  16.891  0.2629 -0.5385 -0.0012
  400TMC3     O 6031   2.737   1.346  16.915  0.2886 -0.4918  0.3658
  400TMC3     H 6032   2.592   1.407  16.743 -1.6565  0.7492 -1.6217
  400TMC3    H1 6033   2.853   1.708  16.909  1.1629 -0.4535 -0.2143
  400TMC3    H2 6034   2.533   1.815  16.643  1.6447  0.2401 -2.7687
  400TMC3    C7 6035   2.719   1.910  16.805  0.0313 -0.0390  0.1405
  400TMC3    C8 6036   2.411   1.576  16.645 -0.3026 -0.4170 -0.9142
  400TMC3    O1 6037   2.761   1.940  16.917 -0.1624 -0.0547  0.2970
  400TMC3    O2 6038   2.323   1.661  16.656 -0.2078  0.1219  0.0557
  401MPD2     C 6039   1.037   0.214   1.280 -0.0340 -0.5845  0.0992
  401MPD2    C1 6040   1.163   0.165   1.260 -0.1498  0.7292 -0.2216
  401MPD2    C2 6041   1.171   0.036   1.218 -0.0421 -0.4288 -0.2518
  401MPD2    C3 6042   1.070   4.693   1.182  0.1331  0.1799  0.4834
  401MPD2    C4 6043   0.944   0.002   1.216 -0.3683 -0.0565 -0.2294
  401MPD2    C5 6044   0.934   0.130   1.260  0.2216 -0.2459  0.2328
  401MPD2     H 6045   1.270   4.734   1.200  1.4430  3.4642 -0.7466
  401MPD2    H1 6046   0.853   4.688   1.188  0.8349 -3.2153  1.7131
  401MPD2    H2 6047   1.019   0.314   1.319  0.8302 -0.0707 -0.8321
  401MPD2    H3 6048   0.834   0.169   1.278 -0.3044 -0.4796 -2.1754
  401MPD2     N 6049   1.089   4.574   1.104  0.1865 -0.1924 -0.3552
  401MPD2    H5 6050   1.187   4.558   1.079  0.3595 -0.0720  0.2376
  401MPD2    N1 6051   1.280   0.237   1.277  0.0701 -0.1040  0.5014
  401MPD2    H7 6052   1.371   0.196   1.258 -0.2294 -0.0904 -1.0304
  402TMC3    C1 6053   1.048   4.373   0.996  0.3568  0.2062  0.2106
  402TMC3    C2 6054   1.044   4.247   1.039  0.2987  0.0046 -0.8697
  402TMC3    C3 6055   1.125   4.157   0.973  0.6188  1.1460 -0.0627
  402TMC3    C4 6056   1.134   4.418   0.896  0.0985  0.7106 -0.0481
  402TMC3    C5 6057   1.222   4.331   0.838  0.0339  0.8326  0.6633
  402TMC3    C6 6058   1.211   4.195   0.871 -0.1847 -0.1850  0.6048
  402TMC3     C 6059   0.991   4.479   1.073 -0.3444 -0.7017 -0.5451
  402TMC3     O 6060   0.869   4.470   1.107  0.5817 -0.1707 -0.0104
  402TMC3     H 6061   0.964   4.230   1.110 -0.3554  0.0989 -1.5932
  402TMC3    H1 6062   1.121   4.521   0.864 -1.2520  1.1487  1.9115
  402TMC3    H2 6063   1.268   4.110   0.837  0.5893  0.7264 -0.3707
  402TMC3    C7 6064   1.338   4.384   0.771 -0.1286 -0.5166  1.0712
  402TMC3    C8 6065   1.163   4.038   1.047 -0.4909  0.1034  0.5412
  402TMC3    O1 6066   1.356   4.506   0.770 -0.0876 -0.1362  0.0830
  402TMC3    O2 6067   1.271   3.988   1.028  0.0689  0.0092 -0.1773
  403MPD2     C 6068   4.240   3.176  13.018 -0.4029 -0.5700 -0.1090
  403MPD2    C1 6069   4.213   3.154  13.153 -0.7854 -0.8436  0.2527
  403MPD2    C2 6070   4.318   3.150  13.239 -0.3444  0.2432  0.7066
  403MPD2    C3 6071   4.449   3.169  13.191  0.5105  0.3836 -0.0824
  403MPD2    C4 6072   4.474   3.191  13.055 -0.0124 -0.3848 -0.1007
  403MPD2    C5 6073   4.365   3.189  12.972  0.8290  0.1402  0.0887
  403MPD2     H 6074   4.299   3.132  13.344  0.0685  0.8996  0.8976
  403MPD2    H1 6075   4.570   3.215  13.009 -0.7039  2.7590  0.1113
  403MPD2    H2 6076   4.164   3.163  12.942  1.0809 -1.5309 -1.4413
  403MPD2    H3 6077   4.380   3.228  12.872 -0.3665 -1.3792 -0.6765
  403MPD2     N 6078   4.553   3.162  13.284  0.6912 -0.1097  0.6046
  403MPD2    H5 6079   4.527   3.164  13.382 -1.1250 -2.6488  0.2008
  403MPD2    N1 6080   4.076   3.125  13.183 -0.4808 -0.0699 -0.3563
  403MPD2    H7 6081   4.015   3.133  13.103  0.2132  1.7759 -0.6997
  404TMC3    C1 6082   3.905   3.012  13.299 -0.2621 -0.2118  0.6374
  404TMC3    C2 6083   3.846   2.971  13.414 -0.0663  0.3185 -0.8942
  404TMC3    C3 6084   3.762   2.865  13.422  0.2527 -0.0542 -0.8013
  404TMC3    C4 6085   3.867   2.957  13.181  0.6442 -0.1786  0.0373
  404TMC3    C5 6086   3.773   2.856  13.187  0.6412  0.1616  0.4876
  404TMC3    C6 6087   3.736   2.803  13.308 -0.6687 -0.1196  0.2323
  404TMC3     C 6088   4.025   3.093  13.305  0.3445 -0.6537  0.0087
  404TMC3     O 6089   4.068   3.118  13.418  0.0651  0.0282 -0.3463
  404TMC3     H 6090   3.880   2.999  13.513  0.4265 -0.1432 -0.9355
  404TMC3    H1 6091   3.912   2.983  13.086 -0.2060  0.9584 -0.0554
  404TMC3    H2 6092   3.695   2.703  13.314  0.9776 -0.7667  0.7171
  404TMC3    C7 6093   3.743   2.793  13.058 -0.9955 -0.2377  0.4526
  404TMC3    C8 6094   3.795   2.777  13.530 -0.3887  0.0650  0.2159
  404TMC3    O1 6095   3.828   2.810  12.972  0.1210 -0.1385 -0.7340
  404TMC3    O2 6096   3.847   2.669  13.511  0.3928  0.8337 -0.3029
  405MPD2     C 6097   4.598   4.591  14.548 -0.4252  0.4788  0.0539
  405MPD2    C1 6098   4.595   4.452  14.556 -0.2831  0.8555  0.1600
  405MPD2    C2 6099   4.475   4.382  14.558 -0.1838  0.4969 -0.5281
  405MPD2    C3 6100   4.355   4.445  14.550 -0.4727 -1.0644 -0.8635
  405MPD2    C4 6101   4.357   4.582  14.559  0.0453  0.0538  0.1998
  405MPD2    C5 6102   4.474   4.652  14.542  0.4326 -0.3862 -0.0436
  405MPD2     H 6103   4.479   4.275  14.572  0.1894  0.6924  0.8645
  405MPD2    H1 6104   4.269   4.645  14.563  0.2626  0.3391  0.4665
  405MPD2    H2 6105   4.684   4.654  14.529  2.4550 -2.9218  1.8672
  405MPD2    H3 6106   4.482   0.022  14.540 -0.2865 -0.3070  1.3991
  405MPD2     N 6107   4.238   4.365  14.553 -0.0416 -0.5179 -0.8174
  405MPD2    H5 6108   4.254   4.271  14.516 -0.0607 -0.7693 -0.1812
  405MPD2    N1 6109   4.723   4.390  14.550  0.6345  0.1095 -0.6695
  405MPD2    H7 6110   0.072   4.442  14.552 -0.3356  1.6993 -0.5668
  406TMC3    C1 6111   3.819   4.186  14.585 -0.3012 -0.1910  0.0616
  406TMC3    C2 6112   3.877   4.067  14.612 -0.2522 -0.1459 -0.1273
  406TMC3    C3 6113   4.015   4.057  14.641  0.5510 -0.6662 -0.3868
  406TMC3    C4 6114   3.895   4.296  14.576 -0.3401  0.1474 -0.8291
  406TMC3    C5 6115   4.027   4.291  14.610 -1.1439 -0.7649  0.4528
  406TMC3    C6 6116   4.091   4.171  14.636 -0.7666 -0.1016  0.2377
  406TMC3     C 6117   3.680   4.199  14.565  0.5800  0.0266 -0.0011
  406TMC3     O 6118   3.627   4.294  14.504  0.8081 -0.1426  0.0905
  406TMC3     H 6119   3.827   3.971  14.621 -1.3764  0.4832  0.3453
  406TMC3    H1 6120   3.848   4.390  14.547 -1.7969  0.5637  2.9156
  406TMC3    H2 6121   4.185   4.176  14.689 -0.1983 -2.0507 -0.5890
  406TMC3    C7 6122   4.113   4.404  14.581 -0.0913  0.3083 -0.1060
  406TMC3    C8 6123   4.073   3.927  14.652  0.4383  0.0287 -0.1654
  406TMC3    O1 6124   4.068   4.512  14.611  0.4127 -0.0139  0.0320
  406TMC3    O2 6125   4.007   3.846  14.718 -0.4686 -0.4114 -0.4822
  407MPD2     C 6126   1.618   0.730  10.113  0.5127 -0.2135  0.0263
  407MPD2    C1 6127   1.707   0.834  10.089  0.3079 -0.2253  0.2315
  407MPD2    C2 6128   1.697   0.948  10.171  0.0824  0.6594 -0.3752
  407MPD2    C3 6129   1.615   0.952  10.281 -0.2555  0.3332  0.2625
  407MPD2    C4 6130   1.522   0.853  10.304 -0.0519 -0.4460  0.5606
  407MPD2    C5 6131   1.523   0.745  10.217  0.1616  0.5144  0.3236
  407MPD2     H 6132   1.768   1.027  10.148  1.2920 -0.7248 -1.4716
  407MPD2    H1 6133   1.442   0.868  10.375 -2.4922 -2.8583 -1.6604
  407MPD2    H2 6134   1.611   0.643  10.049  0.0185 -2.4837  3.1788
  407MPD2    H3 6135   1.446   0.671  10.235 -0.7328  0.8626 -2.1303
  407MPD2     N 6136   1.617   1.066  10.352 -0.1085  0.2212  0.0773
  407MPD2    H5 6137   1.664   1.144  10.307 -0.2381 -1.1948 -2.4638
  407MPD2    N1 6138   1.809   0.825   9.991 -0.4668  0.2271 -0.2381
  407MPD2    H7 6139   1.885   0.893   9.990  1.4498 -1.9518 -0.3832
  408TMC3    C1 6140   1.975   0.740   9.860  0.1369 -0.3684 -0.5708
  408TMC3    C2 6141   2.061   0.635   9.867  0.4447 -0.1153  0.8536
  408TMC3    C3 6142   2.202   0.661   9.867  0.6654 -0.4302 -0.8148
  408TMC3    C4 6143   2.026   0.872   9.870 -0.0867 -0.0870  0.0807
  408TMC3    C5 6144   2.161   0.891   9.847 -0.4134 -0.4078  0.7246
  408TMC3    C6 6145   2.248   0.788   9.869 -0.6277 -0.3645  0.1390
  408TMC3     C 6146   1.846   0.714   9.916  0.3538 -0.1534  0.1521
  408TMC3     O 6147   1.807   0.601   9.930  0.3279 -0.3399 -0.4229
  408TMC3     H 6148   2.021   0.535   9.872  0.5904 -0.1612  1.0904
  408TMC3    H1 6149   1.961   0.958   9.865  1.7480  1.3181  0.1855
  408TMC3    H2 6150   2.354   0.803   9.880 -0.7354  0.5180 -0.0661
  408TMC3    C7 6151   2.219   1.016   9.865 -0.0529 -0.3356  0.2804
  408TMC3    C8 6152   2.292   0.547   9.875 -0.2505  0.1413 -0.4084
  408TMC3    O1 6153   2.319   1.030   9.937 -0.1382 -0.3408  0.1643
  408TMC3    O2 6154   2.249   0.445   9.826  0.0973  0.0858  0.1157
  409MPD2     C 6155   1.506   1.083  16.810 -0.2324 -0.1536  0.0883
  409MPD2    C1 6156   1.609   1.095  16.901  0.0615  0.4842  0.0444
  409MPD2    C2 6157   1.678   1.216  16.908 -0.5403  0.8020 -0.2378
  409MPD2    C3 6158   1.646   1.326  16.829 -0.2651 -0.4445 -0.6069
  409MPD2    C4 6159   1.542   1.314  16.735 -0.2235 -0.4600 -0.8348
  409MPD2    C5 6160   1.482   1.192  16.723 -1.1585  0.1436 -0.2528
  409MPD2     H 6161   1.762   1.207  16.976 -1.9192 -2.2630  1.1067
  409MPD2    H1 6162   1.516   1.393  16.666  1.8384  1.8118  0.9975
  409MPD2    H2 6163   1.448   0.994  16.790  1.0964 -0.4783 -2.3444
  409MPD2    H3 6164   1.406   1.184  16.646 -0.7519 -1.4431 -0.4905
  409MPD2     N 6165   1.703   1.456  16.840 -0.1526  0.5726 -0.4177
  409MPD2    H5 6166   1.674   1.537  16.786 -0.4857  0.4757 -0.3830
  409MPD2    N1 6167   1.636   0.992  16.993  0.9937  0.6104 -0.0301
  409MPD2    H7 6168   1.713   1.027  17.050  0.2699 -0.3099  1.5064
  410TMC3    C1 6169   1.865   1.611  16.900 -0.0645 -0.7290  0.5925
  410TMC3    C2 6170   1.964   1.644  16.986 -0.0279  0.6500 -0.2076
  410TMC3    C3 6171   2.062   1.729  16.946  0.5721 -0.2810 -0.0608
  410TMC3    C4 6172   1.870   1.649  16.770  0.3216 -0.1842 -0.3175
  410TMC3    C5 6173   1.955   1.750  16.737 -0.6743  0.1764 -0.1925
  410TMC3    C6 6174   2.055   1.795  16.822 -0.1235 -0.3033  1.6077
  410TMC3     C 6175   1.816   1.474  16.910  0.0894  0.7666  0.2917
  410TMC3     O 6176   1.891   1.398  16.970  0.2838 -0.6331 -0.9022
  410TMC3     H 6177   1.960   1.615  17.090  1.5562 -0.9307 -0.5839
  410TMC3    H1 6178   1.812   1.607  16.689  1.3582  0.2233 -1.2751
  410TMC3    H2 6179   2.145   1.845  16.788 -1.1288  2.2007  2.6508
  410TMC3    C7 6180   1.940   1.803  16.598  0.6384  0.1158 -0.1881
  410TMC3    C8 6181   2.195   1.695  16.989 -0.1473 -0.2952 -0.6498
  410TMC3    O1 6182   1.880   1.741  16.510 -0.1203 -0.2535  0.3710
  410TMC3    O2 6183   2.281   1.777  16.961  0.0304  0.0154  0.1030
  411MPD2     C 6184   2.086   2.018  14.666  0.9213  0.3464 -0.7107
  411MPD2    C1 6185   1.959   2.050  14.632  0.3482  0.1450  0.4023
  411MPD2    C2 6186   1.858   1.947  14.637  0.2312  0.7740  0.4026
  411MPD2    C3 6187   1.897   1.811  14.649 -0.4898 -0.2588 -1.2304
  411MPD2    C4 6188   2.032   1.786  14.645 -0.8576  0.1987 -0.2109
  411MPD2    C5 6189   2.123   1.889  14.676 -0.1501 -0.5742 -0.3942
  411MPD2     H 6190   1.754   1.961  14.610 -0.3188 -2.3178  0.9040
  411MPD2    H1 6191   2.067   1.683  14.648 -3.6710 -0.8643 -3.9798
  411MPD2    H2 6192   2.159   2.095  14.688  0.4770  0.7874 -0.8023
  411MPD2    H3 6193   2.224   1.854  14.694 -0.5554 -0.7596  1.5538
  411MPD2     N 6194   1.802   1.709  14.622  0.0156  0.2965  0.0077
  411MPD2    H5 6195   1.842   1.623  14.585 -1.7819 -0.4111 -0.3021
  411MPD2    N1 6196   1.926   2.185  14.606 -0.5180 -0.6716  0.2734
  411MPD2    H7 6197   2.000   2.252  14.621 -0.7463  0.1870 -2.4796
  412TMC3    C1 6198   1.616   1.592  14.567  0.0131 -0.5993  0.8213
  412TMC3    C2 6199   1.485   1.567  14.597 -0.7890 -0.7653 -0.9243
  412TMC3    C3 6200   1.421   1.468  14.525  0.4297  0.1477 -0.0748
  412TMC3    C4 6201   1.690   1.520  14.478 -0.1373  0.0891 -0.9185
  412TMC3    C5 6202   1.617   1.437  14.400  0.1908 -0.1938  1.1012
  412TMC3    C6 6203   1.489   1.400  14.424  0.2733  0.5975  0.2785
  412TMC3     C 6204   1.667   1.716  14.620  0.1618 -0.0095  0.2153
  412TMC3     O 6205   1.595   1.780  14.692 -0.1210  0.2349  0.2641
  412TMC3     H 6206   1.426   1.641  14.650 -0.8032 -1.3054 -0.1742
  412TMC3    H1 6207   1.789   1.551  14.447  0.1655  0.2374  0.1869
  412TMC3    H2 6208   1.450   1.316  14.366 -0.3297  0.4947  0.8293
  412TMC3    C7 6209   1.635   1.459  14.257 -0.0776  0.4186  0.0593
  412TMC3    C8 6210   1.286   1.502  14.486 -0.5025 -0.0413  0.5283
  412TMC3    O1 6211   1.525   1.471  14.201  0.4500 -0.0780  0.2056
  412TMC3    O2 6212   1.204   1.556  14.563  0.1309  0.2332  0.3506
  413MPD2     C 6213   4.028   0.555  15.408 -0.1994  0.5352 -0.0251
  413MPD2    C1 6214   3.922   0.469  15.398  0.2107 -0.4971 -0.0516
  413MPD2    C2 6215   3.953   0.333  15.373 -0.3664  0.1434  0.6543
  413MPD2    C3 6216   4.078   0.283  15.348  0.8273 -0.4324  0.4316
  413MPD2    C4 6217   4.182   0.379  15.348  0.5353 -0.0355 -0.2989
  413MPD2    C5 6218   4.154   0.513  15.379 -0.2183  0.4019  0.3607
  413MPD2     H 6219   3.878   0.256  15.362 -2.3213  2.0636  0.3999
  413MPD2    H1 6220   4.285   0.358  15.323  0.9314  0.3719  1.0207
  413MPD2    H2 6221   4.002   0.660  15.414 -0.1178  0.6246 -1.0668
  413MPD2    H3 6222   4.234   0.586  15.387  0.9780 -0.6826 -1.5740
  413MPD2     N 6223   4.101   0.146  15.338  0.5976 -0.6114 -0.3447
  413MPD2    H5 6224   4.026   0.086  15.307  0.7573 -1.8913  1.7700
  413MPD2    N1 6225   3.790   0.512  15.428 -0.1902 -0.4549 -0.1939
  413MPD2    H7 6226   3.775   0.611  15.442  0.8916 -0.1661 -1.1382
  414TMC3    C1 6227   4.218   4.682  15.331  0.1959 -0.0571  0.2872
  414TMC3    C2 6228   4.302   4.597  15.398  0.0348 -0.2570 -0.1031
  414TMC3    C3 6229   4.294   4.463  15.377  0.0235 -0.0622  0.7469
  414TMC3    C4 6230   4.136   4.645  15.231  0.1435  0.7556  0.6744
  414TMC3    C5 6231   4.144   4.514  15.200  0.5648  0.4220 -0.0767
  414TMC3    C6 6232   4.214   4.415  15.279 -0.2934  0.3879 -0.3493
  414TMC3     C 6233   4.221   0.080  15.372 -0.1673  0.5066  0.0625
  414TMC3     O 6234   4.327   0.130  15.407 -0.0694 -0.7151 -0.0103
  414TMC3     H 6235   4.366   4.637  15.477  0.1799 -0.4761 -0.1109
  414TMC3    H1 6236   4.091   4.718  15.166  1.7135  1.7244  0.6849
  414TMC3    H2 6237   4.233   4.315  15.241  1.3396 -0.0463  1.5964
  414TMC3    C7 6238   4.067   4.478  15.085 -1.1163 -0.0900 -0.0755
  414TMC3    C8 6239   4.353   4.366  15.469 -0.3088 -0.3116  0.2194
  414TMC3    O1 6240   3.976   4.552  15.056 -0.0765  0.3753  0.4591
  414TMC3    O2 6241   4.353   4.253  15.426 -0.0256  0.6867 -1.0976
  415TMC3    C1 6242   3.803   3.043  10.645 -0.3354  0.0488  0.1126
  415TMC3    C2 6243   3.923   3.101  10.605 -0.2841  0.6540  0.2865
  415TMC3    C3 6244   3.979   3.055  10.486 -0.2454  0.1721 -0.0199
  415TMC3    C4 6245   3.747   2.942  10.574  0.3217  0.2153  0.2661
  415TMC3    C5 6246   3.804   2.894  10.464 -0.1244 -0.2145  0.4901
  415TMC3    C6 6247   3.914   2.964  10.415  0.0034 -0.2657  0.1112
  415TMC3     C 6248   3.781   3.029  10.789 -0.2463 -0.2053 -0.6631
  415TMC3     O 6249   3.746   2.917  10.817  0.2054  0.1890 -0.3887
  415TMC3     H 6250   3.980   3.170  10.666  0.8124 -1.0168  1.1326
  415TMC3    H1 6251   3.652   2.896  10.602 -1.0118  2.8993  0.1479
  415TMC3    H2 6252   3.965   2.921  10.330  1.3586  1.3770  0.1054
  415TMC3    C7 6253   3.730   2.813  10.370  0.1311  0.4964 -0.0109
  415TMC3    C8 6254   4.035   3.167  10.419 -0.2779  0.1484  0.2441
  415TMC3    O1 6255   3.776   2.813  10.259 -0.1297  0.5224  0.1154
  415TMC3    O2 6256   4.110   3.238  10.487  0.0153  0.4328 -0.4183
  416MPD2     C 6257   1.199   1.906  11.391 -0.6068  0.4941 -0.2023
  416MPD2    C1 6258   1.063   1.937  11.400 -0.3065  0.0357  0.3064
  416MPD2    C2 6259   0.967   1.842  11.377 -0.1033 -0.2480  0.0378
  416MPD2    C3 6260   1.011   1.713  11.352 -0.0182 -1.2287  0.6814
  416MPD2    C4 6261   1.142   1.679  11.341 -0.0260  0.1528 -0.3375
  416MPD2    C5 6262   1.249   1.777  11.360  0.0695  0.8154 -0.2325
  416MPD2     H 6263   0.861   1.864  11.373  0.4862  2.4459 -0.8059
  416MPD2    H1 6264   1.168   1.574  11.330 -0.4963  0.0139 -0.1215
  416MPD2    H2 6265   1.266   1.988  11.418  0.7860 -1.0718  1.0673
  416MPD2    H3 6266   1.354   1.754  11.349 -0.2049 -0.1703 -0.7794
  416MPD2     N 6267   0.915   1.613  11.338  0.0169  0.3073 -0.4873
  416MPD2    H5 6268   0.961   1.523  11.345  1.7924  1.2282 -0.2150
  416MPD2    N1 6269   1.026   2.065  11.441 -0.3264  0.3732  1.2170
  416MPD2    H7 6270   1.100   2.115  11.489 -0.1315  1.8371 -0.6205
  417TMC3    C1 6271   0.865   2.239  11.492  0.2803  0.4810  1.0442
  417TMC3    C2 6272   0.904   2.234  11.622  0.3061 -0.3259  0.2880
  417TMC3    C3 6273   0.816   2.303  11.707 -0.6772  0.2990 -0.4305
  417TMC3    C4 6274   0.757   2.303  11.437 -0.7305 -0.0788  0.1004
  417TMC3    C5 6275   0.682   2.375  11.528  0.4983 -0.0183  0.8682
  417TMC3    C6 6276   0.710   2.369  11.659 -0.7310 -0.6497  0.9256
  417TMC3     C 6277   0.904   2.129  11.411  0.1289  0.0534  0.0336
  417TMC3     O 6278   0.813   2.091  11.336 -0.4317 -0.0958 -0.8477
  417TMC3     H 6279   0.993   2.184  11.658  0.7893 -0.1450 -0.6398
  417TMC3    H1 6280   0.737   2.308  11.331 -2.3143 -2.4612  0.2936
  417TMC3    H2 6281   0.673   2.448  11.724  0.3731  2.0019 -1.6676
  417TMC3    C7 6282   0.557   2.425  11.476 -0.2894  0.5778  0.4005
  417TMC3    C8 6283   0.821   2.280  11.851  0.9985 -0.4869 -0.0566
  417TMC3    O1 6284   0.554   2.467  11.360 -0.2106  0.5545 -0.8209
  417TMC3    O2 6285   0.784   2.362  11.928 -0.5340 -0.2041  0.7668
  418TMC3    C1 6286   4.160   3.245   0.301 -0.0151 -0.1598 -0.2101
  418TMC3    C2 6287   4.113   3.158   0.202 -0.5914  1.0777  0.6765
  418TMC3    C3 6288   4.151   3.028   0.210 -0.3995 -0.7478  0.3948
  418TMC3    C4 6289   4.229   3.203   0.410  0.6832 -0.7869 -0.5873
  418TMC3    C5 6290   4.246   3.068   0.419  0.5165  0.0553  0.2443
  418TMC3    C6 6291   4.216   2.980   0.321  0.0736  0.2285  0.3522
  418TMC3     C 6292   4.160   3.381   0.267 -0.3502  0.6351 -0.1437
  418TMC3     O 6293   4.063   3.425   0.210 -0.0169  0.1050  0.0500
  418TMC3     H 6294   4.069   3.202   0.113 -1.3513  0.1464  0.5899
  418TMC3    H1 6295   4.278   3.267   0.482  0.5320 -0.4762 -0.7619
  418TMC3    H2 6296   4.234   2.877   0.351  2.7256  0.6549  0.2308
  418TMC3    C7 6297   4.353   3.033   0.505  0.0246 -0.0015  0.5558
  418TMC3    C8 6298   4.112   2.938   0.104  0.4639  0.5368  0.5089
  418TMC3    O1 6299   4.443   2.968   0.460  0.0129  0.2627 -0.0898
  418TMC3    O2 6300   4.033   2.972   0.018 -0.3422  0.4749  0.6230
  419MPD2     C 6301   2.903   1.336  12.191 -0.0488  0.0968  0.7901
  419MPD2    C1 6302   2.929   1.462  12.247 -0.4404  0.4050 -0.1128
  419MPD2    C2 6303   2.868   1.501  12.368  0.0228 -0.1477  0.1222
  419MPD2    C3 6304   2.774   1.417  12.428 -0.5197  0.7496  0.0064
  419MPD2    C4 6305   2.740   1.299  12.366  0.5856 -0.3284  0.0084
  419MPD2    C5 6306   2.807   1.263  12.249 -0.0329  0.7785 -0.5519
  419MPD2     H 6307   2.894   1.591  12.424  1.9016 -0.5703 -0.0676
  419MPD2    H1 6308   2.659   1.232  12.392  0.7789 -1.4983 -2.3558
  419MPD2    H2 6309   2.942   1.296  12.098  2.6692 -0.1846  2.0752
  419MPD2    H3 6310   2.780   1.169  12.203 -0.7502 -0.6216  2.7210
  419MPD2     N 6311   2.711   1.471  12.537 -0.5652 -0.2262  0.4905
  419MPD2    H5 6312   2.740   1.556  12.584 -2.9509  1.3532 -0.8719
  419MPD2    N1 6313   3.021   1.556  12.193  0.7846 -0.0474  0.3056
  419MPD2    H7 6314   3.030   1.642  12.247  0.7529  0.7870 -1.0240
  420TMC3    C1 6315   2.561   1.487  12.710 -0.0933  0.2056  0.4796
  420TMC3    C2 6316   2.444   1.559  12.729  1.4991  0.1752  0.3361
  420TMC3    C3 6317   2.432   1.653  12.832  0.6585  0.2414  0.3510
  420TMC3    C4 6318   2.665   1.517  12.797 -0.3123 -0.7307 -0.5121
  420TMC3    C5 6319   2.642   1.601  12.903  0.3959  0.4801 -0.2803
  420TMC3    C6 6320   2.531   1.676  12.922  0.3108 -0.0817  0.5286
  420TMC3     C 6321   2.592   1.417  12.587 -0.0381  0.5059 -0.4258
  420TMC3     O 6322   2.511   1.347  12.530 -0.0988 -0.3715 -0.1876
  420TMC3     H 6323   2.372   1.546  12.649  1.3131  0.6832  0.4143
  420TMC3    H1 6324   2.758   1.462  12.790  0.2913  0.4838 -2.1954
  420TMC3    H2 6325   2.532   1.765  12.984  0.8762  1.4614 -1.7192
  420TMC3    C7 6326   2.758   1.667  12.957  0.1771  0.5784  0.7438
  420TMC3    C8 6327   2.319   1.749  12.832 -0.4451 -0.0914  0.0889
  420TMC3    O1 6328   2.858   1.676  12.890 -0.3579 -0.3022 -0.2441
  420TMC3    O2 6329   2.338   1.856  12.884 -0.1427 -0.5087 -0.4376
  421TMC3    C1 6330   0.016   3.189  13.392 -0.4175 -0.4379  0.1987
  421TMC3    C2 6331   0.118   3.277  13.385  0.4109  0.2931 -0.0542
  421TMC3    C3 6332   0.202   3.284  13.491 -0.6416 -0.2887  0.1763
  421TMC3    C4 6333   0.004   3.083  13.483  0.4020  0.0784 -0.7499
  421TMC3    C5 6334   0.107   3.091  13.578  0.2128 -0.4058 -0.3667
  421TMC3    C6 6335   0.197   3.189  13.583 -0.0666 -0.2049  0.0058
  421TMC3     C 6336   4.683   3.182  13.263  0.5769  0.9507 -0.2347
  421TMC3     O 6337   0.013   3.206  13.163 -0.2875 -0.2197  0.1579
  421TMC3     H 6338   0.110   3.363  13.319  0.0414 -1.3327 -2.1223
  421TMC3    H1 6339   4.659   3.013  13.479 -0.2238  0.8602 -1.7036
  421TMC3    H2 6340   0.249   3.197  13.678 -0.4164  1.5359  0.0559
  421TMC3    C7 6341   0.090   3.032  13.708  0.6636  0.1413  0.3011
  421TMC3    C8 6342   0.214   3.418  13.555  0.5217 -0.0312 -0.4946
  421TMC3    O1 6343   0.108   3.100  13.808  0.2678 -0.5352 -0.3983
  421TMC3    O2 6344   0.202   3.414  13.679  0.3853  0.0824 -0.5616
  422TMC3    C1 6345   1.725   4.691  12.630  0.0165  0.1049  0.2526
  422TMC3    C2 6346   1.757   0.085  12.658 -0.0233 -1.0744  0.2742
  422TMC3    C3 6347   1.671   0.188  12.623 -0.0302 -0.1198  0.0884
  422TMC3    C4 6348   1.617   4.660  12.552 -0.2134  0.8782 -0.4555
  422TMC3    C5 6349   1.539   0.024  12.501  0.7975 -0.1894  0.2963
  422TMC3    C6 6350   1.568   0.159  12.525 -0.1167 -0.4445 -0.0375
  422TMC3     C 6351   1.856   4.623  12.599 -0.5599 -0.0703  0.0970
  422TMC3     O 6352   1.952   4.656  12.667  0.4471  0.4227  0.0996
  422TMC3     H 6353   1.837   0.104  12.729 -0.7369  0.7116  0.5883
  422TMC3    H1 6354   1.596   4.556  12.530 -2.0795  1.3164 -0.7112
  422TMC3    H2 6355   1.500   0.235  12.488  0.7304  0.3597  0.0593
  422TMC3    C7 6356   1.401   4.733  12.470  0.1602  0.0727  0.9961
  422TMC3    C8 6357   1.711   0.319  12.646  0.1399 -0.0906  0.6757
  422TMC3    O1 6358   1.344   0.077  12.401 -0.4661  0.2505  0.3040
  422TMC3    O2 6359   1.795   0.332  12.736 -0.0898  0.0215  0.7139
  423MPD2     C 6360   2.939   0.812   0.268  0.3640 -0.1976  0.8207
  423MPD2    C1 6361   2.940   0.685   0.302  0.5777  0.3037  0.1081
  423MPD2    C2 6362   3.006   0.594   0.225  0.4108  0.2059  0.1741
  423MPD2    C3 6363   3.071   0.627   0.118  0.2067 -0.8324  0.2052
  423MPD2    C4 6364   3.066   0.762   0.078  0.4507  0.2410  0.0553
  423MPD2    C5 6365   2.995   0.857   0.157 -0.2428 -0.1362 -0.4546
  423MPD2     H 6366   2.999   0.490   0.254 -2.0239  0.1055 -0.7919
  423MPD2    H1 6367   3.122   0.790  17.738 -0.2858 -1.1093 -0.8444
  423MPD2    H2 6368   2.879   0.883   0.325  0.2253  1.6862 -1.6641
  423MPD2    H3 6369   3.002   0.964   0.140  2.5502 -0.4794 -1.4548
  423MPD2     N 6370   3.151   0.541   0.045 -0.2989  0.2717 -0.2400
  423MPD2    H5 6371   3.172   0.580  17.703  1.9335  1.9067  0.9478
  423MPD2    N1 6372   2.870   0.636   0.416 -0.4676  0.3377  0.2524
  423MPD2    H7 6373   2.866   0.536   0.431 -3.3912  0.6688  1.6240
  424TMC3    C1 6374   2.758   0.634   0.611  0.0947 -0.4322  1.0160
  424TMC3    C2 6375   2.853   0.556   0.669  0.2526  0.3103  0.6513
  424TMC3    C3 6376   2.825   0.517   0.797  0.3323  0.3845  0.1805
  424TMC3    C4 6377   2.637   0.665   0.672  0.5855  0.5910 -0.6115
  424TMC3    C5 6378   2.618   0.639   0.803  0.1698 -0.2175  0.2152
  424TMC3    C6 6379   2.711   0.555   0.869  0.8715 -1.3281  0.4589
  424TMC3     C 6380   2.794   0.713   0.496  0.2453  0.4660 -0.4030
  424TMC3     O 6381   2.757   0.829   0.489  0.3236 -0.0906  0.2159
  424TMC3     H 6382   2.944   0.530   0.617  0.1107 -0.0007  0.5585
  424TMC3    H1 6383   2.589   0.752   0.630  0.6865  0.7229 -0.4584
  424TMC3    H2 6384   2.699   0.511   0.967  1.4270 -0.3334  0.9701
  424TMC3    C7 6385   2.488   0.656   0.854 -0.0689 -0.3341 -0.3334
  424TMC3    C8 6386   2.922   0.431   0.870 -0.0271 -0.5396 -0.0252
  424TMC3    O1 6387   2.407   0.667   0.764  0.0446 -0.0666  0.2021
  424TMC3    O2 6388   2.877   0.351   0.950 -1.0084 -0.5675 -0.2586
  425MPD2     C 6389   2.507   4.609  17.475 -0.4198  0.5679 -0.3940
  425MPD2    C1 6390   2.494   4.502  17.558 -0.5355 -1.0098 -0.2927
  425MPD2    C2 6391   2.391   4.488  17.654 -0.0913 -0.1396 -0.3308
  425MPD2    C3 6392   2.312   4.602  17.683  0.5069  0.2427 -0.1889
  425MPD2    C4 6393   2.323   4.712  17.595  0.2465 -0.5826  0.2412
  425MPD2    C5 6394   2.413   4.709  17.492  0.2221 -0.2007  0.8951
  425MPD2     H 6395   2.377   4.399  17.714  0.4302  2.0717  3.0672
  425MPD2    H1 6396   2.257   0.059  17.602  2.5049  1.1665  0.3310
  425MPD2    H2 6397   2.582   4.618  17.398  1.8686  0.8119  1.8554
  425MPD2    H3 6398   2.447   0.057  17.435  0.0200 -1.2705 -0.8232
  425MPD2     N 6399   2.210   4.590   0.041  0.6413 -0.4404 -0.5694
  425MPD2    H5 6400   2.210   4.502   0.092 -0.9221 -0.4535 -0.5939
  425MPD2    N1 6401   2.578   4.392  17.535  0.2926 -0.4072 -0.3265
  425MPD2    H7 6402   2.654   4.424  17.476  0.1744 -0.9839 -0.8004
  426TMC3    C1 6403   2.654   4.163  17.507 -0.1191  0.1599 -0.8670
  426TMC3    C2 6404   2.687   4.201  17.373  0.3427 -0.1079  0.3215
  426TMC3    C3 6405   2.722   4.091  17.299 -0.2381  0.1488  0.5516
  426TMC3    C4 6406   2.647   4.044  17.564 -0.5253 -0.3135 -0.3683
  426TMC3    C5 6407   2.691   3.941  17.481 -0.1682 -0.0206 -0.3734
  426TMC3    C6 6408   2.737   3.964  17.354 -0.1614 -0.1671  0.2240
  426TMC3     C 6409   2.564   4.258  17.575 -0.0242 -0.2359 -0.4037
  426TMC3     O 6410   2.477   4.209  17.647 -0.3557 -0.1994 -0.1057
  426TMC3     H 6411   2.699   4.303  17.340  0.0098 -0.5764 -1.2093
  426TMC3    H1 6412   2.618   4.036  17.668 -1.4086 -0.1322 -0.6011
  426TMC3    H2 6413   2.767   3.882  17.290 -0.7618  0.0079 -0.2890
  426TMC3    C7 6414   2.698   3.805  17.533 -0.7203  0.6827 -1.4393
  426TMC3    C8 6415   2.727   4.101  17.153 -0.2309  0.1931  0.8144
  426TMC3    O1 6416   2.781   3.732  17.486  0.0786 -0.3977  0.2168
  426TMC3    O2 6417   2.782   4.000  17.101 -0.0268  0.2325 -0.1954
  427MPD2     C 6418   0.967   2.356  14.924  0.5267 -0.0875 -0.3643
  427MPD2    C1 6419   0.921   2.234  14.970  0.0609 -0.6731 -0.2037
  427MPD2    C2 6420   0.785   2.205  14.980  0.0020 -0.1271  0.2366
  427MPD2    C3 6421   0.694   2.308  14.951  0.2347  0.5031  0.2987
  427MPD2    C4 6422   0.743   2.430  14.909  0.2004 -0.4490  0.1970
  427MPD2    C5 6423   0.872   2.451  14.891  0.3059  0.5409 -0.0574
  427MPD2     H 6424   0.752   2.111  15.023  1.6640 -0.1626  1.4119
  427MPD2    H1 6425   0.678   2.516  14.900  0.5906 -0.0831  0.8673
  427MPD2    H2 6426   1.073   2.379  14.920  0.7760 -1.2620 -0.4305
  427MPD2    H3 6427   0.901   2.552  14.866  1.4534  0.4011  0.7115
  427MPD2     N 6428   0.556   2.297  14.966  0.5771 -0.1965 -0.2211
  427MPD2    H5 6429   0.503   2.379  14.938  0.0283 -0.2574  0.6527
  427MPD2    N1 6430   1.004   2.138  15.039  0.5132 -0.2508 -0.1660
  427MPD2    H7 6431   0.954   2.061  15.082 -0.0578  0.4950  0.5209
  428TMC3    C1 6432   1.218   2.059  15.116  0.2797  0.5756 -0.2888
  428TMC3    C2 6433   1.159   1.980  15.209 -0.2912  0.6480 -0.9218
  428TMC3    C3 6434   1.224   1.943  15.315  0.2026 -0.0315  0.5226
  428TMC3    C4 6435   1.348   2.082  15.115  0.6504  0.2101  0.3944
  428TMC3    C5 6436   1.414   2.044  15.225 -0.3403 -0.2566  0.2233
  428TMC3    C6 6437   1.360   1.984  15.328  0.0616 -0.5921  0.6660
  428TMC3     C 6438   1.143   2.137  15.030  0.0644  0.1804  0.2070
  428TMC3     O 6439   1.212   2.205  14.951 -0.5022 -0.3630  0.3666
  428TMC3     H 6440   1.057   1.955  15.183  0.1917 -1.5878 -0.6625
  428TMC3    H1 6441   1.405   2.125  15.033  1.2144  0.3916  0.8846
  428TMC3    H2 6442   1.413   1.943  15.413  3.4429 -1.3179 -1.8216
  428TMC3    C7 6443   1.550   2.089  15.248 -0.4479 -0.6848  0.1841
  428TMC3    C8 6444   1.146   1.891  15.432 -0.2141  0.6439  0.5221
  428TMC3    O1 6445   1.587   2.102  15.363  0.2662 -0.5813  0.2307
  428TMC3    O2 6446   1.075   1.792  15.414 -0.2924 -0.0776 -0.1261
  429MPD2     C 6447   2.179   2.165  17.603  0.0055  0.1325 -0.5354
  429MPD2    C1 6448   2.282   2.099  17.530  0.2590 -0.5509  0.2184
  429MPD2    C2 6449   2.374   2.179  17.463  0.4992  0.3123 -0.2241
  429MPD2    C3 6450   2.366   2.318  17.466 -0.3696 -0.3143  0.0302
  429MPD2    C4 6451   2.264   2.378  17.528 -0.3543 -0.3240  0.3451
  429MPD2    C5 6452   2.168   2.309  17.593 -0.2937 -0.1664 -0.3868
  429MPD2     H 6453   2.459   2.136  17.411  0.1174  0.8962 -1.3240
  429MPD2    H1 6454   2.248   2.485  17.516  0.7252 -0.0344  1.4892
  429MPD2    H2 6455   2.113   2.101  17.659 -0.3901  0.1545 -0.9781
  429MPD2    H3 6456   2.097   2.362  17.656 -0.1508 -0.7263  0.2512
  429MPD2     N 6457   2.483   2.383  17.414  0.4432  0.4783  0.0020
  429MPD2    H5 6458   2.546   2.322  17.363 -1.1440 -0.3991 -0.9277
  429MPD2    N1 6459   2.297   1.957  17.522 -0.2813 -0.0160 -0.1817
  429MPD2    H7 6460   2.374   1.920  17.467 -1.8679 -1.8414 -1.1826
  430TMC3    C1 6461   2.619   2.547  17.313 -0.4373 -0.6967 -0.1797
  430TMC3    C2 6462   2.634   2.675  17.277 -0.5676 -0.4686  0.4820
  430TMC3    C3 6463   2.708   2.701  17.163  0.2981  0.3269 -0.7233
  430TMC3    C4 6464   2.692   2.447  17.252 -0.0773 -0.3201  0.0501
  430TMC3    C5 6465   2.767   2.480  17.147 -0.2474  0.3796 -0.1845
  430TMC3    C6 6466   2.788   2.607  17.106  0.1429  0.0444 -0.1027
  430TMC3     C 6467   2.505   2.514  17.395  0.0275  0.2574 -0.4730
  430TMC3     O 6468   2.435   2.601  17.447 -0.4026 -0.6925 -0.0586
  430TMC3     H 6469   2.573   2.750  17.326  0.0564  0.2445  0.1707
  430TMC3    H1 6470   2.674   2.341  17.263 -0.4780 -0.2471  0.0962
  430TMC3    H2 6471   2.850   2.632  17.021  0.6454 -1.9388 -0.3173
  430TMC3    C7 6472   2.775   2.386  17.047  0.1654 -0.1163 -0.2761
  430TMC3    C8 6473   2.633   2.769  17.058  0.7061  0.0763  0.4169
  430TMC3    O1 6474   2.825   2.278  17.079  0.0141  0.4690  0.2218
  430TMC3    O2 6475   2.649   2.728  16.944 -0.0857 -0.1039  0.3985
  431MPD2     C 6476   2.623   2.235  12.391  0.1333 -0.8900 -0.1736
  431MPD2    C1 6477   2.752   2.241  12.427  0.4566 -0.8709  0.3230
  431MPD2    C2 6478   2.847   2.181  12.347 -0.0599 -0.2481 -0.5534
  431MPD2    C3 6479   2.806   2.094  12.249 -0.6073  0.6998 -0.0272
  431MPD2    C4 6480   2.671   2.077  12.230  0.4798 -0.3478  0.0799
  431MPD2    C5 6481   2.583   2.156  12.293  0.0868 -0.1433 -0.4424
  431MPD2     H 6482   2.950   2.194  12.379 -0.3364  0.2727  0.1412
  431MPD2    H1 6483   2.627   1.996  12.173 -1.4562 -0.0121  1.1002
  431MPD2    H2 6484   2.555   2.301  12.444  1.2826  1.3965 -1.5765
  431MPD2    H3 6485   2.482   2.134  12.259  0.0487  0.1256 -0.5035
  431MPD2     N 6486   2.893   2.006  12.182 -0.0069  0.6840  0.4487
  431MPD2    H5 6487   2.847   1.930  12.134 -0.7322  1.1321  0.4301
  431MPD2    N1 6488   2.778   2.326  12.539 -0.2648  0.0192 -0.4789
  431MPD2    H7 6489   2.700   2.384  12.569  0.6557  0.4975  1.0136
  432TMC3    C1 6490   3.107   1.917  12.100  0.0168 -0.0107  0.1101
  432TMC3    C2 6491   3.227   1.946  12.037 -0.0584  0.3301 -0.8173
  432TMC3    C3 6492   3.289   1.845  11.962  0.1103  0.4287  0.6955
  432TMC3    C4 6493   3.051   1.790  12.100 -0.4343  0.1721 -0.5035
  432TMC3    C5 6494   3.123   1.692  12.033  0.2961  0.7241 -0.0607
  432TMC3    C6 6495   3.236   1.715  11.958 -0.2167 -0.1180  0.3925
  432TMC3     C 6496   3.032   2.025  12.174 -0.2695  0.1494  0.4890
  432TMC3     O 6497   3.097   2.129  12.183 -0.1761  0.0792  0.4563
  432TMC3     H 6498   3.266   2.046  12.029  1.7055 -0.0005  3.5333
  432TMC3    H1 6499   2.956   1.774  12.148 -0.3691  1.0680 -0.0697
  432TMC3    H2 6500   3.282   1.642  11.892 -1.0167  1.8523 -2.3861
  432TMC3    C7 6501   3.093   1.552  12.076 -0.4801  0.4007 -0.2133
  432TMC3    C8 6502   3.411   1.879  11.894 -0.0993 -0.4935 -0.0975
  432TMC3    O1 6503   3.130   1.456  12.009  0.2799  0.1032 -0.7424
  432TMC3    O2 6504   3.430   1.830  11.783 -0.1123  0.4062 -0.3444
  433MPD2     C 6505   1.544   0.930  10.915  0.7301  0.0787  0.9926
  433MPD2    C1 6506   1.618   0.830  10.962  0.6535 -0.2981  0.2550
  433MPD2    C2 6507   1.677   0.843  11.088 -0.4374 -0.6172 -0.4133
  433MPD2    C3 6508   1.671   0.964  11.161  0.1876 -0.3060  0.9832
  433MPD2    C4 6509   1.602   1.069  11.109 -0.7262 -0.1550 -0.3022
  433MPD2    C5 6510   1.537   1.048  10.989 -0.2733 -0.7375 -0.5237
  433MPD2     H 6511   1.741   0.770  11.135  0.6208  0.5621 -0.0096
  433MPD2    H1 6512   1.584   1.162  11.162 -0.0430 -0.5935  0.6943
  433MPD2    H2 6513   1.483   0.918  10.826  0.9230  0.5632  0.7905
  433MPD2    H3 6514   1.478   1.132  10.954  0.4584 -0.0125 -0.0170
  433MPD2     N 6515   1.741   0.969  11.284 -0.7260  0.0493  0.1040
  433MPD2    H5 6516   1.777   0.881  11.320 -1.1572 -0.7511 -1.4469
  433MPD2    N1 6517   1.632   0.719  10.873 -0.3053 -0.1243  0.2780
  433MPD2    H7 6518   1.593   0.729  10.779 -0.5347  0.7239  0.4597
  434TMC3    C1 6519   1.703   0.500  10.808  0.4412 -0.4083  0.4909
  434TMC3    C2 6520   1.812   0.414  10.808  0.8300 -0.1515  0.1341
  434TMC3    C3 6521   1.794   0.282  10.786 -0.9733 -0.6171  0.1173
  434TMC3    C4 6522   1.578   0.448  10.782  0.4821  0.9381 -0.2907
  434TMC3    C5 6523   1.565   0.314  10.773 -0.4182 -0.0518 -0.2055
  434TMC3    C6 6524   1.670   0.225  10.768 -0.7059  0.4995 -0.1436
  434TMC3     C 6525   1.709   0.607  10.901  0.2385  0.5172  0.6547
  434TMC3     O 6526   1.779   0.590  11.002  0.7116 -0.1880 -0.3301
  434TMC3     H 6527   1.909   0.452  10.837  1.0504 -0.2547 -0.4513
  434TMC3    H1 6528   1.483   0.498  10.792  0.0860  0.0540  0.3836
  434TMC3    H2 6529   1.642   0.120  10.763  1.7606 -0.1253 -1.1829
  434TMC3    C7 6530   1.424   0.273  10.758 -0.0127  0.4558  0.4654
  434TMC3    C8 6531   1.902   0.196  10.820  0.0103 -0.3926 -0.3407
  434TMC3    O1 6532   1.363   0.329  10.671  0.1221  0.0536  0.2074
  434TMC3    O2 6533   2.013   0.243  10.831  0.5614 -0.1996  0.1688
  435MPD2     C 6534   4.131   0.913  15.476 -0.0703  0.0240 -0.2587
  435MPD2    C1 6535   4.085   0.882  15.606  0.0965 -0.2167 -1.0941
  435MPD2    C2 6536   4.165   0.822  15.699  0.6212  0.0532  0.5017
  435MPD2    C3 6537   4.291   0.780  15.667 -0.1129 -0.1964  0.5528
  435MPD2    C4 6538   4.338   0.803  15.537  0.3095 -0.6551  0.0165
  435MPD2    C5 6539   4.257   0.869  15.444  0.1566 -0.1859 -0.1479
  435MPD2     H 6540   4.129   0.803  15.800  0.1501 -0.2231  0.2826
  435MPD2    H1 6541   4.439   0.789  15.500  1.4153  1.8742  2.0962
  435MPD2    H2 6542   4.088   0.967  15.392 -1.2179 -1.9043 -0.9152
  435MPD2    H3 6543   4.291   0.882  15.341  0.5081  0.3372  0.0347
  435MPD2     N 6544   4.374   0.715  15.760  0.3680  0.2215  0.0509
  435MPD2    H5 6545   4.328   0.701  15.849 -0.5238 -1.2455 -0.6411
  435MPD2    N1 6546   3.958   0.923  15.652  0.7205  0.1566  0.0911
  435MPD2    H7 6547   3.935   0.906  15.749  1.6288  0.8806  0.4267
  436TMC3    C1 6548   3.640   1.005  15.864  0.1008  0.4304 -0.9551
  436TMC3    C2 6549   3.756   1.035  15.793  0.7574 -0.1938  0.2444
  436TMC3    C3 6550   3.748   1.014  15.659  0.1804  0.2916  0.1150
  436TMC3    C4 6551   3.521   0.979  15.810  0.1867 -0.4123  0.9614
  436TMC3    C5 6552   3.525   0.959  15.674  0.6110  0.8964 -0.0438
  436TMC3    C6 6553   3.635   0.964  15.594 -0.6478  0.3600 -0.2431
  436TMC3     C 6554   3.642   1.017  16.011 -0.0265  0.3410 -0.4465
  436TMC3     O 6555   3.754   1.017  16.058  0.3288  0.2394  0.5647
  436TMC3     H 6556   3.849   1.073  15.832  1.7663 -0.6298 -1.7321
  436TMC3    H1 6557   3.430   0.983  15.869 -0.1352  0.6674  0.3927
  436TMC3    H2 6558   3.641   0.945  15.488 -0.6648 -0.8821 -0.0265
  436TMC3    C7 6559   3.406   0.919  15.595  0.1285  0.0877  0.4531
  436TMC3    C8 6560   3.866   0.995  15.582  0.1407 -0.1946  0.0053
  436TMC3    O1 6561   3.420   0.920  15.476  0.2480 -0.2137  0.0346
  436TMC3    O2 6562   3.857   0.999  15.464 -0.5781 -0.0524  0.2257
  437TMC3    C1 6563   1.998   3.075  12.713 -0.1651 -0.0365  0.0861
  437TMC3    C2 6564   1.869   3.119  12.714  0.0020  0.2888  0.4514
  437TMC3    C3 6565   1.829   3.204  12.620  0.1856  0.3168  0.7068
  437TMC3    C4 6566   2.089   3.110  12.614 -0.2656 -0.0260  0.6260
  437TMC3    C5 6567   2.053   3.203  12.523 -0.2960  0.3693  0.6297
  437TMC3    C6 6568   1.924   3.251  12.528  0.2607 -0.3382  0.2112
  437TMC3     C 6569   2.023   2.964  12.801 -0.8531  0.8582  0.6896
  437TMC3     O 6570   1.926   2.909  12.845  0.5427 -0.1733 -0.1418
  437TMC3     H 6571   1.802   3.078  12.789  0.1580 -1.6044 -0.4428
  437TMC3    H1 6572   2.184   3.060  12.605  1.2712  3.2879 -1.5035
  437TMC3    H2 6573   1.893   3.324  12.454  2.9783  1.0630  0.4992
  437TMC3    C7 6574   2.154   3.289  12.463  0.4302 -0.2913  0.4489
  437TMC3    C8 6575   1.707   3.279  12.636 -0.2178 -0.3469  0.4857
  437TMC3    O1 6576   2.129   3.339  12.355  0.1217 -0.9201 -0.2803
  437TMC3    O2 6577   1.650   3.298  12.529  0.0004 -0.2627 -0.3266
  438MPD2     C 6578   0.337   3.625  16.832 -0.0174 -0.6256 -0.0778
  438MPD2    C1 6579   0.392   3.501  16.847  0.5632 -0.4973  0.2242
  438MPD2    C2 6580   0.384   3.431  16.969  0.4564  0.7671 -0.5300
  438MPD2    C3 6581   0.336   3.500  17.076  0.3826  0.0892 -0.5678
  438MPD2    C4 6582   0.288   3.626  17.059 -0.5014 -0.0655  0.1396
  438MPD2    C5 6583   0.301   3.694  16.942  0.3003 -0.0169 -0.2960
  438MPD2     H 6584   0.432   3.333  16.972  2.4875  1.8101  1.3412
  438MPD2    H1 6585   0.267   3.692  17.142 -1.2041 -1.1247  0.8052
  438MPD2    H2 6586   0.343   3.682  16.739 -2.8664  0.2735  0.2891
  438MPD2    H3 6587   0.258   3.793  16.929 -0.0346 -0.2960 -1.3653
  438MPD2     N 6588   0.349   3.454  17.205 -0.4185 -0.9934  0.6159
  438MPD2    H5 6589   0.327   3.513  17.285  1.6275  0.6368  0.0106
  438MPD2    N1 6590   0.454   3.431  16.742 -0.3980 -0.0763  0.1956
  438MPD2    H7 6591   0.483   3.338  16.770  0.0987 -0.1669 -0.6066
  439TMC3    C1 6592   0.537   3.359  16.536  0.0400  1.0450 -0.1931
  439TMC3    C2 6593   0.552   3.390  16.406 -0.1983 -0.3342 -0.2871
  439TMC3    C3 6594   0.639   3.311  16.335  0.1020 -0.0214 -0.1033
  439TMC3    C4 6595   0.623   3.265  16.597  0.4025 -0.3210  0.4495
  439TMC3    C5 6596   0.699   3.181  16.525  0.2235 -1.1721  0.2327
  439TMC3    C6 6597   0.705   3.199  16.383  0.2027 -0.3094 -1.3000
  439TMC3     C 6598   0.474   3.465  16.610 -0.2132  0.4765  0.0848
  439TMC3     O 6599   0.484   3.572  16.556  0.1107  0.0275 -0.4201
  439TMC3     H 6600   0.485   3.454  16.351 -0.6152 -0.1296  0.4533
  439TMC3    H1 6601   0.617   3.251  16.704  0.4582 -1.6989  0.2750
  439TMC3    H2 6602   0.773   3.141  16.322 -1.5336 -1.7089 -1.9037
  439TMC3    C7 6603   0.779   3.078  16.586  1.0954  0.4505 -0.8574
  439TMC3    C8 6604   0.617   3.310  16.187 -0.2480 -0.4914 -0.1146
  439TMC3    O1 6605   0.777   3.073  16.706  0.1114  0.2448 -0.1551
  439TMC3    O2 6606   0.643   3.200  16.142 -0.2716  0.0480 -0.1250
  440MPD2     C 6607   4.053   3.877  15.067 -0.7098  0.3303 -0.3322
  440MPD2    C1 6608   4.081   3.952  15.178  0.5934 -0.2004 -0.0763
  440MPD2    C2 6609   4.193   3.925  15.252  0.4017 -0.1223  0.1769
  440MPD2    C3 6610   4.275   3.820  15.219 -0.3009 -0.3192 -0.5154
  440MPD2    C4 6611   4.245   3.742  15.111  0.3604  0.2348 -0.1781
  440MPD2    C5 6612   4.135   3.769  15.041  0.2176  0.5239  0.3763
  440MPD2     H 6613   4.229   3.978  15.339 -0.2259 -0.1538  0.4520
  440MPD2    H1 6614   4.294   3.647  15.094  1.2088  0.6515 -0.0477
  440MPD2    H2 6615   3.978   3.903  14.993 -2.5894 -1.3415  1.0192
  440MPD2    H3 6616   4.113   3.706  14.955 -0.4925  2.1331 -0.6222
  440MPD2     N 6617   4.376   3.773  15.302  0.1618  0.7938  0.2296
  440MPD2    H5 6618   4.424   3.695  15.260  0.0287  0.0767  1.4136
  440MPD2    N1 6619   3.999   4.063  15.220 -0.2603 -0.7574  0.2025
  440MPD2    H7 6620   4.020   4.104  15.311  0.4413  0.7087 -0.6298
  441TMC3    C1 6621   4.505   3.742  15.503 -0.1300  0.2378 -0.1170
  441TMC3    C2 6622   4.585   3.813  15.589  0.4092 -0.0052  0.3161
  441TMC3    C3 6623   4.606   3.784  15.719 -0.2987 -0.2470  0.1636
  441TMC3    C4 6624   4.430   3.645  15.560 -0.5955 -0.4454  0.0785
  441TMC3    C5 6625   4.457   3.603  15.691 -0.6360  0.4270  0.2537
  441TMC3    C6 6626   4.541   3.676  15.773 -1.2639  0.4786  0.2016
  441TMC3     C 6627   4.426   3.833  15.420  0.8126 -0.1310  0.5850
  441TMC3     O 6628   4.406   3.942  15.467  0.2849  0.2604  0.0039
  441TMC3     H 6629   4.638   3.894  15.539 -1.1769  0.5686 -0.4543
  441TMC3    H1 6630   4.354   3.598  15.498 -0.8204  0.7118 -0.5217
  441TMC3    H2 6631   4.545   3.655  15.879 -0.9895  0.3773  0.1692
  441TMC3    C7 6632   4.366   3.500  15.739 -0.1792 -0.3025  0.0803
  441TMC3    C8 6633   4.616   3.898  15.809 -0.0092  0.5546  0.0142
  441TMC3    O1 6634   4.258   3.496  15.688 -0.2166 -0.4964 -0.2814
  441TMC3    O2 6635   4.612   3.890  15.933  0.5872 -0.5619  0.6002
  442MPD2     C 6636   2.494   3.671  16.878 -0.4460 -0.3805  0.3440
  442MPD2    C1 6637   2.405   3.770  16.846 -0.2389  0.5339  0.5957
  442MPD2    C2 6638   2.351   3.775  16.716 -1.3473 -0.6692  0.3560
  442MPD2    C3 6639   2.391   3.691  16.616  0.2088 -0.0054 -1.2856
  442MPD2    C4 6640   2.476   3.592  16.654  0.2541  0.4443  0.4006
  442MPD2    C5 6641   2.532   3.587  16.780  0.7258 -0.3926  0.5676
  442MPD2     H 6642   2.278   3.854  16.708  0.9451  1.4455  0.2273
  442MPD2    H1 6643   2.503   3.514  16.583 -2.3935 -0.0517 -0.0577
  442MPD2    H2 6644   2.543   3.656  16.974 -0.4413  1.0550  0.5526
  442MPD2    H3 6645   2.598   3.505  16.805  1.1352  0.0475  0.9216
  442MPD2     N 6646   2.349   3.694  16.483 -0.2302  0.7715 -0.1450
  442MPD2    H5 6647   2.389   3.624  16.421 -1.7494 -1.4334  1.3813
  442MPD2    N1 6648   2.367   3.873  16.936 -0.1147 -0.5641  0.1758
  442MPD2    H7 6649   2.295   3.934  16.900  2.1530  2.7568  1.2132
  443TMC3    C1 6650   2.336   3.996  17.129 -0.2860  0.2294  0.7641
  443TMC3    C2 6651   2.333   4.108  17.058  0.0621 -0.2828 -0.2121
  443TMC3    C3 6652   2.221   4.188  17.070 -0.0719 -0.1280 -0.3456
  443TMC3    C4 6653   2.236   3.951  17.216 -0.0337 -0.1733 -0.0651
  443TMC3    C5 6654   2.129   4.035  17.227  0.6674 -0.1021 -0.4007
  443TMC3    C6 6655   2.127   4.160  17.171 -0.1428 -0.1123  0.1100
  443TMC3     C 6656   2.414   3.889  17.067 -0.1598 -0.2941  0.8293
  443TMC3     O 6657   2.499   3.832  17.130 -0.2413 -0.3552  0.1505
  443TMC3     H 6658   2.403   4.115  16.975 -0.3616  2.0925 -0.3466
  443TMC3    H1 6659   2.230   3.847  17.245 -1.3946  0.0569  0.5307
  443TMC3    H2 6660   2.038   4.221  17.183 -0.4104 -0.5428  0.3434
  443TMC3    C7 6661   1.999   3.960  17.232 -0.8420 -0.7099  0.2745
  443TMC3    C8 6662   2.159   4.197  16.941 -0.2736 -0.2135  0.1290
  443TMC3    O1 6663   1.984   3.872  17.147  0.1912 -0.4751  0.4530
  443TMC3    O2 6664   2.180   4.096  16.877  0.3327  0.1036 -0.6201
  444MPD2     C 6665   2.317   3.577  17.319  0.6112  0.1449 -0.0994
  444MPD2    C1 6666   2.217   3.503  17.251  0.2730  0.7007  0.5118
  444MPD2    C2 6667   2.257   3.408  17.156 -0.4148  0.3151  0.6024
  444MPD2    C3 6668   2.384   3.392  17.125  0.0441 -0.4545  0.2895
  444MPD2    C4 6669   2.483   3.464  17.188  0.4257 -0.5023  0.3944
  444MPD2    C5 6670   2.450   3.560  17.282  1.0118 -0.0863 -0.2717
  444MPD2     H 6671   2.188   3.336  17.114  2.1701 -0.5873 -2.1520
  444MPD2    H1 6672   2.587   3.439  17.167  0.2109 -0.7215 -0.3840
  444MPD2    H2 6673   2.295   3.651  17.396 -1.2396 -0.6538  0.1369
  444MPD2    H3 6674   2.533   3.615  17.325 -0.1178 -0.5054  2.4481
  444MPD2     N 6675   2.412   3.306  17.009  0.8487 -0.4378  0.2038
  444MPD2    H5 6676   2.344   3.286  16.936  0.3123 -1.5045  0.9938
  444MPD2    N1 6677   2.074   3.526  17.282 -0.2118 -0.2594  0.0722
  444MPD2    H7 6678   2.011   3.461  17.234 -0.0648  0.0971 -0.6022
  445TMC3    C1 6679   2.537   3.163  16.867 -0.2635 -0.1822 -0.0490
  445TMC3    C2 6680   2.448   3.176  16.765 -0.1296  0.3620 -0.4544
  445TMC3    C3 6681   2.474   3.096  16.654  0.1196 -0.5839 -0.3900
  445TMC3    C4 6682   2.644   3.082  16.865 -0.4600  0.0596  0.4216
  445TMC3    C5 6683   2.661   2.994  16.751 -0.1488  0.0191 -0.2395
  445TMC3    C6 6684   2.565   2.995  16.648 -0.5702 -0.4349 -0.4464
  445TMC3     C 6685   2.534   3.249  16.980 -0.1117 -0.1263 -0.2941
  445TMC3     O 6686   2.644   3.271  17.029 -0.7401 -0.6449 -0.3784
  445TMC3     H 6687   2.369   3.250  16.774  0.7539  1.2421  0.0364
  445TMC3    H1 6688   2.723   3.079  16.939 -0.1569  0.0854  0.0953
  445TMC3    H2 6689   2.593   2.935  16.562  0.3375  0.9186 -1.1126
  445TMC3    C7 6690   2.785   2.922  16.718  0.4168 -0.2485  0.7990
  445TMC3    C8 6691   2.376   3.114  16.549  0.2265 -0.1942  0.7069
  445TMC3    O1 6692   2.797   2.884  16.605 -0.4736  0.0198 -0.1039
  445TMC3    O2 6693   2.311   3.215  16.557 -0.1054 -0.5695  0.0356
  446MPD2     C 6694   1.683   0.151  11.375 -0.0765 -0.1160  0.7272
  446MPD2    C1 6695   1.641   0.266  11.314 -0.3585  0.1699 -0.2039
  446MPD2    C2 6696   1.718   0.333  11.225  0.1599 -0.1571 -0.2288
  446MPD2    C3 6697   1.850   0.296  11.205 -0.1469 -0.3546 -0.4283
  446MPD2    C4 6698   1.888   0.173  11.256 -0.1041  0.1435  0.3348
  446MPD2    C5 6699   1.805   0.107  11.341  0.2973 -0.6495  0.3729
  446MPD2     H 6700   1.688   0.428  11.182 -0.1842 -0.9377 -1.7120
  446MPD2    H1 6701   1.987   0.129  11.243 -0.2031 -0.5503  1.9878
  446MPD2    H2 6702   1.627   0.086  11.441 -0.5642 -1.5895 -1.1211
  446MPD2    H3 6703   1.835   0.011  11.381  1.0385 -0.1513  1.0046
  446MPD2     N 6704   1.942   0.377  11.137 -0.2999  0.3413 -0.6620
  446MPD2    H5 6705   1.906   0.468  11.109 -2.0742 -0.7086 -1.8151
  446MPD2    N1 6706   1.503   0.310  11.326  0.3381 -0.9471  0.0165
  446MPD2    H7 6707   1.481   0.393  11.272 -0.6805 -0.4133  1.2425
  447TMC3    C1 6708   2.142   0.489  11.156 -0.2261  0.3470 -0.5637
  447TMC3    C2 6709   2.072   0.598  11.114 -0.3253 -0.2812 -0.8378
  447TMC3    C3 6710   2.090   0.721  11.176  0.4913 -1.0653 -0.4317
  447TMC3    C4 6711   2.228   0.500  11.258 -0.1674 -0.4509  0.2638
  447TMC3    C5 6712   2.235   0.617  11.321 -1.0033  0.7900 -0.4527
  447TMC3    C6 6713   2.168   0.731  11.292  0.0696  0.0022  0.3222
  447TMC3     C 6714   2.073   0.356  11.141 -0.5248 -0.7573  0.5990
  447TMC3     O 6715   2.142   0.257  11.165 -0.3549  0.3600 -0.0277
  447TMC3     H 6716   2.014   0.600  11.022 -0.3526  0.2009 -0.8067
  447TMC3    H1 6717   2.290   0.418  11.293 -2.3611 -2.5670 -0.8380
  447TMC3    H2 6718   2.175   0.828  11.340  0.7026  0.4118 -0.5821
  447TMC3    C7 6719   2.332   0.625  11.426 -0.2015  0.4989  0.1938
  447TMC3    C8 6720   2.035   0.844  11.113 -0.5991 -0.4721 -0.2550
  447TMC3    O1 6721   2.439   0.575  11.394 -0.4368 -0.0517  0.0067
  447TMC3    O2 6722   1.957   0.824  11.026  0.0232 -0.0032  0.2173
  448TMC3    C1 6723   1.470   4.545  17.740 -0.5287  0.1065  0.5783
  448TMC3    C2 6724   1.462   4.456  17.643 -0.1524  0.4432 -0.8356
  448TMC3    C3 6725   1.351   4.382  17.629 -0.5578 -0.4500 -0.3669
  448TMC3    C4 6726   1.374   4.568   0.085 -0.0589  0.2561 -0.7564
  448TMC3    C5 6727   1.261   4.492   0.071 -0.3282  0.5831  0.1642
  448TMC3    C6 6728   1.249   4.401  17.718 -0.2926 -0.5054 -0.3532
  448TMC3     C 6729   1.577   4.636  17.735  0.2385  0.3953 -0.4605
  448TMC3     O 6730   1.677   4.606  17.674  0.8900  0.6366  0.2135
  448TMC3     H 6731   1.548   4.430  17.583  1.8242  0.0683  2.1769
  448TMC3    H1 6732   1.389   4.624   0.176  2.2433 -2.0445  0.2903
  448TMC3    H2 6733   1.153   4.357  17.695  1.2917 -3.8239 -0.6195
  448TMC3    C7 6734   1.142   4.549   0.126  0.6275  0.0684  0.1513
  448TMC3    C8 6735   1.323   4.310  17.509  0.6265 -0.1615 -0.2915
  448TMC3    O1 6736   1.139   4.671   0.151 -0.2415 -0.3678 -0.0549
  448TMC3    O2 6737   1.236   4.222  17.509  0.4421 -0.1766  0.0325
  449MPD2     C 6738   1.835   3.483  13.951 -0.0425  0.0839 -1.0147
  449MPD2    C1 6739   1.704   3.518  13.953  0.3305 -1.0072 -0.6228
  449MPD2    C2 6740   1.612   3.456  14.035  0.4424  0.2108 -0.5806
  449MPD2    C3 6741   1.656   3.356  14.123  0.5321  0.2096  0.4043
  449MPD2    C4 6742   1.788   3.327  14.135  0.1227  0.2881  0.6071
  449MPD2    C5 6743   1.877   3.391  14.048 -0.8529  0.9308  0.1092
  449MPD2     H 6744   1.507   3.481  14.028  0.7833  1.9272  0.2162
  449MPD2    H1 6745   1.830   3.261  14.210  1.4131 -0.4192 -0.7321
  449MPD2    H2 6746   1.908   3.553  13.911  0.0664  0.9775  0.7904
  449MPD2    H3 6747   1.983   3.370  14.048 -1.6025 -2.7265 -0.8685
  449MPD2     N 6748   1.552   3.295  14.194 -0.1651 -0.2364 -0.3531
  449MPD2    H5 6749   1.459   3.331  14.180 -0.0876 -0.3604 -1.1792
  449MPD2    N1 6750   1.648   3.607  13.862 -0.1953  0.1847  0.2370
  449MPD2    H7 6751   1.549   3.622  13.844 -0.4881 -1.2148  0.6529
  450TMC3    C1 6752   1.615   3.754  13.683 -0.4575  0.1156  0.2201
  450TMC3    C2 6753   1.614   3.719  13.548 -0.2331 -0.3680 -0.4716
  450TMC3    C3 6754   1.486   3.696  13.492  0.1745  0.7834 -0.2967
  450TMC3    C4 6755   1.504   3.782  13.753  0.2419  0.2220 -0.3147
  450TMC3    C5 6756   1.381   3.767  13.692  0.1088  0.4525 -0.1916
  450TMC3    C6 6757   1.371   3.726  13.563 -0.9048  0.7932  0.3698
  450TMC3     C 6758   1.711   3.673  13.760 -0.0502 -0.2837 -0.2432
  450TMC3     O 6759   1.824   3.659  13.713  0.1031 -0.2253  0.2015
  450TMC3     H 6760   1.707   3.683  13.506 -0.9668 -0.7436 -1.7815
  450TMC3    H1 6761   1.507   3.809  13.858 -2.1008  1.0261 -0.4530
  450TMC3    H2 6762   1.279   3.693  13.515 -0.9627  0.1206  0.9449
  450TMC3    C7 6763   1.301   3.678  13.780  0.8506  0.1383  0.9880
  450TMC3    C8 6764   1.474   3.565  13.430 -0.5467  1.1988  0.1274
  450TMC3    O1 6765   1.370   3.612  13.858 -0.0477  0.6603 -0.1336
  450TMC3    O2 6766   1.375   3.504  13.472  0.6403 -0.1647  0.0708
  451MPD2     C 6767   3.540   1.544   1.175  0.2712 -0.2990  0.4274
  451MPD2    C1 6768   3.425   1.468   1.188  0.7334 -0.4700  0.5809
  451MPD2    C2 6769   3.426   1.335   1.199  0.8088  0.0766  1.1620
  451MPD2    C3 6770   3.545   1.271   1.179 -1.0940  0.4733  0.4493
  451MPD2    C4 6771   3.663   1.336   1.162 -0.1265 -0.1815 -0.8975
  451MPD2    C5 6772   3.660   1.470   1.166 -0.3196  0.1799 -0.0472
  451MPD2     H 6773   3.335   1.278   1.214  1.7958 -2.1083 -1.1278
  451MPD2    H1 6774   3.756   1.281   1.150  0.3692  0.4591  0.0568
  451MPD2    H2 6775   3.545   1.652   1.167 -0.0270 -0.3408 -0.2855
  451MPD2    H3 6776   3.759   1.515   1.160  0.7542 -2.4075 -2.0937
  451MPD2     N 6777   3.548   1.129   1.171  0.4475  0.5782  0.0263
  451MPD2    H5 6778   3.642   1.096   1.148  0.7404  0.8939  0.7821
  451MPD2    N1 6779   3.304   1.543   1.190 -0.3318 -0.2976  0.1690
  451MPD2    H7 6780   3.317   1.643   1.193 -0.9642 -0.2433  1.0958
  452TMC3    C1 6781   3.481   0.902   1.126  0.5863  0.1448 -0.3848
  452TMC3    C2 6782   3.381   0.809   1.132 -0.0795  0.6933 -0.0550
  452TMC3    C3 6783   3.393   0.689   1.061 -0.5638 -0.1281  0.0272
  452TMC3    C4 6784   3.586   0.896   1.040 -0.4621  0.8269 -0.0238
  452TMC3    C5 6785   3.589   0.786   0.963  0.4355 -0.1344 -0.1315
  452TMC3    C6 6786   3.496   0.683   0.978  0.3774 -0.8226  1.1165
  452TMC3     C 6787   3.447   1.037   1.177 -0.2452  0.1522  0.3641
  452TMC3     O 6788   3.337   1.051   1.233  0.3659 -0.3513 -0.6050
  452TMC3     H 6789   3.302   0.823   1.205  0.6783 -0.2104  0.9475
  452TMC3    H1 6790   3.646   0.983   1.015  0.2291  0.5822  0.7811
  452TMC3    H2 6791   3.488   0.601   0.908  0.1319  0.5094 -0.4056
  452TMC3    C7 6792   3.675   0.780   0.848  0.6419  0.4882  0.3748
  452TMC3    C8 6793   3.266   0.668   0.985  0.3059 -0.4700  0.1057
  452TMC3    O1 6794   3.677   0.879   0.775 -0.1183 -0.0751  0.2598
  452TMC3    O2 6795   3.271   0.707   0.868  0.2998 -0.1044  0.2333
  453TMC3    C1 6796   4.059   4.312  11.923 -0.4874  0.1632  0.4973
  453TMC3    C2 6797   3.960   4.232  11.932  0.1312  0.5789 -0.8735
  453TMC3    C3 6798   3.849   4.265  11.860  0.6547 -0.1170 -0.6419
  453TMC3    C4 6799   4.061   4.423  11.843 -0.1062 -0.1336 -0.0935
  453TMC3    C5 6800   3.950   4.459  11.766 -0.2790 -0.6347  0.1878
  453TMC3    C6 6801   3.847   4.372  11.775 -0.5408  0.3457 -0.1633
  453TMC3     C 6802   4.186   4.276  11.995  0.5565 -0.8793 -0.0824
  453TMC3     O 6803   4.277   4.352  11.971 -0.9193 -0.0255  0.3520
  453TMC3     H 6804   3.963   4.144  11.994  1.5608  0.7944 -0.6434
  453TMC3    H1 6805   4.154   4.444  11.791 -0.6060  0.5462 -0.7211
  453TMC3    H2 6806   3.762   4.387  11.709 -0.0698  2.9687 -0.1616
  453TMC3    C7 6807   3.985   4.490  11.631 -0.2438 -0.1196 -0.1230
  453TMC3    C8 6808   3.749   4.164  11.840 -0.1612  0.2089  0.0312
  453TMC3    O1 6809   3.935   4.420  11.543 -0.4099 -0.4265 -0.0795
  453TMC3    O2 6810   3.636   4.201  11.807  0.4016 -0.6507  0.5000
  454MPD2     C 6811   3.136   3.257  16.537 -0.0673  0.7169  0.6315
  454MPD2    C1 6812   3.111   3.307  16.412 -0.4563 -0.1945 -0.4741
  454MPD2    C2 6813   3.090   3.439  16.394 -0.3430 -0.2349 -0.4109
  454MPD2    C3 6814   3.105   3.524  16.497  0.4740  0.2972  0.4951
  454MPD2    C4 6815   3.136   3.482  16.622 -0.4607  0.6905  0.1913
  454MPD2    C5 6816   3.150   3.346  16.641 -0.0728  0.8583 -0.7973
  454MPD2     H 6817   3.054   3.478  16.299  2.0769  0.7359 -0.9302
  454MPD2    H1 6818   3.144   3.549  16.707 -0.5854  1.0698 -0.0970
  454MPD2    H2 6819   3.147   3.151  16.557 -0.4620  0.1790 -2.1134
  454MPD2    H3 6820   3.183   3.311  16.739  0.3007  0.3591 -1.1057
  454MPD2     N 6821   3.081   3.664  16.486 -0.6409 -0.6834  0.1063
  454MPD2    H5 6822   3.034   3.704  16.567  1.8857  2.3149  0.0806
  454MPD2    N1 6823   3.098   3.234  16.296  0.3937 -0.3039 -0.4986
  454MPD2    H7 6824   3.073   3.281  16.209  1.8232  0.6189 -0.4266
  455TMC3    C1 6825   2.952   3.815  16.367 -0.1248 -0.4711  0.3914
  455TMC3    C2 6826   2.937   3.879  16.490  0.3386 -0.3378 -0.3459
  455TMC3    C3 6827   2.808   3.906  16.526 -0.5223  0.0782  0.7046
  455TMC3    C4 6828   2.852   3.753  16.303  0.0610  0.0069 -0.5509
  455TMC3    C5 6829   2.720   3.763  16.358 -0.5847 -0.2293 -1.0745
  455TMC3    C6 6830   2.700   3.839  16.468 -0.4365 -0.7325  0.0764
  455TMC3     C 6831   3.060   3.726  16.363 -0.2084 -1.2436  0.1046
  455TMC3     O 6832   3.116   3.706  16.255  0.1811  0.0045  0.3904
  455TMC3     H 6833   3.020   3.925  16.543 -0.4035  1.8785 -1.0851
  455TMC3    H1 6834   2.878   3.683  16.224  2.2852  1.6212 -1.2466
  455TMC3    H2 6835   2.598   3.845  16.506 -0.5094  0.6968 -0.3279
  455TMC3    C7 6836   2.665   3.632  16.356 -0.4142 -0.2612  0.3884
  455TMC3    C8 6837   2.791   3.998  16.645  0.1166 -0.7789 -0.0757
  455TMC3    O1 6838   2.556   3.614  16.301 -0.1534  0.0468 -0.0312
  455TMC3    O2 6839   2.896   4.012  16.710  0.0540  0.0537  0.0455
  456MPD2     C 6840   0.825   3.632  16.279  0.2144 -0.3727 -0.3472
  456MPD2    C1 6841   0.910   3.541  16.334 -0.1135 -0.4218 -0.2596
  456MPD2    C2 6842   0.939   3.559  16.472  0.2368 -0.0738 -0.1952
  456MPD2    C3 6843   0.890   3.672  16.543 -0.4404 -0.5577 -0.0933
  456MPD2    C4 6844   0.799   3.758  16.480 -0.6023 -0.3918 -0.1924
  456MPD2    C5 6845   0.768   3.737  16.345  0.1060 -0.7261  1.2364
  456MPD2     H 6846   1.011   3.493  16.519  0.6944  0.0384 -0.7319
  456MPD2    H1 6847   0.766   3.840  16.541  0.1845 -1.7630  2.0745
  456MPD2    H2 6848   0.798   3.624  16.174  1.7297  0.3287 -0.7921
  456MPD2    H3 6849   0.700   3.799  16.287  0.1260 -1.5321  0.3664
  456MPD2     N 6850   0.933   3.693  16.677 -0.4204  0.4944  0.1729
  456MPD2    H5 6851   0.972   3.612  16.724  1.3865  1.3216  0.0985
  456MPD2    N1 6852   0.962   3.436  16.250  0.5234 -0.5270 -0.3548
  456MPD2    H7 6853   0.963   3.441  16.148 -0.8753  0.2650 -0.3253
  457TMC3    C1 6854   0.969   3.783  16.894  0.0073  0.1618  0.2325
  457TMC3    C2 6855   1.066   3.868  16.935  0.0411 -0.0535 -0.3003
  457TMC3    C3 6856   1.133   3.840  17.051 -0.3894  0.1057  0.2069
  457TMC3    C4 6857   0.957   3.658  16.954 -0.1821 -0.6520 -0.0865
  457TMC3    C5 6858   1.022   3.633  17.068 -0.8245 -1.3959  0.5071
  457TMC3    C6 6859   1.116   3.718  17.113 -0.0106 -0.5929  0.4824
  457TMC3     C 6860   0.918   3.805  16.760 -0.0057  0.0034 -0.0161
  457TMC3     O 6861   0.918   3.920  16.723  0.0198  0.5954  0.0274
  457TMC3     H 6862   1.094   3.955  16.878 -0.1609 -0.2850 -0.7539
  457TMC3    H1 6863   0.891   3.579  16.921  1.8494 -2.3263 -0.1433
  457TMC3    H2 6864   1.156   3.695  17.212  0.2355  0.0776  0.5363
  457TMC3    C7 6865   0.919   3.598  17.163 -0.0845 -0.4818 -0.1549
  457TMC3    C8 6866   1.197   3.950  17.128  0.7629  1.1856 -0.6419
  457TMC3    O1 6867   0.959   3.545  17.265 -0.2864 -0.0017 -0.0023
  457TMC3    O2 6868   1.205   3.936  17.249 -0.2445  0.6192 -0.7447
  458MPD2     C 6869   2.547   3.608  12.501 -0.5431 -0.5312 -0.0808
  458MPD2    C1 6870   2.578   3.487  12.566 -0.5881  0.1142  0.1996
  458MPD2    C2 6871   2.485   3.386  12.567  0.2739  0.2546 -0.0928
  458MPD2    C3 6872   2.358   3.408  12.509  0.6246 -0.5965 -0.3239
  458MPD2    C4 6873   2.319   3.536  12.466 -0.0114  0.0148  0.7293
  458MPD2    C5 6874   2.423   3.628  12.455 -0.2370  0.0000 -0.1501
  458MPD2     H 6875   2.495   3.294  12.623 -0.1941  0.1894 -0.1163
  458MPD2    H1 6876   2.221   3.549  12.421 -0.9973  0.6992  3.1003
  458MPD2    H2 6877   2.627   3.679  12.480 -2.6937  1.7166 -0.6417
  458MPD2    H3 6878   2.412   3.717  12.395 -1.0202  0.6092  0.8989
  458MPD2     N 6879   2.264   3.311  12.541 -0.3863  0.8426  0.0868
  458MPD2    H5 6880   2.278   3.247  12.619  0.0449  0.3377 -0.3995
  458MPD2    N1 6881   2.701   3.480  12.633 -0.2145  0.5707  0.1424
  458MPD2    H7 6882   2.764   3.560  12.632  1.7331 -0.9986 -0.9791
  459TMC3    C1 6883   2.878   3.351  12.715 -0.0474 -0.0081  0.4129
  459TMC3    C2 6884   2.950   3.364  12.605 -0.0520 -0.9116 -0.1410
  459TMC3    C3 6885   3.070   3.301  12.592 -0.1642  0.5248 -0.4201
  459TMC3    C4 6886   2.915   3.265  12.814  0.0432 -0.4168 -0.4701
  459TMC3    C5 6887   3.038   3.197  12.793 -1.1370  0.4136  0.3242
  459TMC3    C6 6888   3.118   3.213  12.684 -0.0378 -0.2353 -0.5872
  459TMC3     C 6889   2.737   3.372  12.704  0.2061  0.1592 -0.1822
  459TMC3     O 6890   2.678   3.275  12.738 -0.4589  0.4330  0.6820
  459TMC3     H 6891   2.910   3.422  12.523  1.6381 -1.9353 -1.6966
  459TMC3    H1 6892   2.852   3.250  12.901  2.0810 -2.8948  0.5757
  459TMC3    H2 6893   3.212   3.162  12.665  0.9649  1.4342 -0.1335
  459TMC3    C7 6894   3.087   3.123  12.908 -0.4803  0.7572  0.1002
  459TMC3    C8 6895   3.171   3.356  12.501 -0.1466 -0.2800  0.6857
  459TMC3    O1 6896   3.009   3.061  12.980 -0.3778  0.3600 -0.1534
  459TMC3    O2 6897   3.267   3.285  12.474  0.6528  0.0035 -0.1525
  460MPD2     C 6898   2.095   1.207  11.179  0.5208 -0.2751  0.2237
  460MPD2    C1 6899   2.044   1.093  11.121 -0.5671  0.2592 -0.1119
  460MPD2    C2 6900   1.942   1.122  11.023 -0.3751  0.1506 -0.0159
  460MPD2    C3 6901   1.894   1.248  10.983 -0.0318 -0.6553 -0.1554
  460MPD2    C4 6902   1.961   1.354  11.042  0.4368  0.4337  0.1363
  460MPD2    C5 6903   2.056   1.330  11.136 -0.2786 -0.8344 -0.1266
  460MPD2     H 6904   1.889   1.040  10.976 -0.8198  0.5041 -0.1248
  460MPD2    H1 6905   1.928   1.454  11.017  1.6195  0.8629  0.3167
  460MPD2    H2 6906   2.159   1.212  11.267 -0.7188 -0.5401  1.1458
  460MPD2    H3 6907   2.086   1.424  11.180  2.3421 -0.7626 -2.0788
  460MPD2     N 6908   1.794   1.254  10.886 -0.5489 -0.1011 -0.0208
  460MPD2    H5 6909   1.743   1.172  10.854  1.0626 -1.2325  0.3221
  460MPD2    N1 6910   2.082   0.967  11.168  0.6696 -0.3734 -0.4459
  460MPD2    H7 6911   2.147   0.966  11.246 -2.5623  1.7797  2.2806
  461TMC3    C1 6912   1.675   1.351  10.692  0.2645 -0.1295  0.1727
  461TMC3    C2 6913   1.637   1.225  10.648 -0.1466 -1.0416 -0.9681
  461TMC3    C3 6914   1.578   1.217  10.529 -0.1930 -0.3448  0.5388
  461TMC3    C4 6915   1.671   1.461  10.614 -0.3621  0.2515  0.5280
  461TMC3    C5 6916   1.615   1.443  10.484  0.4379  0.0166 -0.6016
  461TMC3    C6 6917   1.565   1.320  10.439  0.0786  0.0997 -0.0476
  461TMC3     C 6918   1.765   1.369  10.810 -0.3763 -0.3813 -0.0974
  461TMC3     O 6919   1.799   1.482  10.828 -0.0320  0.1645  0.6532
  461TMC3     H 6920   1.642   1.129  10.699  0.5123 -0.1463  0.6576
  461TMC3    H1 6921   1.689   1.561  10.651 -2.1281  0.7658  0.0307
  461TMC3    H2 6922   1.534   1.306  10.336  0.7055 -0.2623 -0.1868
  461TMC3    C7 6923   1.599   1.556  10.391 -0.7166 -0.0314  0.2847
  461TMC3    C8 6924   1.560   1.085  10.478 -0.7249  0.5748  0.1278
  461TMC3    O1 6925   1.530   1.535  10.292 -0.2124  0.1623 -0.2415
  461TMC3    O2 6926   1.527   1.001  10.559 -0.3568 -0.0768 -0.3922
  462TMC3    C1 6927   2.127   1.969   0.183 -0.0352  0.1206 -0.6326
  462TMC3    C2 6928   2.264   1.976   0.180  0.5423 -0.7276 -0.0444
  462TMC3    C3 6929   2.334   1.861   0.197 -0.0269 -0.2069  0.1126
  462TMC3    C4 6930   2.068   1.846   0.176  0.4312 -0.3986  0.6608
  462TMC3    C5 6931   2.144   1.735   0.180 -0.5195  0.2329  0.1454
  462TMC3    C6 6932   2.275   1.740   0.208  0.0158  0.6121  0.1922
  462TMC3     C 6933   2.035   2.075   0.216 -0.0275  0.4080 -1.0212
  462TMC3     O 6934   1.924   2.046   0.259 -0.2072 -0.1450  0.0398
  462TMC3     H 6935   2.318   2.069   0.197  0.9085 -0.7219 -1.2850
  462TMC3    H1 6936   1.959   1.845   0.176  0.4122  1.5366  2.6110
  462TMC3    H2 6937   2.320   1.642   0.191  0.3471  0.6318  0.9473
  462TMC3    C7 6938   2.081   1.603   0.154 -0.5872 -0.1145  0.4444
  462TMC3    C8 6939   2.470   1.862   0.154 -0.2156  0.1147 -0.5398
  462TMC3    O1 6940   2.140   1.507   0.201  0.9365 -0.4986 -0.3838
  462TMC3    O2 6941   2.512   1.974   0.141  0.3043  0.6649 -0.7035
  463MPD2     C 6942   3.509   0.613   1.416 -0.3647  0.1419  0.2470
  463MPD2    C1 6943   3.530   0.474   1.399  0.3697  0.1778 -0.5274
  463MPD2    C2 6944   3.652   0.429   1.437  0.0070 -0.9351  0.1788
  463MPD2    C3 6945   3.752   0.512   1.481  0.3337 -0.1199  0.4899
  463MPD2    C4 6946   3.731   0.648   1.502  0.9718 -0.2583  0.0418
  463MPD2    C5 6947   3.604   0.690   1.470 -0.0044 -0.6019 -0.3522
  463MPD2     H 6948   3.670   0.323   1.429  3.2736 -0.3893  0.2124
  463MPD2    H1 6949   3.801   0.716   1.551  0.5899 -0.7967  1.3289
  463MPD2    H2 6950   3.418   0.655   1.375 -1.5571 -2.4891  0.1814
  463MPD2    H3 6951   3.584   0.797   1.476  0.9084 -0.4124 -0.8066
  463MPD2     N 6952   3.873   0.466   1.524  0.3061  0.3341 -0.3584
  463MPD2    H5 6953   3.949   0.527   1.554  0.7676 -0.2997 -0.2557
  463MPD2    N1 6954   3.433   0.381   1.342 -0.4528  0.1184 -0.4717
  463MPD2    H7 6955   3.451   0.282   1.327 -0.7095  0.0957 -0.6287
  464TMC3    C1 6956   3.210   0.304   1.313  0.0894 -0.1762 -0.1121
  464TMC3    C2 6957   3.081   0.328   1.269  0.3989  0.8207 -0.2394
  464TMC3    C3 6958   2.996   0.223   1.259  0.2715  0.7599 -0.2118
  464TMC3    C4 6959   3.255   0.176   1.343  0.1214  0.4143 -0.5267
  464TMC3    C5 6960   3.167   0.074   1.337 -0.0429 -0.3346 -0.0453
  464TMC3    C6 6961   3.038   0.094   1.287  0.1526  0.2023 -0.5690
  464TMC3     C 6962   3.301   0.417   1.307 -0.1580  0.2465 -0.2509
  464TMC3     O 6963   3.247   0.527   1.301 -0.0595  0.5066  0.1076
  464TMC3     H 6964   3.053   0.433   1.261  1.0032  0.8396 -2.3143
  464TMC3    H1 6965   3.356   0.152   1.373 -0.2465  1.6706  1.7303
  464TMC3    H2 6966   2.977   0.011   1.251  1.6298 -0.5571 -1.3121
  464TMC3    C7 6967   3.213   4.673   1.350 -0.1996 -0.3065  0.4772
  464TMC3    C8 6968   2.851   0.242   1.243  0.4886  0.7112 -0.5331
  464TMC3    O1 6969   3.334   4.656   1.336  0.7307  0.2543  0.2288
  464TMC3    O2 6970   2.776   0.144   1.214  0.3815 -0.4823  0.0727
  465MPD2     C 6971   0.077   3.355  16.840 -0.9891  0.6471  0.0873
  465MPD2    C1 6972   4.707   3.395  16.917 -0.0801  0.2792  0.0726
  465MPD2    C2 6973   4.612   3.470  16.855 -0.7670 -0.2786 -0.2132
  465MPD2    C3 6974   4.615   3.502  16.718  0.2231  0.2512  0.1513
  465MPD2    C4 6975   4.718   3.454  16.645  0.5378  0.6372 -0.1234
  465MPD2    C5 6976   0.082   3.383  16.704  0.6337 -0.3047  0.0643
  465MPD2     H 6977   4.530   3.506  16.916  0.8260  1.1698  1.0857
  465MPD2    H1 6978   4.737   3.489  16.544 -3.2300 -0.9012 -1.3570
  465MPD2    H2 6979   0.163   3.298  16.874 -0.9118 -0.6666 -2.3357
  465MPD2    H3 6980   0.169   3.350  16.649  1.4805 -1.3853  2.0316
  465MPD2     N 6981   4.507   3.569  16.665 -0.2988  0.2889 -0.0169
  465MPD2    H5 6982   4.428   3.570  16.728 -1.8698 -2.0031 -1.9767
  465MPD2    N1 6983   4.697   3.387  17.054 -0.0608 -0.2544 -0.0155
  465MPD2    H7 6984   4.617   3.429  17.099 -0.0083  1.5273 -1.5909
  466TMC3    C1 6985   4.151   3.736  16.544  0.1383 -0.2511 -0.4954
  466TMC3    C2 6986   4.161   3.865  16.498 -0.0034 -0.4485 -0.2378
  466TMC3    C3 6987   4.283   3.904  16.441  0.0789 -0.1414  0.1994
  466TMC3    C4 6988   4.263   3.658  16.556  0.6195  0.1788  0.1380
  466TMC3    C5 6989   4.384   3.704  16.508 -0.0646 -0.2874 -0.8921
  466TMC3    C6 6990   4.392   3.827  16.452 -0.0820  0.9495  0.7464
  466TMC3     C 6991   4.031   3.689  16.609  0.4445  0.2442 -0.2504
  466TMC3     O 6992   3.951   3.777  16.643  1.0303  0.2425  0.1007
  466TMC3     H 6993   4.072   3.926  16.489 -0.2649 -0.8066 -0.0830
  466TMC3    H1 6994   4.258   3.558  16.598 -1.5000 -0.6476 -2.0470
  466TMC3    H2 6995   4.485   3.854  16.404 -0.4455  0.7066 -0.1060
  466TMC3    C7 6996   4.508   3.645  16.555  0.3601  0.2012 -0.1316
  466TMC3    C8 6997   4.310   4.041  16.405  0.3499 -0.3988 -0.0486
  466TMC3    O1 6998   4.601   3.680  16.482 -0.1956  0.0623 -0.1581
  466TMC3    O2 6999   4.412   4.062  16.339  0.3486 -0.1316 -0.0475
  467TMC3    C1 7000   0.519   2.386  13.852  0.5402 -0.2329  0.9215
  467TMC3    C2 7001   0.514   2.518  13.797  0.8380  0.3515 -0.2606
  467TMC3    C3 7002   0.400   2.555  13.725 -0.0153  0.1007 -0.2576
  467TMC3    C4 7003   0.414   2.299  13.844  0.2221 -0.1527  0.2549
  467TMC3    C5 7004   0.302   2.349  13.771  0.1497  0.1132  0.5005
  467TMC3    C6 7005   0.302   2.464  13.698  0.1160 -0.1342 -0.3401
  467TMC3     C 7006   0.642   2.359  13.930  0.7405  0.1937  0.0046
  467TMC3     O 7007   0.723   2.445  13.931 -0.3918  0.8181  0.2569
  467TMC3     H 7008   0.582   2.598  13.823  1.4308 -0.0133 -0.7080
  467TMC3    H1 7009   0.407   2.217  13.914  0.1715  0.0127  0.4432
  467TMC3    H2 7010   0.213   2.489  13.642  0.0709 -0.4074 -0.3908
  467TMC3    C7 7011   0.183   2.269  13.782  0.4757  0.9299 -0.4011
  467TMC3    C8 7012   0.400   2.685  13.653  0.7788 -0.1381  0.5697
  467TMC3    O1 7013   0.192   2.150  13.816  0.2403 -0.2285  0.4542
  467TMC3    O2 7014   0.498   2.751  13.678  0.8057  0.2881 -0.5014
  468MPD2     C 7015   3.576   0.893  11.046  0.2198 -0.6688 -0.1516
  468MPD2    C1 7016   3.710   0.892  11.027  0.1853  0.0728  0.6436
  468MPD2    C2 7017   3.771   0.785  10.966 -0.0618  0.5907 -0.9541
  468MPD2    C3 7018   3.696   0.677  10.917  0.4244  0.4487 -0.0924
  468MPD2    C4 7019   3.557   0.686  10.926  0.5470 -0.0468 -0.0986
  468MPD2    C5 7020   3.503   0.792  10.989  0.0261 -0.5239  0.7771
  468MPD2     H 7021   3.878   0.788  10.951  0.0300  1.7406 -0.0827
  468MPD2    H1 7022   3.492   0.611  10.882 -0.5358  1.6816 -1.4430
  468MPD2    H2 7023   3.515   0.961  11.105 -0.3421 -0.1517 -1.3296
  468MPD2    H3 7024   3.395   0.795  10.996  0.0187  2.3793 -0.5415
  468MPD2     N 7025   3.749   0.558  10.859  0.6352  0.0572  0.4254
  468MPD2    H5 7026   3.673   0.499  10.827  1.0198  0.4962 -1.3035
  468MPD2    N1 7027   3.790   0.990  11.078  0.7888 -0.3369 -0.1353
  468MPD2    H7 7028   3.877   0.992  11.027  1.5221 -2.1587  1.0438
  469TMC3    C1 7029   3.884   1.150  11.240  0.4922 -1.1209  0.7505
  469TMC3    C2 7030   4.011   1.121  11.194 -0.4437 -0.7385  0.2498
  469TMC3    C3 7031   4.117   1.199  11.230  0.1025 -0.3981  0.2805
  469TMC3    C4 7032   3.863   1.253  11.325  0.2349  0.0870  0.1361
  469TMC3    C5 7033   3.972   1.330  11.353 -0.5087 -0.4336 -0.9001
  469TMC3    C6 7034   4.095   1.308  11.302  0.0010 -0.1474 -0.6430
  469TMC3     C 7035   3.768   1.066  11.192 -0.4665 -0.8049  0.3238
  469TMC3     O 7036   3.675   1.061  11.275  0.4835 -0.1736  0.5673
  469TMC3     H 7037   4.028   1.021  11.154  0.4551 -0.3293 -0.3817
  469TMC3    H1 7038   3.763   1.275  11.362  0.4588  2.3843 -0.6679
  469TMC3    H2 7039   4.176   1.376  11.325 -0.5025  0.6931 -1.3624
  469TMC3    C7 7040   3.965   1.445  11.440 -0.1433 -0.0881  0.5857
  469TMC3    C8 7041   4.249   1.141  11.214  0.1958  0.0282  0.8041
  469TMC3    O1 7042   4.009   1.552  11.407  0.1062  0.5515  0.2218
  469TMC3    O2 7043   4.249   1.032  11.161 -0.0661 -0.0670 -0.2997
  470TMC3    C1 7044   1.437   1.108   0.796 -0.0402  0.3285 -0.0228
  470TMC3    C2 7045   1.488   1.226   0.762 -0.1847  0.3448  0.1827
  470TMC3    C3 7046   1.520   1.317   0.857 -0.8726  0.6399 -0.2723
  470TMC3    C4 7047   1.426   1.071   0.929 -0.5593 -0.2238 -0.4014
  470TMC3    C5 7048   1.468   1.161   1.023 -0.6591 -0.2145 -0.0704
  470TMC3    C6 7049   1.503   1.286   0.990  0.4743 -0.2679 -0.4732
  470TMC3     C 7050   1.371   1.039   0.694 -0.5736  0.0221  0.7073
  470TMC3     O 7051   1.387   1.070   0.578  0.1989 -0.1230  0.5578
  470TMC3     H 7052   1.525   1.236   0.660 -0.9577 -1.2971 -0.2581
  470TMC3    H1 7053   1.422   0.966   0.957  0.8103  0.3824  2.0596
  470TMC3    H2 7054   1.540   1.353   1.067 -0.9612  1.1907 -1.0439
  470TMC3    C7 7055   1.480   1.129   1.162 -0.1035 -0.5991 -0.1730
  470TMC3    C8 7056   1.616   1.423   0.831 -0.0276 -0.5047 -0.3456
  470TMC3    O1 7057   1.566   1.184   1.229  0.3042 -0.5101  0.4721
  470TMC3    O2 7058   1.631   1.501   0.928  0.2341  0.1581 -0.9211
  471MPD2     C 7059   2.164   2.971  16.969 -0.3277 -0.2053 -0.5057
  471MPD2    C1 7060   2.247   2.891  16.891  0.6159 -0.7072  0.4474
  471MPD2    C2 7061   2.371   2.853  16.936  0.0269  0.0199  0.8585
  471MPD2    C3 7062   2.422   2.909  17.052 -0.1829 -0.2217 -0.0901
  471MPD2    C4 7063   2.341   2.992  17.124 -0.1981  0.4136 -0.1803
  471MPD2    C5 7064   2.223   3.034  17.076 -0.3409 -0.4234  0.0224
  471MPD2     H 7065   2.419   2.771  16.883 -1.4815 -0.3959  0.1331
  471MPD2    H1 7066   2.362   3.028  17.225  2.4805 -0.6566 -0.3586
  471MPD2    H2 7067   2.063   3.002  16.947 -0.5300 -0.6797 -0.2470
  471MPD2    H3 7068   2.167   3.106  17.134 -0.8520 -1.1471  0.4102
  471MPD2     N 7069   2.543   2.860  17.112 -0.6413  0.1335  0.1317
  471MPD2    H5 7070   2.570   2.903  17.199 -1.0345  4.1168 -1.7170
  471MPD2    N1 7071   2.200   2.833  16.771  0.7639 -0.0072  0.0802
  471MPD2    H7 7072   2.265   2.763  16.735  0.4110 -0.5120  0.4318
  472TMC3    C1 7073   2.061   2.764  16.600 -0.0968 -0.7711  0.4064
  472TMC3    C2 7074   2.002   2.801  16.482  0.1823  0.4861  0.0687
  472TMC3    C3 7075   2.016   2.725  16.373 -0.1366 -0.2302  0.0384
  472TMC3    C4 7076   2.129   2.649  16.611  0.4594 -0.0886 -0.0731
  472TMC3    C5 7077   2.150   2.576  16.500  0.1102 -0.2232 -0.4575
  472TMC3    C6 7078   2.088   2.612  16.378 -0.8297  1.0552 -0.5668
  472TMC3     C 7079   2.082   2.862  16.701 -0.4020 -0.0641  0.4171
  472TMC3     O 7080   2.009   2.957  16.707  0.1200 -0.3891  0.0806
  472TMC3     H 7081   1.949   2.896  16.472  0.7392  0.6350 -1.4290
  472TMC3    H1 7082   2.140   2.605  16.709  1.8475 -2.1842 -1.1801
  472TMC3    H2 7083   2.129   2.564  16.290  0.2286 -0.4672  0.7495
  472TMC3    C7 7084   2.152   2.429  16.513  0.1943  0.1075 -0.0990
  472TMC3    C8 7085   1.900   2.715  16.280 -0.1450 -0.2622 -0.2368
  472TMC3    O1 7086   2.131   2.393  16.630 -0.0668 -0.0885  0.1968
  472TMC3    O2 7087   1.860   2.793  16.197 -0.2488  0.2315 -0.2192
  473MPD2     C 7088   2.037   4.464  14.212 -0.9164  0.0709 -0.9562
  473MPD2    C1 7089   2.005   4.558  14.116 -0.2657  0.1834 -0.3277
  473MPD2    C2 7090   2.059   4.692  14.128 -0.2342  0.0386 -0.4431
  473MPD2    C3 7091   2.132   4.728  14.242 -0.3500  0.1885  0.5632
  473MPD2    C4 7092   2.151   4.639  14.341 -0.1925  0.8416  0.7453
  473MPD2    C5 7093   2.106   4.505  14.328 -0.2863  0.1086 -0.1804
  473MPD2     H 7094   2.046   0.023  14.044 -3.1266  0.6716  0.5240
  473MPD2    H1 7095   2.209   4.662  14.430 -0.3536 -0.3928  1.1733
  473MPD2    H2 7096   2.009   4.359  14.209  3.1222 -1.0356 -0.8852
  473MPD2    H3 7097   2.124   4.436  14.410 -2.4513 -0.1948  0.0404
  473MPD2     N 7098   2.186   0.120  14.258  0.0769  1.0500 -0.1921
  473MPD2    H5 7099   2.230   0.133  14.349  4.4111  0.2693 -2.2077
  473MPD2    N1 7100   1.935   4.516  13.999  0.4455  0.0297 -0.2716
  473MPD2    H7 7101   1.927   4.589  13.929 -1.2832 -1.1618 -1.3272
  474TMC3    C1 7102   2.241   0.345  14.231  0.2329 -0.2933  0.7016
  474TMC3    C2 7103   2.177   0.465  14.213 -0.2107 -0.5096  0.2016
  474TMC3    C3 7104   2.216   0.568  14.293 -0.7096  0.0173  0.1136
  474TMC3    C4 7105   2.358   0.334  14.301 -0.3161 -0.4584  0.6206
  474TMC3    C5 7106   2.388   0.444  14.375  0.3293 -0.1169 -0.2319
  474TMC3    C6 7107   2.328   0.567  14.370 -0.2751  0.8817  0.2083
  474TMC3     C 7108   2.178   0.228  14.175 -1.7203  0.4044  0.5371
  474TMC3     O 7109   2.122   0.235  14.066  0.1235  0.2496  0.2328
  474TMC3     H 7110   2.077   0.469  14.172 -0.4177 -3.8158  0.3515
  474TMC3    H1 7111   2.422   0.248  14.285  0.4565  0.0259  1.1025
  474TMC3    H2 7112   2.349   0.655  14.429  1.9472  0.9783 -0.7197
  474TMC3    C7 7113   2.531   0.452  14.407 -0.5980  0.2303 -0.0902
  474TMC3    C8 7114   2.117   0.664  14.322 -0.6227 -0.4570 -0.4597
  474TMC3    O1 7115   2.613   0.402  14.332 -0.4174 -0.3582  0.8253
  474TMC3    O2 7116   1.999   0.627  14.320  0.1484  0.1488  0.2089
  475MPD2     C 7117   4.288   3.289  11.004  0.0931 -0.1092  0.0815
  475MPD2    C1 7118   4.342   3.326  10.884  0.0126 -0.4706 -0.2206
  475MPD2    C2 7119   4.264   3.378  10.787  0.5659  0.2609 -0.2074
  475MPD2    C3 7120   4.127   3.389  10.805  0.0292 -0.1862  0.5138
  475MPD2    C4 7121   4.070   3.357  10.931 -0.8364 -0.2023  0.2653
  475MPD2    C5 7122   4.152   3.298  11.024  0.2412  0.3079 -0.5558
  475MPD2     H 7123   4.313   3.421  10.700  0.5917 -2.0769 -1.3779
  475MPD2    H1 7124   3.965   3.376  10.953 -0.2385  1.1768  1.8966
  475MPD2    H2 7125   4.339   3.239  11.085  0.3245 -1.3087 -0.8131
  475MPD2    H3 7126   4.114   3.268  11.121  2.2219  0.2467  0.1931
  475MPD2     N 7127   4.060   3.461  10.704  0.1683  1.3204 -0.8141
  475MPD2    H5 7128   4.122   3.507  10.638  2.0479 -1.7689 -1.2208
  475MPD2    N1 7129   4.480   3.329  10.864 -0.5470  0.3040 -0.6476
  475MPD2    H7 7130   4.501   3.345  10.767  2.5793  1.4539  0.2201
  476TMC3    C1 7131   4.716   3.306  10.892 -0.2569  0.7621 -0.7867
  476TMC3    C2 7132   4.717   3.305  10.757  0.4366 -0.3388 -0.1264
  476TMC3    C3 7133   0.093   3.328  10.690 -0.1846  0.4415  1.0997
  476TMC3    C4 7134   0.086   3.337  10.971  0.5089 -0.1056 -0.7163
  476TMC3    C5 7135   0.203   3.363  10.903  0.5471  0.6197 -1.1079
  476TMC3    C6 7136   0.201   3.364  10.767  0.1931 -0.0869 -0.7967
  476TMC3     C 7137   4.587   3.300  10.949 -0.3775 -0.2931  0.0480
  476TMC3     O 7138   4.583   3.283  11.068 -0.0145 -0.6113  0.0222
  476TMC3     H 7139   4.637   3.261  10.699  0.8928 -1.6574  0.2311
  476TMC3    H1 7140   0.090   3.350  11.079 -1.2666 -0.2355 -0.6354
  476TMC3    H2 7141   0.288   3.409  10.721  1.0334  1.4139  2.2675
  476TMC3    C7 7142   0.317   3.421  10.966 -0.4076 -0.5743 -0.3592
  476TMC3    C8 7143   0.089   3.399  10.566 -0.0084 -0.0268  0.2562
  476TMC3    O1 7144   0.422   3.390  10.903  0.3897 -0.5874 -0.0728
  476TMC3    O2 7145   0.151   3.502  10.553 -0.0938  0.3888 -0.0325
  477MPD2     C 7146   2.714   0.082  11.938 -0.0390  0.2303  0.6039
  477MPD2    C1 7147   2.665   4.712  11.859 -0.1111 -0.4087 -0.1327
  477MPD2    C2 7148   2.692   4.588  11.903 -0.0889 -0.4526 -0.5877
  477MPD2    C3 7149   2.769   4.567  12.016  0.0266  0.2696 -0.6867
  477MPD2    C4 7150   2.820   4.669  12.085 -0.7346 -0.3231 -0.0962
  477MPD2    C5 7151   2.790   0.058  12.049  0.4109 -0.6510  0.2588
  477MPD2     H 7152   2.668   4.508  11.835  2.0042 -0.9628 -0.7084
  477MPD2    H1 7153   2.893   4.661  12.165  0.2343 -1.1949 -1.0670
  477MPD2    H2 7154   2.681   0.182  11.912 -0.7403  0.4973  2.5420
  477MPD2    H3 7155   2.829   0.141  12.106  2.6279 -0.2637 -1.8114
  477MPD2     N 7156   2.800   4.434  12.048 -0.2182  0.3632 -0.0850
  477MPD2    H5 7157   2.764   4.363  11.985  1.3906 -1.4654  1.0564
  477MPD2    N1 7158   2.580   0.007  11.750  0.2352  0.3721 -0.9793
  477MPD2    H7 7159   2.575   0.107  11.736 -2.4029  0.3806  0.0621
  478TMC3    C1 7160   2.430   4.716  11.576 -0.2628  0.2235  0.1175
  478TMC3    C2 7161   2.366   0.087  11.626 -0.3031 -0.2444 -0.1133
  478TMC3    C3 7162   2.281   0.152  11.537  0.4475 -0.6078  0.5564
  478TMC3    C4 7163   2.416   4.660  11.448 -0.3052 -0.4528  0.2790
  478TMC3    C5 7164   2.320   4.718  11.371 -0.3122  0.7966  0.2245
  478TMC3    C6 7165   2.249   0.088  11.420 -0.4550  0.0920  0.4064
  478TMC3     C 7166   2.531   4.659  11.656  0.1115 -0.0778 -0.0293
  478TMC3     O 7167   2.558   4.544  11.644 -0.0384 -0.1499 -0.0116
  478TMC3     H 7168   2.386   0.125  11.726 -1.3727 -0.3367  0.1360
  478TMC3    H1 7169   2.470   4.572  11.415  1.3064  0.4842  0.4434
  478TMC3    H2 7170   2.160   0.122  11.369  0.1602  1.4709  0.2605
  478TMC3    C7 7171   2.248   4.630  11.277 -0.2044  0.5758 -0.1467
  478TMC3    C8 7172   2.180   0.249  11.592  0.3221  0.3294 -0.0068
  478TMC3    O1 7173   2.256   4.508  11.289 -0.3038 -0.5646  1.0433
  478TMC3    O2 7174   2.104   0.304  11.522  0.0483  0.0326 -0.5801
  479MPD2     C 7175   1.798   2.181  14.990  1.0947  0.1362  0.2679
  479MPD2    C1 7176   1.742   2.152  15.116 -0.2715  0.0568  0.8099
  479MPD2    C2 7177   1.832   2.175  15.223 -0.4331 -0.0844  0.4185
  479MPD2    C3 7178   1.956   2.225  15.205  0.6112  0.1030  0.0912
  479MPD2    C4 7179   2.003   2.257  15.080 -0.6179 -0.0450 -0.6933
  479MPD2    C5 7180   1.929   2.229  14.971 -0.1565  0.4196 -0.6451
  479MPD2     H 7181   1.800   2.142  15.321  4.1002 -1.1823  1.5062
  479MPD2    H1 7182   2.096   2.312  15.074 -1.6004  1.6142 -0.7041
  479MPD2    H2 7183   1.730   2.181  14.905 -0.9912  1.7539  1.9481
  479MPD2    H3 7184   1.964   2.270  14.877  1.4604 -0.7249 -0.5367
  479MPD2     N 7185   2.054   2.242  15.300 -0.3239 -0.7555  0.2612
  479MPD2    H5 7186   2.146   2.259  15.260 -0.4964  0.0848  0.2232
  479MPD2    N1 7187   1.615   2.101  15.132  0.4703  0.8577  0.4666
  479MPD2    H7 7188   1.562   2.085  15.048  2.2338 -2.8025  0.0467
  480TMC3    C1 7189   1.824   2.201  15.704 -0.4968 -0.0269  0.2401
  480TMC3    C2 7190   1.730   2.302  15.681 -0.8376 -0.0818 -0.1214
  480TMC3    C3 7191   1.742   2.372  15.560 -0.2477 -0.1608  0.7138
  480TMC3    C4 7192   1.914   2.165  15.614  0.0329  0.3390 -0.1267
  480TMC3    C5 7193   1.917   2.231  15.499 -0.0521  0.6241 -0.4992
  480TMC3    C6 7194   1.844   2.342  15.473  0.0134 -0.1290 -0.3750
  480TMC3     C 7195   1.797   2.087  15.792 -0.0706  0.4246  0.0489
  480TMC3     O 7196   1.890   2.016  15.814 -0.0102 -0.2844 -0.5619
  480TMC3     H 7197   1.639   2.312  15.739  0.2019 -0.8547  1.6209
  480TMC3    H1 7198   1.988   2.086  15.623 -0.0851  0.1650 -0.6599
  480TMC3    H2 7199   1.866   2.391  15.379  0.5439  0.6603  0.1557
  480TMC3    C7 7200   2.049   2.246  15.438  0.2402 -0.1264  0.5510
  480TMC3    C8 7201   1.615   2.398  15.493  0.3502 -0.4403 -0.0610
  480TMC3    O1 7202   2.137   2.269  15.514  0.0281 -0.5544 -0.4807
  480TMC3    O2 7203   1.514   2.369  15.554 -0.6652 -0.1495 -0.1959
  481MPD2     C 7204   3.553   1.693  14.037 -0.1507  0.3810  0.2255
  481MPD2    C1 7205   3.440   1.636  14.088 -0.4958 -0.2619 -0.1078
  481MPD2    C2 7206   3.421   1.624  14.230  0.0455 -0.1704  0.6600
  481MPD2    C3 7207   3.518   1.665  14.315  0.4345  0.0350  0.8518
  481MPD2    C4 7208   3.631   1.714  14.261  0.0300 -0.3455 -0.3084
  481MPD2    C5 7209   3.651   1.738  14.123  0.1149  0.5871 -0.3643
  481MPD2     H 7210   3.332   1.571  14.261  0.3046 -0.2336  1.2906
  481MPD2    H1 7211   3.711   1.744  14.327  0.7740 -0.3083 -1.2376
  481MPD2    H2 7212   3.557   1.697  13.929  2.1345 -0.7084  0.2547
  481MPD2    H3 7213   3.734   1.796  14.085 -2.8215  4.4919 -0.9337
  481MPD2     N 7214   3.510   1.642  14.458 -0.3517  0.9143 -0.3499
  481MPD2    H5 7215   3.588   1.665  14.518  0.9209 -1.1218 -1.2152
  481MPD2    N1 7216   3.339   1.588  13.999  0.8908  0.4263 -0.0718
  481MPD2    H7 7217   3.360   1.600  13.900  1.0772 -0.5912 -0.1537
  482TMC3    C1 7218   3.137   1.532  13.905 -0.2349 -0.1996  0.1795
  482TMC3    C2 7219   3.024   1.463  13.928 -0.6185  0.1564  0.4305
  482TMC3    C3 7220   2.917   1.480  13.844 -0.5445 -0.0898  0.8237
  482TMC3    C4 7221   3.149   1.616  13.806  0.5978 -0.1958  0.3546
  482TMC3    C5 7222   3.046   1.633  13.723  0.3804  0.3949 -0.3796
  482TMC3    C6 7223   2.924   1.571  13.742  0.3511  0.2948  0.0619
  482TMC3     C 7224   3.217   1.539  14.026 -0.8280  0.6840 -0.6444
  482TMC3     O 7225   3.168   1.502  14.132 -0.4143  0.1714  0.0477
  482TMC3     H 7226   3.017   1.396  14.013  1.2651  1.6176  1.7382
  482TMC3    H1 7227   3.241   1.672  13.791 -0.4615  1.5274  0.2473
  482TMC3    H2 7228   2.840   1.587  13.675 -1.4763  1.1662  2.5586
  482TMC3    C7 7229   3.069   1.712  13.603 -0.4242 -0.6558 -0.3859
  482TMC3    C8 7230   2.815   1.377  13.850  0.0804 -0.0667 -0.7158
  482TMC3    O1 7231   3.179   1.762  13.593  0.0421 -0.0188 -0.1658
  482TMC3    O2 7232   2.854   1.268  13.889 -0.3329  0.7147  0.8010
  483TMC3    C1 7233   1.419   0.404   1.367  0.5485  0.2262  0.1223
  483TMC3    C2 7234   1.476   0.520   1.324 -0.0309 -0.2848  0.1530
  483TMC3    C3 7235   1.603   0.549   1.357  0.4182  0.0754 -0.2421
  483TMC3    C4 7236   1.486   0.316   1.447  0.2168  0.9050  0.2772
  483TMC3    C5 7237   1.610   0.351   1.478  1.1548 -0.5337 -0.6059
  483TMC3    C6 7238   1.673   0.465   1.433 -0.4493  0.1293 -0.1462
  483TMC3     C 7239   1.285   0.373   1.310 -1.2188 -1.1213 -0.4209
  483TMC3     O 7240   1.198   0.455   1.317  0.5330  0.3926 -0.0805
  483TMC3     H 7241   1.429   0.577   1.244 -1.2570 -0.9438  0.4114
  483TMC3    H1 7242   1.433   0.228   1.482  2.1398 -1.2014 -2.1379
  483TMC3    H2 7243   1.775   0.489   1.460  0.0035 -1.2696 -0.6054
  483TMC3    C7 7244   1.686   0.241   1.529  0.2294  0.0993 -0.0300
  483TMC3    C8 7245   1.675   0.668   1.307  0.3265 -0.1653  0.3730
  483TMC3    O1 7246   1.646   0.126   1.535  0.7455 -0.4929  0.1978
  483TMC3    O2 7247   1.780   0.696   1.368  0.8382  0.0913  0.1224
  484MPD2     C 7248   3.152   3.669  12.301  0.0798  0.1123  0.5721
  484MPD2    C1 7249   3.221   3.567  12.374 -0.0524 -0.9229 -0.6843
  484MPD2    C2 7250   3.361   3.552  12.377  0.0281 -0.2261  0.0937
  484MPD2    C3 7251   3.431   3.635  12.294  0.4514 -0.4786 -0.7452
  484MPD2    C4 7252   3.367   3.732  12.219 -0.3611  0.0376  0.1878
  484MPD2    C5 7253   3.235   3.753  12.228 -0.5887 -0.4465 -0.2617
  484MPD2     H 7254   3.404   3.477  12.443  1.2007 -0.7158 -1.2329
  484MPD2    H1 7255   3.419   3.783  12.138 -0.9322  1.2961  0.6086
  484MPD2    H2 7256   3.046   3.689  12.315  0.2374  0.4430  1.2855
  484MPD2    H3 7257   3.185   3.833  12.175  0.1071  0.5586  0.6063
  484MPD2     N 7258   3.571   3.625  12.282 -0.0125 -0.3953 -0.6250
  484MPD2    H5 7259   3.622   3.696  12.230  0.3301  0.4595  0.8780
  484MPD2    N1 7260   3.138   3.475  12.442 -0.0644  0.1672 -0.0175
  484MPD2    H7 7261   3.045   3.510  12.463 -0.1806 -0.5384  0.6163
  485TMC3    C1 7262   3.781   3.575  12.377  0.5898 -0.4746  0.1292
  485TMC3    C2 7263   3.831   3.545  12.505 -0.2602 -0.6181  0.4396
  485TMC3    C3 7264   3.961   3.571  12.519 -0.9954 -0.2548 -0.0946
  485TMC3    C4 7265   3.841   3.652  12.283 -0.0584 -0.0686  0.6915
  485TMC3    C5 7266   3.965   3.697  12.318  0.3093  0.1633 -0.1775
  485TMC3    C6 7267   4.028   3.663  12.438  0.2525  0.9873  0.6375
  485TMC3     C 7268   3.643   3.534  12.357 -0.3010 -0.2100 -0.1784
  485TMC3     O 7269   3.608   3.453  12.441 -0.0247 -0.2501  0.4754
  485TMC3     H 7270   3.781   3.484  12.579  2.8456  0.1250  3.1812
  485TMC3    H1 7271   3.802   3.671  12.183 -0.2183 -0.8534  0.6075
  485TMC3    H2 7272   4.132   3.689  12.453 -0.1718  3.8361 -1.2992
  485TMC3    C7 7273   4.063   3.693  12.214 -0.0249  0.0948 -0.2870
  485TMC3    C8 7274   4.034   3.444  12.533 -0.0190  0.2558  0.1557
  485TMC3    O1 7275   4.025   3.756  12.116  0.2320 -0.1145 -0.3538
  485TMC3    O2 7276   4.155   3.456  12.495 -0.3147  0.1444 -0.6312
  486MPD2     C 7277   1.856   2.340  13.101  0.4069  0.7450 -0.4481
  486MPD2    C1 7278   1.752   2.301  13.022  0.5556  0.1506 -0.1169
  486MPD2    C2 7279   1.642   2.389  13.002 -0.4517  0.6618  0.4847
  486MPD2    C3 7280   1.646   2.512  13.063  0.6184 -0.5338 -0.0171
  486MPD2    C4 7281   1.756   2.554  13.134  0.1604  0.0847  0.4811
  486MPD2    C5 7282   1.861   2.466  13.151  0.9478  0.0300  0.0867
  486MPD2     H 7283   1.551   2.355  12.954  0.1587  1.9999 -1.5794
  486MPD2    H1 7284   1.772   2.657  13.163 -0.0391 -0.8683  3.9639
  486MPD2    H2 7285   1.941   2.275  13.121  0.1257  0.8503  1.0792
  486MPD2    H3 7286   1.949   2.494  13.207 -0.5203  2.2863  1.2895
  486MPD2     N 7287   1.521   2.581  13.070  0.0621 -0.4442 -0.6145
  486MPD2    H5 7288   1.458   2.549  12.996 -0.1843  0.4650 -0.7936
  486MPD2    N1 7289   1.765   2.172  12.973  0.2923 -0.4913 -0.6896
  486MPD2    H7 7290   1.830   2.109  13.019 -1.2818 -1.6116  0.0106
  487TMC3    C1 7291   1.715   1.973  12.851 -0.8652 -0.0484 -1.0337
  487TMC3    C2 7292   1.629   1.910  12.769  0.0735  0.1974 -0.5443
  487TMC3    C3 7293   1.649   1.777  12.753  0.3731  0.3039  0.6909
  487TMC3    C4 7294   1.815   1.915  12.917  0.5018  0.7427  0.2795
  487TMC3    C5 7295   1.829   1.774  12.906 -0.4829  0.5542  0.1866
  487TMC3    C6 7296   1.750   1.710  12.816  0.4258 -0.2658  0.2199
  487TMC3     C 7297   1.684   2.111  12.872 -0.6857 -0.3612  0.3625
  487TMC3     O 7298   1.592   2.163  12.812 -0.2649 -0.2987 -0.1602
  487TMC3     H 7299   1.551   1.958  12.711  0.0285  1.1944  0.3352
  487TMC3    H1 7300   1.881   1.969  12.984 -0.5493  0.5515  1.4734
  487TMC3    H2 7301   1.782   1.613  12.780 -1.7481 -0.2131 -1.8107
  487TMC3    C7 7302   1.811   1.726  13.041 -0.1692 -0.5817 -0.1392
  487TMC3    C8 7303   1.537   1.692  12.768  0.6085  0.5892 -0.3646
  487TMC3    O1 7304   1.782   1.813  13.123  0.0138  0.1546 -0.9043
  487TMC3    O2 7305   1.539   1.571  12.729 -0.4256  0.3434 -0.0692
  488MPD2     C 7306   1.434   3.611  16.272 -0.5166  0.0825  0.0729
  488MPD2    C1 7307   1.546   3.626  16.352  0.0057 -0.4517  0.3512
  488MPD2    C2 7308   1.537   3.597  16.486 -0.4517 -0.3646 -0.6006
  488MPD2    C3 7309   1.426   3.539  16.544 -0.0612 -0.2095  0.1890
  488MPD2    C4 7310   1.319   3.508  16.466  0.4627 -0.0217 -0.9840
  488MPD2    C5 7311   1.323   3.546  16.331  0.6216  1.0489  0.1174
  488MPD2     H 7312   1.626   3.615  16.546  0.2790  0.1730 -1.8529
  488MPD2    H1 7313   1.223   3.477  16.504  0.2119  0.6161 -1.0981
  488MPD2    H2 7314   1.422   3.640  16.169  2.1907  2.2816  0.3598
  488MPD2    H3 7315   1.234   3.525  16.274  0.7230 -1.7484  0.9802
  488MPD2     N 7316   1.414   3.515  16.682  0.0704  0.0281  0.3904
  488MPD2    H5 7317   1.501   3.536  16.730 -0.2569 -1.3780  1.5802
  488MPD2    N1 7318   1.672   3.682  16.312  0.1570 -0.2946 -0.5010
  488MPD2    H7 7319   1.745   3.683  16.383  0.5344  0.2203 -0.9029
  489TMC3    C1 7320   1.338   3.491  16.901 -0.8404  1.4622  0.1959
  489TMC3    C2 7321   1.437   3.575  16.945  0.4668  0.1347 -0.4550
  489TMC3    C3 7322   1.479   3.554  17.076  0.2077  0.0210 -0.6123
  489TMC3    C4 7323   1.284   3.390  16.981 -0.3961  0.1344  0.1970
  489TMC3    C5 7324   1.334   3.369  17.107  0.3654 -0.3781  0.9397
  489TMC3    C6 7325   1.425   3.455  17.159 -0.5259  0.3989 -0.0580
  489TMC3     C 7326   1.303   3.487  16.758  0.7477  0.0206  0.4879
  489TMC3     O 7327   1.189   3.449  16.728  0.9378 -0.6913  0.2401
  489TMC3     H 7328   1.460   3.668  16.895 -2.3602  2.0022  1.6379
  489TMC3    H1 7329   1.207   3.330  16.934 -0.1712  0.8660 -1.1130
  489TMC3    H2 7330   1.457   3.451  17.262  0.6505  0.9509 -0.4045
  489TMC3    C7 7331   1.277   3.277  17.203 -0.3733 -0.0709 -0.4052
  489TMC3    C8 7332   1.565   3.658  17.130 -0.0227  0.1248  0.0150
  489TMC3    O1 7333   1.272   3.314  17.324  0.2489 -0.4555 -0.2469
  489TMC3    O2 7334   1.632   3.711  17.045 -0.4651  0.3972 -0.0414
  490MPD2     C 7335   2.302   3.263  17.523  0.7044 -0.1685  0.4979
  490MPD2    C1 7336   2.276   3.134  17.537  0.4458  0.1729 -0.5116
  490MPD2    C2 7337   2.372   3.043  17.593  0.7420 -0.4263  0.8253
  490MPD2    C3 7338   2.499   3.083  17.607  0.2760 -0.1499  0.0071
  490MPD2    C4 7339   2.530   3.205  17.571 -0.6530  0.3610 -0.0401
  490MPD2    C5 7340   2.438   3.297  17.530 -0.3030  0.2014  0.1214
  490MPD2     H 7341   2.344   2.939  17.611 -1.3247 -0.1075 -0.5376
  490MPD2    H1 7342   2.635   3.235  17.568 -0.5539  0.1627  1.4220
  490MPD2    H2 7343   2.237   3.339  17.480 -1.8969 -1.1368  2.6704
  490MPD2    H3 7344   2.464   3.400  17.509  0.2067 -0.2039 -1.2160
  490MPD2     N 7345   2.605   3.005  17.650  0.0905 -0.3119  0.2393
  490MPD2    H5 7346   2.696   3.049  17.640 -0.1170  0.9963  3.8931
  490MPD2    N1 7347   2.156   3.072  17.512 -0.2039 -0.5741  0.0680
  490MPD2    H7 7348   2.157   2.972  17.530 -0.4597 -1.0837 -2.8464
  491TMC3    C1 7349   1.935   3.030  17.439  0.1256 -0.2717  0.2468
  491TMC3    C2 7350   1.928   2.920  17.521 -0.3429  0.1634  0.3200
  491TMC3    C3 7351   1.867   2.809  17.464 -0.8734  0.3274  0.0281
  491TMC3    C4 7352   1.896   3.022  17.309 -0.0167  0.7167 -0.4355
  491TMC3    C5 7353   1.832   2.910  17.259 -0.7394  0.1565 -0.4445
  491TMC3    C6 7354   1.814   2.802  17.340  0.2608  0.2936 -0.0997
  491TMC3     C 7355   2.042   3.128  17.462 -0.3776  0.1479 -0.0736
  491TMC3     O 7356   2.034   3.238  17.414 -0.5022  0.2384  0.0944
  491TMC3     H 7357   1.946   2.925  17.628  0.3151  2.3686  0.1116
  491TMC3    H1 7358   1.913   3.105  17.241 -2.4819  2.3218  0.9022
  491TMC3    H2 7359   1.741   2.724  17.322  0.3443  0.1778  0.0548
  491TMC3    C7 7360   1.813   2.914  17.118  0.4370  0.3964 -0.3736
  491TMC3    C8 7361   1.845   2.704  17.553 -0.6071 -0.5926 -0.3420
  491TMC3    O1 7362   1.814   2.805  17.060 -0.1440  0.2280  0.1517
  491TMC3    O2 7363   1.860   2.716  17.675 -0.2646  0.1485 -0.2853
  492MPD2     C 7364   2.045   3.778  11.150  0.2802  0.1751  0.0151
  492MPD2    C1 7365   1.932   3.714  11.099  0.7838  0.3445 -0.0835
  492MPD2    C2 7366   1.891   3.592  11.159 -0.7961 -0.3850  0.0588
  492MPD2    C3 7367   1.962   3.540  11.269 -0.3970 -0.7879 -0.0960
  492MPD2    C4 7368   2.065   3.614  11.325  0.3258  0.5068  0.0245
  492MPD2    C5 7369   2.098   3.737  11.268  1.3061 -0.0009 -0.6608
  492MPD2     H 7370   1.801   3.540  11.128  0.4021 -0.8872 -2.5363
  492MPD2    H1 7371   2.103   3.584  11.422  0.0619 -0.5060 -0.1806
  492MPD2    H2 7372   2.088   3.867  11.106  0.5925  0.5003  0.9905
  492MPD2    H3 7373   2.178   3.798  11.308  0.6152 -0.8867  2.0180
  492MPD2     N 7374   1.923   3.419  11.335 -0.7765 -1.1016  0.1340
  492MPD2    H5 7375   1.965   3.395  11.424 -1.0849 -0.4090  0.4634
  492MPD2    N1 7376   1.873   3.784  10.988  0.3956 -0.3569 -0.1987
  492MPD2    H7 7377   1.921   3.868  10.960  2.2316 -1.7931 -1.3796
  493TMC3    C1 7378   1.735   3.806  10.801 -0.5169  0.2110 -0.5800
  493TMC3    C2 7379   1.839   3.857  10.731 -0.2049  0.0786  0.2254
  493TMC3    C3 7380   1.808   3.884  10.600 -0.3767  0.1726 -0.0437
  493TMC3    C4 7381   1.615   3.773  10.750 -0.7557  0.4861  0.2839
  493TMC3    C5 7382   1.590   3.791  10.618 -0.2483 -0.2602  0.8966
  493TMC3    C6 7383   1.687   3.850  10.541 -0.2432  0.1741  0.7892
  493TMC3     C 7384   1.756   3.746  10.926 -0.0383  0.5836  0.9621
  493TMC3     O 7385   1.674   3.665  10.975  0.1375 -0.3045 -0.1200
  493TMC3     H 7386   1.938   3.866  10.774  0.0291  1.9893 -0.6902
  493TMC3    H1 7387   1.534   3.734  10.810 -0.9105 -0.4478 -0.5286
  493TMC3    H2 7388   1.664   3.850  10.435 -2.9738 -0.7222  1.3862
  493TMC3    C7 7389   1.499   3.700  10.549 -0.8291  0.0066  0.3297
  493TMC3    C8 7390   1.919   3.895  10.505 -0.4319  0.3241 -1.1308
  493TMC3    O1 7391   1.435   3.742  10.453 -0.2630  0.6467 -0.2865
  493TMC3    O2 7392   1.894   3.877  10.386  0.2621  0.5680 -0.2442
  494TMC3    C1 7393   2.495   0.020   0.220  0.5149 -0.4848 -0.2892
  494TMC3    C2 7394   2.550   4.629   0.228 -0.1896 -0.0714 -0.0959
  494TMC3    C3 7395   2.648   4.604   0.131  0.9351 -0.2201 -0.3876
  494TMC3    C4 7396   2.525   0.115   0.130  0.1078 -0.4414  0.8051
  494TMC3    C5 7397   2.617   0.080   0.034  0.0394 -0.3456 -0.0899
  494TMC3    C6 7398   2.689   4.700   0.041  0.1911  0.2882  0.7526
  494TMC3     C 7399   2.388   0.050   0.317  0.0890 -0.1362 -0.5632
  494TMC3     O 7400   2.366   0.166   0.350 -0.4666 -0.1372  0.1286
  494TMC3     H 7401   2.526   4.548   0.296 -2.2948 -0.1695 -0.9768
  494TMC3    H1 7402   2.478   0.213   0.131  2.0282  0.5095 -1.3476
  494TMC3    H2 7403   2.772   4.690  17.721 -0.1464 -1.3404  0.5825
  494TMC3    C7 7404   2.637   0.154  17.660  0.3089 -0.0276  0.3563
  494TMC3    C8 7405   2.690   4.466   0.122  0.1502  0.3814 -0.4267
  494TMC3    O1 7406   2.740   0.124  17.600 -0.5225  0.0027 -0.2450
  494TMC3    O2 7407   2.636   4.388   0.195 -0.4524  0.2783  0.0871
  495TMC3    C1 7408   1.803   2.352  14.518  0.5530  0.0774 -0.0108
  495TMC3    C2 7409   1.692   2.373  14.437  0.4134  0.2612 -0.3591
  495TMC3    C3 7410   1.578   2.429  14.494 -0.0552  0.1651  0.0392
  495TMC3    C4 7411   1.801   2.403  14.647  0.1496  0.7299 -0.2913
  495TMC3    C5 7412   1.698   2.487  14.690 -0.1288 -0.1979  0.0143
  495TMC3    C6 7413   1.581   2.491  14.615  0.5498 -0.5897  1.1210
  495TMC3     C 7414   1.819   2.212  14.525 -0.8537 -0.5349 -0.4015
  495TMC3     O 7415   1.754   2.135  14.457  0.3405 -0.2548 -0.2136
  495TMC3     H 7416   1.698   2.342  14.333  1.1516  0.5651 -0.4111
  495TMC3    H1 7417   1.888   2.411  14.710 -0.7248  1.6134  0.7921
  495TMC3    H2 7418   1.489   2.536  14.649 -0.3566 -3.0969  1.9935
  495TMC3    C7 7419   1.690   2.516  14.833  0.1212 -0.5309  0.2281
  495TMC3    C8 7420   1.459   2.349  14.472  0.1036 -0.6232  0.4460
  495TMC3    O1 7421   1.791   2.530  14.898 -0.1344 -0.1063 -0.0392
  495TMC3    O2 7422   1.356   2.377  14.530 -0.4565  0.3629  0.5612
  496MPD2     C 7423   3.557   2.748  15.559 -0.6154  0.4221  0.1036
  496MPD2    C1 7424   3.522   2.649  15.465 -0.1259 -0.1207 -0.5306
  496MPD2    C2 7425   3.396   2.595  15.469 -0.2917  0.1839  0.6153
  496MPD2    C3 7426   3.305   2.627  15.568  0.1372 -0.1448 -0.3251
  496MPD2    C4 7427   3.337   2.725  15.665 -0.8436  0.1182  0.5890
  496MPD2    C5 7428   3.462   2.784  15.656  0.6768 -0.1804  0.0033
  496MPD2     H 7429   3.366   2.523  15.394 -1.6681  0.5130  0.8296
  496MPD2    H1 7430   3.277   2.748  15.751 -0.3313 -1.1623  1.2899
  496MPD2    H2 7431   3.647   2.809  15.561  0.0610 -0.5935  0.6423
  496MPD2    H3 7432   3.482   2.858  15.733  0.7256  0.9707 -1.1115
  496MPD2     N 7433   3.183   2.555  15.575 -0.0803  0.1703 -0.7593
  496MPD2    H5 7434   3.122   2.588  15.649 -1.1532 -1.6594 -0.8453
  496MPD2    N1 7435   3.624   2.608  15.382  0.0111 -0.3596 -0.2323
  496MPD2    H7 7436   3.711   2.653  15.407 -0.3503 -0.6201  1.5310
  497TMC3    C1 7437   3.011   2.404  15.529  0.4442  0.2074  0.4797
  497TMC3    C2 7438   2.965   2.332  15.419 -0.4427 -0.0945 -0.5465
  497TMC3    C3 7439   2.912   2.212  15.439 -0.2958  0.0138 -0.2852
  497TMC3    C4 7440   3.009   2.349  15.658  0.0990  0.6012  0.5968
  497TMC3    C5 7441   2.963   2.228  15.666 -0.2641  0.3259 -0.1569
  497TMC3    C6 7442   2.912   2.154  15.559 -0.2513 -0.0230 -0.6205
  497TMC3     C 7443   3.134   2.459  15.491  0.5567  0.5614 -0.6444
  497TMC3     O 7444   3.177   2.419  15.383 -1.5658 -0.0600 -0.7149
  497TMC3     H 7445   2.969   2.385  15.325 -0.8174 -0.8506 -0.9891
  497TMC3    H1 7446   3.032   2.405  15.748 -2.5683  1.9273  0.4502
  497TMC3    H2 7447   2.879   2.052  15.574 -0.1019  0.3054  1.9435
  497TMC3    C7 7448   3.001   2.158  15.786 -0.1921  0.2868  0.9894
  497TMC3    C8 7449   2.924   2.123  15.326  0.5193  0.4108 -0.2710
  497TMC3    O1 7450   2.931   2.066  15.823  0.0243  0.0956  0.1152
  497TMC3    O2 7451   2.826   2.066  15.276  0.4922 -0.2760 -0.6877
  498MPD2     C 7452   4.098   3.425   9.979 -0.1913 -0.0963 -0.2812
  498MPD2    C1 7453   4.144   3.449  10.108 -0.3342 -0.2398 -0.7755
  498MPD2    C2 7454   4.112   3.374  10.214  0.5477 -0.4892  0.6881
  498MPD2    C3 7455   4.027   3.268  10.194 -0.7733 -0.5434 -0.3574
  498MPD2    C4 7456   3.980   3.237  10.070  0.3701 -0.1329 -0.0058
  498MPD2    C5 7457   4.018   3.317   9.957  0.1532  0.2258  0.0244
  498MPD2     H 7458   4.162   3.402  10.307  2.4713 -1.0096 -0.1906
  498MPD2    H1 7459   3.917   3.150  10.066  0.4912 -0.2611  1.0015
  498MPD2    H2 7460   4.126   3.481   9.891 -0.2683 -1.3346 -1.0951
  498MPD2    H3 7461   3.985   3.277   9.862  0.6278  1.1746 -0.5376
  498MPD2     N 7462   3.994   3.171  10.286 -0.4559  0.5274  0.8272
  498MPD2    H5 7463   3.924   3.103  10.258 -2.6156  2.5813  1.3116
  498MPD2    N1 7464   4.212   3.571  10.140  0.2443  0.0801  0.4714
  498MPD2    H7 7465   4.240   3.570  10.237  0.2677 -0.3078  0.4614
  499TMC3    C1 7466   4.336   3.772  10.109 -0.3510  0.0442 -0.1026
  499TMC3    C2 7467   4.394   3.761  10.231  0.7878 -0.5436  0.6914
  499TMC3    C3 7468   4.485   3.852  10.279 -1.0171  0.3384  0.0098
  499TMC3    C4 7469   4.332   3.894  10.047 -0.5567  0.5312 -0.4682
  499TMC3    C5 7470   4.408   3.993  10.107 -0.4498 -0.3018  0.8770
  499TMC3    C6 7471   4.490   3.977  10.215 -0.0321 -0.2322  0.1026
  499TMC3     C 7472   4.250   3.671  10.046  0.6670 -0.3156  0.0683
  499TMC3     O 7473   4.213   3.690   9.931  0.4317 -0.0251 -0.5646
  499TMC3     H 7474   4.399   3.660  10.270 -0.8641 -0.8238  0.1673
  499TMC3    H1 7475   4.274   3.902   9.956 -1.1015  0.5539 -0.1222
  499TMC3    H2 7476   4.537   4.062  10.264 -0.6045  0.4918 -0.5937
  499TMC3    C7 7477   4.433   4.102  10.012  0.4408 -0.1611  0.2728
  499TMC3    C8 7478   4.568   3.821  10.387  0.4741 -0.3851  0.6017
  499TMC3    O1 7479   4.541   4.156  10.014  0.7188 -0.0157  0.4413
  499TMC3    O2 7480   4.549   3.725  10.464 -0.1534  0.2839  0.0604
  500MPD2     C 7481   0.589   4.142  11.073 -0.1154 -0.1780 -0.5173
  500MPD2    C1 7482   0.655   4.257  11.040  0.0443 -0.1715  0.2147
  500MPD2    C2 7483   0.609   4.330  10.938 -0.0237  0.3190 -0.2022
  500MPD2    C3 7484   0.490   4.292  10.875 -0.3389  0.2100  0.5233
  500MPD2    C4 7485   0.416   4.188  10.916  0.4996 -0.1380 -0.0994
  500MPD2    C5 7486   0.471   4.105  11.014 -0.9250  1.0872 -0.1529
  500MPD2     H 7487   0.652   4.425  10.907 -1.0578  0.9212  0.2089
  500MPD2    H1 7488   0.316   4.168  10.877  0.7114 -1.3043 -0.0518
  500MPD2    H2 7489   0.615   4.091  11.164  1.3946 -0.8422 -1.3182
  500MPD2    H3 7490   0.418   4.021  11.058 -0.9638  0.9032 -0.5524
  500MPD2     N 7491   0.443   4.355  10.758  0.5464 -0.4898 -0.0370
  500MPD2    H5 7492   0.354   4.320  10.723 -0.4862  1.3611  0.7280
  500MPD2    N1 7493   0.770   4.295  11.110 -0.0286 -0.3286 -0.6876
  500MPD2    H7 7494   0.803   4.391  11.101 -0.9586 -0.0507 -1.1813
  501TMC3    C1 7495   0.941   4.297  11.275  1.2349  0.0756 -0.1647
  501TMC3    C2 7496   0.993   4.405  11.204 -0.7482 -0.5874  0.3739
  501TMC3    C3 7497   1.076   4.494  11.263 -0.6633 -0.1074  0.7818
  501TMC3    C4 7498   0.988   4.266  11.396 -0.6406 -0.0218 -0.4461
  501TMC3    C5 7499   1.090   4.344  11.452 -0.1463 -0.4346  0.5153
  501TMC3    C6 7500   1.131   4.461  11.386 -0.6177 -0.2362 -0.3132
  501TMC3     C 7501   0.827   4.225  11.218 -0.8645  0.0245  0.2690
  501TMC3     O 7502   0.795   4.130  11.287 -0.1382  0.4703 -0.1982
  501TMC3     H 7503   0.987   4.420  11.097  0.9683  0.1930  0.3969
  501TMC3    H1 7504   0.952   4.177  11.446 -1.6559 -0.7595 -2.5023
  501TMC3    H2 7505   1.205   4.528  11.429  1.4148 -0.9019 -2.7518
  501TMC3    C7 7506   1.144   4.308  11.589 -0.2192 -0.7585 -0.0488
  501TMC3    C8 7507   1.146   4.595  11.188  0.2587 -0.0181  0.4749
  501TMC3    O1 7508   1.099   4.207  11.639  1.0348 -0.5168 -0.8999
  501TMC3    O2 7509   1.254   4.634  11.231  0.6906  0.1278  0.2354
  502TMC3    C1 7510   0.973   2.922  14.629 -0.1160 -0.4576 -0.4499
  502TMC3    C2 7511   0.922   3.028  14.552  0.0220  0.6275 -0.2243
  502TMC3    C3 7512   0.818   3.099  14.609  0.2613 -1.0324 -0.1800
  502TMC3    C4 7513   0.899   2.864  14.730 -0.7625  0.5179  0.7282
  502TMC3    C5 7514   0.777   2.920  14.758  0.1751  0.5905  0.0465
  502TMC3    C6 7515   0.738   3.040  14.704  0.0540  0.4331  0.3924
  502TMC3     C 7516   1.102   2.956  14.685 -0.6283 -0.1504 -0.3899
  502TMC3     O 7517   1.186   2.988  14.596  0.3948  0.2526 -0.4648
  502TMC3     H 7518   0.985   3.072  14.475  0.3785  0.2107 -0.1682
  502TMC3    H1 7519   0.949   2.778  14.773  1.8004  1.1374 -0.9705
  502TMC3    H2 7520   0.654   3.097  14.742 -1.9068 -1.0957 -1.6353
  502TMC3    C7 7521   0.743   2.899  14.897  0.3464 -0.6574  0.1815
  502TMC3    C8 7522   0.879   3.218  14.657 -0.4167 -0.1047  0.2598
  502TMC3    O1 7523   0.831   2.842  14.962  0.1061  0.1692  0.0813
  502TMC3    O2 7524   0.957   3.279  14.584  0.2320 -0.1356  0.1471
  503MPD2     C 7525   3.296   3.554  16.972 -0.4275  0.0051 -0.2092
  503MPD2    C1 7526   3.255   3.585  17.100 -0.2513  0.0219  0.2777
  503MPD2    C2 7527   3.304   3.497  17.197  0.2435  0.3935 -0.4818
  503MPD2    C3 7528   3.398   3.394  17.167  0.6477  0.0752 -0.1368
  503MPD2    C4 7529   3.439   3.369  17.033  0.3803  0.4783  0.3008
  503MPD2    C5 7530   3.383   3.454  16.939 -0.7284  0.1505 -0.1686
  503MPD2     H 7531   3.272   3.513  17.300 -1.9988  1.1024 -1.2747
  503MPD2    H1 7532   3.500   3.283  17.008 -1.2370 -0.1371 -1.5305
  503MPD2    H2 7533   3.277   3.617  16.886 -0.9315  0.2107  0.0502
  503MPD2    H3 7534   3.414   3.455  16.835  1.2936 -1.1318  0.4289
  503MPD2     N 7535   3.466   3.338  17.277 -0.2774  0.5604  0.3181
  503MPD2    H5 7536   3.427   3.342  17.371  1.3419 -1.9922  1.0830
  503MPD2    N1 7537   3.185   3.706  17.135 -0.6971 -0.4038  0.1658
  503MPD2    H7 7538   3.186   3.726  17.234  1.9772  4.1810 -0.7986
  504TMC3    C1 7539   3.655   3.254  17.391 -0.7906 -0.0493  0.0861
  504TMC3    C2 7540   3.622   3.126  17.432 -0.2500 -0.2120  0.3889
  504TMC3    C3 7541   3.700   3.070  17.530 -0.1783  0.6664 -0.2091
  504TMC3    C4 7542   3.780   3.299  17.402 -0.3739 -0.3436  0.0355
  504TMC3    C5 7543   3.876   3.219  17.475  0.2381 -0.5583 -0.1357
  504TMC3    C6 7544   3.829   3.119  17.552  0.8794 -0.0667 -0.2052
  504TMC3     C 7545   3.599   3.294  17.269 -0.0443  0.1782  0.2591
  504TMC3     O 7546   3.679   3.316  17.180 -0.0310 -0.1319  0.2306
  504TMC3     H 7547   3.525   3.084  17.409 -0.4706  1.1335 -1.1375
  504TMC3    H1 7548   3.818   3.394  17.365 -0.7981  0.6565  2.1619
  504TMC3    H2 7549   3.897   3.064  17.615 -1.7675 -2.7765  0.2909
  504TMC3    C7 7550   4.009   3.208  17.412  0.0404 -0.8964 -0.3619
  504TMC3    C8 7551   3.665   2.942  17.581  0.3267 -0.0490 -0.6696
  504TMC3    O1 7552   4.009   3.270  17.306  0.3811 -0.0837  0.4243
  504TMC3    O2 7553   3.586   2.881  17.511  0.1432 -0.2832 -0.8762
  505MPD2     C 7554   2.947   2.543  10.927 -0.5601 -0.5542 -0.3994
  505MPD2    C1 7555   3.045   2.448  10.950  0.8346 -0.0254  0.7335
  505MPD2    C2 7556   3.147   2.475  11.042  0.3193  0.0573 -0.2095
  505MPD2    C3 7557   3.134   2.586  11.124 -0.2832 -0.1339  0.5264
  505MPD2    C4 7558   3.031   2.679  11.106  0.0604 -0.4722  0.4016
  505MPD2    C5 7559   2.935   2.654  11.002  0.0469  0.3542  0.8325
  505MPD2     H 7560   3.239   2.418  11.050  0.1673 -0.0940  0.4952
  505MPD2    H1 7561   3.015   2.766  11.168 -1.1962 -0.3028 -0.1663
  505MPD2    H2 7562   2.870   2.531  10.851 -0.3923 -0.9588 -0.5058
  505MPD2    H3 7563   2.845   2.713  10.996 -0.0061  0.2752  0.8509
  505MPD2     N 7564   3.235   2.592  11.225 -0.1928 -0.2047 -0.8196
  505MPD2    H5 7565   3.301   2.515  11.234 -1.9206 -1.6442 -0.3602
  505MPD2    N1 7566   3.048   2.334  10.864  0.0004 -0.6376 -0.5247
  505MPD2    H7 7567   2.988   2.332  10.783 -2.5418  3.8833  1.2302
  506TMC3    C1 7568   3.147   2.139  10.758 -0.1814 -0.4789 -0.1098
  506TMC3    C2 7569   3.150   2.208  10.638  0.1410  0.4420 -0.8963
  506TMC3    C3 7570   3.232   2.162  10.537  0.1562 -0.3505  0.0746
  506TMC3    C4 7571   3.226   2.032  10.779 -0.5255 -0.1565 -0.7205
  506TMC3    C5 7572   3.320   2.004  10.680  0.2053 -0.8763  0.6223
  506TMC3    C6 7573   3.317   2.070  10.556  0.5315  0.2323 -0.1530
  506TMC3     C 7574   3.132   2.227  10.878  0.2867 -0.2537  0.0686
  506TMC3     O 7575   3.193   2.187  10.975 -0.0168  0.0459 -0.8262
  506TMC3     H 7576   3.068   2.274  10.611  0.9462  1.2521 -1.3346
  506TMC3    H1 7577   3.211   1.974  10.870  1.9313  1.3332  0.6212
  506TMC3    H2 7578   3.394   2.051  10.482  0.8643 -1.6483  0.6780
  506TMC3    C7 7579   3.451   2.016  10.736  0.0551 -0.1909  0.7224
  506TMC3    C8 7580   3.266   2.254  10.432 -0.1748 -0.0450  0.3402
  506TMC3    O1 7581   3.541   2.023  10.652  0.0105  0.3871  0.1585
  506TMC3    O2 7582   3.262   2.213  10.314  0.0010 -0.3209  0.2017
  507TMC3    C1 7583   0.206   4.186  14.788  0.5110  0.3623 -0.0840
  507TMC3    C2 7584   0.191   4.051  14.782 -0.4281 -0.0349 -0.1211
  507TMC3    C3 7585   0.160   3.998  14.661  0.1342 -0.3935 -0.2342
  507TMC3    C4 7586   0.183   4.273  14.684 -0.4445  0.2797  0.0010
  507TMC3    C5 7587   0.144   4.209  14.569 -0.1564 -1.0741 -0.1446
  507TMC3    C6 7588   0.141   4.075  14.555 -0.2971  0.1686 -0.8943
  507TMC3     C 7589   0.193   4.246  14.920  0.0179 -0.1629  0.2918
  507TMC3     O 7590   0.079   4.261  14.959  0.2234  0.4007 -0.2691
  507TMC3     H 7591   0.188   3.994  14.874 -2.3234 -0.4914 -0.4584
  507TMC3    H1 7592   0.161   4.375  14.713 -2.0119 -0.1889  0.4559
  507TMC3    H2 7593   0.113   4.029  14.460 -1.3368 -0.6679 -0.1777
  507TMC3    C7 7594   0.006   4.255  14.537  0.5052  0.5303 -0.3240
  507TMC3    C8 7595   0.075   3.883  14.671  0.5762  0.1311  0.3960
  507TMC3    O1 7596   4.659   4.166  14.519 -0.6700 -0.1494 -0.3873
  507TMC3    O2 7597   0.116   3.785  14.732  0.9742  0.5803  0.5873
  508MPD2     C 7598   0.410   0.613  15.788 -1.1256 -0.4880 -0.0694
  508MPD2    C1 7599   0.504   0.716  15.803 -0.1585  0.8141 -0.4712
  508MPD2    C2 7600   0.504   0.819  15.707  0.2318  0.2684  0.2854
  508MPD2    C3 7601   0.411   0.817  15.609 -0.1568  0.2658  0.0013
  508MPD2    C4 7602   0.334   0.707  15.588 -0.4116  0.5722 -0.3833
  508MPD2    C5 7603   0.325   0.610  15.682  0.1589 -0.6088 -0.3241
  508MPD2     H 7604   0.571   0.904  15.702  1.2136 -0.5294 -0.3466
  508MPD2    H1 7605   0.265   0.700  15.504 -1.8663  0.6710  0.7967
  508MPD2    H2 7606   0.400   0.532  15.860 -0.0150  1.2781  2.0669
  508MPD2    H3 7607   0.256   0.529  15.665  0.6354 -1.1165  0.1329
  508MPD2     N 7608   0.410   0.925  15.515 -0.3219  0.0265  0.1819
  508MPD2    H5 7609   0.481   0.997  15.501 -0.8663  0.6843  0.7966
  508MPD2    N1 7610   0.580   0.715  15.922 -0.3918  0.0896 -0.1754
  508MPD2    H7 7611   0.573   0.638  15.987  1.8111  0.1549  0.1424
  509TMC3    C1 7612   0.213   1.257  15.266 -0.0057  0.6297  0.5561
  509TMC3    C2 7613   0.325   1.309  15.218 -0.0558  0.2009  0.3192
  509TMC3    C3 7614   0.437   1.232  15.249 -0.0232  0.2662 -0.5759
  509TMC3    C4 7615   0.206   1.141  15.330  0.2308  0.2754  0.2907
  509TMC3    C5 7616   0.316   1.066  15.353  0.1416 -0.5773  0.4635
  509TMC3    C6 7617   0.441   1.118  15.323 -0.0919  0.3311 -0.4601
  509TMC3     C 7618   0.091   1.337  15.282  0.0256 -0.0969  0.0752
  509TMC3     O 7619   0.027   1.330  15.384  0.0759 -0.0704  0.1037
  509TMC3     H 7620   0.325   1.406  15.169 -2.0495 -1.5317 -3.1306
  509TMC3    H1 7621   0.105   1.107  15.352 -0.1311  2.8758  2.6589
  509TMC3    H2 7622   0.533   1.064  15.338 -0.5774 -0.7892 -1.5235
  509TMC3    C7 7623   0.300   0.950  15.440  0.2718 -0.0845 -0.5521
  509TMC3    C8 7624   0.566   1.291  15.223 -0.2194 -0.2635 -0.0717
  509TMC3    O1 7625   0.185   0.912  15.447  0.4864 -0.1206  0.1026
  509TMC3    O2 7626   0.670   1.228  15.236  0.2517 -0.5376  0.0869
  510MPD2     C 7627   2.963   2.915  14.766 -0.9365  0.2628 -0.2963
  510MPD2    C1 7628   3.008   2.786  14.780 -0.6887 -0.1307 -0.0043
  510MPD2    C2 7629   3.137   2.748  14.737  0.0917  0.2062 -0.2419
  510MPD2    C3 7630   3.216   2.843  14.670  0.2107  0.1115 -0.5675
  510MPD2    C4 7631   3.170   2.974  14.658 -0.2841  0.4788  0.2625
  510MPD2    C5 7632   3.036   3.008  14.698 -0.4429  0.1355  0.5064
  510MPD2     H 7633   3.174   2.648  14.755 -0.8670 -0.1317 -0.1476
  510MPD2    H1 7634   3.232   3.057  14.626 -1.2506  1.5958  1.2933
  510MPD2    H2 7635   2.861   2.950  14.779 -1.9742 -3.5898  2.1914
  510MPD2    H3 7636   3.006   3.113  14.701 -0.2867  0.1559  1.4370
  510MPD2     N 7637   3.345   2.801  14.622 -0.3986 -0.0724  1.1244
  510MPD2    H5 7638   3.377   2.710  14.652  0.2532 -0.7030 -1.5038
  510MPD2    N1 7639   2.928   2.692  14.856 -0.3351 -0.4182  0.5313
  510MPD2    H7 7640   2.842   2.727  14.899 -0.9423  2.9281 -3.4135
  511TMC3    C1 7641   2.841   2.487  14.937 -0.3284 -0.1312  0.9588
  511TMC3    C2 7642   2.805   2.534  15.063 -0.5870  0.2157 -0.3052
  511TMC3    C3 7643   2.740   2.441  15.143 -0.1338  0.0569 -0.3183
  511TMC3    C4 7644   2.821   2.360  14.891  0.5340 -0.3519  0.0068
  511TMC3    C5 7645   2.753   2.274  14.977 -0.0002 -0.3912 -0.5132
  511TMC3    C6 7646   2.717   2.311  15.104  0.7668 -1.0727  0.1099
  511TMC3     C 7647   2.947   2.558  14.870  0.3519  0.3554 -0.1411
  511TMC3     O 7648   3.037   2.491  14.828 -0.2399  0.2763 -0.0836
  511TMC3     H 7649   2.831   2.632  15.100  2.2806 -0.1462 -1.3722
  511TMC3    H1 7650   2.841   2.336  14.787 -1.7185  2.1058 -0.9765
  511TMC3    H2 7651   2.655   2.242  15.160  0.2406  0.0317  0.8904
  511TMC3    C7 7652   2.716   2.147  14.916 -0.5327  0.5584 -0.8977
  511TMC3    C8 7653   2.682   2.488  15.265 -0.8134  0.4225  0.5322
  511TMC3    O1 7654   2.717   2.137  14.796 -0.0744 -0.3243  0.3156
  511TMC3    O2 7655   2.669   2.608  15.282 -0.4774  0.3976 -0.0062
  512TMC3    C1 7656   2.251   1.408  13.943  0.0705 -1.1463 -0.2064
  512TMC3    C2 7657   2.297   1.497  14.037 -0.1379  0.5358 -0.2956
  512TMC3    C3 7658   2.313   1.629  13.999 -0.4762  0.2316  0.2387
  512TMC3    C4 7659   2.245   1.446  13.813 -0.0423 -0.6634 -0.2583
  512TMC3    C5 7660   2.284   1.570  13.776  0.1469  0.1610  0.1683
  512TMC3    C6 7661   2.326   1.661  13.870  0.0404  0.2272  0.3588
  512TMC3     C 7662   2.223   1.276  13.991 -0.6740 -0.5562 -0.1444
  512TMC3     O 7663   2.249   1.229  14.101  0.3498 -0.7731 -0.3696
  512TMC3     H 7664   2.305   1.461  14.139  0.3762  1.1223 -0.1317
  512TMC3    H1 7665   2.205   1.378  13.738  0.0090  1.0525 -1.8337
  512TMC3    H2 7666   2.378   1.753  13.844 -1.8579  1.1203 -0.2155
  512TMC3    C7 7667   2.265   1.616  13.639 -0.4637 -0.2158 -0.4993
  512TMC3    C8 7668   2.404   1.690  14.097  0.1334  0.6503  0.2197
  512TMC3    O1 7669   2.275   1.733  13.624 -0.5673  0.0321  0.0960
  512TMC3    O2 7670   2.482   1.612  14.144 -0.3773  0.0060 -0.4548
  513MPD2     C 7671   3.643   2.066  13.757  0.4762  0.2718 -0.4900
  513MPD2    C1 7672   3.656   1.954  13.678  0.3506  0.1214  0.0245
  513MPD2    C2 7673   3.768   1.874  13.700 -0.6779 -0.8139 -1.0233
  513MPD2    C3 7674   3.866   1.917  13.788 -0.0746 -0.3915  0.1173
  513MPD2    C4 7675   3.857   2.037  13.855  0.5669  0.2769  0.4264
  513MPD2    C5 7676   3.739   2.104  13.844  0.3698 -0.1373  0.4944
  513MPD2     H 7677   3.780   1.779  13.649 -1.1981 -1.0121 -0.7775
  513MPD2    H1 7678   3.928   2.076  13.926 -0.3136  2.2106  0.2340
  513MPD2    H2 7679   3.562   2.137  13.745  2.0394  2.3576  1.3033
  513MPD2    H3 7680   3.723   2.191  13.908 -0.4980  0.7266 -0.9117
  513MPD2     N 7681   3.974   1.827  13.803 -0.3396  0.5870  0.1490
  513MPD2    H5 7682   3.967   1.740  13.751 -1.6664 -0.0594  1.4107
  513MPD2    N1 7683   3.558   1.920  13.587 -0.4471 -0.0578  0.2325
  513MPD2    H7 7684   3.489   1.995  13.581 -0.5815 -0.0449  2.0526
  514TMC3    C1 7685   3.469   1.820  13.385 -0.9596 -0.4835 -0.1616
  514TMC3    C2 7686   3.464   1.944  13.321  0.2493 -0.2873 -0.8312
  514TMC3    C3 7687   3.512   1.949  13.196 -0.8106 -0.2094 -0.7606
  514TMC3    C4 7688   3.498   1.704  13.317  0.7930 -0.2598 -0.6684
  514TMC3    C5 7689   3.530   1.724  13.184 -0.0117  0.1759 -0.0063
  514TMC3    C6 7690   3.548   1.842  13.123 -0.6033  0.8475  0.1563
  514TMC3     C 7691   3.554   1.808  13.503  0.0939 -0.3409  0.1166
  514TMC3     O 7692   3.615   1.701  13.515  0.2205 -0.5897  0.3565
  514TMC3     H 7693   3.453   2.033  13.382 -0.3494 -1.5560  0.9536
  514TMC3    H1 7694   3.481   1.611  13.371  1.3509  0.7782  1.3186
  514TMC3    H2 7695   3.581   1.851  13.020  0.9180 -0.6125  0.5321
  514TMC3    C7 7696   3.637   1.636  13.144  0.3355 -0.7292 -0.1005
  514TMC3    C8 7697   3.585   2.074  13.165 -0.2608 -0.4516 -0.3866
  514TMC3    O1 7698   3.671   1.632  13.025  0.1115  0.2017  0.0124
  514TMC3    O2 7699   3.580   2.162  13.252  0.2841 -0.1383 -0.1244
  515MPD2     C 7700   2.061   3.695  15.100  0.4411 -0.3920 -0.6318
  515MPD2    C1 7701   2.113   3.725  14.978 -0.4290  0.0974  0.4728
  515MPD2    C2 7702   2.222   3.815  14.980 -0.1286 -0.4140  0.1762
  515MPD2    C3 7703   2.262   3.880  15.095 -1.1194 -0.2023  0.4381
  515MPD2    C4 7704   2.194   3.864  15.215  0.8408  0.3890 -0.3135
  515MPD2    C5 7705   2.092   3.770  15.212 -0.1119  0.5585 -0.3292
  515MPD2     H 7706   2.282   3.839  14.893 -1.7419 -1.0245 -1.1075
  515MPD2    H1 7707   2.225   3.904  15.311 -1.1768  2.1438 -0.3858
  515MPD2    H2 7708   1.984   3.620  15.111 -0.7660  0.8750 -0.4390
  515MPD2    H3 7709   2.047   3.735  15.304 -0.4701 -2.0377 -1.4791
  515MPD2     N 7710   2.378   3.961  15.105 -0.6334  0.1761  0.4164
  515MPD2    H5 7711   2.379   4.019  15.188  0.1162 -0.3471  0.7793
  515MPD2    N1 7712   2.078   3.662  14.857 -0.0476 -0.4919  0.6452
  515MPD2    H7 7713   2.114   3.689  14.766 -0.0893  0.4806  0.9243
  516TMC3    C1 7714   2.019   3.484  14.706  0.0644  0.2735  0.3504
  516TMC3    C2 7715   1.951   3.554  14.605  0.1896 -0.0206  0.6192
  516TMC3    C3 7716   1.867   3.472  14.535  0.4836 -0.0055  0.1070
  516TMC3    C4 7717   2.005   3.351  14.718  0.0059 -0.5035  0.2323
  516TMC3    C5 7718   1.915   3.283  14.652  0.8182 -0.0166 -0.5398
  516TMC3    C6 7719   1.838   3.339  14.557  0.0225 -0.1878  0.5042
  516TMC3     C 7720   2.005   3.546  14.842 -0.9434  0.3963 -0.6679
  516TMC3     O 7721   1.950   3.479  14.932  0.5459  0.1539  0.1021
  516TMC3     H 7722   1.929   3.661  14.604 -0.1158 -0.0958 -1.0861
  516TMC3    H1 7723   2.057   3.310  14.804  1.5212  1.9212  0.4750
  516TMC3    H2 7724   1.755   3.292  14.505  0.6402  0.1243 -0.7541
  516TMC3    C7 7725   1.889   3.147  14.697  0.0433 -0.1817 -0.0757
  516TMC3    C8 7726   1.761   3.534  14.462 -0.1919  0.4051 -0.3220
  516TMC3    O1 7727   1.952   3.117  14.795  0.0639 -0.3366  0.0179
  516TMC3    O2 7728   1.647   3.491  14.472  0.3906 -0.2413  0.3560
  517MPD2     C 7729   1.637   0.156   0.580 -0.2417 -0.4774  0.5887
  517MPD2    C1 7730   1.695   0.198   0.460  1.1741  0.1425 -0.2513
  517MPD2    C2 7731   1.695   0.330   0.424 -0.6074 -0.4059 -0.4949
  517MPD2    C3 7732   1.618   0.416   0.495 -0.1044 -0.1235  0.1311
  517MPD2    C4 7733   1.560   0.377   0.611 -0.1895  0.0615 -0.0478
  517MPD2    C5 7734   1.562   0.248   0.650  0.2354 -0.0585 -0.2410
  517MPD2     H 7735   1.744   0.362   0.333 -0.5289 -1.8142 -0.9450
  517MPD2    H1 7736   1.493   0.443   0.666 -2.0954  0.9102 -3.3591
  517MPD2    H2 7737   1.642   0.054   0.616 -0.3356 -0.7196 -0.0771
  517MPD2    H3 7738   1.508   0.224   0.741  1.2816  1.4304  0.7573
  517MPD2     N 7739   1.611   0.555   0.466  0.3954 -0.3684  0.4404
  517MPD2    H5 7740   1.574   0.610   0.543  1.2745 -1.6402  1.7709
  517MPD2    N1 7741   1.765   0.105   0.379 -0.2949  0.2292  0.3089
  517MPD2    H7 7742   1.808   0.147   0.297  0.9755 -1.9371 -0.1081
  518TMC3    C1 7743   1.812   4.635   0.269 -0.4777 -0.3432 -0.4865
  518TMC3    C2 7744   1.792   4.498   0.257  0.5744 -0.7429 -0.2575
  518TMC3    C3 7745   1.880   4.425   0.181 -0.9396  0.3096 -0.2821
  518TMC3    C4 7746   1.923   4.699   0.214 -0.4502  0.2842  0.0514
  518TMC3    C5 7747   2.009   4.614   0.148 -0.5663 -0.1108 -0.4014
  518TMC3    C6 7748   1.991   4.479   0.131 -0.4534 -0.3614 -0.3399
  518TMC3     C 7749   1.735   4.707   0.366 -0.4506 -0.2077 -0.5167
  518TMC3     O 7750   1.642   4.647   0.418 -0.2089  0.0446 -0.0639
  518TMC3     H 7751   1.717   4.453   0.320 -0.1488  1.4448  0.4091
  518TMC3    H1 7752   1.953   0.063   0.233  0.3281  0.1185 -0.3068
  518TMC3    H2 7753   2.054   4.423   0.063  0.4556  1.4128 -0.9598
  518TMC3    C7 7754   2.114   4.679   0.076 -0.1973  0.1907  0.0037
  518TMC3    C8 7755   1.852   4.286   0.151 -0.7615 -0.3446  0.6886
  518TMC3    O1 7756   2.108   0.058   0.052  0.6980 -0.7723  0.0506
  518TMC3    O2 7757   1.944   4.215   0.106 -0.2768  0.0916  0.1222
  519MPD2     C 7758   3.409   3.622  14.497 -1.1847 -0.0072 -0.5265
  519MPD2    C1 7759   3.354   3.674  14.384  0.1682  0.8449 -0.1154
  519MPD2    C2 7760   3.384   3.622  14.261  0.2530  0.3645  0.3976
  519MPD2    C3 7761   3.465   3.503  14.252  0.2174  0.1935  0.1673
  519MPD2    C4 7762   3.527   3.458  14.366 -0.3325  0.4118  0.5927
  519MPD2    C5 7763   3.505   3.522  14.486 -0.4939  0.6866 -0.6507
  519MPD2     H 7764   3.340   3.671  14.176  0.7450 -0.2096 -0.1905
  519MPD2    H1 7765   3.596   3.374  14.369 -1.2819 -0.4931 -2.7397
  519MPD2    H2 7766   3.387   3.662  14.595 -0.2202  1.8465 -1.0852
  519MPD2    H3 7767   3.552   3.475  14.572 -0.9644  2.2339  0.4717
  519MPD2     N 7768   3.477   3.445  14.128  0.0094 -0.8469  0.6252
  519MPD2    H5 7769   3.545   3.372  14.113  0.3934 -0.3303 -0.1770
  519MPD2    N1 7770   3.276   3.788  14.400 -0.2762  0.5679  0.1410
  519MPD2    H7 7771   3.243   3.814  14.492 -2.2303  2.1321 -1.0047
  520TMC3    C1 7772   3.411   3.386  13.899 -0.0190 -0.3325  0.1100
  520TMC3    C2 7773   3.309   3.375  13.809 -0.3111 -0.6165 -0.0362
  520TMC3    C3 7774   3.345   3.323  13.687  0.0510  0.0290  0.5972
  520TMC3    C4 7775   3.530   3.320  13.881  0.7569 -0.3682  0.3215
  520TMC3    C5 7776   3.554   3.260  13.763  0.0439  0.4432  0.0235
  520TMC3    C6 7777   3.467   3.261  13.659 -0.3421 -0.5782  0.4143
  520TMC3     C 7778   3.393   3.469  14.018  0.1241 -0.1012  0.3265
  520TMC3     O 7779   3.303   3.551  14.010  0.0891 -0.6243  0.8406
  520TMC3     H 7780   3.213   3.424  13.824  0.7146  1.0760  0.9228
  520TMC3    H1 7781   3.609   3.320  13.955  1.1619  0.2760 -0.1088
  520TMC3    H2 7782   3.491   3.204  13.570 -2.0220  0.1594 -0.5129
  520TMC3    C7 7783   3.685   3.199  13.736 -0.4022 -0.1893 -0.2701
  520TMC3    C8 7784   3.239   3.293  13.584  0.6352 -0.4531  0.3501
  520TMC3    O1 7785   3.700   3.177  13.613  0.0255 -0.2825 -0.5777
  520TMC3    O2 7786   3.278   3.217  13.496 -0.1669  0.1011 -0.0418
  521MPD2     C 7787   4.357   1.074  17.517 -0.2441 -0.4378 -0.3904
  521MPD2    C1 7788   4.310   1.053  17.387 -0.1427 -0.5505 -0.5825
  521MPD2    C2 7789   4.391   1.091  17.280 -0.3031  1.0666  0.5017
  521MPD2    C3 7790   4.502   1.175  17.299 -0.5716 -0.1978 -0.0470
  521MPD2    C4 7791   4.542   1.197  17.431  0.5969 -1.0341 -0.4429
  521MPD2    C5 7792   4.469   1.153  17.543  0.1685 -0.1073 -0.5564
  521MPD2     H 7793   4.365   1.067  17.177 -2.6773  0.8733  1.1323
  521MPD2    H1 7794   4.625   1.259  17.463  0.2433 -0.6103 -0.3311
  521MPD2    H2 7795   4.301   1.035  17.602 -0.4521  1.2168  0.2332
  521MPD2    H3 7796   4.497   1.180  17.644  0.2489 -2.0340 -0.0635
  521MPD2     N 7797   4.575   1.202  17.189  0.8749 -0.1440 -0.0350
  521MPD2    H5 7798   4.530   1.186  17.099  1.7675  2.6537 -0.9743
  521MPD2    N1 7799   4.190   0.983  17.363 -0.2986  0.0722 -0.5373
  521MPD2    H7 7800   4.146   0.938  17.442  2.7607 -0.6740  0.7641
  522TMC3    C1 7801   0.022   1.242  17.044  0.2565  0.2801  0.4541
  522TMC3    C2 7802   0.140   1.176  17.046  0.4655 -0.3413  0.6784
  522TMC3    C3 7803   0.172   1.106  16.936 -0.5768  1.0346 -0.0682
  522TMC3    C4 7804   4.671   1.225  16.941 -0.7674 -0.5213  0.4313
  522TMC3    C5 7805   4.701   1.137  16.841  0.4786  0.5858 -0.1800
  522TMC3    C6 7806   0.086   1.071  16.838  0.0096  0.1760 -0.2107
  522TMC3     C 7807   4.702   1.253  17.177 -0.1264 -0.2882 -0.0983
  522TMC3     O 7808   0.042   1.287  17.265  0.6344 -0.5031  0.4529
  522TMC3     H 7809   0.201   1.183  17.135 -0.7712  0.1374  1.4949
  522TMC3    H1 7810   4.573   1.270  16.934  0.0914  1.2532 -0.3300
  522TMC3    H2 7811   0.099   0.998  16.759 -0.5136  0.3305 -0.4334
  522TMC3    C7 7812   4.593   1.061  16.778  0.8888  0.1569  0.0122
  522TMC3    C8 7813   0.297   1.027  16.950  0.5236 -0.5316  0.9103
  522TMC3    O1 7814   4.603   0.939  16.788  0.4546 -0.2470  0.4475
  522TMC3    O2 7815   0.351   1.027  17.058  0.0291 -0.0823  0.2897
  523MPD2     C 7816   1.776   1.878  10.404 -0.1845 -0.3420 -0.7678
  523MPD2    C1 7817   1.689   1.783  10.352  0.1490 -0.5513 -0.2028
  523MPD2    C2 7818   1.607   1.825  10.246 -0.1559  0.7983  0.6589
  523MPD2    C3 7819   1.617   1.951  10.188  1.0678  0.4278  0.0055
  523MPD2    C4 7820   1.715   2.032  10.236  0.4638  0.0603 -0.3051
  523MPD2    C5 7821   1.790   1.999  10.346  0.1585 -0.7045 -0.3485
  523MPD2     H 7822   1.534   1.754  10.209 -0.2456  1.8866 -1.2956
  523MPD2    H1 7823   1.719   2.136  10.204 -1.1060 -0.3589 -1.8468
  523MPD2    H2 7824   1.840   1.852  10.488  0.1886  0.3435 -0.8440
  523MPD2    H3 7825   1.875   2.057  10.382  0.0703  0.7539 -2.4878
  523MPD2     N 7826   1.532   1.997  10.084 -0.4249 -0.3138  0.1083
  523MPD2    H5 7827   1.550   2.089  10.046 -2.0707  0.6321  1.6293
  523MPD2    N1 7828   1.688   1.657  10.416 -0.1019  0.2024 -0.2603
  523MPD2    H7 7829   1.742   1.640  10.500 -0.4414 -0.2075 -0.1224
  524TMC3    C1 7830   1.349   2.026   9.936  0.3193 -0.3492  0.4181
  524TMC3    C2 7831   1.257   1.963   9.856 -0.7295  0.0773  0.7108
  524TMC3    C3 7832   1.227   2.015   9.737  0.2374  0.6619 -0.5572
  524TMC3    C4 7833   1.412   2.144   9.908 -0.2958  0.1458  0.3965
  524TMC3    C5 7834   1.364   2.199   9.792  0.4069 -0.4259  0.1170
  524TMC3    C6 7835   1.278   2.133   9.698 -0.0605 -0.4617 -0.0814
  524TMC3     C 7836   1.433   1.935  10.022  0.2506 -0.0252  0.1922
  524TMC3     O 7837   1.392   1.827  10.055 -0.3268 -0.0604 -0.6329
  524TMC3     H 7838   1.232   1.860   9.877 -2.7834  0.3562 -0.3643
  524TMC3    H1 7839   1.460   2.213   9.977  1.8631  0.9551 -1.8907
  524TMC3    H2 7840   1.255   2.176   9.601 -1.2696  0.2468  0.5182
  524TMC3    C7 7841   1.421   2.326   9.750 -0.1631 -0.3295  0.1332
  524TMC3    C8 7842   1.156   1.935   9.642  0.3185 -0.2210  0.4256
  524TMC3    O1 7843   1.532   2.358   9.793  0.1791  0.3387  0.8358
  524TMC3    O2 7844   1.172   1.947   9.521 -0.3083 -0.0832  0.5360
  525MPD2     C 7845   4.700   3.303  14.533 -0.2735  0.9175  0.3227
  525MPD2    C1 7846   0.080   3.258  14.593 -0.0754  0.2136  0.1032
  525MPD2    C2 7847   0.189   3.345  14.592  0.1272 -0.1611 -0.3320
  525MPD2    C3 7848   0.184   3.473  14.536  0.6813  0.1629  0.2978
  525MPD2    C4 7849   0.066   3.521  14.493  0.6308  0.4891  1.4404
  525MPD2    C5 7850   4.702   3.434  14.491 -0.0188 -0.7304 -0.4237
  525MPD2     H 7851   0.285   3.318  14.633 -0.0089 -0.9536 -0.5259
  525MPD2    H1 7852   0.047   3.624  14.467  3.2640  0.1989 -1.7119
  525MPD2    H2 7853   4.606   3.248  14.524  0.5121 -0.4703  0.6841
  525MPD2    H3 7854   4.603   3.452  14.453 -1.1369 -0.1589  2.7370
  525MPD2     N 7855   0.292   3.564  14.541 -0.6232  0.5208 -0.0356
  525MPD2    H5 7856   0.261   3.659  14.519 -1.8289  0.1505  0.0541
  525MPD2    N1 7857   0.102   3.131  14.650 -0.5626  0.2092  0.2933
  525MPD2    H7 7858   0.196   3.108  14.682 -1.1445 -2.1896  0.2567
  526TMC3    C1 7859   0.032   2.922  14.748  0.1285 -0.2281  0.0511
  526TMC3    C2 7860   4.678   2.891  14.837 -0.2619  0.2024  0.4238
  526TMC3    C3 7861   4.717   2.797  14.933 -0.1053  0.0673  0.7396
  526TMC3    C4 7862   0.151   2.870  14.743  0.0916  0.0194 -0.0261
  526TMC3    C5 7863   0.192   2.776  14.837 -0.1016  0.8810 -0.3959
  526TMC3    C6 7864   0.102   2.739  14.934 -0.2052 -0.4909 -0.2898
  526TMC3     C 7865   0.003   3.042  14.677  0.1194 -0.7120  0.0998
  526TMC3     O 7866   4.630   3.044  14.622 -0.2096 -0.0768 -0.4801
  526TMC3     H 7867   4.576   2.929  14.838 -0.1903  0.4355 -1.1648
  526TMC3    H1 7868   0.206   2.903  14.656 -0.1673  1.7234  0.4559
  526TMC3    H2 7869   0.121   2.667  15.012 -0.2391 -0.3229 -0.1269
  526TMC3    C7 7870   0.310   2.698  14.805  0.0486  0.7737 -0.2865
  526TMC3    C8 7871   4.676   2.808  15.071 -0.0437 -0.4401  0.1550
  526TMC3    O1 7872   0.333   2.598  14.866 -0.1184 -0.2304 -0.3898
  526TMC3    O2 7873   0.026   2.791  15.157  0.5828 -0.7566 -0.0294
  527MPD2     C 7874   2.138   0.816   1.200 -0.1901 -0.3255 -0.2538
  527MPD2    C1 7875   2.266   0.851   1.240 -0.0883  0.1579  0.7575
  527MPD2    C2 7876   2.379   0.805   1.173  0.7237 -0.2015  0.1761
  527MPD2    C3 7877   2.361   0.744   1.050  0.9578 -0.4239  0.3069
  527MPD2    C4 7878   2.234   0.706   1.016 -0.0975 -0.5842  0.6010
  527MPD2    C5 7879   2.124   0.744   1.088 -0.1651  0.4380 -0.9922
  527MPD2     H 7880   2.479   0.832   1.203 -1.0873  0.8941  5.1609
  527MPD2    H1 7881   2.211   0.654   0.924 -3.2651  2.3834 -0.2833
  527MPD2    H2 7882   2.048   0.849   1.252  0.5801 -1.1506  1.5843
  527MPD2    H3 7883   2.027   0.701   1.067  0.6212 -0.9995 -1.6602
  527MPD2     N 7884   2.478   0.699   0.982  0.6801  0.0597  0.3225
  527MPD2    H5 7885   2.564   0.714   1.032  2.1909 -1.1353 -1.9331
  527MPD2    N1 7886   2.299   0.945   1.335 -0.3449  0.3818  0.0344
  527MPD2    H7 7887   2.396   0.971   1.341 -0.4598  0.7862  0.1019
  528TMC3    C1 7888   2.266   1.137   1.468  0.6203  0.3514  0.6511
  528TMC3    C2 7889   2.366   1.208   1.407  0.3488  0.5168  1.1090
  528TMC3    C3 7890   2.360   1.339   1.377 -0.1811 -0.0531  0.3057
  528TMC3    C4 7891   2.161   1.201   1.531  0.0032  0.2045  0.1042
  528TMC3    C5 7892   2.149   1.330   1.493 -0.4866  0.7249  0.3349
  528TMC3    C6 7893   2.240   1.398   1.423  0.0912 -0.0677 -0.1891
  528TMC3     C 7894   2.212   1.019   1.407  0.2835 -0.4604 -0.3868
  528TMC3     O 7895   2.100   0.976   1.427  0.4102 -0.1675  0.3894
  528TMC3     H 7896   2.449   1.156   1.360  0.2674  1.5145 -0.1244
  528TMC3    H1 7897   2.093   1.147   1.596  0.8097  0.7369  1.3775
  528TMC3    H2 7898   2.211   1.500   1.397  0.6796  0.9686  3.2043
  528TMC3    C7 7899   2.043   1.411   1.552 -0.6707  0.4908 -0.4196
  528TMC3    C8 7900   2.447   1.394   1.273 -0.2774 -0.3200 -0.0176
  528TMC3    O1 7901   2.057   1.531   1.578  0.2411 -0.0873  0.1362
  528TMC3    O2 7902   2.557   1.339   1.262 -0.2076  0.7926 -0.2303
  529MPD2     C 7903   1.060   3.779   0.870  0.1312 -0.5664  0.4246
  529MPD2    C1 7904   0.936   3.776   0.927 -0.1280  0.4076 -0.3378
  529MPD2    C2 7905   0.826   3.822   0.863  0.4641 -0.9716 -0.1811
  529MPD2    C3 7906   0.841   3.895   0.741 -0.1776  0.1437  0.5661
  529MPD2    C4 7907   0.969   3.914   0.690  0.2704 -0.0139  0.4420
  529MPD2    C5 7908   1.068   3.846   0.751 -0.6749  0.3427 -0.2893
  529MPD2     H 7909   0.729   3.811   0.910 -0.7801  0.3405 -2.4216
  529MPD2    H1 7910   0.991   3.962   0.595  0.5491 -2.1139 -0.5779
  529MPD2    H2 7911   1.149   3.732   0.910 -0.0947 -0.0131  1.5489
  529MPD2    H3 7912   1.163   3.850   0.700  0.0167 -1.6464  0.8736
  529MPD2     N 7913   0.731   3.960   0.678 -0.1848 -0.2728  0.1912
  529MPD2    H5 7914   0.761   4.012   0.596 -0.1639 -0.3168  0.1712
  529MPD2    N1 7915   0.912   3.703   1.051  0.2952  0.1742 -0.7336
  529MPD2    H7 7916   0.822   3.725   1.093 -0.6937  0.6393 -3.0607
  530TMC3    C1 7917   0.950   3.578   1.244  0.2286 -0.0841  0.3333
  530TMC3    C2 7918   1.048   3.523   1.324 -0.2222 -0.5024 -0.5059
  530TMC3    C3 7919   1.014   3.494   1.455  0.6183 -0.3964  0.7577
  530TMC3    C4 7920   0.819   3.588   1.287  0.0681  0.4310 -0.6542
  530TMC3    C5 7921   0.795   3.568   1.421 -0.5467  0.0972 -0.0545
  530TMC3    C6 7922   0.891   3.518   1.502 -0.8516  0.3835  0.2863
  530TMC3     C 7923   1.008   3.639   1.125 -0.0068 -0.2266  0.5176
  530TMC3     O 7924   1.120   3.612   1.093 -0.0004 -0.1618  0.1883
  530TMC3     H 7925   1.151   3.507   1.293 -0.1260  1.3388 -1.1173
  530TMC3    H1 7926   0.743   3.626   1.219 -0.9938 -1.0668 -0.3157
  530TMC3    H2 7927   0.868   3.490   1.604 -0.4083  1.2461  0.6192
  530TMC3    C7 7928   0.649   3.564   1.459 -0.5140  0.0753 -0.0863
  530TMC3    C8 7929   1.122   3.429   1.537  0.0091 -0.2238  0.2531
  530TMC3    O1 7930   0.623   3.554   1.576 -0.1440  0.3877 -0.5025
  530TMC3    O2 7931   1.108   3.443   1.655 -0.4018  0.3008 -0.6305
  531MPD2     C 7932   4.059   1.383  13.292  0.4001  0.0444  0.2461
  531MPD2    C1 7933   4.008   1.454  13.396  0.2563  0.1196  0.1424
  531MPD2    C2 7934   3.892   1.519  13.380  0.2317  0.1635  1.1297
  531MPD2    C3 7935   3.824   1.517  13.257  0.2564 -0.2054  0.7421
  531MPD2    C4 7936   3.878   1.449  13.157 -0.1336 -0.1559 -0.8216
  531MPD2    C5 7937   3.990   1.376  13.177  0.5497 -0.0916  1.0617
  531MPD2     H 7938   3.849   1.578  13.460 -1.8341 -2.8956  2.2763
  531MPD2    H1 7939   3.822   1.442  13.064 -1.0008 -0.9598 -0.2440
  531MPD2    H2 7940   4.144   1.319  13.310 -0.0696 -0.1509  1.8054
  531MPD2    H3 7941   4.035   1.309  13.104 -0.8995 -0.0782  0.1543
  531MPD2     N 7942   3.706   1.591  13.252  0.4038 -0.0170 -0.3518
  531MPD2    H5 7943   3.673   1.626  13.341  0.7762  0.0163 -0.2273
  531MPD2    N1 7944   4.095   1.462  13.515 -0.3655 -0.4262  0.3543
  531MPD2    H7 7945   4.183   1.412  13.517 -0.4496 -0.5703  0.4623
  532TMC3    C1 7946   4.171   1.547  13.716 -0.9212  0.1848 -0.7845
  532TMC3    C2 7947   4.119   1.630  13.816 -0.2449 -0.3170  0.2364
  532TMC3    C3 7948   4.189   1.743  13.841 -0.9634 -0.4406  0.5311
  532TMC3    C4 7949   4.292   1.575  13.661 -0.0115 -0.0885  0.0594
  532TMC3    C5 7950   4.359   1.692  13.694  0.7072  0.8705  0.1043
  532TMC3    C6 7951   4.309   1.778  13.789 -0.0870 -0.2412 -0.0110
  532TMC3     C 7952   4.058   1.519  13.631  0.1893 -0.1343  0.0243
  532TMC3     O 7953   3.953   1.577  13.663 -0.3467 -0.0475  0.3402
  532TMC3     H 7954   4.027   1.599  13.864 -0.8015 -1.2744 -1.4465
  532TMC3    H1 7955   4.317   1.515  13.574  0.7163  1.2507 -0.6597
  532TMC3    H2 7956   4.370   1.859  13.826 -1.3846  1.1636 -0.9543
  532TMC3    C7 7957   4.499   1.704  13.658  0.5040  0.2516 -0.3557
  532TMC3    C8 7958   4.096   1.853  13.859  0.2677 -0.0090 -0.0838
  532TMC3    O1 7959   4.559   1.812  13.666  0.6203 -0.0723 -0.4364
  532TMC3    O2 7960   4.140   1.964  13.881  0.2073 -0.2647 -0.7377
  533TMC3    C1 7961   0.503   3.666  14.585 -0.2162  0.4580  0.5390
  533TMC3    C2 7962   0.638   3.661  14.564  0.0517 -0.9008  0.2348
  533TMC3    C3 7963   0.703   3.775  14.582 -0.0859  0.6254 -0.4404
  533TMC3    C4 7964   0.446   3.765  14.660 -0.5251 -0.1383 -0.2817
  533TMC3    C5 7965   0.525   3.868  14.700 -0.0909 -0.0614 -0.7081
  533TMC3    C6 7966   0.657   3.872  14.665  0.0318  0.4610  0.4258
  533TMC3     C 7967   0.427   3.543  14.573  0.1191 -0.2429 -0.1377
  533TMC3     O 7968   0.495   3.440  14.586 -0.4627 -0.5663 -0.4889
  533TMC3     H 7969   0.683   3.585  14.501 -0.0699 -1.5087  0.8722
  533TMC3    H1 7970   0.340   3.769  14.678  0.2728  2.6628  3.8319
  533TMC3    H2 7971   0.728   3.940  14.710  0.5270 -0.8944  1.6897
  533TMC3    C7 7972   0.500   3.917  14.836  0.4025  0.5393  0.3547
  533TMC3    C8 7973   0.843   3.771  14.568 -0.5174 -1.0029 -0.8820
  533TMC3    O1 7974   0.578   4.000  14.878 -0.1287 -0.2445  0.4677
  533TMC3    O2 7975   0.892   3.666  14.595 -0.0550 -0.6343  0.2095
  534MPD2     C 7976   3.247   4.382   1.385  0.5103  0.0160  0.2499
  534MPD2    C1 7977   3.132   4.448   1.352  0.2009 -0.1788 -0.1704
  534MPD2    C2 7978   3.018   4.371   1.318  0.1458  0.1146 -1.1056
  534MPD2    C3 7979   3.026   4.231   1.318 -0.4660 -0.6273  0.2025
  534MPD2    C4 7980   3.143   4.170   1.350  0.1042  0.0563 -0.1821
  534MPD2    C5 7981   3.250   4.245   1.387 -0.0666 -0.3494 -0.3887
  534MPD2     H 7982   2.930   4.430   1.294  0.5379  1.0719 -0.2274
  534MPD2    H1 7983   3.151   4.062   1.357  0.1756  0.0587 -0.2350
  534MPD2    H2 7984   3.334   4.437   1.419  2.7519 -1.9013 -2.3918
  534MPD2    H3 7985   3.337   4.192   1.426  0.7787  2.1588  1.1704
  534MPD2     N 7986   2.918   4.147   1.275 -0.3215 -0.2382  0.2092
  534MPD2    H5 7987   2.932   4.047   1.275 -0.7426 -0.2977 -0.8822
  534MPD2    N1 7988   3.111   4.589   1.364 -1.1032 -0.5603  0.2396
  534MPD2    H7 7989   3.017   4.624   1.378 -0.9415  0.0435 -0.1850
  535TMC3    C1 7990   2.718   4.070   1.196  0.4665 -0.2845  0.1752
  535TMC3    C2 7991   2.591   4.080   1.222 -0.2731 -0.0394  0.3394
  535TMC3    C3 7992   2.502   3.992   1.164 -0.0612  0.5151 -0.0308
  535TMC3    C4 7993   2.772   3.971   1.118  0.3935 -0.4873  0.4852
  535TMC3    C5 7994   2.687   3.885   1.063  0.0980  0.2289 -0.2142
  535TMC3    C6 7995   2.552   3.891   1.087 -0.2517  0.0305  0.1896
  535TMC3     C 7996   2.793   4.179   1.236 -0.4989  0.3650  0.0994
  535TMC3     O 7997   2.733   4.280   1.263 -0.3933 -0.1860 -0.2544
  535TMC3     H 7998   2.549   4.162   1.280  0.0730  0.6403 -0.3706
  535TMC3    H1 7999   2.879   3.973   1.101  0.1494  1.8382 -0.7681
  535TMC3    H2 8000   2.491   3.803   1.076 -0.6155  0.3326 -0.2075
  535TMC3    C7 8001   2.740   3.776   0.984  0.2123 -0.3549 -0.8245
  535TMC3    C8 8002   2.378   3.964   1.234  0.2582  0.4251 -0.0159
  535TMC3    O1 8003   2.858   3.744   0.986 -0.0187  0.0961  0.1898
  535TMC3    O2 8004   2.295   3.894   1.176  0.6346 -0.8553  0.2574
  536MPD2     C 8005   1.699   3.038  16.000  0.3801  0.2329  0.1630
  536MPD2    C1 8006   1.588   2.951  16.018 -0.5056  0.0502 -0.2506
  536MPD2    C2 8007   1.492   2.941  15.918  0.1824 -0.3821  0.5131
  536MPD2    C3 8008   1.498   3.021  15.810 -0.2813 -0.7241  0.5958
  536MPD2    C4 8009   1.603   3.114  15.793  0.1992  0.4085  0.0784
  536MPD2    C5 8010   1.703   3.113  15.885  0.5590  0.0396 -0.1752
  536MPD2     H 8011   1.402   2.887  15.943 -0.5085  0.2998 -0.4890
  536MPD2    H1 8012   1.609   3.188  15.713  4.5094  1.5373  1.4235
  536MPD2    H2 8013   1.775   3.044  16.077 -0.4534  1.0494  0.9174
  536MPD2    H3 8014   1.789   3.178  15.872  0.7471  0.0562  1.2010
  536MPD2     N 8015   1.388   3.031  15.714  0.6497 -0.2452 -0.1703
  536MPD2    H5 8016   1.394   3.094  15.635 -1.1669  1.8939  1.4264
  536MPD2    N1 8017   1.582   2.870  16.129  0.0731 -0.9428 -0.4814
  536MPD2    H7 8018   1.670   2.864  16.179 -0.7311 -2.0143  0.8221
  537TMC3    C1 8019   1.504   2.726  16.302 -0.7861  0.1882 -0.2875
  537TMC3    C2 8020   1.555   2.791  16.407  0.3532 -0.6119 -0.7705
  537TMC3    C3 8021   1.551   2.717  16.522  0.1692 -0.8054  0.2351
  537TMC3    C4 8022   1.433   2.607  16.311  0.2621 -0.3911  0.1239
  537TMC3    C5 8023   1.441   2.537  16.422  0.7472 -0.1409 -0.8932
  537TMC3    C6 8024   1.502   2.591  16.532 -0.6421 -0.6369 -0.3732
  537TMC3     C 8025   1.479   2.805  16.182 -0.2975  0.4801  0.2009
  537TMC3     O 8026   1.360   2.815  16.157 -0.0054 -0.7376 -0.3147
  537TMC3     H 8027   1.606   2.886  16.394 -1.2222 -0.3149 -4.5492
  537TMC3    H1 8028   1.389   2.562  16.223 -0.6099 -0.2267  0.4772
  537TMC3    H2 8029   1.510   2.551  16.632 -3.1879 -1.8589 -0.6518
  537TMC3    C7 8030   1.336   2.435  16.431 -0.6108 -0.5912 -0.4784
  537TMC3    C8 8031   1.609   2.774  16.638  0.8905  0.0199 -0.0060
  537TMC3    O1 8032   1.254   2.429  16.341 -0.3578  0.9533 -0.3576
  537TMC3    O2 8033   1.684   2.710  16.713 -0.5017 -0.3033  0.0136
  538TMC3    C1 8034   2.558   1.242  11.540 -0.2540 -0.2520  0.1024
  538TMC3    C2 8035   2.668   1.174  11.485  0.2292 -0.4263 -0.4575
  538TMC3    C3 8036   2.734   1.229  11.381 -0.3058  0.6447 -0.0498
  538TMC3    C4 8037   2.500   1.353  11.479  0.9145  0.9302  0.6483
  538TMC3    C5 8038   2.583   1.413  11.378  0.3016  0.7117  0.5148
  538TMC3    C6 8039   2.686   1.344  11.319  0.8022  0.2870 -0.0517
  538TMC3     C 8040   2.515   1.220  11.679  0.0604  0.1925 -0.1375
  538TMC3     O 8041   2.438   1.306  11.721 -0.7147  0.7426 -0.2230
  538TMC3     H 8042   2.690   1.073  11.516 -2.8083 -0.6978  0.8292
  538TMC3    H1 8043   2.428   1.415  11.531  0.7377  1.5927 -0.3861
  538TMC3    H2 8044   2.731   1.382  11.228 -1.4482 -0.0934 -1.3286
  538TMC3    C7 8045   2.536   1.535  11.317  0.4942  0.7037 -0.3419
  538TMC3    C8 8046   2.851   1.149  11.325 -0.2526  0.3102 -0.5072
  538TMC3    O1 8047   2.618   1.598  11.254 -0.4160 -0.1462  0.1103
  538TMC3    O2 8048   2.913   1.082  11.403  0.1709  0.2843 -0.4529
  539MPD2     C 8049   2.052   0.305  11.934 -0.4643 -0.5331 -1.4380
  539MPD2    C1 8050   2.082   0.331  11.803 -0.4604  0.1376 -0.1601
  539MPD2    C2 8051   2.043   0.459  11.746  0.1051  0.0960  0.3277
  539MPD2    C3 8052   1.978   0.547  11.828 -0.3131  0.6835 -0.5076
  539MPD2    C4 8053   1.940   0.511  11.956 -0.1609 -0.0424  0.3157
  539MPD2    C5 8054   1.975   0.391  12.012 -0.0666 -0.2972 -0.5054
  539MPD2     H 8055   2.065   0.503  11.650 -1.2155  0.8650  0.3716
  539MPD2    H1 8056   1.878   0.580  12.013  0.6681  1.2309 -0.3302
  539MPD2    H2 8057   2.080   0.212  11.983 -0.4351  0.2813  0.0821
  539MPD2    H3 8058   1.947   0.361  12.112  2.2996 -2.6081 -0.5481
  539MPD2     N 8059   1.932   0.679  11.780  0.4005  0.1185 -0.0146
  539MPD2    H5 8060   1.880   0.733  11.848 -0.8456  0.6098 -1.3429
  539MPD2    N1 8061   2.161   0.239  11.732 -0.1642 -0.3898  0.6565
  539MPD2    H7 8062   2.188   0.155  11.783 -1.4497 -0.5571  1.0608
  540TMC3    C1 8063   1.894   0.869  11.633  0.1873  0.3750 -0.7437
  540TMC3    C2 8064   1.877   0.920  11.503 -0.0931  0.1237 -0.8127
  540TMC3    C3 8065   1.824   1.043  11.489  0.0455  0.0049  0.0956
  540TMC3    C4 8066   1.850   0.947  11.736  0.2468  0.0650 -0.2642
  540TMC3    C5 8067   1.791   1.063  11.709 -0.5790  0.0600 -0.1173
  540TMC3    C6 8068   1.782   1.124  11.592  0.2872  0.4989 -0.6356
  540TMC3     C 8069   1.946   0.735  11.654 -0.5389 -0.1167 -0.4217
  540TMC3     O 8070   2.016   0.690  11.566 -0.2478  0.8482  0.4281
  540TMC3     H 8071   1.911   0.874  11.411  1.0993 -0.7753  0.0727
  540TMC3    H1 8072   1.852   0.905  11.836 -0.2742  2.4717  0.7572
  540TMC3    H2 8073   1.741   1.223  11.576  1.0132  0.9222  0.1194
  540TMC3    C7 8074   1.719   1.115  11.827  0.6771  0.5127 -0.3563
  540TMC3    C8 8075   1.768   1.083  11.355  0.0153 -0.4316 -0.5720
  540TMC3    O1 8076   1.665   1.051  11.913  0.1105 -0.4727 -0.4384
  540TMC3    O2 8077   1.736   1.201  11.344  0.5071  0.0093 -0.3455
  541MPD2     C 8078   0.947   2.392  13.346 -0.6692 -0.1375 -0.6806
  541MPD2    C1 8079   0.917   2.279  13.269 -0.2700  0.2000  0.2976
  541MPD2    C2 8080   0.891   2.293  13.130  0.2343  0.3086 -1.1252
  541MPD2    C3 8081   0.858   2.420  13.091 -0.0337 -0.2165  0.5900
  541MPD2    C4 8082   0.868   2.534  13.172  0.8250 -0.0547 -0.0054
  541MPD2    C5 8083   0.921   2.518  13.298  0.0109 -0.4603 -0.1960
  541MPD2     H 8084   0.867   2.213  13.061 -1.3107  0.4891 -0.8094
  541MPD2    H1 8085   0.850   2.632  13.129 -0.6061 -0.5396 -0.5489
  541MPD2    H2 8086   0.987   2.391  13.447 -1.9953 -0.7045 -0.1635
  541MPD2    H3 8087   0.940   2.599  13.366 -0.8018 -1.4803  1.2522
  541MPD2     N 8088   0.809   2.444  12.960  0.3328 -0.3739  0.8162
  541MPD2    H5 8089   0.777   2.540  12.951  2.2636  0.3159  1.2624
  541MPD2    N1 8090   0.925   2.145  13.327  0.2775 -0.5906 -0.5218
  541MPD2    H7 8091   0.925   2.065  13.266 -0.4889  0.0696 -1.3999
  542TMC3    C1 8092   0.768   2.399  12.728 -0.3624  0.3671 -0.0255
  542TMC3    C2 8093   0.814   2.341  12.612 -0.0310  0.0388  0.2017
  542TMC3    C3 8094   0.782   2.409  12.496  0.4405  0.2523 -0.0332
  542TMC3    C4 8095   0.682   2.505  12.730  0.3936  0.2227  0.6644
  542TMC3    C5 8096   0.653   2.568  12.613  0.7003  0.2761 -0.7847
  542TMC3    C6 8097   0.711   2.527  12.495  0.4998 -0.1436  0.1665
  542TMC3     C 8098   0.830   2.357  12.855  0.1480 -0.0985  0.2586
  542TMC3     O 8099   0.917   2.269  12.847 -0.6737 -0.3411 -0.3641
  542TMC3     H 8100   0.886   2.260  12.620 -0.0727  0.2603  2.7696
  542TMC3    H1 8101   0.640   2.534  12.826  0.7509  1.5315  0.4244
  542TMC3    H2 8102   0.706   2.589  12.407  1.4832  0.5875  0.6271
  542TMC3    C7 8103   0.578   2.690  12.628 -0.4894  0.0384  0.1174
  542TMC3    C8 8104   0.825   2.369  12.364  0.2343  0.6197  0.0475
  542TMC3    O1 8105   0.561   2.718  12.746 -0.2497  0.3418  0.3253
  542TMC3    O2 8106   0.848   2.452  12.279 -0.8251 -0.0781  0.0732
  543TMC3    C1 8107   0.393   3.296  17.386 -0.5524  0.1627  0.4235
  543TMC3    C2 8108   0.451   3.176  17.425  0.1862 -0.1507  0.8755
  543TMC3    C3 8109   0.371   3.092  17.499  0.7434 -0.2413  0.4886
  543TMC3    C4 8110   0.293   3.356  17.457 -0.3805  0.2338 -0.0222
  543TMC3    C5 8111   0.233   3.272  17.554 -0.4312  0.0262  0.5197
  543TMC3    C6 8112   0.260   3.136  17.569  0.0610 -0.8612  1.0368
  543TMC3     C 8113   0.420   3.342  17.244 -0.0805 -0.5968  0.1094
  543TMC3     O 8114   0.481   3.262  17.172 -0.1574  0.2103  0.2181
  543TMC3     H 8115   0.521   3.121  17.363 -1.1343 -0.5057 -0.3018
  543TMC3    H1 8116   0.261   3.459  17.449 -0.7788  0.1899  0.9335
  543TMC3    H2 8117   0.200   3.078  17.639 -0.8760 -1.0130  0.0995
  543TMC3    C7 8118   0.113   3.328  17.614 -0.3029  0.1602  0.4801
  543TMC3    C8 8119   0.420   2.963  17.514 -0.0801 -0.6653  0.1083
  543TMC3    O1 8120   0.027   3.253  17.664  0.0623  0.8612  0.1185
  543TMC3    O2 8121   0.540   2.964  17.545 -0.4470  0.1730  0.0050
  544MPD2     C 8122   0.368   2.460  17.495 -0.4329 -0.1035  0.2452
  544MPD2    C1 8123   0.242   2.523  17.453  0.3777 -0.5349 -0.0848
  544MPD2    C2 8124   0.241   2.663  17.451 -0.0960 -0.3070  0.4757
  544MPD2    C3 8125   0.349   2.734  17.495 -0.2198 -0.4222  0.1413
  544MPD2    C4 8126   0.468   2.675  17.540 -0.1055  0.1106  0.0311
  544MPD2    C5 8127   0.471   2.541  17.537 -0.0157  0.4568 -0.6281
  544MPD2     H 8128   0.150   2.713  17.419  0.7406  0.8182 -0.1388
  544MPD2    H1 8129   0.551   2.735  17.574 -1.0299  1.5248 -0.2199
  544MPD2    H2 8130   0.378   2.352  17.499  1.0687  0.1130  1.7559
  544MPD2    H3 8131   0.556   2.491  17.582 -1.5270 -1.3863  0.1690
  544MPD2     N 8132   0.323   2.871  17.500  0.1526 -0.4669 -0.2054
  544MPD2    H5 8133   0.224   2.892  17.489  0.5245  0.5482 -1.6545
  544MPD2    N1 8134   0.134   2.434  17.417  0.2162  0.1008  0.1380
  544MPD2    H7 8135   0.152   2.338  17.444  0.4790  0.2132  0.3674
  545TMC3    C1 8136   4.650   2.373  17.341  0.2451  0.1224  0.1435
  545TMC3    C2 8137   4.528   2.423  17.310  0.3865  0.4082  0.2909
  545TMC3    C3 8138   4.448   2.335  17.241  1.0277 -0.1298  0.1147
  545TMC3    C4 8139   4.708   2.243  17.303 -0.3181  0.3873 -0.4413
  545TMC3    C5 8140   4.611   2.159  17.243  1.0328 -0.1270 -0.5430
  545TMC3    C6 8141   4.480   2.203  17.215  0.0032  0.7391 -0.2254
  545TMC3     C 8142   0.012   2.476  17.379 -0.3853 -0.5098 -0.4385
  545TMC3     O 8143   4.714   2.596  17.365 -0.4583  0.4698  0.8530
  545TMC3     H 8144   4.515   2.529  17.330  1.2500  1.0567 -2.4510
  545TMC3    H1 8145   0.074   2.217  17.322 -0.0878 -0.5664 -3.0274
  545TMC3    H2 8146   4.417   2.143  17.151  0.3932  1.8844 -1.6734
  545TMC3    C7 8147   4.637   2.019  17.209 -0.1679  0.8487  0.4565
  545TMC3    C8 8148   4.329   2.392  17.185  0.8500  0.1733 -0.1520
  545TMC3    O1 8149   4.547   1.944  17.179  0.4024 -0.3557 -0.0463
  545TMC3    O2 8150   4.260   2.322  17.111  0.1480  0.6473 -0.5929
  546MPD2     C 8151   1.475   2.871  17.581  0.1991  0.1758 -0.2259
  546MPD2    C1 8152   1.463   2.926  17.458 -0.2330 -0.3675  0.1286
  546MPD2    C2 8153   1.511   3.049  17.431  0.9017  0.1084 -0.1298
  546MPD2    C3 8154   1.591   3.104  17.533 -0.0436  0.6557  0.2870
  546MPD2    C4 8155   1.614   3.041  17.651  0.2554  0.6089 -0.3204
  546MPD2    C5 8156   1.551   2.923  17.673  0.0175 -0.5649  0.1796
  546MPD2     H 8157   1.497   3.094  17.333  0.6418 -0.4736 -0.3596
  546MPD2    H1 8158   1.682   3.087  17.721  2.0472  0.1893 -1.7722
  546MPD2    H2 8159   1.423   2.779  17.605 -0.4079  0.1050 -1.8245
  546MPD2    H3 8160   1.563   2.868   0.017 -0.0171  0.5387  0.8398
  546MPD2     N 8161   1.658   3.225  17.517  0.1042 -0.3791  0.7714
  546MPD2    H5 8162   1.692   3.269  17.602 -1.2874  2.6226 -0.2110
  546MPD2    N1 8163   1.375   2.855  17.380  0.2319 -0.1110 -0.0506
  546MPD2    H7 8164   1.322   2.783  17.429 -0.6233 -0.1183 -0.9700
  547TMC3    C1 8165   1.217   2.783  17.221  0.1093  0.4104 -0.6885
  547TMC3    C2 8166   1.185   2.776  17.089 -0.4371 -0.4708 -0.3453
  547TMC3    C3 8167   1.068   2.723  17.063 -0.8015  0.3452 -0.0219
  547TMC3    C4 8168   1.136   2.740  17.326 -0.1748  0.9705  0.1691
  547TMC3    C5 8169   1.021   2.674  17.290 -0.2987  0.8438  0.0668
  547TMC3    C6 8170   0.982   2.674  17.162 -0.1046 -0.8924  0.1384
  547TMC3     C 8171   1.340   2.865  17.252 -0.6239  0.0936 -0.8208
  547TMC3     O 8172   1.404   2.919  17.164 -0.1440 -0.1824  0.0508
  547TMC3     H 8173   1.250   2.833  17.023 -2.5908  0.2680 -1.8291
  547TMC3    H1 8174   1.143   2.757  17.433  0.1580  0.4738  0.2280
  547TMC3    H2 8175   0.878   2.662  17.134  0.2848  1.5448 -2.3030
  547TMC3    C7 8176   0.950   2.592  17.380 -0.2029 -0.2218  0.3359
  547TMC3    C8 8177   1.015   2.747  16.935 -0.0569 -0.8664  0.2365
  547TMC3    O1 8178   0.983   2.601  17.495 -0.2651 -0.7044  0.0366
  547TMC3    O2 8179   0.897   2.769  16.933 -0.0121  0.2044  0.1668
  548MPD2     C 8180   1.652   3.763  12.919 -0.7052 -0.0364 -0.5257
  548MPD2    C1 8181   1.549   3.751  12.829 -0.6642 -0.3380  0.5389
  548MPD2    C2 8182   1.583   3.715  12.696  0.1459 -0.1278 -0.1986
  548MPD2    C3 8183   1.710   3.681  12.661 -0.0483 -0.4580  0.4158
  548MPD2    C4 8184   1.816   3.703  12.747 -0.5142 -0.1851  0.0462
  548MPD2    C5 8185   1.782   3.737  12.877  0.1603  0.5088 -0.2586
  548MPD2     H 8186   1.508   3.708  12.618  0.7941 -1.0648 -0.7392
  548MPD2    H1 8187   1.921   3.701  12.720  0.0785  1.0515  2.2651
  548MPD2    H2 8188   1.629   3.795  13.020 -0.0167  1.7858 -0.9530
  548MPD2    H3 8189   1.858   3.753  12.953 -0.2856 -1.1570  0.5423
  548MPD2     N 8190   1.722   3.623  12.529  0.2550  0.4015  0.2546
  548MPD2    H5 8191   1.640   3.614  12.471 -0.4057 -1.0200  1.4106
  548MPD2    N1 8192   1.415   3.771  12.866 -0.0412 -0.8134 -0.2159
  548MPD2    H7 8193   1.400   3.806  12.960 -0.0710  0.3423 -0.6513
  549TMC3    C1 8194   1.174   3.772  12.842  0.7379 -0.7238  0.0371
  549TMC3    C2 8195   1.073   3.815  12.760  0.1651 -0.4201  0.5269
  549TMC3    C3 8196   0.959   3.838  12.829 -0.1886 -0.1272  0.4632
  549TMC3    C4 8197   1.161   3.741  12.976 -0.7130  0.3930  0.0774
  549TMC3    C5 8198   1.038   3.754  13.033  0.7513  0.6448 -0.3613
  549TMC3    C6 8199   0.936   3.811  12.965  0.2131  0.5316 -0.7647
  549TMC3     C 8200   1.303   3.769  12.779 -0.3390 -0.2400  0.7010
  549TMC3     O 8201   1.302   3.757  12.659 -0.0834 -0.3442  0.3588
  549TMC3     H 8202   1.085   3.858  12.661  0.2792  0.1160  0.7709
  549TMC3    H1 8203   1.244   3.716  13.040 -0.1019 -0.0029 -0.8732
  549TMC3    H2 8204   0.844   3.838  13.016  0.5780  0.3990 -0.0456
  549TMC3    C7 8205   1.014   3.680  13.153 -0.2201 -0.1604  0.7801
  549TMC3    C8 8206   0.835   3.861  12.750  0.8011  0.4737 -0.0802
  549TMC3    O1 8207   0.944   3.729  13.240  0.3049 -0.0179  0.2810
  549TMC3    O2 8208   0.727   3.886  12.804 -0.6309  0.1998  0.1982
  550TMC3    C1 8209   4.384   1.495  12.803 -0.4887 -0.5029  0.0134
  550TMC3    C2 8210   4.347   1.538  12.922 -0.1705 -0.2370 -0.3561
  550TMC3    C3 8211   4.400   1.651  12.977  0.9328 -0.8785 -0.7083
  550TMC3    C4 8212   4.483   1.564  12.740  0.3544  0.0620  0.1585
  550TMC3    C5 8213   4.542   1.669  12.798 -0.0366 -0.4306 -0.1130
  550TMC3    C6 8214   4.496   1.719  12.912 -0.3225 -0.3454  0.0605
  550TMC3     C 8215   4.284   1.429  12.724  0.8682 -0.2816  0.2808
  550TMC3     O 8216   4.192   1.376  12.786 -0.2057 -0.1390 -0.3624
  550TMC3     H 8217   4.264   1.490  12.972  1.3807 -1.5839  0.9373
  550TMC3    H1 8218   4.534   1.512  12.660 -0.8027  0.5012 -0.8578
  550TMC3    H2 8219   4.543   1.803  12.962  0.4818 -1.3949  1.0578
  550TMC3    C7 8220   4.599   1.770  12.707  0.0252  0.7349  0.1317
  550TMC3    C8 8221   4.300   1.732  13.048  0.3613  0.0106  0.3075
  550TMC3    O1 8222   4.724   1.767  12.697  0.6637 -0.4497 -0.3584
  550TMC3    O2 8223   4.197   1.688  13.098  0.1464 -0.0282 -0.2087
  551TMC3    C1 8224   2.270   4.539  13.878 -0.8032 -0.3196  0.3577
  551TMC3    C2 8225   2.277   4.664  13.821  0.1498  1.0938  0.2280
  551TMC3    C3 8226   2.362   0.015  13.882 -0.1225 -0.2003 -0.7578
  551TMC3    C4 8227   2.336   4.505  13.996 -0.2180  0.0524 -0.0283
  551TMC3    C5 8228   2.418   4.603  14.046  0.1477  0.2085  0.6354
  551TMC3    C6 8229   2.442   4.717  13.986 -0.5786 -0.0498  0.1141
  551TMC3     C 8230   2.197   4.433  13.795  0.1872 -0.4245  0.1616
  551TMC3     O 8231   2.154   4.479  13.687 -1.1243  0.3976 -0.6465
  551TMC3     H 8232   2.232   4.689  13.725  0.1762 -3.0012 -0.8679
  551TMC3    H1 8233   2.340   4.407  14.042 -1.4285  0.4793  0.9771
  551TMC3    H2 8234   2.501   0.053  14.039 -0.4826 -0.0399 -0.0046
  551TMC3    C7 8235   2.484   4.575  14.172  0.2302  0.0472  0.1360
  551TMC3    C8 8236   2.401   0.133  13.805 -0.2712 -0.3279  0.2220
  551TMC3    O1 8237   2.422   4.526  14.262  0.0341 -0.0141 -0.4100
  551TMC3    O2 8238   2.308   0.190  13.752  0.7875  0.1598  0.2603
  552MPD2     C 8239   4.035   1.693  14.171  0.3368 -0.2732  0.0338
  552MPD2    C1 8240   4.042   1.571  14.248  0.4806 -0.5113  0.5427
  552MPD2    C2 8241   4.131   1.560  14.358  0.3686 -0.2899 -0.1775
  552MPD2    C3 8242   4.200   1.677  14.399  0.1275 -0.8036 -1.0028
  552MPD2    C4 8243   4.188   1.795  14.326  0.3409 -0.2437  0.1938
  552MPD2    C5 8244   4.119   1.797  14.206  0.3452  0.5859 -0.7016
  552MPD2     H 8245   4.131   1.467  14.413  2.5658 -0.8605 -1.1385
  552MPD2    H1 8246   4.243   1.886  14.347  0.2107 -0.3555  1.0143
  552MPD2    H2 8247   3.979   1.699  14.079 -0.9673 -4.6575  0.5104
  552MPD2    H3 8248   4.127   1.893  14.156  0.9692  1.1359  0.4576
  552MPD2     N 8249   4.287   1.675  14.511  0.4076  0.1871 -0.2227
  552MPD2    H5 8250   4.349   1.755  14.515  1.5356 -0.7928  2.6972
  552MPD2    N1 8251   3.975   1.454  14.204 -0.0562  0.2587  1.0009
  552MPD2    H7 8252   3.975   1.378  14.272 -1.1626 -0.6527 -0.0285
  553TMC3    C1 8253   3.823   1.319  14.100  0.2800  0.5893 -0.3735
  553TMC3    C2 8254   3.826   1.261  13.976  0.2907  0.3722 -0.1674
  553TMC3    C3 8255   3.855   1.130  13.975  0.3848 -0.6522 -0.6604
  553TMC3    C4 8256   3.842   1.245  14.210  0.1006 -0.2365 -0.1431
  553TMC3    C5 8257   3.871   1.118  14.212 -0.3394  0.6324 -1.0824
  553TMC3    C6 8258   3.883   1.059  14.094  0.3336 -0.0353 -0.0286
  553TMC3     C 8259   3.887   1.447  14.096  0.0392 -1.1315 -0.2442
  553TMC3     O 8260   3.856   1.529  14.008 -0.2191  0.0515 -0.1478
  553TMC3     H 8261   3.830   1.326  13.889  2.3023  0.6212  0.1088
  553TMC3    H1 8262   3.844   1.285  14.311 -1.9750 -3.3950  1.1459
  553TMC3    H2 8263   3.923   0.958  14.096  1.0265  0.2542  0.8665
  553TMC3    C7 8264   3.960   1.076  14.316  0.2626  0.0127 -0.2806
  553TMC3    C8 8265   3.957   1.105  13.874  0.0556 -0.5642  0.0341
  553TMC3    O1 8266   3.925   1.039  14.424  1.0731 -0.7299  0.6993
  553TMC3    O2 8267   4.070   1.083  13.917 -0.0311  0.0922  0.1574
  554TMC3    C1 8268   1.395   0.683  11.642 -0.0499 -0.3203 -0.4472
  554TMC3    C2 8269   1.264   0.659  11.604  0.0546  0.1829 -0.4898
  554TMC3    C3 8270   1.178   0.760  11.606  0.5860 -0.1578  0.3049
  554TMC3    C4 8271   1.439   0.802  11.691  0.0138  0.2575 -0.3450
  554TMC3    C5 8272   1.348   0.902  11.693 -0.3423 -0.3549  0.0440
  554TMC3    C6 8273   1.220   0.879  11.652 -0.5350  0.6634 -0.1974
  554TMC3     C 8274   1.501   0.586  11.626 -1.0098 -0.4040  0.0015
  554TMC3     O 8275   1.609   0.625  11.589 -0.2540  0.1040  0.0661
  554TMC3     H 8276   1.235   0.566  11.557  2.2598 -0.6799 -0.1671
  554TMC3    H1 8277   1.543   0.828  11.707 -0.5761  0.7028  2.8402
  554TMC3    H2 8278   1.157   0.967  11.649  0.4936  1.4664  2.0217
  554TMC3    C7 8279   1.390   1.032  11.636  0.1694  0.0692  0.3361
  554TMC3    C8 8280   1.100   0.775  11.483  0.6202 -0.2172  0.2407
  554TMC3    O1 8281   1.477   1.028  11.549  0.1195 -0.3596  0.5762
  554TMC3    O2 8282   1.098   0.885  11.431 -0.0279 -0.2742  0.0326
  555TMC3    C1 8283   0.735   0.206  14.766 -0.3357 -0.1851 -0.6158
  555TMC3    C2 8284   0.698   0.293  14.868  0.1309  0.4434  0.3246
  555TMC3    C3 8285   0.746   0.259  14.991  0.4337  0.3112 -0.3296
  555TMC3    C4 8286   0.820   0.097  14.787 -0.2433  0.5713 -0.2275
  555TMC3    C5 8287   0.849   0.062  14.916 -0.3260 -0.2200 -0.4110
  555TMC3    C6 8288   0.812   0.147  15.013 -0.1837 -0.3792  0.5347
  555TMC3     C 8289   0.707   0.250  14.630  0.4327  0.1252 -0.6661
  555TMC3     O 8290   0.787   0.227  14.544  0.7067  0.8265  0.6187
  555TMC3     H 8291   0.634   0.380  14.859 -1.2970 -0.4080  2.3219
  555TMC3    H1 8292   0.837   0.031  14.703  0.8976  1.4236 -0.6556
  555TMC3    H2 8293   0.826   0.125  15.118 -1.5286  1.1224  1.0184
  555TMC3    C7 8294   0.859   4.659  14.946  0.5319  0.3961 -0.3581
  555TMC3    C8 8295   0.698   0.335  15.103  0.3136 -0.0294 -0.7871
  555TMC3    O1 8296   0.839   4.625  15.060  1.1088  0.0088 -0.2439
  555TMC3    O2 8297   0.592   0.397  15.097  0.0511 -0.0510  0.0641
  556MPD2     C 8298   3.599   1.841  11.169  0.2870 -0.9740 -0.1141
  556MPD2    C1 8299   3.461   1.841  11.176  0.1293  0.1991 -0.3173
  556MPD2    C2 8300   3.387   1.772  11.077 -0.2191 -0.5066  0.3634
  556MPD2    C3 8301   3.456   1.714  10.977 -0.5051 -0.1062  0.3497
  556MPD2    C4 8302   3.589   1.721  10.976 -0.9037  0.2824 -0.0381
  556MPD2    C5 8303   3.664   1.783  11.067 -0.3426 -0.2919 -0.9632
  556MPD2     H 8304   3.279   1.780  11.074 -0.2097 -1.0493 -1.3756
  556MPD2    H1 8305   3.652   1.669  10.905 -1.8253  2.0431 -2.1282
  556MPD2    H2 8306   3.666   1.882  11.244 -0.4664 -0.9154  0.5285
  556MPD2    H3 8307   3.771   1.802  11.062 -0.6822  1.3617 -1.6875
  556MPD2     N 8308   3.384   1.644  10.882  0.4622  0.3617  0.5635
  556MPD2    H5 8309   3.291   1.619  10.913  0.4561 -1.2411 -0.7071
  556MPD2    N1 8310   3.392   1.916  11.277 -0.2669 -0.2214  0.8580
  556MPD2    H7 8311   3.291   1.902  11.281 -0.5022  0.9552 -0.8293
  557TMC3    C1 8312   3.353   1.518  10.687  0.5691  0.0223  0.3293
  557TMC3    C2 8313   3.412   1.453  10.584 -0.1902 -0.6261 -0.1978
  557TMC3    C3 8314   3.354   1.355  10.519  0.1166 -0.5991 -0.3691
  557TMC3    C4 8315   3.234   1.475  10.725  0.1317  0.1160  0.7870
  557TMC3    C5 8316   3.176   1.377  10.660  0.4610 -0.1987  0.3048
  557TMC3    C6 8317   3.233   1.307  10.559  0.2575  0.1396  0.0191
  557TMC3     C 8318   3.435   1.611  10.761 -1.0111  0.2000 -0.8141
  557TMC3     O 8319   3.534   1.657  10.705 -0.0734 -0.2576 -0.1089
  557TMC3     H 8320   3.499   1.494  10.535  0.8130 -0.4368  1.7846
  557TMC3    H1 8321   3.172   1.523  10.799  0.8674  0.3499  1.2538
  557TMC3    H2 8322   3.181   1.231  10.502 -0.8086  1.1405 -0.3453
  557TMC3    C7 8323   3.071   1.309  10.740  0.2850 -0.1930 -0.1861
  557TMC3    C8 8324   3.439   1.293  10.419  0.7537 -0.1850 -0.5794
  557TMC3    O1 8325   2.971   1.369  10.772  0.3553 -0.5717 -0.0059
  557TMC3    O2 8326   3.532   1.357  10.366  0.1953 -0.0587  0.3781
  558TMC3    C1 8327   0.422   4.481  10.568  0.5762 -0.2284  0.1337
  558TMC3    C2 8328   0.295   4.521  10.575  0.2651  0.2543 -0.4478
  558TMC3    C3 8329   0.212   4.459  10.481 -0.5316 -1.2182 -0.1843
  558TMC3    C4 8330   0.478   4.417  10.460 -0.3078 -0.2299  0.0180
  558TMC3    C5 8331   0.398   4.371  10.359  0.3911 -0.2623  0.8200
  558TMC3    C6 8332   0.256   4.391  10.370 -0.0767 -0.1656  0.0395
  558TMC3     C 8333   0.498   4.459  10.691  0.3175  0.2040 -0.1229
  558TMC3     O 8334   0.608   4.513  10.702 -0.3109 -0.2166  0.3080
  558TMC3     H 8335   0.269   4.581  10.661 -2.8928 -3.0858  0.9184
  558TMC3    H1 8336   0.585   4.402  10.449 -0.5072 -0.7546 -1.2056
  558TMC3    H2 8337   0.183   4.362  10.295  0.2600 -1.3626  0.1686
  558TMC3    C7 8338   0.465   4.347  10.235  0.3486 -0.4880  0.5744
  558TMC3    C8 8339   0.088   4.396  10.534 -0.4284 -0.3337  0.4657
  558TMC3    O1 8340   0.579   4.310  10.238 -0.2746 -0.7938  0.1856
  558TMC3    O2 8341   0.046   4.309  10.460 -0.1680  0.2793 -0.2520
  559MPD2     C 8342   0.767   0.557  10.687  0.0014  0.4146 -0.0354
  559MPD2    C1 8343   0.708   0.445  10.744  0.0995 -0.5178 -0.2595
  559MPD2    C2 8344   0.776   0.381  10.849  0.3523  0.4329  0.5821
  559MPD2    C3 8345   0.900   0.424  10.885 -0.4887  0.3193 -0.2877
  559MPD2    C4 8346   0.958   0.530  10.826 -0.0486  0.3640 -0.0448
  559MPD2    C5 8347   0.891   0.590  10.730  0.6752 -0.1813 -0.5257
  559MPD2     H 8348   0.726   0.304  10.904  0.9677  0.1276  0.7177
  559MPD2    H1 8349   1.052   0.578  10.853 -0.6545  0.0079  2.6896
  559MPD2    H2 8350   0.722   0.629  10.620  1.7386  1.5979  0.0778
  559MPD2    H3 8351   0.939   0.678  10.687 -1.3636  0.8527 -0.6756
  559MPD2     N 8352   0.958   0.365  10.997  0.3086  0.3774 -0.1416
  559MPD2    H5 8353   0.907   0.296  11.053 -0.0554  2.0633  1.5988
  559MPD2    N1 8354   0.577   0.405  10.693 -0.1374  0.5424  0.2905
  559MPD2    H7 8355   0.520   0.468  10.638 -1.5555  0.0371  1.1845
  560TMC3    C1 8356   1.110   0.329  11.173  0.1916 -0.1194  0.0553
  560TMC3    C2 8357   1.005   0.272  11.245  0.2965 -0.3198  0.9864
  560TMC3    C3 8358   1.035   0.213  11.364  0.2911  0.2418  0.5082
  560TMC3    C4 8359   1.233   0.349  11.231 -0.0521  0.5189 -0.5651
  560TMC3    C5 8360   1.257   0.284  11.348  0.5978 -0.4246 -0.1020
  560TMC3    C6 8361   1.166   0.209  11.418  0.0723 -0.1064  0.3126
  560TMC3     C 8362   1.085   0.400  11.048 -0.6065 -0.5313 -0.5414
  560TMC3     O 8363   1.164   0.486  11.011 -0.2350  0.4223  0.1076
  560TMC3     H 8364   0.901   0.281  11.214 -0.6778 -1.7689  3.8359
  560TMC3    H1 8365   1.316   0.384  11.171  0.7726 -0.5830 -0.0687
  560TMC3    H2 8366   1.186   0.161  11.512 -1.3050  0.6414  0.9841
  560TMC3    C7 8367   1.394   0.241  11.374 -0.1857 -0.1316 -0.2701
  560TMC3    C8 8368   0.940   0.106  11.404  0.2759  0.2350 -0.1862
  560TMC3    O1 8369   1.402   0.143  11.442 -0.0401  0.1212 -0.1572
  560TMC3    O2 8370   0.845   0.083  11.335  0.4601 -0.0690 -0.1051
  561TMC3    C1 8371   3.684   4.084  11.264  1.2427  0.0599 -0.4832
  561TMC3    C2 8372   3.611   3.994  11.338 -1.0689 -0.1937  0.1496
  561TMC3    C3 8373   3.537   4.039  11.445 -0.0297  0.0259  1.0090
  561TMC3    C4 8374   3.682   4.215  11.293  0.1278  0.0838 -0.3832
  561TMC3    C5 8375   3.614   4.258  11.406  0.2037 -0.3750 -0.3274
  561TMC3    C6 8376   3.541   4.171  11.487  0.1819  0.0745 -0.6831
  561TMC3     C 8377   3.765   4.023  11.162 -0.5479  0.1054 -1.0071
  561TMC3     O 8378   3.711   3.941  11.088 -0.5038  0.3031 -0.0464
  561TMC3     H 8379   3.612   3.890  11.310  0.6578  0.0818 -0.8257
  561TMC3    H1 8380   3.759   4.276  11.246  1.0689 -0.1682  0.8259
  561TMC3    H2 8381   3.500   4.201  11.582 -0.9618  1.1715 -1.5310
  561TMC3    C7 8382   3.618   4.397  11.425 -0.4322  0.5014  0.6725
  561TMC3    C8 8383   3.449   3.945  11.513 -0.1466  0.0023  0.3004
  561TMC3    O1 8384   3.589   4.433  11.537 -0.2346  0.4243  0.4968
  561TMC3    O2 8385   3.476   3.832  11.476 -0.1853  0.2902  0.2512
  562TMC3    C1 8386   0.340   0.543  16.564  0.0929 -0.1179  0.7766
  562TMC3    C2 8387   0.286   0.669  16.567 -0.3261  0.3845  0.1456
  562TMC3    C3 8388   0.278   0.734  16.449 -0.2247 -0.0758 -0.1980
  562TMC3    C4 8389   0.396   0.491  16.446  0.4761  0.0654 -0.1546
  562TMC3    C5 8390   0.371   0.560  16.330  0.4079  0.0023 -0.6915
  562TMC3    C6 8391   0.311   0.678  16.329  0.3906 -0.3875 -0.0095
  562TMC3     C 8392   0.384   0.502  16.694 -0.1092 -0.2677 -0.3770
  562TMC3     O 8393   0.319   0.525  16.795 -0.3026  0.3013  0.7852
  562TMC3     H 8394   0.254   0.710  16.662  1.0169  1.0491  0.3085
  562TMC3    H1 8395   0.446   0.395  16.454 -1.5091 -0.9568 -0.0871
  562TMC3    H2 8396   0.300   0.731  16.235  1.0565 -0.3611 -0.0725
  562TMC3    C7 8397   0.408   0.508  16.201  0.3198 -0.3444 -0.4064
  562TMC3    C8 8398   0.221   0.869  16.453  0.5251  0.4385 -0.2400
  562TMC3    O1 8399   0.335   0.533  16.104 -0.0692 -0.0566  0.5066
  562TMC3    O2 8400   0.207   0.918  16.567  0.6057 -0.3176 -0.0886
  563MPD2     C 8401   2.473   1.961  15.566  0.2562  0.7462 -0.1824
  563MPD2    C1 8402   2.490   1.923  15.702 -0.3653 -0.6767 -0.3800
  563MPD2    C2 8403   2.599   1.845  15.742 -0.6163 -0.4559  0.8827
  563MPD2    C3 8404   2.684   1.801  15.645  0.0576 -0.4524 -0.2202
  563MPD2    C4 8405   2.660   1.826  15.506  0.0127 -0.2434  0.3272
  563MPD2    C5 8406   2.565   1.915  15.473  0.3529  0.4986  0.2193
  563MPD2     H 8407   2.617   1.804  15.840  0.7768 -2.5252 -0.2422
  563MPD2    H1 8408   2.735   1.815  15.429  0.0087  0.0414  0.2820
  563MPD2    H2 8409   2.395   2.025  15.527  0.7793  1.9202  0.7196
  563MPD2    H3 8410   2.553   1.950  15.371  0.8888 -0.2756 -0.1099
  563MPD2     N 8411   2.775   1.707  15.689  0.4932 -0.3659 -0.0862
  563MPD2    H5 8412   2.783   1.686  15.788  1.4139  0.6126  0.0409
  563MPD2    N1 8413   2.392   1.958  15.796 -0.0474  0.7547  0.2100
  563MPD2    H7 8414   2.299   1.976  15.759  0.9191  2.7669 -1.2490
  564TMC3    C1 8415   2.281   1.904  15.991  0.4965  0.1341 -0.0271
  564TMC3    C2 8416   2.191   1.861  15.897 -0.3645 -1.1628 -1.0619
  564TMC3    C3 8417   2.106   1.760  15.952  0.8678 -0.6463  0.0555
  564TMC3    C4 8418   2.293   1.843  16.115 -1.3108  0.5541  0.4161
  564TMC3    C5 8419   2.222   1.731  16.150  0.3046  0.8712 -1.3569
  564TMC3    C6 8420   2.127   1.691  16.063  0.2299 -0.3690  0.2482
  564TMC3     C 8421   2.403   1.936  15.931  0.1181 -0.0760  0.2539
  564TMC3     O 8422   2.505   1.927  16.000  0.0565  0.0343 -0.1301
  564TMC3     H 8423   2.164   1.909  15.804 -0.0688 -0.6121 -0.8636
  564TMC3    H1 8424   2.376   1.875  16.177 -0.8183 -0.9294  0.5174
  564TMC3    H2 8425   2.055   1.617  16.094  0.0833  0.6634  2.4040
  564TMC3    C7 8426   2.300   1.618  16.194  0.1694  0.0824 -0.6674
  564TMC3    C8 8427   1.992   1.719  15.877  0.2865  0.3056  0.4612
  564TMC3    O1 8428   2.381   1.643  16.284  0.3398 -0.1647  0.6850
  564TMC3    O2 8429   1.909   1.650  15.933  0.6026  0.2992 -0.2500
  565TMC3    C1 8430   2.639   3.328  10.848 -1.2437 -0.0321  0.6031
  565TMC3    C2 8431   2.605   3.303  10.979  0.0434  0.0155  0.1777
  565TMC3    C3 8432   2.490   3.231  10.996 -0.3275 -0.5741 -0.3641
  565TMC3    C4 8433   2.572   3.289  10.742 -0.2327 -0.8413  0.2147
  565TMC3    C5 8434   2.468   3.206  10.767 -0.5696  0.1909  0.2056
  565TMC3    C6 8435   2.421   3.178  10.889  0.8425 -0.4541 -0.4213
  565TMC3     C 8436   2.759   3.402  10.821  0.6346 -0.0340 -1.0149
  565TMC3     O 8437   2.771   3.433  10.702  0.7865 -0.0982  0.9757
  565TMC3     H 8438   2.640   3.362  11.063  1.2305  0.8519 -0.9004
  565TMC3    H1 8439   2.610   3.301  10.641 -1.2809 -0.1149 -0.0892
  565TMC3    H2 8440   2.359   3.090  10.902  1.1932 -0.3026  2.2577
  565TMC3    C7 8441   2.396   3.151  10.651 -0.2205  0.4085  0.4375
  565TMC3    C8 8442   2.464   3.193  11.135  0.2087  0.9446  0.1094
  565TMC3    O1 8443   2.332   3.048  10.662 -0.2433  0.3045  0.7656
  565TMC3    O2 8444   2.549   3.220  11.218 -0.6257  0.3859  0.0111
  566MPD2     C 8445   4.606   4.652  14.157 -0.0755  0.5320 -0.2877
  566MPD2    C1 8446   4.621   0.018  14.074 -0.1942  0.0739 -0.6399
  566MPD2    C2 8447   4.511   0.082  14.020  0.2680  0.5516  0.3526
  566MPD2    C3 8448   4.379   0.035  14.042  0.1382 -0.2369 -0.0024
  566MPD2    C4 8449   4.364   4.669  14.128  0.3401  1.0976  0.5239
  566MPD2    C5 8450   4.475   4.604  14.184  0.0364  0.4635 -0.1752
  566MPD2     H 8451   4.534   0.158  13.947  0.1046  0.3564  0.1022
  566MPD2    H1 8452   4.267   4.629  14.153  0.6179  2.3212  3.5318
  566MPD2    H2 8453   4.690   4.601  14.202 -0.3094  0.1911 -0.2356
  566MPD2    H3 8454   4.456   4.519  14.248  0.2873  1.6425  1.4404
  566MPD2     N 8455   4.254   0.089  14.000  0.2131  0.6501  0.0173
  566MPD2    H5 8456   4.170   0.056  14.046  1.9282 -0.5647  2.2967
  566MPD2    N1 8457   0.019   0.056  14.045  0.6592 -0.1388  0.0284
  566MPD2    H7 8458   0.083   4.730  14.091  1.1161 -0.1865 -0.6602
  567TMC3    C1 8459   0.206   0.152  13.953 -0.5983  0.5668  0.3529
  567TMC3    C2 8460   0.264   0.169  13.832 -0.0177 -0.4982  0.3052
  567TMC3    C3 8461   0.404   0.175  13.838 -1.2879  0.0154 -0.2845
  567TMC3    C4 8462   0.268   0.129  14.073 -0.4488 -0.3573 -0.2114
  567TMC3    C5 8463   0.406   0.148  14.077  0.3891  0.2523  0.3917
  567TMC3    C6 8464   0.468   0.160  13.956  0.3626 -0.3171 -0.3029
  567TMC3     C 8465   0.062   0.146  13.953  0.0341  0.1784  0.2746
  567TMC3     O 8466   0.004   0.218  13.870 -0.1686 -0.1610  0.0692
  567TMC3     H 8467   0.199   0.164  13.745 -1.6055  0.4732  1.4462
  567TMC3    H1 8468   0.212   0.114  14.165  1.0776 -1.5072  0.5327
  567TMC3    H2 8469   0.574   0.178  13.959  0.1336  0.8757  0.8379
  567TMC3    C7 8470   0.491   0.096  14.190  0.1896 -0.6564  0.4064
  567TMC3    C8 8471   0.459   0.259  13.734 -0.4874  0.0016 -0.7026
  567TMC3    O1 8472   0.607   0.062  14.158  0.0749 -0.3269 -0.7260
  567TMC3    O2 8473   0.376   0.337  13.683  0.4866  0.1734 -0.1504
  568MPD2     C 8474   2.833   0.647  16.307  0.8061 -0.1861 -0.0294
  568MPD2    C1 8475   2.711   0.613  16.362  0.1611 -0.2111 -0.1272
  568MPD2    C2 8476   2.599   0.652  16.297  0.3239  0.1919  0.5452
  568MPD2    C3 8477   2.606   0.742  16.193  0.4376  0.0722  0.6457
  568MPD2    C4 8478   2.724   0.791  16.141 -0.0967  0.0916  0.3253
  568MPD2    C5 8479   2.839   0.738  16.198 -0.4422  0.1166  0.2660
  568MPD2     H 8480   2.503   0.617  16.332  1.8651 -0.8064  3.7146
  568MPD2    H1 8481   2.740   0.868  16.067  2.9289  0.4617  1.3805
  568MPD2    H2 8482   2.923   0.619  16.360  0.2250 -1.1656  0.4305
  568MPD2    H3 8483   2.939   0.764  16.166 -0.7605  0.6042 -0.3266
  568MPD2     N 8484   2.478   0.782  16.141 -0.3809  0.6365 -0.5799
  568MPD2    H5 8485   2.396   0.742  16.184  0.8186 -0.1700  0.9666
  568MPD2    N1 8486   2.713   0.522  16.463  0.6347 -0.2018 -0.2069
  568MPD2    H7 8487   2.802   0.482  16.491 -1.2450 -2.6954  2.2348
  569TMC3    C1 8488   2.319   0.911  16.012 -0.1132 -0.5872 -0.6119
  569TMC3    C2 8489   2.264   0.959  16.129  0.7291  0.5124  0.3623
  569TMC3    C3 8490   2.156   1.035  16.120 -0.5142 -0.3075  0.6286
  569TMC3    C4 8491   2.273   0.938  15.886  0.3438  0.5155 -0.0977
  569TMC3    C5 8492   2.165   1.021  15.880  0.7117 -0.3327  0.1873
  569TMC3    C6 8493   2.107   1.075  15.997 -1.2517 -0.2720 -0.4137
  569TMC3     C 8494   2.451   0.854  16.026  0.3446  0.5608 -0.5770
  569TMC3     O 8495   2.527   0.862  15.930  0.3507 -0.2144 -0.1568
  569TMC3     H 8496   2.297   0.931  16.229 -2.8887 -0.6681  1.2284
  569TMC3    H1 8497   2.319   0.912  15.791  1.8017 -0.5835  0.9194
  569TMC3    H2 8498   2.014   1.129  16.003 -1.6861 -1.0502 -0.1297
  569TMC3    C7 8499   2.156   1.108  15.770 -0.0472 -0.0793  0.1138
  569TMC3    C8 8500   2.095   1.083  16.243  0.4133 -0.5928  0.1861
  569TMC3    O1 8501   2.216   1.078  15.662 -0.3779  0.4905 -0.1728
  569TMC3    O2 8502   1.980   1.119  16.244  0.1181  0.4698 -0.5302
  570TMC3    C1 8503   1.806   3.839  16.208 -0.7482 -0.5872 -0.4832
  570TMC3    C2 8504   1.848   3.907  16.099  0.0872  0.1671 -0.8466
  570TMC3    C3 8505   1.943   4.011  16.115 -0.3428  0.2776 -0.3216
  570TMC3    C4 8506   1.842   3.886  16.334 -0.2519 -0.3847 -0.1924
  570TMC3    C5 8507   1.925   3.997  16.347 -0.3476  0.1652  0.4795
  570TMC3    C6 8508   1.972   4.066  16.234  0.0557  0.1820 -0.4397
  570TMC3     C 8509   1.702   3.732  16.189  0.1374 -0.6062  0.1173
  570TMC3     O 8510   1.656   3.711  16.081  0.1302 -0.0653 -0.0042
  570TMC3     H 8511   1.825   3.863  16.003  0.5284  1.1845 -1.4234
  570TMC3    H1 8512   1.798   3.843  16.424 -2.3066 -2.4202 -2.1600
  570TMC3    H2 8513   2.040   4.150  16.242  0.2972 -0.3485  3.2247
  570TMC3    C7 8514   1.940   4.053  16.479  0.5367  0.3146 -0.5293
  570TMC3    C8 8515   2.006   4.081  16.000 -0.2986 -0.4020  0.0552
  570TMC3    O1 8516   1.931   3.982  16.580 -0.1868 -0.0260 -0.3084
  570TMC3    O2 8517   2.082   4.172  16.026  0.3702 -0.9091  0.2041
  571MPD2     C 8518   4.040   0.102   0.306 -0.3225 -0.0187  0.3829
  571MPD2    C1 8519   4.129   0.181   0.232  0.4953 -0.8360  0.0612
  571MPD2    C2 8520   4.190   0.288   0.298  0.3461 -0.2433  0.2425
  571MPD2    C3 8521   4.172   0.298   0.437 -0.4191 -0.9841  0.7222
  571MPD2    C4 8522   4.107   0.204   0.505  0.8235 -0.2551  0.4240
  571MPD2    C5 8523   4.036   0.111   0.440 -0.0222  0.3712 -0.1832
  571MPD2     H 8524   4.249   0.363   0.247  0.1262 -0.8114 -0.8670
  571MPD2    H1 8525   4.092   0.215   0.612  1.3101  0.2600  0.4371
  571MPD2    H2 8526   3.989   0.020   0.256 -5.1117  3.4026 -0.3607
  571MPD2    H3 8527   3.972   0.044   0.496 -0.4789  3.2800  2.7560
  571MPD2     N 8528   4.222   0.410   0.512  0.0845  0.6274  0.2294
  571MPD2    H5 8529   4.210   0.405   0.612 -0.4065 -1.6045  0.0519
  571MPD2    N1 8530   4.151   0.149   0.094 -0.8499  0.1658 -0.0701
  571MPD2    H7 8531   4.104   0.065   0.063  1.4361  0.5658 -4.5529
  572TMC3    C1 8532   4.276   0.638   0.550 -0.5420  0.8366 -0.2814
  572TMC3    C2 8533   4.179   0.643   0.648 -0.2322  0.1750  0.5087
  572TMC3    C3 8534   4.161   0.760   0.708  0.0452 -0.6077  0.2418
  572TMC3    C4 8535   4.355   0.749   0.528 -1.0410 -0.3749 -0.0580
  572TMC3    C5 8536   4.346   0.860   0.605  0.0782  0.3620 -0.1495
  572TMC3    C6 8537   4.240   0.868   0.688 -0.4070 -0.7786 -0.3460
  572TMC3     C 8538   4.278   0.527   0.455  0.3085 -0.1825 -0.7088
  572TMC3     O 8539   4.311   0.557   0.339 -0.5279  0.1281 -0.3171
  572TMC3     H 8540   4.096   0.575   0.634 -0.3845  0.1723  1.4859
  572TMC3    H1 8541   4.437   0.743   0.457 -2.4390 -3.0858 -1.4663
  572TMC3    H2 8542   4.223   0.963   0.738  2.9474 -0.7130  0.7083
  572TMC3    C7 8543   4.400   0.978   0.544  0.0879  0.3285  0.2662
  572TMC3    C8 8544   4.099   0.749   0.842  0.0425 -0.3412  0.3626
  572TMC3    O1 8545   4.433   0.971   0.427  0.5040 -0.2502  0.2828
  572TMC3    O2 8546   4.081   0.636   0.875 -0.1856  0.2911  0.5717
  573MPD2     C 8547   1.022   1.521   0.297  0.5255  0.4043 -0.1904
  573MPD2    C1 8548   0.902   1.583   0.290 -0.3785  0.0860  0.0415
  573MPD2    C2 8549   0.860   1.634   0.167 -0.2146  0.6113  0.4322
  573MPD2    C3 8550   0.942   1.629   0.055 -0.6386 -0.5068 -0.7284
  573MPD2    C4 8551   1.068   1.572   0.068  0.3175  0.2358  1.0483
  573MPD2    C5 8552   1.109   1.519   0.191 -0.1307  0.4765  0.3783
  573MPD2     H 8553   0.765   1.686   0.161 -0.7485 -0.5002 -0.6876
  573MPD2    H1 8554   1.136   1.562  17.733 -0.7131 -1.0267  0.3627
  573MPD2    H2 8555   1.067   1.489   0.390  0.8455  0.2749 -0.3907
  573MPD2    H3 8556   1.208   1.479   0.206  0.4723  1.1005 -1.9095
  573MPD2     N 8557   0.907   1.694  17.685  0.0580 -0.0757 -0.1148
  573MPD2    H5 8558   0.974   1.677  17.611 -1.4963  0.0513 -1.5761
  573MPD2    N1 8559   0.831   1.601   0.410 -0.2631 -0.2237 -0.2971
  573MPD2    H7 8560   0.884   1.581   0.494 -1.1419  0.3080  0.3844
  574TMC3    C1 8561   0.780   1.772  17.510 -0.6232 -0.3381  0.4666
  574TMC3    C2 8562   0.662   1.746  17.450 -0.3716  0.2141 -0.4252
  574TMC3    C3 8563   0.648   1.782  17.320  0.2543  0.3774  0.5357
  574TMC3    C4 8564   0.885   1.837  17.448  0.9666  0.4199  0.5212
  574TMC3    C5 8565   0.872   1.864  17.316 -0.8015  0.2078  0.6958
  574TMC3    C6 8566   0.749   1.838  17.253  0.3327 -0.2841  0.2267
  574TMC3     C 8567   0.788   1.746  17.647  0.2863  0.2490 -0.5807
  574TMC3     O 8568   0.684   1.757  17.713 -0.2852  0.6444  0.4899
  574TMC3     H 8569   0.580   1.712  17.512  0.8487 -1.5013  0.2635
  574TMC3    H1 8570   0.968   1.865  17.512  1.6842 -1.2420  0.2975
  574TMC3    H2 8571   0.731   1.890  17.160  0.4485 -1.4623 -0.4534
  574TMC3    C7 8572   0.954   1.979  17.277  0.2624 -0.1646  0.1382
  574TMC3    C8 8573   0.514   1.807  17.273  0.8990 -0.0820  0.1800
  574TMC3    O1 8574   1.017   2.031  17.368  0.3426  0.2215  0.7786
  574TMC3    O2 8575   0.506   1.905  17.199  0.0363  0.4828 -0.0014
  575TMC3    C1 8576   2.714   3.009  11.964 -0.1034  0.8510  0.4272
  575TMC3    C2 8577   2.651   2.902  12.027  0.0974  0.3462 -0.0431
  575TMC3    C3 8578   2.535   2.852  11.972 -0.7462 -0.6968 -0.1924
  575TMC3    C4 8579   2.650   3.072  11.859 -0.8963 -0.1581 -0.0227
  575TMC3    C5 8580   2.533   3.021  11.813  0.1757 -0.3577 -0.5819
  575TMC3    C6 8581   2.472   2.906  11.868 -0.6926  0.4941  0.1742
  575TMC3     C 8582   2.860   3.003  11.950  0.0495 -0.2429 -0.2762
  575TMC3     O 8583   2.919   2.899  11.981  0.1100 -0.2885 -0.0774
  575TMC3     H 8584   2.699   2.874  12.121  0.2706  0.4753 -0.0929
  575TMC3    H1 8585   2.688   3.152  11.796 -0.4801  2.4672  3.5903
  575TMC3    H2 8586   2.395   2.849  11.817 -0.3891  0.0484  0.2137
  575TMC3    C7 8587   2.492   3.067  11.679  0.5545 -0.1848  0.0211
  575TMC3    C8 8588   2.468   2.752  12.048  0.1950  0.0670 -0.6992
  575TMC3    O1 8589   2.562   3.159  11.626  0.0203 -0.3766  0.3687
  575TMC3    O2 8590   2.535   2.699  12.137 -0.7236  0.3510  0.1101
  576MPD2     C 8591   2.895   3.985  12.769  0.4002 -0.2949  0.9614
  576MPD2    C1 8592   2.869   4.113  12.723  0.4195  0.3971  0.2066
  576MPD2    C2 8593   2.872   4.219  12.813 -0.2857  0.9664 -0.3057
  576MPD2    C3 8594   2.874   4.195  12.948 -0.1882  0.3624 -0.3940
  576MPD2    C4 8595   2.890   4.064  12.991  0.3221  0.3053 -0.1208
  576MPD2    C5 8596   2.905   3.964  12.903  0.4418  0.2997  0.2273
  576MPD2     H 8597   2.855   4.322  12.783 -1.1435  0.5310 -1.2878
  576MPD2    H1 8598   2.919   4.038  13.092  0.7997  1.3265  0.0095
  576MPD2    H2 8599   2.921   3.901  12.706  0.1415  0.9841 -0.8737
  576MPD2    H3 8600   2.934   3.864  12.933  3.0681  1.5809  2.0007
  576MPD2     N 8601   2.878   4.311  13.035 -0.5029 -0.1420  0.5978
  576MPD2    H5 8602   2.879   4.405  12.999  1.1527 -0.4928 -0.2477
  576MPD2    N1 8603   2.852   4.139  12.588 -0.1428 -0.0648 -0.8490
  576MPD2    H7 8604   2.858   4.236  12.558 -1.3478  0.9206  2.0976
  577TMC3    C1 8605   2.818   4.090  12.351 -0.6587 -0.2167 -0.5880
  577TMC3    C2 8606   2.836   3.993  12.256  0.5512  0.1548 -0.9193
  577TMC3    C3 8607   2.863   4.032  12.128 -0.2516  0.5282 -0.3977
  577TMC3    C4 8608   2.814   4.221  12.325 -0.2752  0.4831 -0.2642
  577TMC3    C5 8609   2.830   4.250  12.185  0.6721  0.0626  0.0989
  577TMC3    C6 8610   2.850   4.157  12.089  0.4070  0.1750  0.0479
  577TMC3     C 8611   2.836   4.043  12.493 -0.5780  0.1475 -0.1416
  577TMC3     O 8612   2.839   3.923  12.510 -0.7387  0.6584 -0.0732
  577TMC3     H 8613   2.823   3.887  12.273 -0.1651  0.3370 -0.3210
  577TMC3    H1 8614   2.796   4.303  12.393  2.3975  1.9191 -1.2731
  577TMC3    H2 8615   2.864   4.185  11.985  0.4677  0.3941  0.1152
  577TMC3    C7 8616   2.857   4.387  12.158  0.1950 -0.4255  0.2945
  577TMC3    C8 8617   2.929   3.937  12.038 -0.2888  0.4708  0.0836
  577TMC3    O1 8618   2.908   4.451  12.252  0.0082  0.2089  0.1216
  577TMC3    O2 8619   2.901   3.818  12.051  0.0578  0.6501  0.5660
  578MPD2     C 8620   0.999   3.920   1.364 -0.5468  0.4760 -0.0806
  578MPD2    C1 8621   1.099   3.935   1.272  0.0503  0.2390  0.1418
  578MPD2    C2 8622   1.224   3.891   1.300  0.3569  0.4439  0.3192
  578MPD2    C3 8623   1.253   3.823   1.413  0.1622  0.2012 -0.4837
  578MPD2    C4 8624   1.159   3.806   1.509  0.4668 -0.0192 -0.2733
  578MPD2    C5 8625   1.028   3.858   1.484  0.1051 -0.0706  0.6074
  578MPD2     H 8626   1.299   3.886   1.222 -0.5280 -0.7113 -0.4607
  578MPD2    H1 8627   1.173   3.755   1.604 -0.1444  0.5041  0.0941
  578MPD2    H2 8628   0.897   3.949   1.343 -0.8102  1.1023  2.0512
  578MPD2    H3 8629   0.945   3.843   1.553  0.0228  1.6851  0.8970
  578MPD2     N 8630   1.382   3.765   1.421 -0.1943  0.4908  0.2028
  578MPD2    H5 8631   1.435   3.784   1.336  0.6388  3.1035  1.3126
  578MPD2    N1 8632   1.075   4.010   1.153  0.4061 -0.2264  0.5056
  578MPD2    H7 8633   0.992   4.068   1.163 -0.7605 -1.3928 -2.4274
  579TMC3    C1 8634   1.588   3.674   1.494  0.3508 -0.6604 -0.0212
  579TMC3    C2 8635   1.679   3.662   1.588  0.0750  0.1327 -0.3895
  579TMC3    C3 8636   1.803   3.622   1.554  0.7340  0.6579 -0.7379
  579TMC3    C4 8637   1.613   3.630   1.362 -0.9070  0.1766 -0.1494
  579TMC3    C5 8638   1.730   3.571   1.336 -0.4802  0.6693 -0.0129
  579TMC3    C6 8639   1.829   3.564   1.429 -0.5336 -0.6177 -0.3871
  579TMC3     C 8640   1.454   3.712   1.530  0.5057 -0.2016 -0.1738
  579TMC3     O 8641   1.425   3.727   1.651  0.1437  0.2951 -0.5846
  579TMC3     H 8642   1.654   3.688   1.690  1.4858 -1.0945  0.2573
  579TMC3    H1 8643   1.538   3.639   1.284 -0.2921  0.7334 -0.6797
  579TMC3    H2 8644   1.929   3.533   1.401  0.4699  1.7645  0.5103
  579TMC3    C7 8645   1.761   3.525   1.199 -0.9633 -0.2156 -0.1262
  579TMC3    C8 8646   1.914   3.691   1.620  0.6156 -0.3791  0.5159
  579TMC3    O1 8647   1.878   3.493   1.188 -0.2119 -0.2508 -0.0027
  579TMC3    O2 8648   1.899   3.723   1.736  0.3544 -1.0405 -0.6043
  580TMC3    C1 8649   0.684   3.368  12.318 -0.3877  0.2460 -0.3121
  580TMC3    C2 8650   0.784   3.456  12.311  0.5121 -0.9315 -0.1948
  580TMC3    C3 8651   0.864   3.467  12.422 -0.0742  0.3193 -0.5035
  580TMC3    C4 8652   0.668   3.281  12.423  0.2890  0.8870 -0.2433
  580TMC3    C5 8653   0.757   3.290  12.522 -0.0202  0.7471 -0.9379
  580TMC3    C6 8654   0.854   3.390  12.531 -0.0637 -0.5619  0.5422
  580TMC3     C 8655   0.569   3.373  12.228  0.3066  1.0657  0.1880
  580TMC3     O 8656   0.596   3.425  12.125 -0.2128 -0.5353 -0.1909
  580TMC3     H 8657   0.787   3.528  12.230 -1.3115 -0.2890  0.3221
  580TMC3    H1 8658   0.607   3.192  12.416  0.3322  0.8985 -0.7571
  580TMC3    H2 8659   0.929   3.394  12.609  2.8129  0.8480 -2.3100
  580TMC3    C7 8660   0.817   3.174  12.589 -0.1112  0.7569  0.2163
  580TMC3    C8 8661   0.989   3.547  12.415  0.0929  0.3715 -0.2023
  580TMC3    O1 8662   0.875   3.194  12.693 -0.4047  0.9004  0.1964
  580TMC3    O2 8663   1.029   3.580  12.528 -0.3065 -0.2745 -0.5206
  581MPD2     C 8664   3.463   3.226  14.691  0.2468  0.1500  0.3315
  581MPD2    C1 8665   3.429   3.266  14.819  0.0473  0.0303  0.6745
  581MPD2    C2 8666   3.310   3.333  14.843 -0.0907 -0.0577  1.0358
  581MPD2    C3 8667   3.220   3.348  14.735  0.8000 -0.0981  0.3086
  581MPD2    C4 8668   3.256   3.297  14.607 -0.5781  0.4609 -0.1909
  581MPD2    C5 8669   3.376   3.239  14.588  0.1275 -0.1037  0.0344
  581MPD2     H 8670   3.280   3.360  14.944  2.0810  1.0027  1.3843
  581MPD2    H1 8671   3.187   3.303  14.523 -0.2376  3.3036 -0.2706
  581MPD2    H2 8672   3.558   3.178  14.669  0.3766  0.6364 -0.1966
  581MPD2    H3 8673   3.396   3.196  14.490 -1.8747 -1.1982  0.1172
  581MPD2     N 8674   3.093   3.411  14.761  0.6293  0.0422  0.4128
  581MPD2    H5 8675   3.085   3.452  14.854 -1.4296  1.4659 -0.3909
  581MPD2    N1 8676   3.518   3.230  14.919 -0.3446 -0.1497 -0.8315
  581MPD2    H7 8677   3.603   3.182  14.895 -0.1496  0.3734 -1.2001
  582TMC3    C1 8678   3.605   3.177  15.126  0.2894  0.4279 -0.0564
  582TMC3    C2 8679   3.602   3.202  15.261 -0.0184  0.0664 -0.5371
  582TMC3    C3 8680   3.682   3.118  15.334 -0.1456 -0.1011 -0.4162
  582TMC3    C4 8681   3.673   3.064  15.071 -0.5017 -0.2591  0.1226
  582TMC3    C5 8682   3.722   2.969  15.148  0.0526 -0.5134 -0.4549
  582TMC3    C6 8683   3.731   3.001  15.279 -0.0872 -0.4699 -0.2510
  582TMC3     C 8684   3.495   3.239  15.051  0.2831  0.4924  0.0780
  582TMC3     O 8685   3.390   3.277  15.106 -0.1970  0.0288 -0.0094
  582TMC3     H 8686   3.553   3.281  15.317 -0.3464  0.1425 -0.9288
  582TMC3    H1 8687   3.654   3.030  14.969  0.5835 -1.6269  0.3740
  582TMC3    H2 8688   3.770   2.920  15.339 -1.8187 -0.6195  0.6767
  582TMC3    C7 8689   3.637   2.853  15.120 -0.3024 -0.4945  0.0918
  582TMC3    C8 8690   3.692   3.117  15.481 -0.1295 -0.2122 -0.2973
  582TMC3    O1 8691   3.643   2.802  15.011 -0.0194  0.2373  0.1461
  582TMC3    O2 8692   3.605   3.165  15.547 -0.0347 -0.0786  0.2096
  583MPD2     C 8693   3.410   4.540  16.735  0.0533 -0.8674  0.0133
  583MPD2    C1 8694   3.438   4.654  16.668  0.1495 -0.4462 -0.0833
  583MPD2    C2 8695   3.349   0.025  16.692  0.3039  0.4877  0.3736
  583MPD2    C3 8696   3.232   0.009  16.762  0.1992 -0.3042 -0.6328
  583MPD2    C4 8697   3.215   4.625  16.830 -0.0087 -0.0121  0.3835
  583MPD2    C5 8698   3.293   4.523  16.811 -0.3193 -0.4060  0.0413
  583MPD2     H 8699   3.373   0.119  16.642 -1.2088  0.3105 -0.7023
  583MPD2    H1 8700   3.131   4.617  16.897  0.4385 -0.7822  0.8499
  583MPD2    H2 8701   3.475   4.454  16.723  1.3542  0.1668 -0.3608
  583MPD2    H3 8702   3.282   4.430  16.865  0.0738 -0.3307  0.2553
  583MPD2     N 8703   3.154   0.120  16.798  0.0727 -0.1447 -0.5889
  583MPD2    H5 8704   3.154   0.201  16.737 -1.0814  1.1986  1.1644
  583MPD2    N1 8705   3.553   4.670  16.586 -0.3817 -0.5126 -0.1136
  583MPD2    H7 8706   3.567   0.020  16.536 -0.4669 -0.7539 -0.5567
  584TMC3    C1 8707   2.983   0.250  16.908 -0.1367  0.2851  0.2661
  584TMC3    C2 8708   3.024   0.371  16.853 -0.2325  0.5004  0.0924
  584TMC3    C3 8709   3.000   0.490  16.917  0.2673 -0.3230  0.1700
  584TMC3    C4 8710   2.891   0.258  17.010 -0.3055 -0.2364  0.4563
  584TMC3    C5 8711   2.849   0.380  17.059  0.1275  0.3748  0.2617
  584TMC3    C6 8712   2.912   0.500  17.023 -0.6394  0.4485  0.4458
  584TMC3     C 8713   3.065   0.133  16.902 -0.1352  0.5092  0.2096
  584TMC3     O 8714   3.041   0.050  16.990 -0.0210  0.1675 -0.5996
  584TMC3     H 8715   3.105   0.375  16.781  0.0561 -1.4345  0.3237
  584TMC3    H1 8716   2.846   0.171  17.057  0.5195  0.1098  1.8735
  584TMC3    H2 8717   2.895   0.600  17.061  0.3659  0.0479  1.9651
  584TMC3    C7 8718   2.802   0.372  17.195  0.0103  0.1356 -0.4256
  584TMC3    C8 8719   3.056   0.605  16.854  0.7110 -0.1121 -0.2746
  584TMC3    O1 8720   2.857   0.287  17.266  0.8026 -1.1491  0.5091
  584TMC3    O2 8721   3.064   0.606  16.734 -0.0823 -0.1917  0.3032
  585MPD2     C 8722   2.846   2.658   0.732 -0.4256 -0.6668  0.6756
  585MPD2    C1 8723   2.952   2.695   0.647  0.0866 -0.3696 -0.2929
  585MPD2    C2 8724   2.933   2.683   0.515 -0.0781  0.1923 -0.2036
  585MPD2    C3 8725   2.818   2.620   0.467  0.5859 -0.7408 -0.3681
  585MPD2    C4 8726   2.724   2.584   0.554 -0.4603  0.1505 -0.0537
  585MPD2    C5 8727   2.731   2.606   0.688  0.4117 -0.3111  0.1810
  585MPD2     H 8728   3.006   2.723   0.445  3.0494 -0.2436  2.8322
  585MPD2    H1 8729   2.634   2.545   0.509  0.2362 -3.6414  1.8848
  585MPD2    H2 8730   2.856   2.688   0.835  1.2764  0.0499  0.3099
  585MPD2    H3 8731   2.653   2.578   0.758  0.4372 -0.3693  0.1857
  585MPD2     N 8732   2.789   2.605   0.327 -0.2631  0.1493  0.3254
  585MPD2    H5 8733   2.692   2.592   0.302 -0.1445  1.4625 -0.8559
  585MPD2    N1 8734   3.039   2.790   0.705  0.2142 -0.1346 -0.6433
  585MPD2    H7 8735   3.007   2.834   0.791 -0.0541 -1.4736 -0.0710
  586TMC3    C1 8736   2.835   2.640   0.101  0.3890 -0.4349 -0.0289
  586TMC3    C2 8737   2.928   2.646  17.748 -0.9526  0.8838  0.0511
  586TMC3    C3 8738   2.911   2.728  17.642  0.4083 -0.2269 -0.3574
  586TMC3    C4 8739   2.726   2.723   0.089 -0.3467 -1.3663  0.0239
  586TMC3    C5 8740   2.714   2.806  17.732 -0.1648 -0.1410 -0.8862
  586TMC3    C6 8741   2.804   2.810  17.630  0.4891  0.2726 -0.0062
  586TMC3     C 8742   2.885   2.634   0.233  0.2149  0.0911  0.3598
  586TMC3     O 8743   3.004   2.607   0.251 -0.0547 -0.0484  0.2002
  586TMC3     H 8744   3.016   2.583   0.012 -2.1947 -1.0023 -0.7825
  586TMC3    H1 8745   2.648   2.738   0.163  1.9439  0.1176  2.1494
  586TMC3    H2 8746   2.780   2.878  17.549  0.7052  0.8130  0.3840
  586TMC3    C7 8747   2.588   2.888  17.720 -0.2662  0.2561  0.2913
  586TMC3    C8 8748   3.023   2.747  17.560 -0.2154  0.0331 -0.3439
  586TMC3    O1 8749   2.483   2.837   0.015  0.1276  0.1014 -0.7535
  586TMC3    O2 8750   3.076   2.641  17.537 -0.0507 -0.0276 -0.2388
  587TMC3    C1 8751   4.667   2.347  16.096 -0.1679  0.1811 -0.0769
  587TMC3    C2 8752   0.009   2.378  16.200  0.7896  0.4790  0.8331
  587TMC3    C3 8753   0.134   2.341  16.198 -1.1355  0.0314 -0.7288
  587TMC3    C4 8754   4.715   2.269  15.991 -1.3267 -0.0697  0.1366
  587TMC3    C5 8755   0.111   2.243  15.983 -0.1470  0.4009 -0.2456
  587TMC3    C6 8756   0.192   2.279  16.090  0.5011  0.5689  0.4660
  587TMC3     C 8757   4.535   2.412  16.076 -0.8064 -0.0562  0.0636
  587TMC3     O 8758   4.478   2.446  16.182 -0.4030 -0.1864  0.0666
  587TMC3     H 8759   4.693   2.405  16.290  0.4150  1.1897  0.3949
  587TMC3    H1 8760   4.650   2.233  15.913  1.6291 -2.3441 -1.2938
  587TMC3    H2 8761   0.299   2.261  16.090  0.2274 -1.0496  1.7050
  587TMC3    C7 8762   0.154   2.134  15.897  0.3120 -0.2520  0.1542
  587TMC3    C8 8763   0.225   2.393  16.296  0.5896  0.3615  0.3333
  587TMC3    O1 8764   0.071   2.070  15.835 -0.3222  0.3617 -0.5358
  587TMC3    O2 8765   0.330   2.332  16.327  0.0964 -0.0805  0.6558
  588TMC3    C1 8766   2.195   0.799  10.257  0.1897  0.2056 -0.0955
  588TMC3    C2 8767   2.152   0.676  10.220 -0.5659 -0.1044  0.8717
  588TMC3    C3 8768   2.227   0.576  10.262 -0.0323 -1.0690 -1.6322
  588TMC3    C4 8769   2.313   0.830  10.314  1.1178  0.5998  0.3450
  588TMC3    C5 8770   2.391   0.725  10.339  0.2333 -0.7924 -0.3976
  588TMC3    C6 8771   2.359   0.596  10.314  1.0416  0.6588  0.7700
  588TMC3     C 8772   2.098   0.916  10.258 -0.0299  0.2088 -0.0084
  588TMC3     O 8773   2.013   0.938  10.172 -0.3868  0.4134  0.3153
  588TMC3     H 8774   2.048   0.660  10.195 -0.5434  1.2510 -0.0959
  588TMC3    H1 8775   2.343   0.934  10.324  1.0492  0.6296  0.2484
  588TMC3    H2 8776   2.432   0.516  10.317  1.2359  0.8114  0.1167
  588TMC3    C7 8777   2.504   0.742  10.428  0.9139  0.2926 -0.3473
  588TMC3    C8 8778   2.186   0.445  10.238 -0.6388 -0.3030 -0.1956
  588TMC3    O1 8779   2.586   0.648  10.446 -0.7974  0.1443  0.5812
  588TMC3    O2 8780   2.102   0.434  10.149 -0.3724  0.3935 -0.4349
  589TMC3    C1 8781   1.799   2.159   1.062  0.4290  0.7363  0.0666
  589TMC3    C2 8782   1.911   2.146   1.149 -0.2750 -0.4276  0.1332
  589TMC3    C3 8783   2.008   2.057   1.115  0.1772  0.8884  0.8223
  589TMC3    C4 8784   1.795   2.077   0.954 -0.4284  0.2037 -0.7388
  589TMC3    C5 8785   1.895   1.985   0.922 -1.0586  0.4462 -0.1499
  589TMC3    C6 8786   1.998   1.972   1.007 -0.3182 -0.1506  0.0463
  589TMC3     C 8787   1.694   2.259   1.069  0.1099 -0.6292  0.0117
  589TMC3     O 8788   1.613   2.251   0.983  0.5775  0.2307  0.1278
  589TMC3     H 8789   1.918   2.203   1.240  1.7640  0.6314 -0.7027
  589TMC3    H1 8790   1.715   2.084   0.881  0.3705 -0.0438 -1.6382
  589TMC3    H2 8791   2.060   1.884   0.999 -0.3807 -0.2358  0.5102
  589TMC3    C7 8792   1.855   1.879   0.832  0.3376 -0.2181  0.3062
  589TMC3    C8 8793   2.108   2.038   1.215  0.7670  0.0083 -0.1123
  589TMC3    O1 8794   1.739   1.873   0.805 -0.7262 -0.3306 -0.5072
  589TMC3    O2 8795   2.095   2.091   1.327  0.0016  0.4867 -0.1766
  590MPD2     C 8796   1.306   0.809  16.506 -0.4145  0.2420  0.1711
  590MPD2    C1 8797   1.265   0.843  16.381  0.1580  0.2992 -0.3274
  590MPD2    C2 8798   1.350   0.919  16.299 -0.0265 -0.9478  0.2453
  590MPD2    C3 8799   1.472   0.969  16.355  0.7342  0.4171 -0.1912
  590MPD2    C4 8800   1.504   0.934  16.484  0.5219  0.2151 -0.5108
  590MPD2    C5 8801   1.430   0.853  16.555 -0.2103 -0.5772 -0.3116
  590MPD2     H 8802   1.318   0.937  16.197  0.5829  1.6220  0.5133
  590MPD2    H1 8803   1.599   0.971  16.522  1.6811 -1.0169 -2.2170
  590MPD2    H2 8804   1.240   0.751  16.570  1.9730 -1.8613  0.6983
  590MPD2    H3 8805   1.460   0.818  16.653 -2.0512  1.2319  0.8978
  590MPD2     N 8806   1.556   1.056  16.278  0.5897 -0.1868 -0.0086
  590MPD2    H5 8807   1.551   1.056  16.177  0.6614  4.3584  0.0130
  590MPD2    N1 8808   1.134   0.808  16.337  0.3192  0.5986  0.1359
  590MPD2    H7 8809   1.071   0.772  16.409  0.2637  0.0731 -0.1781
  591TMC3    C1 8810   1.691   1.250  16.234  0.1577 -0.0886 -0.2886
  591TMC3    C2 8811   1.707   1.208  16.105  0.1313 -0.4576 -0.0656
  591TMC3    C3 8812   1.733   1.298  16.005  0.0345 -0.4654 -0.1590
  591TMC3    C4 8813   1.687   1.384  16.267 -0.2350 -0.0171 -0.0458
  591TMC3    C5 8814   1.703   1.469  16.163 -0.1890  0.3774  0.2419
  591TMC3    C6 8815   1.715   1.433  16.031  0.3091 -0.1921 -0.1561
  591TMC3     C 8816   1.643   1.154  16.332 -0.2361 -0.5543  0.8125
  591TMC3     O 8817   1.644   1.197  16.447 -0.0050  0.2399 -0.1390
  591TMC3     H 8818   1.723   1.102  16.086  1.5528 -0.3924  0.7279
  591TMC3    H1 8819   1.653   1.419  16.364 -1.6810  2.5927 -1.5030
  591TMC3    H2 8820   1.727   1.502  15.948 -0.9170  2.3731  1.8256
  591TMC3    C7 8821   1.630   1.594  16.190 -1.0096 -0.4404 -0.5024
  591TMC3    C8 8822   1.749   1.252  15.871  0.8107  0.0121 -0.4322
  591TMC3    O1 8823   1.541   1.604  16.276 -0.0304  0.7745  0.6676
  591TMC3    O2 8824   1.793   1.136  15.864 -0.4475 -0.0574 -0.2812
  592MPD2     C 8825   1.388   3.399  11.300  0.3306 -0.6990  0.0035
  592MPD2    C1 8826   1.425   3.381  11.430  0.6470  0.0444 -0.0281
  592MPD2    C2 8827   1.361   3.291  11.514 -0.5187  0.3813  0.3517
  592MPD2    C3 8828   1.264   3.206  11.461  0.0688 -0.7866  0.0421
  592MPD2    C4 8829   1.229   3.218  11.329 -0.3426  0.0832  0.4525
  592MPD2    C5 8830   1.293   3.320  11.255 -0.3356 -0.6760 -0.7636
  592MPD2     H 8831   1.387   3.276  11.618  1.3423  0.4072 -0.0934
  592MPD2    H1 8832   1.166   3.149  11.274 -0.1058 -0.7388  1.2125
  592MPD2    H2 8833   1.427   3.467  11.226 -1.9735  0.6618  0.0333
  592MPD2    H3 8834   1.255   3.313  11.153 -0.9452 -0.6105 -0.5442
  592MPD2     N 8835   1.216   3.105  11.550 -0.5311  0.1792  0.2361
  592MPD2    H5 8836   1.247   3.110  11.647  0.7394 -0.5017 -0.1233
  592MPD2    N1 8837   1.526   3.463  11.477  0.2371  0.7034 -0.1516
  592MPD2    H7 8838   1.552   3.543  11.421  1.5025 -0.2661 -0.9430
  593TMC3    C1 8839   1.651   3.561  11.653  1.3437  0.0210  0.6647
  593TMC3    C2 8840   1.653   3.568  11.791 -0.2095 -0.2468  0.4572
  593TMC3    C3 8841   1.707   3.685  11.844  0.9362  0.0017 -0.3355
  593TMC3    C4 8842   1.711   3.646  11.571  0.1161 -0.0012  0.2538
  593TMC3    C5 8843   1.780   3.760  11.623 -0.4336 -0.0836  0.7106
  593TMC3    C6 8844   1.762   3.784  11.760  1.0269 -0.0835  0.6607
  593TMC3     C 8845   1.577   3.450  11.605  0.4451 -0.2415  0.6336
  593TMC3     O 8846   1.584   3.353  11.684 -0.8042 -0.6280  0.1431
  593TMC3     H 8847   1.602   3.501  11.859  0.8372  0.1305  1.6307
  593TMC3    H1 8848   1.733   3.630  11.466  0.9982  0.2658  0.3965
  593TMC3    H2 8849   1.808   3.875  11.797  1.4760  0.5188 -1.3821
  593TMC3    C7 8850   1.799   3.876  11.542  0.0467 -0.2920 -0.1193
  593TMC3    C8 8851   1.666   3.723  11.981 -0.1384  0.7843  0.2938
  593TMC3    O1 8852   1.856   3.973  11.593 -0.3331 -0.0383  0.2366
  593TMC3    O2 8853   1.565   3.669  12.026  0.1631  0.2399 -0.6090
  594MPD2     C 8854   0.300   1.393  14.554  0.4702 -0.4050 -0.1382
  594MPD2    C1 8855   0.237   1.505  14.611 -0.4128 -0.0771  0.5787
  594MPD2    C2 8856   0.305   1.625  14.623 -0.3179  0.0092 -0.4634
  594MPD2    C3 8857   0.428   1.639  14.556  0.4432 -0.1808 -0.4358
  594MPD2    C4 8858   0.474   1.534  14.479 -0.1551 -0.5421 -0.6432
  594MPD2    C5 8859   0.408   1.414  14.478  0.1085 -0.4841  0.1949
  594MPD2     H 8860   0.264   1.697  14.692  0.7852  0.9310 -0.7713
  594MPD2    H1 8861   0.562   1.531  14.416 -1.1049  0.9978 -2.0408
  594MPD2    H2 8862   0.251   1.297  14.548  4.1775 -2.2301 -1.5557
  594MPD2    H3 8863   0.440   1.334  14.412  0.3495 -1.5700  1.6327
  594MPD2     N 8864   0.498   1.761  14.561 -0.3881 -0.3888 -0.1707
  594MPD2    H5 8865   0.463   1.828  14.629 -3.2035 -0.7604 -1.2970
  594MPD2    N1 8866   0.109   1.495  14.669  0.9842 -0.2358 -0.0208
  594MPD2    H7 8867   0.069   1.404  14.690  0.3588 -0.0418 -0.3758
  595TMC3    C1 8868   0.857   2.063  14.510  0.1083 -0.7084 -0.0475
  595TMC3    C2 8869   0.789   1.955  14.459  0.3194 -0.2329  0.4851
  595TMC3    C3 8870   0.659   1.930  14.507 -0.9454  0.7862 -0.1278
  595TMC3    C4 8871   0.797   2.160  14.588  0.1787 -0.1373 -0.2355
  595TMC3    C5 8872   0.667   2.150  14.612  1.2150  0.0567  0.6536
  595TMC3    C6 8873   0.595   2.035  14.579  0.1817 -0.3136 -0.1526
  595TMC3     C 8874   0.984   2.103  14.448  0.2305  0.5615 -0.5421
  595TMC3     O 8875   1.004   2.221  14.432  0.5078 -0.1349 -0.2673
  595TMC3     H 8876   0.841   1.885  14.395  2.1927 -0.4741  2.2384
  595TMC3    H1 8877   0.852   2.245  14.627 -2.0838  0.2614  2.0578
  595TMC3    H2 8878   0.493   2.035  14.614  0.6120  0.1148  1.0987
  595TMC3    C7 8879   0.589   2.271  14.636 -0.6370 -0.7305 -0.2170
  595TMC3    C8 8880   0.600   1.802  14.470  0.3604  0.0496  0.5665
  595TMC3    O1 8881   0.472   2.266  14.663  0.9216  0.2343 -0.2688
  595TMC3    O2 8882   0.651   1.745  14.374 -0.4668 -0.3988 -0.2083
  596MPD2     C 8883   4.424   4.490  16.774 -0.1672 -0.1338  0.2005
  596MPD2    C1 8884   4.455   4.615  16.723  0.0017 -1.0556 -0.1014
  596MPD2    C2 8885   4.520   4.630  16.603 -0.2873 -0.5475  0.3943
  596MPD2    C3 8886   4.572   4.513  16.541 -0.1943 -0.2883  0.2681
  596MPD2    C4 8887   4.563   4.394  16.599  0.0877 -0.5127  0.0085
  596MPD2    C5 8888   4.493   4.384  16.718  0.6677  1.1863  0.1701
  596MPD2     H 8889   4.535   4.733  16.572 -1.0409 -1.2689 -2.4548
  596MPD2    H1 8890   4.606   4.303  16.558 -1.1940 -0.4494 -1.4646
  596MPD2    H2 8891   4.371   4.467  16.865 -1.2514  2.1150  0.1165
  596MPD2    H3 8892   4.470   4.291  16.769 -0.0286  1.7132  0.8135
  596MPD2     N 8893   4.619   4.524  16.404  0.4122 -0.2459  1.0053
  596MPD2    H5 8894   4.648   4.435  16.364  1.3245  0.5837 -0.1426
  596MPD2    N1 8895   4.406   4.732  16.785 -0.2034  0.6127 -0.0970
  596MPD2    H7 8896   4.445   0.082  16.754 -2.6941  2.2529  1.3200
  597TMC3    C1 8897   4.294   0.143  16.914 -0.4323 -0.5638  1.0297
  597TMC3    C2 8898   4.341   0.245  16.832 -0.4678 -0.2822  0.5105
  597TMC3    C3 8899   4.280   0.371  16.845 -0.3065  0.5155 -0.4514
  597TMC3    C4 8900   4.187   0.162  17.003 -0.0589 -0.0104 -0.6124
  597TMC3    C5 8901   4.133   0.291  17.009  0.4362  0.3167 -0.5027
  597TMC3    C6 8902   4.179   0.396  16.931 -1.4561  0.0942  0.6645
  597TMC3     C 8903   4.331   0.005  16.899  1.0355  0.0596 -0.4266
  597TMC3     O 8904   4.281   4.665  16.976  0.2352  0.3914 -0.1596
  597TMC3     H 8905   4.431   0.229  16.775 -0.8754 -1.5015  0.2019
  597TMC3    H1 8906   4.145   0.079  17.059 -0.0877  0.5957  0.2754
  597TMC3    H2 8907   4.131   0.493  16.930  1.3412  1.4346  0.0054
  597TMC3    C7 8908   4.006   0.306  17.090 -0.4805 -0.1204 -0.0880
  597TMC3    C8 8909   4.309   0.480  16.752 -0.0200 -0.4941 -0.0149
  597TMC3    O1 8910   3.990   0.233  17.190 -0.1147  0.1636  0.0586
  597TMC3    O2 8911   4.243   0.582  16.768 -0.3667  0.1563 -0.2061
  598TMC3    C1 8912   2.530   1.321  15.474  0.3698  0.4684  0.4745
  598TMC3    C2 8913   2.453   1.208  15.465  0.7057 -0.2386  0.2714
  598TMC3    C3 8914   2.356   1.212  15.368 -0.1428 -0.1500  0.1277
  598TMC3    C4 8915   2.522   1.437  15.410 -0.1542 -0.2227 -0.2119
  598TMC3    C5 8916   2.437   1.431  15.302  0.4113  0.4568 -0.6747
  598TMC3    C6 8917   2.352   1.324  15.291 -0.3417 -0.2252  0.8216
  598TMC3     C 8918   2.662   1.282  15.519 -0.1820 -0.0342  0.3015
  598TMC3     O 8919   2.667   1.210  15.617  0.2985 -0.3290  0.2160
  598TMC3     H 8920   2.477   1.120  15.524 -0.0835 -0.0592  0.8741
  598TMC3    H1 8921   2.597   1.514  15.421  0.3415 -0.7142 -0.1562
  598TMC3    H2 8922   2.297   1.321  15.198  1.6024 -1.6975 -0.2788
  598TMC3    C7 8923   2.413   1.536  15.206 -0.7514  0.1941 -0.0433
  598TMC3    C8 8924   2.305   1.087  15.303  0.0905  0.1132  0.6865
  598TMC3    O1 8925   2.302   1.537  15.161  0.3667 -0.0206 -0.3740
  598TMC3    O2 8926   2.262   1.093  15.186 -0.1956  0.4722 -0.1465
  599MPD2     C 8927   2.944   3.619  15.963  0.3422  0.8346 -0.2856
  599MPD2    C1 8928   2.862   3.511  15.972  0.7136  0.1554  0.2662
  599MPD2    C2 8929   2.727   3.532  15.991 -0.2214  0.4762  0.3452
  599MPD2    C3 8930   2.669   3.664  15.988  0.0480  0.0530 -0.4277
  599MPD2    C4 8931   2.760   3.769  15.980  0.6419  0.0443  0.2201
  599MPD2    C5 8932   2.892   3.746  15.961 -0.1418  0.2421  0.0761
  599MPD2     H 8933   2.662   3.446  16.004 -2.0918  1.6420 -1.2268
  599MPD2    H1 8934   2.737   3.873  15.960 -2.9040 -0.5465  1.1259
  599MPD2    H2 8935   3.052   3.614  15.961  0.2949 -0.1345 -0.4017
  599MPD2    H3 8936   2.958   3.830  15.946  0.2469  0.3400  2.3089
  599MPD2     N 8937   2.531   3.696  16.019 -0.0007 -0.4048  0.2289
  599MPD2    H5 8938   2.511   3.792  16.046  1.0298  0.0874 -0.7536
  599MPD2    N1 8939   2.919   3.379  15.956  0.5312 -0.4061  0.4853
  599MPD2    H7 8940   3.020   3.374  15.970  0.2280 -1.6935  2.1686
  600TMC3    C1 8941   2.308   3.663  16.090  0.2766 -0.6662  0.7247
  600TMC3    C2 8942   2.192   3.594  16.070 -0.7279  0.0901  0.0674
  600TMC3    C3 8943   2.099   3.592  16.163  0.0427 -0.3881  0.0622
  600TMC3    C4 8944   2.325   3.741  16.204 -0.4545 -0.1746  0.5622
  600TMC3    C5 8945   2.222   3.753  16.292  0.1800  0.2538 -0.4595
  600TMC3    C6 8946   2.113   3.669  16.279 -0.8645 -0.1480 -0.1027
  600TMC3     C 8947   2.429   3.610  16.018  0.0396  0.4353  0.1196
  600TMC3     O 8948   2.409   3.509  15.955 -0.4378 -0.0355  0.0473
  600TMC3     H 8949   2.180   3.544  15.974  3.9705  0.2462 -0.5956
  600TMC3    H1 8950   2.424   3.778  16.229  0.7332 -1.6338 -2.0197
  600TMC3    H2 8951   2.025   3.677  16.341  0.2734  2.2933  1.1637
  600TMC3    C7 8952   2.259   3.783  16.432  0.2856  0.1283 -0.3995
  600TMC3    C8 8953   1.997   3.495  16.148  0.1448  0.7913  0.8426
  600TMC3    O1 8954   2.218   3.890  16.476  0.1272  0.1031  0.1614
  600TMC3    O2 8955   1.930   3.498  16.046 -0.2106 -0.1015  0.3432
  601MPD2     C 8956   4.558   1.472   0.507 -1.1132 -0.2289 -0.2464
  601MPD2    C1 8957   4.542   1.379   0.406  0.7742  0.0945 -0.0624
  601MPD2    C2 8958   4.496   1.250   0.443 -0.1547 -0.6939 -0.9314
  601MPD2    C3 8959   4.459   1.220   0.574 -0.3726  0.0657 -1.1362
  601MPD2    C4 8960   4.468   1.322   0.670 -0.3195  0.6360  0.3250
  601MPD2    C5 8961   4.516   1.444   0.634  0.0640 -0.2271 -0.4189
  601MPD2     H 8962   4.463   1.181   0.367  0.3196 -1.2438 -0.6325
  601MPD2    H1 8963   4.431   1.320   0.771  0.6125  0.1638  0.6544
  601MPD2    H2 8964   4.586   1.576   0.498 -0.0670 -0.4347  0.7101
  601MPD2    H3 8965   4.507   1.520   0.711  0.3060  0.6781 -1.2822
  601MPD2     N 8966   4.415   1.092   0.623 -0.1502  0.4874  0.5059
  601MPD2    H5 8967   4.398   1.081   0.722 -1.6544 -0.2934  0.1732
  601MPD2    N1 8968   4.571   1.408   0.270  0.3850  0.4487  0.1149
  601MPD2    H7 8969   4.567   1.331   0.204 -0.2896  0.7890 -0.2418
  602TMC3    C1 8970   4.595   1.526   0.069  0.0683 -0.1633 -0.0238
  602TMC3    C2 8971   4.680   1.616   0.009  0.2488  0.0986 -0.3311
  602TMC3    C3 8972   4.684   1.630  17.625  1.0193  0.9698 -0.6583
  602TMC3    C4 8973   4.499   1.454  17.744 -0.0476 -0.5118  0.2746
  602TMC3    C5 8974   4.501   1.473  17.608  0.1112  0.8431  0.2780
  602TMC3    C6 8975   4.590   1.556  17.549 -0.3474  0.5574  0.3758
  602TMC3     C 8976   4.581   1.531   0.214  0.0759 -0.2065 -0.9727
  602TMC3     O 8977   4.600   1.640   0.258  0.1557 -0.0771 -0.2131
  602TMC3     H 8978   0.004   1.675   0.075  0.7397 -2.4237  1.4728
  602TMC3    H1 8979   4.425   1.400   0.053 -0.2287 -1.8415 -1.1695
  602TMC3    H2 8980   4.578   1.584  17.445 -3.0874  1.0048  0.8194
  602TMC3    C7 8981   4.371   1.504  17.555  0.1623 -0.3031 -0.1167
  602TMC3    C8 8982   4.679   1.774  17.614 -0.2032  0.5650 -0.5859
  602TMC3    O1 8983   4.361   1.613  17.503  0.2534  0.3414  0.2401
  602TMC3    O2 8984   0.021   1.840  17.676  0.3383 -0.0588 -0.2534
  603TMC3    C1 8985   1.647   2.713  11.041 -0.4976 -0.3674  0.0409
  603TMC3    C2 8986   1.751   2.641  11.092  0.6153  0.0452 -0.8276
  603TMC3    C3 8987   1.870   2.709  11.118 -0.2752 -0.2004  0.8554
  603TMC3    C4 8988   1.672   2.846  11.021 -0.3843 -0.2947 -0.4547
  603TMC3    C5 8989   1.786   2.907  11.059 -0.2612  0.2848 -0.6660
  603TMC3    C6 8990   1.889   2.842  11.112  0.1555  0.3003 -0.2897
  603TMC3     C 8991   1.558   2.641  10.958  0.5011 -0.0588 -0.0835
  603TMC3     O 8992   1.590   2.523  10.934  0.2057 -0.5323  0.3620
  603TMC3     H 8993   1.752   2.535  11.112  4.1089  0.4379  1.0843
  603TMC3    H1 8994   1.591   2.897  10.969  1.3736 -1.1576 -4.0132
  603TMC3    H2 8995   1.987   2.889  11.113  0.1723  0.2780 -0.9929
  603TMC3    C7 8996   1.814   3.047  11.017 -0.5725  0.5832 -0.1130
  603TMC3    C8 8997   1.957   2.652  11.215  0.6781  0.2242  0.2555
  603TMC3    O1 8998   1.886   3.122  11.075  0.4433 -0.0474  0.5121
  603TMC3    O2 8999   1.900   2.586  11.300  0.8013 -0.5050 -0.1753
  604MPD2     C 9000   3.443   1.084  16.482  0.3830  1.1099 -0.1303
  604MPD2    C1 9001   3.341   1.064  16.388 -0.7942 -0.7006 -0.1563
  604MPD2    C2 9002   3.368   1.051  16.256 -0.3198  0.1174 -0.9371
  604MPD2    C3 9003   3.492   1.060  16.209  0.3651  0.7913  0.2088
  604MPD2    C4 9004   3.596   1.084  16.300 -0.5598  0.8893 -0.4587
  604MPD2    C5 9005   3.572   1.093  16.436 -0.4869 -1.0790  1.0061
  604MPD2     H 9006   3.286   1.032  16.188 -2.2327 -1.5129  1.8107
  604MPD2    H1 9007   3.699   1.089  16.266  0.0021 -0.0327  1.1445
  604MPD2    H2 9008   3.431   1.080  16.590 -0.1921  2.1510 -0.1465
  604MPD2    H3 9009   3.656   1.113  16.501  1.5711  1.2597 -2.3804
  604MPD2     N 9010   3.520   1.028  16.073 -0.5333 -0.0230 -0.2379
  604MPD2    H5 9011   3.435   1.026  16.017 -0.7929 -0.3649  0.1695
  604MPD2    N1 9012   3.206   1.047  16.432  0.3128  0.1635 -0.0349
  604MPD2    H7 9013   3.189   1.092  16.521  0.2871 -1.6777  0.8846
  605TMC3    C1 9014   2.975   1.049  16.436 -0.4502  0.1873 -0.3686
  605TMC3    C2 9015   2.982   1.062  16.577 -0.3163 -0.0599 -0.0815
  605TMC3    C3 9016   2.920   1.173  16.634 -0.1852 -0.2462  1.1543
  605TMC3    C4 9017   2.905   1.140  16.357 -0.1107 -0.7449 -0.3772
  605TMC3    C5 9018   2.837   1.236  16.431  0.5515 -0.6761  0.5750
  605TMC3    C6 9019   2.838   1.252  16.560 -0.2806 -0.4346 -0.3498
  605TMC3     C 9020   3.095   0.999  16.370  0.0457 -0.1131  0.4795
  605TMC3     O 9021   3.082   0.940  16.260 -0.1835 -0.2763 -0.1574
  605TMC3     H 9022   3.048   1.007  16.643  0.2170 -0.9741 -1.3685
  605TMC3    H1 9023   2.915   1.136  16.250  0.6607  1.3920 -0.3869
  605TMC3    H2 9024   2.810   1.348  16.601 -1.2252  0.1686 -2.4208
  605TMC3    C7 9025   2.719   1.297  16.367 -0.2818 -0.5139 -0.2387
  605TMC3    C8 9026   3.014   1.252  16.701  0.7250  0.8227  0.4857
  605TMC3    O1 9027   2.665   1.390  16.429  0.2356  0.1086 -0.0585
  605TMC3    O2 9028   3.031   1.367  16.662 -0.5923 -0.3001 -0.7552
  606TMC3    C1 9029   4.064   4.199   0.320  0.7093  0.4503  0.3812
  606TMC3    C2 9030   4.179   4.171   0.374  0.0765 -0.0697 -0.2644
  606TMC3    C3 9031   4.194   4.059   0.452 -0.2764 -0.3400 -0.5964
  606TMC3    C4 9032   3.962   4.111   0.323  1.0661  0.3268  0.5952
  606TMC3    C5 9033   3.985   3.992   0.394 -0.3348 -0.4850 -0.4230
  606TMC3    C6 9034   4.098   3.965   0.462  0.7685  0.5059 -0.5696
  606TMC3     C 9035   4.037   4.320   0.247 -0.0270  0.7326  0.2348
  606TMC3     O 9036   4.125   4.381   0.189 -0.2364  0.7390  0.2520
  606TMC3     H 9037   4.264   4.238   0.363  1.1893 -1.2317  1.2826
  606TMC3    H1 9038   3.862   4.128   0.286  1.0848  0.2565  0.5130
  606TMC3    H2 9039   4.107   3.871   0.515  2.7954  1.2192  0.3670
  606TMC3    C7 9040   3.908   3.871   0.360 -0.0793  0.0499 -0.8005
  606TMC3    C8 9041   4.324   4.036   0.505 -0.7163  0.1337 -0.0325
  606TMC3    O1 9042   3.921   3.777   0.433 -0.1678 -0.6060  0.5669
  606TMC3    O2 9043   4.411   4.115   0.473 -0.0363  0.3418  0.7419
  607MPD2     C 9044   1.382   2.757  11.513  0.0194 -0.1948  0.0097
  607MPD2    C1 9045   1.427   2.835  11.612 -0.0352  0.0213  0.4896
  607MPD2    C2 9046   1.398   2.820  11.746  0.5251  0.2509  0.1746
  607MPD2    C3 9047   1.323   2.718  11.794  0.0337  0.2420 -0.3493
  607MPD2    C4 9048   1.281   2.628  11.698  0.1511  0.5161 -1.1487
  607MPD2    C5 9049   1.306   2.658  11.567 -0.1666 -0.6473  0.2269
  607MPD2     H 9050   1.451   2.885  11.814  2.1676 -0.9310  0.0353
  607MPD2    H1 9051   1.219   2.542  11.719 -0.6378  1.2000 -0.6882
  607MPD2    H2 9052   1.412   2.759  11.409  0.1057 -0.0991  0.0366
  607MPD2    H3 9053   1.269   2.590  11.491 -2.3316  0.9010 -0.0976
  607MPD2     N 9054   1.313   2.696  11.928  0.4480  0.5572 -0.6405
  607MPD2    H5 9055   1.362   2.762  11.988 -0.7156  0.6812  0.1671
  607MPD2    N1 9056   1.512   2.940  11.587  0.4158 -0.1811 -0.8256
  607MPD2    H7 9057   1.556   2.987  11.666  1.3195 -1.3495 -0.6445
  608TMC3    C1 9058   1.662   3.065  11.479 -0.0502  0.2895  0.3500
  608TMC3    C2 9059   1.741   3.038  11.591 -0.8508 -0.0126  0.1360
  608TMC3    C3 9060   1.844   3.131  11.616  0.0497  0.1496  0.4985
  608TMC3    C4 9061   1.691   3.156  11.389  0.0770  0.1099 -0.1272
  608TMC3    C5 9062   1.802   3.234  11.408 -0.5103  0.2327  0.1028
  608TMC3    C6 9063   1.882   3.226  11.519  0.3242 -1.4318  0.4138
  608TMC3     C 9064   1.546   2.981  11.461  0.2882 -0.4219  0.4762
  608TMC3     O 9065   1.500   2.964  11.351  0.4079  0.3944 -0.3198
  608TMC3     H 9066   1.729   2.948  11.649 -0.5359 -0.4489 -0.4687
  608TMC3    H1 9067   1.634   3.161  11.298  2.5421  0.0936 -1.6773
  608TMC3    H2 9068   1.964   3.295  11.530 -0.9165 -0.2274  2.0528
  608TMC3    C7 9069   1.816   3.340  11.307 -0.0373  0.3887  0.3995
  608TMC3    C8 9070   1.885   3.150  11.754 -0.0433 -0.3623  0.0209
  608TMC3    O1 9071   1.732   3.351  11.221 -0.1730  0.2284  0.2108
  608TMC3    O2 9072   1.975   3.224  11.783  0.3431 -0.1162 -0.0948
  609TMC3    C1 9073   0.697   2.084   9.803 -0.3940 -0.8294 -0.1034
  609TMC3    C2 9074   0.705   2.037   9.675  0.4054 -0.4289  0.4620
  609TMC3    C3 9075   0.813   2.083   9.601  0.5509 -0.4329 -0.7507
  609TMC3    C4 9076   0.789   2.166   9.860  0.1958  0.4220  0.4149
  609TMC3    C5 9077   0.903   2.186   9.794  0.0395 -0.0205 -0.5293
  609TMC3    C6 9078   0.920   2.145   9.663  0.1575 -0.6839 -1.0707
  609TMC3     C 9079   0.561   2.094   9.849  0.2329  0.3432  0.2301
  609TMC3     O 9080   0.488   1.999   9.822  0.1690 -0.1365  1.1454
  609TMC3     H 9081   0.630   1.965   9.645  1.8615 -1.7479 -0.0365
  609TMC3    H1 9082   0.768   2.210   9.957  2.4767  1.4299  0.4587
  609TMC3    H2 9083   1.003   2.176   9.601 -0.3748  0.3755 -1.2540
  609TMC3    C7 9084   0.999   2.282   9.844 -0.5802 -0.2468  0.2136
  609TMC3    C8 9085   0.802   2.082   9.454  0.4180  0.4574  0.1821
  609TMC3    O1 9086   1.054   2.350   9.760  0.7897  0.0965 -0.4163
  609TMC3    O2 9087   0.905   2.111   9.398  0.0399 -0.4406 -0.0127
  610TMC3    C1 9088   1.932   2.544  12.739 -0.1410 -0.0202 -0.4669
  610TMC3    C2 9089   2.028   2.632  12.701 -0.2013  0.4524 -0.0882
  610TMC3    C3 9090   2.160   2.589  12.700 -0.2066  0.2744 -0.0703
  610TMC3    C4 9091   1.960   2.411  12.749 -0.3407 -0.1790 -0.1459
  610TMC3    C5 9092   2.089   2.375  12.737 -0.3604  0.8778 -0.1895
  610TMC3    C6 9093   2.191   2.461  12.717  0.2568 -0.4752  0.3198
  610TMC3     C 9094   1.789   2.575  12.726 -0.2197  0.2102  0.2053
  610TMC3     O 9095   1.721   2.477  12.692  0.6245 -0.0701 -0.4658
  610TMC3     H 9096   1.982   2.728  12.679 -0.9461  0.0010 -0.4761
  610TMC3    H1 9097   1.883   2.338  12.771 -0.0358 -0.4330  0.0758
  610TMC3    H2 9098   2.293   2.427  12.707  0.1899 -0.6616  0.2659
  610TMC3    C7 9099   2.123   2.233  12.750  0.9257  0.4966  0.0005
  610TMC3    C8 9100   2.256   2.673  12.627  0.0180  0.0664 -0.2153
  610TMC3    O1 9101   2.236   2.199  12.777  0.0337 -0.2951  0.0441
  610TMC3    O2 9102   2.374   2.646  12.642  0.5388  1.2863  0.3636
  611MPD2     C 9103   0.996   2.971   9.854 -0.2187  0.4339 -0.5306
  611MPD2    C1 9104   1.040   2.951   9.982  0.7938 -0.2398  0.1162
  611MPD2    C2 9105   1.141   3.021  10.038  0.5702 -0.3866 -0.0066
  611MPD2    C3 9106   1.202   3.118   9.965  0.1786 -0.3371  0.3358
  611MPD2    C4 9107   1.161   3.146   9.837 -0.1236  0.3847  1.0863
  611MPD2    C5 9108   1.061   3.069   9.783  0.4833 -0.2904 -0.2856
  611MPD2     H 9109   1.183   2.994  10.134 -0.3175 -1.0481  0.1924
  611MPD2    H1 9110   1.205   3.210   9.762 -1.3192  3.0334  2.6331
  611MPD2    H2 9111   0.922   2.907   9.807  0.4314 -0.4256 -0.3812
  611MPD2    H3 9112   1.022   3.100   9.687 -2.3131 -1.8410  0.3278
  611MPD2     N 9113   1.314   3.190  10.007 -0.6315  0.5817 -0.4827
  611MPD2    H5 9114   1.364   3.237   9.933 -2.0093  1.0106 -1.1399
  611MPD2    N1 9115   0.951   2.871  10.053 -0.5375 -0.0216 -0.2727
  611MPD2    H7 9116   0.872   2.828  10.007 -0.5851 -1.7144  1.4210
  612TMC3    C1 9117   1.457   3.309  10.143 -0.0533 -0.0663 -0.0141
  612TMC3    C2 9118   1.537   3.313  10.257  0.0663  0.5502  0.0678
  612TMC3    C3 9119   1.611   3.426  10.289  0.6094  0.4304 -0.0254
  612TMC3    C4 9120   1.438   3.416  10.063  0.0253 -0.1399 -0.0593
  612TMC3    C5 9121   1.511   3.532  10.106  0.2240  0.2537  0.2485
  612TMC3    C6 9122   1.595   3.541  10.214  0.0760  0.4234  0.3467
  612TMC3     C 9123   1.369   3.194  10.127 -0.0595 -0.1972  0.1563
  612TMC3     O 9124   1.346   3.116  10.216  0.2986 -0.1216  0.0231
  612TMC3     H 9125   1.541   3.222  10.316  1.1130  0.1666 -0.6133
  612TMC3    H1 9126   1.372   3.421   9.977  0.2945 -0.7159 -0.2963
  612TMC3    H2 9127   1.658   3.628  10.227  1.6863 -0.9143  1.4263
  612TMC3    C7 9128   1.483   3.659  10.044 -0.8841 -0.4521  0.3997
  612TMC3    C8 9129   1.691   3.430  10.407  0.6581  0.6333  0.2761
  612TMC3    O1 9130   1.457   3.651   9.926 -0.2913 -0.4209  0.0468
  612TMC3    O2 9131   1.754   3.536  10.427  0.3995 -0.2034  0.2536
  613MPD2     C 9132   1.497   0.457  16.381  0.2962  0.4748 -0.1616
  613MPD2    C1 9133   1.388   0.442  16.296 -0.1367 -0.1598  0.6178
  613MPD2    C2 9134   1.303   0.327  16.314  0.1829 -0.2225 -0.3953
  613MPD2    C3 9135   1.330   0.239  16.417 -0.4431 -0.8325  0.0368
  613MPD2    C4 9136   1.436   0.257  16.494  0.2235 -0.2791 -0.3806
  613MPD2    C5 9137   1.512   0.368  16.484 -0.4974  0.2240  0.1145
  613MPD2     H 9138   1.221   0.306  16.246 -0.9285  1.6856  0.3624
  613MPD2    H1 9139   1.453   0.186  16.574  1.3935 -1.5007 -1.7255
  613MPD2    H2 9140   1.568   0.539  16.377  2.6189 -1.6569 -2.4768
  613MPD2    H3 9141   1.590   0.377  16.559 -0.3436 -1.3599  0.1528
  613MPD2     N 9142   1.264   0.115  16.430 -0.0604  0.1510  0.7271
  613MPD2    H5 9143   1.312   0.044  16.483  0.5155  1.6038  2.1456
  613MPD2    N1 9144   1.374   0.530  16.184  0.0028 -0.1697 -0.3480
  613MPD2    H7 9145   1.450   0.593  16.159 -1.0739  1.6563  0.9728
  614TMC3    C1 9146   1.272   0.602  15.976 -0.4202  0.2874 -0.1135
  614TMC3    C2 9147   1.370   0.530  15.904  0.0800  0.3383  0.6804
  614TMC3    C3 9148   1.342   0.465  15.790 -0.1961 -0.0325 -0.4281
  614TMC3    C4 9149   1.153   0.635  15.904  0.4096 -0.5067 -0.3737
  614TMC3    C5 9150   1.135   0.573  15.781  0.1633 -1.1998  0.3633
  614TMC3    C6 9151   1.227   0.490  15.730  0.0675  0.6729 -0.3152
  614TMC3     C 9152   1.256   0.543  16.117  0.0043 -0.5477 -0.0474
  614TMC3     O 9153   1.142   0.508  16.147  0.0987  0.0697  0.4738
  614TMC3     H 9154   1.471   0.520  15.943  0.0830 -2.6237 -0.1340
  614TMC3    H1 9155   1.073   0.689  15.954 -0.9185 -0.7438 -2.2363
  614TMC3    H2 9156   1.203   0.432  15.641  1.0703  1.7207 -1.2757
  614TMC3    C7 9157   1.002   0.577  15.722  0.7641  0.5138 -0.2269
  614TMC3    C8 9158   1.383   0.325  15.785 -0.4049  0.6576 -0.0581
  614TMC3    O1 9159   0.920   0.635  15.798 -0.5090 -0.4359  0.1404
  614TMC3    O2 9160   1.305   0.244  15.740 -0.1738  0.3630 -0.1362
  615MPD2     C 9161   0.241   1.105  15.881 -1.2845 -0.1413 -0.1695
  615MPD2    C1 9162   0.209   1.225  15.944 -0.2840  0.0659  0.0732
  615MPD2    C2 9163   0.134   1.323  15.878 -0.3195  0.4121 -0.0141
  615MPD2    C3 9164   0.089   1.291  15.751  0.3890 -0.0830 -0.6232
  615MPD2    C4 9165   0.126   1.177  15.687 -0.7441 -0.0917  0.1888
  615MPD2    C5 9166   0.199   1.089  15.754 -0.1512  0.6155 -0.3274
  615MPD2     H 9167   0.121   1.421  15.922  0.3347  0.0938  0.8830
  615MPD2    H1 9168   0.088   1.151  15.590  1.1005 -0.0631 -0.5466
  615MPD2    H2 9169   0.300   1.029  15.931 -0.1606  1.4836  0.9726
  615MPD2    H3 9170   0.217   0.995  15.704 -0.7433 -0.6561  1.8940
  615MPD2     N 9171   0.013   1.375  15.674 -0.3376  0.6990  0.2972
  615MPD2    H5 9172   0.008   1.360  15.574  0.3801  3.2071 -0.1157
  615MPD2    N1 9173   0.264   1.263  16.068 -0.4261  0.6813  0.0168
  615MPD2    H7 9174   0.252   1.360  16.098 -0.5037  0.3240  1.1372
  616TMC3    C1 9175   0.427   1.261  16.239 -1.1030 -0.0228 -0.4148
  616TMC3    C2 9176   0.483   1.383  16.193 -0.3109  0.0273 -0.6243
  616TMC3    C3 9177   0.598   1.429  16.255 -0.4290  0.6049 -0.4490
  616TMC3    C4 9178   0.498   1.186  16.328 -0.2051 -0.0731 -0.2115
  616TMC3    C5 9179   0.613   1.229  16.390  0.1304 -0.0246  0.2202
  616TMC3    C6 9180   0.657   1.358  16.362  0.3665  0.7905  0.5573
  616TMC3     C 9181   0.345   1.185  16.143 -0.2949  0.3009  0.4706
  616TMC3     O 9182   0.368   1.066  16.139 -0.1041 -0.5537 -0.0874
  616TMC3     H 9183   0.442   1.441  16.112 -0.2928 -1.5836 -1.7761
  616TMC3    H1 9184   0.464   1.086  16.353  1.6436 -0.3875  1.0888
  616TMC3    H2 9185   0.747   1.394  16.410 -0.2119  1.1783  1.3479
  616TMC3    C7 9186   0.680   1.154  16.497  0.0667 -0.2761  0.4144
  616TMC3    C8 9187   0.665   1.546  16.194  0.6375 -0.1704 -0.0173
  616TMC3    O1 9188   0.625   1.150  16.609  0.9513 -0.2654 -0.2418
  616TMC3    O2 9189   0.621   1.592  16.089 -0.5096  0.1773 -0.0123
  617MPD2     C 9190   3.414   4.125  13.733 -0.4299 -0.1198  0.0512
  617MPD2    C1 9191   3.388   4.173  13.861  0.4723  0.8902  0.0546
  617MPD2    C2 9192   3.258   4.212  13.889  0.5216 -0.3322  0.0383
  617MPD2    C3 9193   3.162   4.219  13.787  0.4091  0.6293  0.6316
  617MPD2    C4 9194   3.193   4.172  13.667  0.0706 -1.0202  0.5551
  617MPD2    C5 9195   3.322   4.130  13.638  0.4196 -0.6604  0.5259
  617MPD2     H 9196   3.229   4.229  13.992  1.5068 -1.9185  0.5815
  617MPD2    H1 9197   3.118   4.156  13.590  1.0159  2.2807 -1.0452
  617MPD2    H2 9198   3.511   4.095  13.696 -1.3733 -0.2024 -2.4145
  617MPD2    H3 9199   3.342   4.078  13.545  1.0821 -1.8283  1.3280
  617MPD2     N 9200   3.022   4.259  13.823  0.5356  0.1267  0.0147
  617MPD2    H5 9201   2.944   4.210  13.781 -0.3769  1.0318  0.6402
  617MPD2    N1 9202   3.494   4.162  13.956  0.0357  0.0302 -0.3735
  617MPD2    H7 9203   3.585   4.131  13.925 -0.0615 -0.6951  0.0584
  618TMC3    C1 9204   3.600   4.202  14.156 -0.8482  0.5252  0.3822
  618TMC3    C2 9205   3.637   4.076  14.182  0.1726  0.1799 -0.2626
  618TMC3    C3 9206   3.756   4.059  14.250 -0.7696  0.5230  0.2859
  618TMC3    C4 9207   3.684   4.307  14.170  0.7460  0.0015  0.2911
  618TMC3    C5 9208   3.811   4.285  14.223  0.5633 -0.8532  1.0678
  618TMC3    C6 9209   3.846   4.157  14.270  0.1184 -0.6115 -0.1663
  618TMC3     C 9210   3.476   4.215  14.079  0.1317 -0.2915 -0.5385
  618TMC3     O 9211   3.388   4.271  14.142  0.4180 -0.7084  0.0513
  618TMC3     H 9212   3.562   3.997  14.176 -0.3650  0.5501  1.3460
  618TMC3    H1 9213   3.659   4.397  14.117  2.2711 -0.2396 -0.8174
  618TMC3    H2 9214   3.938   4.140  14.325  2.0891  2.0022 -2.6626
  618TMC3    C7 9215   3.904   4.389  14.225 -0.3866 -0.3309 -0.5462
  618TMC3    C8 9216   3.801   3.924  14.282 -0.1327  0.4462  0.4417
  618TMC3    O1 9217   3.862   4.495  14.271  0.8062  0.0970  0.0956
  618TMC3    O2 9218   3.891   3.914  14.365  0.0726  0.0093 -0.7264
  619MPD2     C 9219   4.570   0.490  14.023 -0.1129  0.5873 -0.0105
  619MPD2    C1 9220   4.484   0.583  13.971  0.0729  0.3399  0.0635
  619MPD2    C2 9221   4.352   0.565  14.009  0.6290 -0.6251  0.8644
  619MPD2    C3 9222   4.308   0.467  14.097 -0.5280 -0.6975 -0.0309
  619MPD2    C4 9223   4.396   0.379  14.139  0.7194 -0.9825 -0.5596
  619MPD2    C5 9224   4.533   0.389  14.111  0.2177  0.1804  0.4163
  619MPD2     H 9225   4.283   0.630  13.956  1.0853 -0.9642 -0.1423
  619MPD2    H1 9226   4.365   0.297  14.202  0.2585 -2.7408 -3.0971
  619MPD2    H2 9227   4.672   0.486  13.987 -0.5067  1.2397 -1.1957
  619MPD2    H3 9228   4.598   0.310  14.149  2.3533  1.0930 -1.3090
  619MPD2     N 9229   4.169   0.440  14.112 -0.4937 -0.1646  0.7311
  619MPD2    H5 9230   4.136   0.345  14.124 -2.3195  0.4834  0.8220
  619MPD2    N1 9231   4.522   0.679  13.870 -0.6548 -0.0227 -0.1718
  619MPD2    H7 9232   4.449   0.720  13.813 -2.5376 -0.7920  1.6893
  620TMC3    C1 9233   4.645   0.807  13.732  0.6710  0.8743  0.4891
  620TMC3    C2 9234   4.533   0.823  13.648 -0.2445  0.2194  0.3009
  620TMC3    C3 9235   4.553   0.904  13.542 -0.0734  0.3275 -0.2260
  620TMC3    C4 9236   0.019   0.884  13.713  0.1262 -0.4346  0.7565
  620TMC3    C5 9237   0.026   0.971  13.615  0.4659 -0.0858  0.0175
  620TMC3    C6 9238   4.663   0.977  13.519 -0.3473  0.3229 -0.1481
  620TMC3     C 9239   4.646   0.705  13.833 -0.1233 -0.4383 -0.1448
  620TMC3     O 9240   0.014   0.675  13.885 -0.2960  0.1486  0.0052
  620TMC3     H 9241   4.448   0.756  13.653  0.5369 -0.7617  0.5157
  620TMC3    H1 9242   0.104   0.890  13.780 -0.5681 -0.4346  1.6431
  620TMC3    H2 9243   4.661   1.058  13.446  0.4466  1.1492  0.7384
  620TMC3    C7 9244   0.046   1.101  13.670 -0.1226 -0.1115 -0.2070
  620TMC3    C8 9245   4.428   0.954  13.474  0.1882 -0.0394  0.7010
  620TMC3    O1 9246   4.726   1.126  13.776  0.3250  0.2986 -0.7691
  620TMC3    O2 9247   4.429   1.019  13.369 -0.4414  0.3083 -0.1418
  621MPD2     C 9248   4.581   0.770  10.596  0.4204 -0.0309 -0.3267
  621MPD2    C1 9249   4.685   0.780  10.504 -0.0433  0.4969  0.0337
  621MPD2    C2 9250   0.004   0.908  10.482  0.0083  0.2342 -0.3890
  621MPD2    C3 9251   4.696   1.015  10.562  0.2219 -0.0467 -0.4124
  621MPD2    C4 9252   4.609   0.993  10.658  0.7460 -0.4548 -0.0328
  621MPD2    C5 9253   4.541   0.879  10.665 -0.3043  0.5074 -0.5788
  621MPD2     H 9254   0.082   0.926  10.409  1.3077 -1.1824  0.6247
  621MPD2    H1 9255   4.574   1.072  10.724  0.0493 -1.1830  0.4597
  621MPD2    H2 9256   4.513   0.688  10.619  0.8637 -0.1987  0.3783
  621MPD2    H3 9257   4.460   0.873  10.736 -0.6125  1.1528 -0.8677
  621MPD2     N 9258   4.734   1.147  10.528 -0.0060  0.4464 -0.3736
  621MPD2    H5 9259   0.066   1.158  10.456 -1.2955  1.3003 -1.4914
  621MPD2    N1 9260   4.723   0.675  10.416  0.1977 -0.2745 -0.0643
  621MPD2    H7 9261   0.064   0.694  10.356  0.4254  1.9254  0.9249
  622TMC3    C1 9262   4.712   0.453  10.331 -0.1109 -0.6119  0.4828
  622TMC3    C2 9263   4.649   0.333  10.343 -0.0767  0.1622 -0.0505
  622TMC3    C3 9264   4.604   0.269  10.234  0.2718 -0.2578  0.7555
  622TMC3    C4 9265   4.731   0.513  10.211 -0.5528 -0.0446  0.1168
  622TMC3    C5 9266   4.698   0.438  10.105 -0.6364  0.1155 -0.5961
  622TMC3    C6 9267   4.646   0.312  10.108  0.2163  0.4536 -0.2764
  622TMC3     C 9268   4.664   0.547  10.428 -0.0941  0.3310 -0.2332
  622TMC3     O 9269   4.569   0.506  10.486 -0.4482  0.3264 -0.0427
  622TMC3     H 9270   4.656   0.287  10.441 -0.9332 -1.9951 -1.0241
  622TMC3    H1 9271   0.050   0.604  10.193  2.3998 -1.6339  1.3998
  622TMC3    H2 9272   4.626   0.262  10.015 -0.4535 -3.3268  1.9014
  622TMC3    C7 9273   4.707   0.492   9.974 -0.3381 -0.3789  0.2663
  622TMC3    C8 9274   4.475   0.211  10.245  0.3963 -0.8879 -0.0925
  622TMC3    O1 9275   0.005   0.427   9.873 -0.3064  0.2414  0.7427
  622TMC3    O2 9276   4.423   0.156  10.145 -0.5489 -0.0046 -0.5262
  623MPD2     C 9277   3.567   1.388  15.752  0.1621 -0.3404 -0.0760
  623MPD2    C1 9278   3.466   1.401  15.844  0.7792  0.0985 -0.2780
  623MPD2    C2 9279   3.501   1.416  15.979  0.1785 -0.1601  0.2453
  623MPD2    C3 9280   3.633   1.401  16.022 -0.0058 -0.3831 -0.0958
  623MPD2    C4 9281   3.727   1.370  15.928 -0.1979  0.3514 -0.7951
  623MPD2    C5 9282   3.695   1.374  15.794 -0.6035 -0.1863  0.2022
  623MPD2     H 9283   3.423   1.440  16.050 -0.8091  0.3299 -0.9953
  623MPD2    H1 9284   3.828   1.348  15.962 -1.0448  0.2846  1.6142
  623MPD2    H2 9285   3.558   1.393  15.644  1.6587  2.5309 -0.0809
  623MPD2    H3 9286   3.765   1.351  15.714 -0.5714  2.1489 -0.4311
  623MPD2     N 9287   3.654   1.403  16.156 -0.5454 -0.0453  0.5790
  623MPD2    H5 9288   3.575   1.405  16.219 -0.0451  0.5922  1.1839
  623MPD2    N1 9289   3.332   1.424  15.808  0.4798  0.5920 -0.2255
  623MPD2    H7 9290   3.269   1.442  15.885 -1.5873  4.3302 -2.7604
  624TMC3    C1 9291   3.901   1.411  16.530 -0.2882  0.1405  0.4362
  624TMC3    C2 9292   3.792   1.380  16.597  0.0438 -0.6564  0.6290
  624TMC3    C3 9293   3.667   1.407  16.541  0.9193  0.2411 -0.3769
  624TMC3    C4 9294   3.902   1.452  16.404  0.7501 -0.1511  0.2943
  624TMC3    C5 9295   3.779   1.464  16.346 -0.2084 -0.1169 -0.2095
  624TMC3    C6 9296   3.663   1.462  16.422  0.0215 -0.1814  0.9087
  624TMC3     C 9297   4.034   1.375  16.582 -0.0321  0.3465  0.8496
  624TMC3     O 9298   4.132   1.443  16.550  0.0122  0.3679  0.1967
  624TMC3     H 9299   3.794   1.344  16.699  0.6817  2.0101  1.5587
  624TMC3    H1 9300   3.998   1.482  16.365 -0.2400  4.2050  1.2723
  624TMC3    H2 9301   3.570   1.492  16.375  0.7666  2.6278  1.2802
  624TMC3    C7 9302   3.781   1.432  16.201 -0.3814 -0.0210  0.0804
  624TMC3    C8 9303   3.537   1.390  16.610  0.2621 -0.4025 -0.1920
  624TMC3    O1 9304   3.890   1.449  16.142  0.0349  0.1674 -0.9246
  624TMC3    O2 9305   3.438   1.404  16.538  0.0939 -0.1639  0.3420
  625MPD2     C 9306   4.641   2.423   0.401  0.0254  0.1133  1.0979
  625MPD2    C1 9307   4.596   2.531   0.476 -0.2286 -0.3734 -0.2406
  625MPD2    C2 9308   4.690   2.617   0.532 -0.2351  0.1789  0.5599
  625MPD2    C3 9309   0.090   2.595   0.517 -0.5883  0.6205 -0.3723
  625MPD2    C4 9310   0.133   2.481   0.458  0.2214  0.4242 -0.1321
  625MPD2    C5 9311   0.038   2.401   0.397  0.9628 -0.1525  0.2830
  625MPD2     H 9312   4.650   2.706   0.579 -1.3274  0.5521 -1.0548
  625MPD2    H1 9313   0.237   2.452   0.455  0.0365 -0.1678 -0.8043
  625MPD2    H2 9314   4.580   2.343   0.362  0.5683 -0.5360  1.5805
  625MPD2    H3 9315   0.071   2.303   0.364 -0.3310 -1.1996  2.0937
  625MPD2     N 9316   0.174   2.694   0.563 -0.7072  0.7712  0.9043
  625MPD2    H5 9317   0.128   2.781   0.591 -1.7171  1.1401 -1.8545
  625MPD2    N1 9318   4.461   2.542   0.509  0.2811  0.7448 -0.3682
  625MPD2    H7 9319   4.434   2.619   0.569  1.2906  0.3651  0.5713
  626TMC3    C1 9320   4.233   2.527   0.521 -0.1857 -0.0182 -0.4481
  626TMC3    C2 9321   4.113   2.538   0.447  0.5830 -0.2478  0.3921
  626TMC3    C3 9322   4.024   2.636   0.485 -0.1290 -0.3527  0.1557
  626TMC3    C4 9323   4.242   2.593   0.641 -0.1898 -0.1748  0.0042
  626TMC3    C5 9324   4.147   2.687   0.672  0.6074  0.3042  1.0040
  626TMC3    C6 9325   4.050   2.724   0.589 -0.3449 -0.4135 -0.6896
  626TMC3     C 9326   4.351   2.482   0.454  0.1669 -0.3188  1.1337
  626TMC3     O 9327   4.345   2.418   0.348  0.0327  0.1818 -0.2357
  626TMC3     H 9328   4.104   2.491   0.350  2.2562 -0.3464  0.2866
  626TMC3    H1 9329   4.313   2.569   0.719  0.0974  0.1038 -0.1702
  626TMC3    H2 9330   3.981   2.803   0.614 -0.1207 -0.0447 -1.2285
  626TMC3    C7 9331   4.182   2.763   0.794 -0.5816  0.1303 -0.1109
  626TMC3    C8 9332   3.942   2.688   0.375 -0.0693  0.4899 -0.6892
  626TMC3    O1 9333   4.296   2.758   0.837  0.4378  0.3405 -0.0581
  626TMC3    O2 9334   3.929   2.808   0.373  0.0876 -0.3817 -0.1344
  627MPD2     C 9335   2.288   3.402  14.480 -0.2642  0.0105 -0.0375
  627MPD2    C1 9336   2.372   3.341  14.573 -0.1790  0.1833  0.0331
  627MPD2    C2 9337   2.331   3.213  14.617 -0.8935  0.6363  0.2003
  627MPD2    C3 9338   2.234   3.140  14.556  0.7216  0.0177  0.5783
  627MPD2    C4 9339   2.172   3.194  14.442 -0.2826 -0.6311 -0.1342
  627MPD2    C5 9340   2.193   3.325  14.408 -0.3160  0.0479 -0.2727
  627MPD2     H 9341   2.390   3.164  14.693  2.6552  0.5255 -2.6009
  627MPD2    H1 9342   2.099   3.139  14.384 -0.8824  1.3536 -1.2354
  627MPD2    H2 9343   2.318   3.505  14.462  0.2821 -0.0043  0.8168
  627MPD2    H3 9344   2.138   3.366  14.324 -0.0908  0.2223 -0.3351
  627MPD2     N 9345   2.201   3.013  14.610  0.5003 -0.1735  0.1823
  627MPD2    H5 9346   2.252   2.982  14.692 -0.6188  0.5484  1.1522
  627MPD2    N1 9347   2.484   3.399  14.641  0.4413  0.0003  0.2925
  627MPD2    H7 9348   2.547   3.343  14.698  0.3614 -1.3552 -0.9612
  628TMC3    C1 9349   2.658   3.564  14.683  0.5114  1.5619  0.5713
  628TMC3    C2 9350   2.746   3.455  14.692  0.8902  0.1144 -0.4399
  628TMC3    C3 9351   2.876   3.482  14.733  0.2209  0.7006 -0.2770
  628TMC3    C4 9352   2.701   3.692  14.696 -0.4867 -0.0806  0.0533
  628TMC3    C5 9353   2.824   3.708  14.752 -1.1550 -0.2405 -0.2391
  628TMC3    C6 9354   2.908   3.606  14.774  0.5039 -0.4944  0.0463
  628TMC3     C 9355   2.522   3.534  14.632 -0.5247 -0.5796 -0.2119
  628TMC3     O 9356   2.448   3.628  14.618 -0.7405 -0.1310  0.5161
  628TMC3     H 9357   2.729   3.356  14.652 -3.0789  0.0586  1.3429
  628TMC3    H1 9358   2.630   3.773  14.684 -1.8936 -1.3184  0.1450
  628TMC3    H2 9359   3.007   3.630  14.810 -0.3084  2.0943  0.5229
  628TMC3    C7 9360   2.885   3.844  14.758 -0.2177 -0.3581  0.7524
  628TMC3    C8 9361   2.983   3.402  14.684  0.0294 -0.0582 -0.0177
  628TMC3    O1 9362   2.978   3.861  14.836 -0.7027  0.2862  0.0803
  628TMC3    O2 9363   2.955   3.329  14.587 -0.2436  0.2868  0.6408
  629MPD2     C 9364   0.949   1.977  16.242 -0.7418  0.0140 -0.3066
  629MPD2    C1 9365   1.024   1.873  16.303  0.6437  0.8714  0.7279
  629MPD2    C2 9366   0.970   1.744  16.300  0.6059 -0.5097  0.0009
  629MPD2    C3 9367   0.848   1.719  16.241 -0.6027 -0.3519 -0.2769
  629MPD2    C4 9368   0.785   1.825  16.169 -0.7915  0.1323  0.0600
  629MPD2    C5 9369   0.833   1.951  16.177  0.6303 -0.1560 -0.2259
  629MPD2     H 9370   1.030   1.671  16.353  0.4589  0.4441  1.4683
  629MPD2    H1 9371   0.693   1.805  16.115 -0.9142  1.3283 -0.1657
  629MPD2    H2 9372   0.983   2.080  16.240 -1.0601  0.1424  1.3998
  629MPD2    H3 9373   0.778   2.028  16.124  0.4267 -1.5035 -1.9586
  629MPD2     N 9374   0.775   1.595  16.271  0.5930 -0.4475  0.4586
  629MPD2    H5 9375   0.809   1.535  16.345 -0.0579 -2.5292 -0.9280
  629MPD2    N1 9376   1.149   1.914  16.352 -0.6003  0.3224  0.4527
  629MPD2    H7 9377   1.172   2.013  16.343  0.1577  0.3792  3.2236
  630TMC3    C1 9378   1.354   1.894  16.465 -0.5522 -0.4388 -0.8883
  630TMC3    C2 9379   1.413   1.993  16.392  0.4336  0.5804 -0.2903
  630TMC3    C3 9380   1.542   2.022  16.425 -0.0499  0.9550 -0.0808
  630TMC3    C4 9381   1.419   1.831  16.563  0.1356  0.0554  0.1715
  630TMC3    C5 9382   1.539   1.879  16.608  0.5056 -0.5251 -0.1789
  630TMC3    C6 9383   1.611   1.968  16.530  0.8524  0.7442  0.3161
  630TMC3     C 9384   1.229   1.830  16.423  0.4708  0.2229 -0.3599
  630TMC3     O 9385   1.217   1.712  16.454 -0.3655 -0.5033  0.1051
  630TMC3     H 9386   1.369   2.036  16.303 -0.9023 -2.0814 -0.9128
  630TMC3    H1 9387   1.360   1.776  16.635  0.8025  0.2136  0.8335
  630TMC3    H2 9388   1.712   1.998  16.555  1.1355  0.0569  0.0141
  630TMC3    C7 9389   1.582   1.852  16.742  0.0330 -0.5243  0.6650
  630TMC3    C8 9390   1.593   2.150  16.393  0.1896  0.4862  0.3576
  630TMC3    O1 9391   1.527   1.756  16.797 -0.4691  0.1280  0.4496
  630TMC3    O2 9392   1.661   2.195  16.483  0.4128 -0.5860 -0.8748
  631MPD2     C 9393   3.949   2.085  15.735  0.0474 -0.1271  0.5902
  631MPD2    C1 9394   3.997   2.090  15.607 -0.3443  0.1100  0.0754
  631MPD2    C2 9395   4.082   1.995  15.561 -0.0716  0.1851 -0.8105
  631MPD2    C3 9396   4.123   1.887  15.640 -0.2031  0.7221  0.1598
  631MPD2    C4 9397   4.074   1.874  15.767  0.3338 -0.2865 -0.0249
  631MPD2    C5 9398   3.989   1.978  15.813  0.7989  0.6773  0.3960
  631MPD2     H 9399   4.116   1.997  15.458 -1.7020  0.7107 -1.3418
  631MPD2    H1 9400   4.093   1.793  15.835  0.9433 -0.3756 -0.3039
  631MPD2    H2 9401   3.888   2.165  15.776 -1.4783  0.1965 -2.3562
  631MPD2    H3 9402   3.957   1.977  15.917 -1.6917  1.5624 -0.3648
  631MPD2     N 9403   4.221   1.794  15.591 -0.0904  0.7438  0.3377
  631MPD2    H5 9404   4.267   1.816  15.504  1.2607 -0.8621  0.6601
  631MPD2    N1 9405   3.962   2.203  15.526  0.1519  0.3145  0.2476
  631MPD2    H7 9406   3.892   2.269  15.558 -1.7691 -2.0256  0.9009
  632TMC3    C1 9407   3.957   2.361  15.350 -0.5182 -0.0419 -0.1057
  632TMC3    C2 9408   3.825   2.370  15.357  0.5185 -1.2553  0.1257
  632TMC3    C3 9409   3.758   2.461  15.277 -0.2362 -0.4083  0.6595
  632TMC3    C4 9410   4.027   2.421  15.249 -0.5755  0.5559  0.7336
  632TMC3    C5 9411   3.959   2.506  15.161  0.1085  0.1679  0.1942
  632TMC3    C6 9412   3.828   2.544  15.185 -0.1703  1.0560 -0.1521
  632TMC3     C 9413   4.015   2.240  15.405  0.2996  0.4509 -0.2423
  632TMC3     O 9414   4.086   2.174  15.334 -0.9427 -0.1738 -0.4076
  632TMC3     H 9415   3.756   2.308  15.413  0.3084 -2.5739 -1.5916
  632TMC3    H1 9416   4.131   2.393  15.240 -1.4246 -2.6485  0.8278
  632TMC3    H2 9417   3.797   2.632  15.131 -5.4006 -0.6507  0.1284
  632TMC3    C7 9418   4.029   2.575  15.056  0.1237  0.7833  0.3492
  632TMC3    C8 9419   3.625   2.491  15.312  0.2926  0.3943 -0.0192
  632TMC3    O1 9420   3.965   2.647  14.981  0.1202 -0.5024 -0.1953
  632TMC3    O2 9421   3.542   2.412  15.276 -0.6205  0.9426 -0.3845
  633MPD2     C 9422   3.741   4.498  17.402  0.2854 -0.0860 -0.3365
  633MPD2    C1 9423   3.744   4.447  17.271  0.2820 -0.2751 -0.5580
  633MPD2    C2 9424   3.701   4.317  17.253 -0.0351  0.1541  0.2817
  633MPD2    C3 9425   3.634   4.247  17.354 -0.7302 -0.0968  0.3487
  633MPD2    C4 9426   3.624   4.307  17.480 -0.4058  0.0521 -0.4947
  633MPD2    C5 9427   3.681   4.429  17.505  0.2232  0.3330 -0.2134
  633MPD2     H 9428   3.716   4.268  17.158 -1.9369 -1.4002  0.7991
  633MPD2    H1 9429   3.591   4.258  17.571 -0.4903  2.5800  0.8542
  633MPD2    H2 9430   3.784   4.593  17.434 -2.3133  1.3306 -1.0208
  633MPD2    H3 9431   3.671   4.466  17.606  0.6775  0.9568 -0.3920
  633MPD2     N 9432   3.581   4.109  17.343 -0.7181 -0.4836 -0.1586
  633MPD2    H5 9433   3.557   4.065  17.431  2.3994  0.4748  1.1535
  633MPD2    N1 9434   3.798   4.528  17.161 -0.3962 -0.5357  0.3948
  633MPD2    H7 9435   3.818   4.479  17.074  0.2875 -2.0695  1.4179
  634TMC3    C1 9436   3.870   4.701  17.032 -0.5154 -0.0356  0.4005
  634TMC3    C2 9437   3.958   4.609  16.976  0.2626  0.2738  0.1506
  634TMC3    C3 9438   3.991   4.627  16.841  0.0990  0.5924 -0.7799
  634TMC3    C4 9439   3.807   0.061  16.964 -0.2622 -0.3444 -0.1569
  634TMC3    C5 9440   3.819   0.053  16.832 -1.1746  0.6544  0.8719
  634TMC3    C6 9441   3.918   4.721  16.772  0.0321 -0.6814  0.6391
  634TMC3     C 9442   3.815   4.666  17.159  0.0713  0.3829 -0.2411
  634TMC3     O 9443   3.784   0.016  17.235 -0.4389  0.3220  0.0850
  634TMC3     H 9444   4.000   4.527  17.033 -1.5409 -0.7101  0.0615
  634TMC3    H1 9445   3.734   0.126  17.010 -0.9318 -0.5476 -0.9228
  634TMC3    H2 9446   3.934   4.729  16.665 -4.5775 -0.9074 -0.0722
  634TMC3    C7 9447   3.771   0.160  16.748  0.0343 -0.2622 -0.4061
  634TMC3    C8 9448   4.054   4.517  16.779  0.7585  0.4110  0.1288
  634TMC3    O1 9449   3.842   0.182  16.655 -0.3861 -0.1739  0.3348
  634TMC3    O2 9450   4.028   4.408  16.829  0.3035  0.9078  0.0191
  635TMC3    C1 9451   4.248   0.171  17.623 -0.3581 -0.1269  0.1869
  635TMC3    C2 9452   4.183   0.056  17.582  0.3771  0.0888 -0.2467
  635TMC3    C3 9453   4.192   0.023  17.443  0.7681  0.5106  1.0361
  635TMC3    C4 9454   4.326   0.238  17.532 -0.3602  0.0161  0.4391
  635TMC3    C5 9455   4.333   0.198  17.404 -0.5787  0.5767 -0.3244
  635TMC3    C6 9456   4.266   0.093  17.355  0.2219  0.1735 -0.5316
  635TMC3     C 9457   4.230   0.217   0.010 -0.4776 -0.0705  0.9038
  635TMC3     O 9458   4.293   0.317   0.039 -0.7482  0.4160  0.2982
  635TMC3     H 9459   4.112   0.001  17.643  1.1313  0.3793  0.8800
  635TMC3    H1 9460   4.387   0.321  17.567 -0.6292  0.9361 -1.2561
  635TMC3    H2 9461   4.269   0.074  17.248 -1.7760  0.4151 -0.6413
  635TMC3    C7 9462   4.422   0.281  17.325  0.8446  0.4784  0.3022
  635TMC3    C8 9463   4.157   4.619  17.411  0.0824 -0.0473 -0.4231
  635TMC3    O1 9464   4.434   0.398  17.358 -0.0713  0.0449 -0.4890
  635TMC3    O2 9465   4.087   4.568  17.498 -0.2658 -0.0135 -0.6430
  636MPD2     C 9466   0.504   0.288  16.009 -0.2781 -0.0711 -0.5953
  636MPD2    C1 9467   0.554   0.313  16.130  1.1122 -0.4923  0.0467
  636MPD2    C2 9468   0.650   0.236  16.180 -0.2494 -0.2699  0.0404
  636MPD2    C3 9469   0.689   0.114  16.119  0.4713 -0.1350  0.1336
  636MPD2    C4 9470   0.626   0.087  15.999  0.7839 -0.1527 -0.1600
  636MPD2    C5 9471   0.532   0.173  15.947  0.2451  0.0246 -0.3483
  636MPD2     H 9472   0.688   0.275  16.274 -2.2177  1.7068  0.0346
  636MPD2    H1 9473   0.651   4.734  15.946  0.4571 -0.0150 -0.5530
  636MPD2    H2 9474   0.433   0.348  15.952 -0.1415 -0.9821 -1.7307
  636MPD2    H3 9475   0.492   0.156  15.847 -0.6361  0.0121  0.0077
  636MPD2     N 9476   0.791   0.035  16.173  0.2730 -0.5812  0.4295
  636MPD2    H5 9477   0.838   0.067  16.257  3.2019 -0.3200 -1.2836
  636MPD2    N1 9478   0.519   0.421  16.211 -0.6426  0.8181 -0.2590
  636MPD2    H7 9479   0.577   0.427  16.294 -1.0655  1.5570 -0.0149
  637TMC3    C1 9480   0.964   4.603  16.186 -0.2434 -0.2452  0.0519
  637TMC3    C2 9481   0.989   4.663  16.308  0.3371  0.6067  0.2342
  637TMC3    C3 9482   1.123   4.682  16.346  0.5744 -0.0535  0.4589
  637TMC3    C4 9483   1.063   4.549  16.105  0.0160  0.1693 -0.6542
  637TMC3    C5 9484   1.189   4.560  16.150 -0.6012 -0.2200 -0.1479
  637TMC3    C6 9485   1.221   4.627  16.269  0.4351  0.6395 -0.0302
  637TMC3     C 9486   0.850   4.658  16.116 -0.6874 -0.3208 -0.2577
  637TMC3     O 9487   0.813   4.597  16.015  0.2399  0.3994 -0.0395
  637TMC3     H 9488   0.915   4.689  16.384 -0.2468  3.4674 -1.3068
  637TMC3    H1 9489   1.046   4.508  16.006 -0.8274 -0.0428 -0.4271
  637TMC3    H2 9490   1.324   4.649  16.294  0.9379 -0.0839 -1.4850
  637TMC3    C7 9491   1.280   4.606  16.043  0.6326 -0.6634  0.1511
  637TMC3    C8 9492   1.146   0.085  16.363 -0.2716 -0.3465  0.7774
  637TMC3    O1 9493   1.227   4.615  15.930  0.3004  0.3167  0.6352
  637TMC3    O2 9494   1.057   0.160  16.316  0.9553  0.5687 -0.7519
  638MPD2     C 9495   0.381   3.956  15.107 -0.3307 -0.6644 -0.3654
  638MPD2    C1 9496   0.379   3.841  15.035  0.3461  0.7393 -0.1106
  638MPD2    C2 9497   0.332   3.724  15.088  0.3084 -0.2418 -0.1767
  638MPD2    C3 9498   0.271   3.720  15.207  0.0344 -0.0881  0.2014
  638MPD2    C4 9499   0.253   3.841  15.279 -0.0563 -0.0735 -0.7424
  638MPD2    C5 9500   0.315   3.957  15.227 -0.1099 -0.6710 -0.0501
  638MPD2     H 9501   0.330   3.634  15.027 -0.1037 -1.2827  1.3832
  638MPD2    H1 9502   0.196   3.850  15.371  0.3242  1.2177 -0.6305
  638MPD2    H2 9503   0.414   4.048  15.060 -0.4171 -0.6752 -0.4471
  638MPD2    H3 9504   0.300   4.046  15.287 -1.1999 -0.7684 -0.1877
  638MPD2     N 9505   0.209   3.595  15.241 -0.0650 -0.1403 -0.5302
  638MPD2    H5 9506   0.212   3.518  15.175  0.5957  0.4993 -1.2443
  638MPD2    N1 9507   0.433   3.830  14.908  0.4580  0.2378  0.2172
  638MPD2    H7 9508   0.410   3.739  14.870 -3.3202  1.2471  0.1506
  639TMC3    C1 9509   0.058   3.448  15.327 -0.6004 -0.1917 -0.0603
  639TMC3    C2 9510   0.002   3.442  15.199  0.2560 -0.2419 -0.4060
  639TMC3    C3 9511   0.002   3.322  15.130  0.0865  0.1096  0.2287
  639TMC3    C4 9512   0.119   3.338  15.372  0.3285  0.1758 -0.4307
  639TMC3    C5 9513   0.109   3.217  15.302  0.3367 -0.7680  0.6537
  639TMC3    C6 9514   0.062   3.209  15.170 -0.6807 -0.0148  0.0263
  639TMC3     C 9515   0.126   3.574  15.351  0.3233  0.3122  0.3972
  639TMC3     O 9516   0.101   3.649  15.441  0.0990 -0.3500 -0.0122
  639TMC3     H 9517   4.684   3.528  15.163 -0.3401 -0.9862 -1.2753
  639TMC3    H1 9518   0.189   3.346  15.454 -1.7862  1.8281  1.2122
  639TMC3    H2 9519   0.042   3.118  15.114  2.4339 -0.2624 -0.6722
  639TMC3    C7 9520   0.203   3.108  15.334 -0.3494  0.2307 -0.8388
  639TMC3    C8 9521   4.669   3.306  15.000 -0.4235  0.8688  0.1453
  639TMC3    O1 9522   0.215   3.064  15.446 -0.1865 -0.4402 -0.0157
  639TMC3    O2 9523   4.730   3.245  14.915 -0.0742 -0.0172 -0.2486
  640MPD2     C 9524   0.178   2.621   9.562 -0.0869  0.1070 -0.1707
  640MPD2    C1 9525   0.167   2.754   9.515  0.4131 -0.0206 -0.7234
  640MPD2    C2 9526   0.057   2.827   9.550  0.6992 -0.8735  0.2837
  640MPD2    C3 9527   4.707   2.775   9.646 -0.2461  0.4365  0.3387
  640MPD2    C4 9528   4.722   2.648   9.698  0.5523 -0.8207 -0.1529
  640MPD2    C5 9529   0.094   2.572   9.654  0.1828 -0.4427  0.7245
  640MPD2     H 9530   0.041   2.921   9.498  0.3904 -0.1988  1.6043
  640MPD2    H1 9531   4.656   2.608   9.774  2.1466 -2.6305  0.2567
  640MPD2    H2 9532   0.263   2.558   9.538 -0.2805 -0.5317  0.8156
  640MPD2    H3 9533   0.120   2.475   9.695 -0.3227 -1.6453 -1.7730
  640MPD2     N 9534   4.601   2.852   9.701  0.2090 -0.0925 -0.3441
  640MPD2    H5 9535   4.545   2.816   9.777  0.9709 -1.7944 -0.5996
  640MPD2    N1 9536   0.264   2.808   9.434 -0.8043  0.2179  0.3064
  640MPD2    H7 9537   0.244   2.901   9.399  0.5866  0.1099 -0.7649
  641TMC3    C1 9538   0.479   2.841   9.332 -0.1259 -0.2846 -0.1907
  641TMC3    C2 9539   0.610   2.839   9.355  0.5098  0.1608  0.0040
  641TMC3    C3 9540   0.695   2.915   9.276 -0.3033  0.2130  0.5453
  641TMC3    C4 9541   0.426   2.919   9.234 -0.1950 -0.2139 -0.1815
  641TMC3    C5 9542   0.512   2.990   9.155 -0.2125  0.1005 -0.7286
  641TMC3    C6 9543   0.646   3.001   9.181  0.2086 -0.7251  0.7291
  641TMC3     C 9544   0.394   2.761   9.422 -0.7560 -0.3257  0.1866
  641TMC3     O 9545   0.447   2.679   9.501  0.5134 -0.2578 -0.7035
  641TMC3     H 9546   0.654   2.779   9.433  0.5533  1.6289  1.1135
  641TMC3    H1 9547   0.321   2.916   9.209 -0.1541  2.2577 -0.6283
  641TMC3    H2 9548   0.703   3.050   9.103  0.0557  2.3012  2.5334
  641TMC3    C7 9549   0.443   3.073   9.063 -0.0210 -0.0650  0.1497
  641TMC3    C8 9550   0.837   2.921   9.320 -0.4261  0.5627 -0.4727
  641TMC3    O1 9551   0.361   3.015   8.990 -0.7189  0.0794  0.3926
  641TMC3    O2 9552   0.874   2.844   9.410  0.1830  0.1775 -0.4025
  642TMC3    C1 9553   1.810   3.545  12.333  0.6325 -0.6300 -0.7097
  642TMC3    C2 9554   1.917   3.534  12.250  0.4326  0.3460 -0.4424
  642TMC3    C3 9555   1.890   3.472  12.129 -0.6215 -0.1139  0.4403
  642TMC3    C4 9556   1.693   3.476  12.306 -0.0931  0.2020 -0.8926
  642TMC3    C5 9557   1.678   3.409  12.184  0.9453 -0.6219 -0.4671
  642TMC3    C6 9558   1.779   3.407  12.093 -1.2237 -0.1193  0.4879
  642TMC3     C 9559   1.837   3.595  12.463  0.2033  0.6048 -0.4689
  642TMC3     O 9560   1.950   3.601  12.511 -0.2395  0.0629 -0.2313
  642TMC3     H 9561   2.007   3.591  12.270  1.7263 -2.4375  1.6542
  642TMC3    H1 9562   1.618   3.465  12.383  1.8772  0.3996  1.0532
  642TMC3    H2 9563   1.775   3.364  11.994 -0.7460 -0.2420  0.5212
  642TMC3    C7 9564   1.552   3.343  12.149  0.7495  0.6060  0.2968
  642TMC3    C8 9565   2.001   3.471  12.036 -0.7103 -0.2636  0.0042
  642TMC3    O1 9566   1.553   3.312  12.033 -0.6514  0.8871 -0.1457
  642TMC3    O2 9567   1.978   3.506  11.921 -0.1072  0.3976 -0.2680
  643TMC3    C1 9568   0.723   2.355   0.363 -0.5946  0.4152  0.1122
  643TMC3    C2 9569   0.590   2.380   0.373  0.6437  0.0303 -0.4210
  643TMC3    C3 9570   0.507   2.317   0.281  0.1033  0.1388  0.0183
  643TMC3    C4 9571   0.787   2.285   0.267  0.2409  0.3778  0.2404
  643TMC3    C5 9572   0.705   2.243   0.167  0.0814  0.2868 -0.9380
  643TMC3    C6 9573   0.567   2.261   0.171  0.7107  0.2283  0.1066
  643TMC3     C 9574   0.802   2.417   0.469 -0.3561  0.2672  0.3647
  643TMC3     O 9575   0.755   2.515   0.524 -0.0706  0.6012  0.0556
  643TMC3     H 9576   0.542   2.427   0.458  0.9320  0.9863 -0.7860
  643TMC3    H1 9577   0.895   2.293   0.255 -0.0938  1.4843 -2.1267
  643TMC3    H2 9578   0.509   2.252   0.080  1.1080 -1.2644 -0.0100
  643TMC3    C7 9579   0.756   2.292   0.044 -0.1761  0.0256  0.5785
  643TMC3    C8 9580   0.395   2.406   0.235 -0.2109 -0.4129  0.3130
  643TMC3    O1 9581   0.826   2.395   0.046 -0.5092 -0.2010 -0.2950
  643TMC3    O2 9582   0.292   2.347   0.192  0.5805 -0.2932  0.0433
  644MPD2     C 9583   0.640   2.401   9.467 -0.3538  0.4322  0.4165
  644MPD2    C1 9584   0.613   2.449   9.338  0.4671  0.3601  0.7230
  644MPD2    C2 9585   0.487   2.418   9.288 -0.5181 -0.9370  0.1036
  644MPD2    C3 9586   0.398   2.341   9.360  0.3826  0.0476 -0.9477
  644MPD2    C4 9587   0.431   2.294   9.483  0.7273  0.5078 -0.2739
  644MPD2    C5 9588   0.551   2.326   9.535 -0.4626  0.4255 -0.2439
  644MPD2     H 9589   0.458   2.464   9.195 -0.7577  1.1195  1.2051
  644MPD2    H1 9590   0.366   2.229   9.541  0.4881 -1.3485 -2.6333
  644MPD2    H2 9591   0.734   2.425   9.514  1.5071 -3.7657 -1.2047
  644MPD2    H3 9592   0.582   2.291   9.633  0.2392 -0.3887 -0.7574
  644MPD2     N 9593   0.267   2.318   9.307  0.0596 -0.2822  0.2388
  644MPD2    H5 9594   0.244   2.354   9.215  2.3800 -0.8679 -0.5752
  644MPD2    N1 9595   0.712   2.527   9.272  0.3693 -0.4876  0.2556
  644MPD2    H7 9596   0.797   2.529   9.327  0.2014  0.7353  0.4691
  645TMC3    C1 9597   0.035   2.273   9.310 -0.2687 -0.1834  0.4964
  645TMC3    C2 9598   4.736   2.407   9.283  0.0403 -0.2802  0.3427
  645TMC3    C3 9599   4.600   2.427   9.280 -0.0346  0.8684  0.6350
  645TMC3    C4 9600   4.685   2.167   9.321 -0.2539 -0.0222 -0.4890
  645TMC3    C5 9601   4.555   2.197   9.305  0.3311  0.3442  0.0553
  645TMC3    C6 9602   4.509   2.324   9.281 -0.3375 -0.3600 -0.0826
  645TMC3     C 9603   0.168   2.245   9.367 -0.3086 -0.0630  0.5538
  645TMC3     O 9604   0.169   2.161   9.453 -0.8605  0.7704 -0.2310
  645TMC3     H 9605   0.061   2.495   9.289 -0.3827  0.0105  0.4949
  645TMC3    H1 9606   4.711   2.070   9.362 -1.2563  0.6674  1.7846
  645TMC3    H2 9607   4.405   2.345   9.256 -0.0695  0.0511 -0.8494
  645TMC3    C7 9608   4.464   2.099   9.366  0.1846 -0.5920  0.6259
  645TMC3    C8 9609   4.542   2.561   9.282 -0.7884  0.8077 -0.2641
  645TMC3    O1 9610   4.501   1.980   9.370 -0.2271 -0.6408  0.4379
  645TMC3    O2 9611   4.439   2.583   9.346  0.1428 -0.1026  0.0143
  646MPD2     C 9612   0.267   2.495  14.493 -0.5241  0.1514 -0.0880
  646MPD2    C1 9613   0.159   2.466  14.577 -0.2500  0.4525  0.3227
  646MPD2    C2 9614   0.041   2.543  14.553  0.4225 -0.0455 -0.7547
  646MPD2    C3 9615   0.040   2.646  14.458  0.1909 -0.3313 -0.3937
  646MPD2    C4 9616   0.157   2.677  14.387 -0.2321  0.1941  0.6748
  646MPD2    C5 9617   0.262   2.591  14.398  0.3442  0.9112  0.1067
  646MPD2     H 9618   4.698   2.525  14.622  0.7403  1.3274 -0.0264
  646MPD2    H1 9619   0.165   2.751  14.308  0.9107  0.1601  0.7505
  646MPD2    H2 9620   0.360   2.440  14.501  0.7022  2.2340  0.1284
  646MPD2    H3 9621   0.351   2.607  14.338 -1.2313  0.9382 -2.2023
  646MPD2     N 9622   4.659   2.718  14.434 -0.1172 -0.1157  0.0762
  646MPD2    H5 9623   4.573   2.672  14.460 -0.8918  2.3010  1.8490
  646MPD2    N1 9624   0.180   2.357  14.661  0.3929  0.3139 -0.0265
  646MPD2    H7 9625   0.274   2.321  14.675  0.2942 -0.4919 -1.5270
  647TMC3    C1 9626   0.141   2.249  14.865  0.1995  0.5763  0.3959
  647TMC3    C2 9627   0.074   2.145  14.920  1.1377  0.6740  0.9673
  647TMC3    C3 9628   0.136   2.059  15.007  0.2938  0.2289  0.4670
  647TMC3    C4 9629   0.274   2.277  14.899  0.5567 -0.1586 -0.3933
  647TMC3    C5 9630   0.335   2.189  14.984 -0.1131  0.0143 -0.9467
  647TMC3    C6 9631   0.268   2.085  15.041  0.1923 -0.4245  0.0304
  647TMC3     C 9632   0.084   2.321  14.752 -0.5046 -0.3885 -0.1575
  647TMC3     O 9633   4.702   2.337  14.757  0.6883  0.4928  0.0582
  647TMC3     H 9634   4.712   2.120  14.886  0.6797  1.2184  1.8887
  647TMC3    H1 9635   0.339   2.348  14.851  0.9665 -0.6573 -0.5703
  647TMC3    H2 9636   0.323   2.006  15.091 -0.8676  0.5654  2.7367
  647TMC3    C7 9637   0.483   2.181  14.998 -0.2960 -0.4462  0.9137
  647TMC3    C8 9638   0.103   1.921  14.994 -0.1646  0.5725  0.1685
  647TMC3    O1 9639   0.531   2.075  15.036  0.4619 -0.8173 -0.1667
  647TMC3    O2 9640   0.201   1.856  14.959  0.2659 -0.5160  0.5209
  648TMC3    C1 9641   4.622   4.617  16.180  0.7173 -0.6353 -0.6089
  648TMC3    C2 9642   4.714   4.528  16.134  0.4518 -0.8878  0.1374
  648TMC3    C3 9643   0.012   4.542  16.003  0.5711  0.1001 -0.8433
  648TMC3    C4 9644   4.569   4.715  16.099  0.0708 -0.3016  0.2188
  648TMC3    C5 9645   4.601   4.725  15.965 -0.3336 -0.4811  0.6964
  648TMC3    C6 9646   4.694   4.636  15.918  0.4132  0.4139 -0.2634
  648TMC3     C 9647   4.609   4.639  16.326 -0.5230  0.5805  0.6812
  648TMC3     O 9648   4.577   0.019  16.352  0.0861 -0.0712  0.3278
  648TMC3     H 9649   0.031   4.461  16.199  0.7037 -0.9854 -0.1780
  648TMC3    H1 9650   4.502   0.053  16.138  1.3379  1.5521 -1.1240
  648TMC3    H2 9651   4.736   4.649  15.818  0.6614 -0.1387 -0.2338
  648TMC3    C7 9652   4.523   0.060  15.871 -0.3053  0.5298  0.2238
  648TMC3    C8 9653   0.147   4.502  15.974 -0.4444 -0.3677 -0.4853
  648TMC3    O1 9654   4.560   0.055  15.753  0.3398  0.4061  0.8690
  648TMC3    O2 9655   0.207   4.464  16.076  0.0320 -0.4955  0.3685
  649TMC3    C1 9656   3.268   0.893  13.111 -0.1652  0.0418 -0.2041
  649TMC3    C2 9657   3.403   0.882  13.093 -0.3581  0.0331 -0.7847
  649TMC3    C3 9658   3.478   0.827  13.202  0.0075 -0.1813 -0.0971
  649TMC3    C4 9659   3.210   0.839  13.224  0.0099  0.0965  0.7135
  649TMC3    C5 9660   3.280   0.761  13.308  0.4081 -0.1702  0.5100
  649TMC3    C6 9661   3.416   0.755  13.301  0.0828  0.1295  0.0175
  649TMC3     C 9662   3.178   0.927  13.006  0.4378 -0.2967 -0.4197
  649TMC3     O 9663   3.061   0.908  13.035 -0.1980 -0.2348  0.5739
  649TMC3     H 9664   3.451   0.933  13.010 -2.4201  1.1259 -1.3124
  649TMC3    H1 9665   3.103   0.840  13.242 -0.0526 -1.5250  0.5046
  649TMC3    H2 9666   3.472   0.716  13.386  0.5622  0.9009  0.0556
  649TMC3    C7 9667   3.214   0.709  13.423 -0.1363  0.5857  0.2574
  649TMC3    C8 9668   3.623   0.814  13.194  0.0473  0.9726 -0.6020
  649TMC3    O1 9669   3.101   0.749  13.428  0.0920  0.6519  0.6658
  649TMC3    O2 9670   3.678   0.742  13.275 -0.4135 -0.0109 -0.1567
  650TMC3    C1 9671   1.358   2.726  13.103 -0.0450  0.1528 -0.0466
  650TMC3    C2 9672   1.308   2.851  13.155 -0.4216 -0.0579  0.3853
  650TMC3    C3 9673   1.170   2.881  13.134  0.5835 -0.6133 -0.0108
  650TMC3    C4 9674   1.287   2.646  13.010  0.0021 -0.0826  0.0232
  650TMC3    C5 9675   1.153   2.682  12.988 -1.0457 -0.6108 -0.1605
  650TMC3    C6 9676   1.102   2.806  13.041  0.2644 -0.0955  0.5104
  650TMC3     C 9677   1.487   2.690  13.141 -0.3279 -0.0579 -0.2173
  650TMC3     O 9678   1.545   2.746  13.233 -0.2095 -0.2928  0.5906
  650TMC3     H 9679   1.368   2.920  13.214  2.7005 -1.5449 -1.0478
  650TMC3    H1 9680   1.310   2.545  12.977  1.8114  0.1779  0.4833
  650TMC3    H2 9681   0.995   2.825  13.039  0.3170 -0.0275 -1.3399
  650TMC3    C7 9682   1.109   2.657  12.852 -0.1693  0.4056 -0.3595
  650TMC3    C8 9683   1.118   3.014  13.157  0.3986 -0.6639 -0.0571
  650TMC3    O1 9684   1.154   2.558  12.793  0.6271 -0.4844  0.2150
  650TMC3    O2 9685   1.045   3.050  13.066  0.5182  0.3591  0.2982
  651MPD2     C 9686   4.334   0.018  10.549 -0.5468  0.1482  0.1429
  651MPD2    C1 9687   4.316   0.131  10.627  0.1565 -0.1678  0.2868
  651MPD2    C2 9688   4.433   0.191  10.678 -0.6701 -0.4807  0.4066
  651MPD2    C3 9689   4.558   0.131  10.657 -0.3738 -0.0466  0.2460
  651MPD2    C4 9690   4.561   0.005  10.602 -0.2153  0.5953  0.4599
  651MPD2    C5 9691   4.452   4.688  10.547 -0.0679 -0.1399  0.0850
  651MPD2     H 9692   4.419   0.288  10.725 -1.7984 -0.1620 -0.5615
  651MPD2    H1 9693   4.652   4.684  10.589  0.2071  1.6593 -1.4983
  651MPD2    H2 9694   4.253   4.714  10.490  0.1924 -1.7749  0.4781
  651MPD2    H3 9695   4.461   4.603  10.481 -2.0476 -0.7130  0.5569
  651MPD2     N 9696   4.673   0.201  10.703  0.3453 -0.3036 -0.0003
  651MPD2    H5 9697   4.654   0.280  10.764  0.5816 -0.5609  0.4065
  651MPD2    N1 9698   4.194   0.197  10.651  0.8047 -0.5057 -0.1506
  651MPD2    H7 9699   4.178   0.288  10.693 -1.7094 -0.6274 -0.8454
  652TMC3    C1 9700   0.369   0.317  10.745 -0.2727  0.2983 -0.4542
  652TMC3    C2 9701   0.281   0.213  10.715 -0.6601 -0.5897 -0.3732
  652TMC3    C3 9702   0.158   0.216  10.778  0.0955  0.8940  0.0702
  652TMC3    C4 9703   0.339   0.424  10.824  0.4155 -0.4350 -0.2285
  652TMC3    C5 9704   0.223   0.418  10.885  1.1019 -0.5957 -0.6310
  652TMC3    C6 9705   0.129   0.318  10.867 -0.2837 -0.1033  0.9688
  652TMC3     C 9706   0.510   0.293  10.731  0.0071  0.4898  0.3899
  652TMC3     O 9707   0.557   0.186  10.769 -0.1736  0.3866 -0.1952
  652TMC3     H 9708   0.312   0.133  10.649  1.8249  1.9334 -2.2810
  652TMC3    H1 9709   0.415   0.501  10.834 -0.7743  1.0372 -2.3546
  652TMC3    H2 9710   0.029   0.338  10.903  0.5419  0.7359  2.7635
  652TMC3    C7 9711   0.211   0.501  11.005  0.0034  1.0777  0.7711
  652TMC3    C8 9712   0.058   0.163  10.687  0.0992  0.4274  0.1104
  652TMC3    O1 9713   0.120   0.463  11.079 -0.2081 -0.5515  0.3861
  652TMC3    O2 9714   0.097   0.075  10.613  1.0810 -0.5503 -0.1491
  653MPD2     C 9715   3.409   4.453  17.745  0.3999  0.6169  0.4176
  653MPD2    C1 9716   3.388   4.527  17.630 -0.4335 -0.7358  0.1782
  653MPD2    C2 9717   3.345   4.457  17.519 -0.2742  0.2575 -0.2445
  653MPD2    C3 9718   3.300   4.331  17.520 -0.8730 -0.6447 -1.0486
  653MPD2    C4 9719   3.315   4.258  17.636  0.4320  0.0225  0.0887
  653MPD2    C5 9720   3.373   4.320  17.746 -0.6156 -0.1859 -0.1244
  653MPD2     H 9721   3.333   4.516  17.430  2.0201  1.2677  0.1195
  653MPD2    H1 9722   3.292   4.153  17.649 -0.4964  0.1768 -0.3850
  653MPD2    H2 9723   3.446   4.497   0.088 -0.2874  0.9447  0.5393
  653MPD2    H3 9724   3.386   4.255   0.082  1.6585  0.2676 -0.1392
  653MPD2     N 9725   3.243   4.274  17.398 -0.1262  0.1987 -0.2036
  653MPD2    H5 9726   3.223   4.343  17.325 -0.8581  1.0486  0.8019
  653MPD2    N1 9727   3.414   4.661  17.625 -0.5137 -0.2391 -0.6415
  653MPD2    H7 9728   3.429   4.703  17.533 -2.3899 -0.5662 -1.0842
  654TMC3    C1 9729   3.148   4.098  17.267  0.8464  0.3045  0.5808
  654TMC3    C2 9730   3.087   4.195  17.189  0.1884 -0.0315 -0.1207
  654TMC3    C3 9731   3.051   4.164  17.057 -0.0120 -0.3436 -0.2868
  654TMC3    C4 9732   3.159   3.973  17.224  0.0250  0.3578 -0.0916
  654TMC3    C5 9733   3.118   3.942  17.095 -0.2297 -0.0604 -0.5837
  654TMC3    C6 9734   3.071   4.035  17.005 -0.3144 -0.6688 -0.0798
  654TMC3     C 9735   3.227   4.140  17.381 -0.5158 -0.4905 -0.5355
  654TMC3     O 9736   3.278   4.054  17.448 -0.5140 -0.4442  0.2835
  654TMC3     H 9737   3.089   4.299  17.219 -3.2047  0.4438 -1.5810
  654TMC3    H1 9738   3.194   3.896  17.292  0.5313  1.5604  1.0062
  654TMC3    H2 9739   3.033   4.002  16.909 -1.0485  0.5802 -0.2241
  654TMC3    C7 9740   3.143   3.809  17.043 -0.5673  0.7152 -0.0518
  654TMC3    C8 9741   3.018   4.279  16.973 -0.2236 -0.3951 -0.3753
  654TMC3    O1 9742   3.141   3.808  16.922 -0.3305  0.5383  0.2031
  654TMC3    O2 9743   3.024   4.394  17.023 -0.4538 -0.0751  0.0828
  655MPD2     C 9744   0.242   0.120  15.731  0.4922  0.5942 -0.5132
  655MPD2    C1 9745   0.156   0.206  15.664 -0.6104  0.7605 -0.2265
  655MPD2    C2 9746   0.135   0.176  15.527  0.1131  0.6822  0.0294
  655MPD2    C3 9747   0.199   0.076  15.460 -0.1640 -0.2680 -0.5444
  655MPD2    C4 9748   0.290   4.733  15.526 -0.5585 -0.5869  0.4226
  655MPD2    C5 9749   0.309   0.022  15.668 -0.2893 -0.2053  0.5484
  655MPD2     H 9750   0.074   0.243  15.469 -2.6903 -2.2960 -0.4876
  655MPD2    H1 9751   0.351   4.652  15.488 -1.3637 -1.7620  1.5952
  655MPD2    H2 9752   0.259   0.131  15.838 -2.6107 -0.7600  0.1425
  655MPD2    H3 9753   0.375   4.695  15.725 -1.8188  0.2945  2.9157
  655MPD2     N 9754   0.162   0.054  15.328 -0.4553 -0.4885 -0.6798
  655MPD2    H5 9755   0.074   0.100  15.303 -1.8660 -1.5829  2.1470
  655MPD2    N1 9756   0.087   0.311  15.730 -0.4587 -1.0786  0.3922
  655MPD2    H7 9757   0.036   0.376  15.671 -0.4184  0.5512  2.1192
  656TMC3    C1 9758   4.704   0.415  15.907 -0.4674 -0.4094 -0.5306
  656TMC3    C2 9759   4.630   0.383  16.020 -0.3141 -0.4408  0.1981
  656TMC3    C3 9760   4.522   0.461  16.045 -0.6108  0.1757 -0.2029
  656TMC3    C4 9761   4.666   0.516  15.827 -0.1781 -0.0904  0.3633
  656TMC3    C5 9762   4.552   0.580  15.850  0.1628 -0.1050 -0.3221
  656TMC3    C6 9763   4.471   0.553  15.954  0.4939  0.0490 -0.1325
  656TMC3     C 9764   0.072   0.321  15.866 -0.5701 -0.2122  0.0085
  656TMC3     O 9765   0.121   0.255  15.951  0.3495 -0.1517  0.3224
  656TMC3     H 9766   4.662   0.301  16.083  3.8885  0.8749 -0.2442
  656TMC3    H1 9767   4.733   0.534  15.744  0.0817 -0.7528  0.4293
  656TMC3    H2 9768   4.382   0.611  15.978 -0.8201 -1.6561 -0.9546
  656TMC3    C7 9769   4.496   0.657  15.737  0.0411  0.7339 -0.2864
  656TMC3    C8 9770   4.430   0.414  16.154  0.4365 -0.1709 -0.4068
  656TMC3    O1 9771   4.563   0.648  15.633 -0.4910 -0.7884 -0.0874
  656TMC3    O2 9772   4.423   0.296  16.186 -0.2493  0.0932 -0.1161
  657TMC3    C1 9773   3.839   4.219  15.209  0.1537 -0.5899  0.0176
  657TMC3    C2 9774   3.882   4.270  15.328  0.6204  0.1785 -0.2011
  657TMC3    C3 9775   3.831   4.395  15.360 -0.8227 -0.5155 -0.2375
  657TMC3    C4 9776   3.751   4.282  15.125  0.0250  0.4493  0.0573
  657TMC3    C5 9777   3.697   4.402  15.168 -0.4267  0.2294  0.7958
  657TMC3    C6 9778   3.731   4.459  15.283  0.0517 -0.9973 -0.0149
  657TMC3     C 9779   3.908   4.120  15.137 -0.6668 -0.8479  0.0568
  657TMC3     O 9780   3.904   4.115  15.015  0.3426  0.8594 -0.0076
  657TMC3     H 9781   3.972   4.250  15.385  1.1430  3.4498  0.1346
  657TMC3    H1 9782   3.704   4.233  15.041  0.3302 -0.6272  0.5116
  657TMC3    H2 9783   3.685   4.552  15.315  2.2017  0.2719 -0.5734
  657TMC3    C7 9784   3.570   4.442  15.116 -0.1507 -0.0212 -0.2980
  657TMC3    C8 9785   3.861   4.452  15.492 -0.3632 -0.0325  0.2046
  657TMC3    O1 9786   3.488   4.479  15.195 -0.2178  0.0344  0.4331
  657TMC3    O2 9787   3.923   4.376  15.565  0.0770 -0.9681  0.0014
  658MPD2     C 9788   0.590   4.604  14.654  0.3426  0.1553 -0.0620
  658MPD2    C1 9789   0.456   4.649  14.649  0.1030  0.2848  0.4208
  658MPD2    C2 9790   0.403   4.711  14.532  0.1022 -0.2852 -0.6596
  658MPD2    C3 9791   0.476   4.723  14.418  0.0876 -0.0307  0.3205
  658MPD2    C4 9792   0.610   4.675  14.432 -0.5902  0.1742 -0.3494
  658MPD2    C5 9793   0.666   4.623  14.544  0.0992 -0.4275 -0.0035
  658MPD2     H 9794   0.301   0.009  14.535  0.9873  2.3154 -1.8240
  658MPD2    H1 9795   0.677   4.676  14.347  0.4794 -0.2942  0.4820
  658MPD2    H2 9796   0.622   4.548  14.742 -0.4407  1.8836  1.3288
  658MPD2    H3 9797   0.770   4.592  14.538  0.2426 -0.2314  1.5087
  658MPD2     N 9798   0.419   0.062  14.307 -0.2490 -0.3103  0.2333
  658MPD2    H5 9799   0.322   0.090  14.314 -0.1416 -0.0288  0.6193
  658MPD2    N1 9800   0.377   4.642  14.766 -0.2835 -0.2777 -0.7723
  658MPD2    H7 9801   0.425   4.628  14.855 -1.2441 -0.2633 -0.2594
  659TMC3    C1 9802   0.173   4.637  14.890  0.2142  0.5728 -0.2079
  659TMC3    C2 9803   0.232   4.709  14.987  0.2106  0.2604 -0.0228
  659TMC3    C3 9804   0.158   4.728  15.102  0.0170  0.5354  0.0122
  659TMC3    C4 9805   0.050   4.578  14.893 -0.0200  0.1579  0.1574
  659TMC3    C5 9806   4.719   4.602  15.009  0.3356 -1.1142 -0.0240
  659TMC3    C6 9807   0.027   4.682  15.111 -0.5391 -0.7011 -0.2054
  659TMC3     C 9808   0.242   4.643  14.763  0.1116  0.2215 -0.7630
  659TMC3     O 9809   0.169   4.617  14.672  0.5305 -0.2005 -0.1292
  659TMC3     H 9810   0.326   0.024  14.986  1.0990 -1.2314  2.9744
  659TMC3    H1 9811   0.003   4.530  14.808 -2.6701  0.8955  1.2049
  659TMC3    H2 9812   4.712   4.691  15.206 -0.9252  1.2896 -0.6034
  659TMC3    C7 9813   4.589   4.538  15.028 -0.1298  0.2662  0.1890
  659TMC3    C8 9814   0.235   4.730  15.231 -0.3670  0.2597  0.8318
  659TMC3    O1 9815   4.503   4.596  15.089  0.0154  0.0931 -0.4352
  659TMC3    O2 9816   0.357   4.727  15.214  0.9295  0.0785 -0.2323
  660MPD2     C 9817   2.659   3.695  12.938  0.0509  0.2111  0.9636
  660MPD2    C1 9818   2.532   3.666  12.901 -0.0859  0.1476 -0.1078
  660MPD2    C2 9819   2.466   3.546  12.932  0.5231 -0.5580 -0.3421
  660MPD2    C3 9820   2.525   3.447  13.011 -0.5715 -0.0643  0.2600
  660MPD2    C4 9821   2.652   3.476  13.049 -0.7882  0.8136  0.0742
  660MPD2    C5 9822   2.715   3.593  13.008 -0.1315  0.3124  0.1425
  660MPD2     H 9823   2.366   3.530  12.892 -0.8901  2.2657  2.0535
  660MPD2    H1 9824   2.715   3.416  13.114  0.7028  0.6942 -1.4702
  660MPD2    H2 9825   2.715   3.781  12.902  1.9181 -0.4017  2.3933
  660MPD2    H3 9826   2.816   3.613  13.040 -0.3298  1.4901  0.0414
  660MPD2     N 9827   2.459   3.331  13.067  0.0024  0.9139  0.4082
  660MPD2    H5 9828   2.505   3.273  13.136 -0.0815 -2.5911 -2.4639
  660MPD2    N1 9829   2.478   3.763  12.815  0.0457  0.3740 -0.4181
  660MPD2    H7 9830   2.543   3.839  12.796  1.4165 -0.4490  0.9819
  661TMC3    C1 9831   2.322   3.878  12.675 -0.4766  0.5204  0.2836
  661TMC3    C2 9832   2.416   3.932  12.592 -0.1898  0.3416  0.2581
  661TMC3    C3 9833   2.371   4.016  12.493 -0.8906 -0.1146  0.5348
  661TMC3    C4 9834   2.191   3.929  12.672  0.6068  0.9010 -1.0185
  661TMC3    C5 9835   2.151   4.020  12.581 -0.1227  0.9268  0.3612
  661TMC3    C6 9836   2.244   4.057  12.489 -0.1803  0.0525 -0.0883
  661TMC3     C 9837   2.348   3.762  12.768  0.5939 -0.3816 -0.7782
  661TMC3     O 9838   2.254   3.694  12.806  0.5015 -0.0381 -0.3906
  661TMC3     H 9839   2.514   3.887  12.579  0.3076  1.1499  1.2280
  661TMC3    H1 9840   2.116   3.890  12.740  0.0553  1.0615 -1.5276
  661TMC3    H2 9841   2.219   4.127  12.410  2.7913  0.0513 -1.0015
  661TMC3    C7 9842   2.014   4.015  12.543  0.5007  0.5969  0.0282
  661TMC3    C8 9843   2.458   4.034  12.372 -0.4377 -0.3181  0.0926
  661TMC3    O1 9844   1.936   4.049  12.632  0.3446 -0.7161 -0.1256
  661TMC3    O2 9845   2.509   3.927  12.334  0.7371 -0.4876  0.1643
  662MPD2     C 9846   3.329   2.999  17.221 -0.2742  0.3700 -0.0755
  662MPD2    C1 9847   3.342   2.876  17.275  0.2111 -0.5101 -0.5928
  662MPD2    C2 9848   3.251   2.828  17.367  0.6820 -0.8023  0.0895
  662MPD2    C3 9849   3.150   2.906  17.414 -0.5748 -0.2527 -0.3007
  662MPD2    C4 9850   3.141   3.028  17.358  0.8922 -0.4650 -0.0278
  662MPD2    C5 9851   3.224   3.072  17.266  1.0387 -0.3354  0.1261
  662MPD2     H 9852   3.256   2.726  17.403 -0.1719 -0.9113 -0.1071
  662MPD2    H1 9853   3.058   3.097  17.375  1.5367  0.8245 -2.1476
  662MPD2    H2 9854   3.393   3.045  17.146  0.0311 -0.0957 -0.0988
  662MPD2    H3 9855   3.198   3.167  17.221  1.2517 -0.2168  0.2575
  662MPD2     N 9856   3.047   2.873  17.504  0.1977  0.1128 -0.5240
  662MPD2    H5 9857   2.991   2.952  17.534 -0.1453 -0.9220  1.5728
  662MPD2    N1 9858   3.444   2.785  17.247  0.1128 -0.7400  0.3908
  662MPD2    H7 9859   3.432   2.688  17.273 -0.7534 -0.7780 -0.1692
  663TMC3    C1 9860   3.627   2.705  17.128  0.3623 -0.0613  0.2707
  663TMC3    C2 9861   3.695   2.638  17.223 -0.4259 -1.0628  0.0783
  663TMC3    C3 9862   3.691   2.502  17.214 -0.1623  0.7407  0.3230
  663TMC3    C4 9863   3.562   2.645  17.027 -0.2176 -0.3621 -0.5589
  663TMC3    C5 9864   3.540   2.511  17.037 -0.6033  0.3932  0.0925
  663TMC3    C6 9865   3.606   2.437  17.129 -0.1422  0.0112  0.6240
  663TMC3     C 9866   3.558   2.820  17.170  0.0227  0.0300 -0.4741
  663TMC3     O 9867   3.599   2.926  17.132 -0.1283 -0.0353 -0.1969
  663TMC3     H 9868   3.725   2.686  17.316 -0.1640  0.4644 -0.7859
  663TMC3    H1 9869   3.510   2.713  16.961  1.3694  1.1612 -0.2393
  663TMC3    H2 9870   3.609   2.329  17.122 -3.6305 -0.1371  1.3026
  663TMC3    C7 9871   3.445   2.451  16.947  0.0404 -0.4154  0.7605
  663TMC3    C8 9872   3.714   2.452  17.346 -0.6870  0.8023 -0.2868
  663TMC3    O1 9873   3.419   2.513  16.848  0.4794 -0.0392  0.2600
  663TMC3    O2 9874   3.825   2.490  17.388  0.4144 -0.2690 -0.5539
  664MPD2     C 9875   0.873   1.488  17.259 -0.9659 -0.2901 -0.1947
  664MPD2    C1 9876   0.990   1.507  17.326 -0.8009  0.3101  1.2804
  664MPD2    C2 9877   1.001   1.447  17.456 -0.3616 -1.2736  0.1850
  664MPD2    C3 9878   0.892   1.392  17.520 -0.2319 -0.5286  0.4154
  664MPD2    C4 9879   0.772   1.391  17.459 -0.6837  0.1014 -1.2397
  664MPD2    C5 9880   0.765   1.439  17.330 -0.3715 -0.0109 -0.1393
  664MPD2     H 9881   1.094   1.463  17.509  0.2593  0.4193 -1.4342
  664MPD2    H1 9882   0.687   1.338  17.500  0.3025 -1.1718 -0.8414
  664MPD2    H2 9883   0.861   1.532  17.161  0.2525 -0.0684 -0.2410
  664MPD2    H3 9884   0.669   1.427  17.280  0.9113 -1.1718 -2.3093
  664MPD2     N 9885   0.906   1.330  17.644  0.4356  0.3279  0.1533
  664MPD2    H5 9886   1.002   1.323  17.678 -0.0701 -1.5118  1.1969
  664MPD2    N1 9887   1.105   1.572  17.269  0.4658 -0.7643 -0.1787
  664MPD2    H7 9888   1.188   1.582  17.326 -0.7962  2.1514  1.2105
  665TMC3    C1 9889   0.852   1.243   0.109  0.7919 -0.1770 -0.0562
  665TMC3    C2 9890   0.774   1.245   0.222  0.1498 -0.6798  0.0044
  665TMC3    C3 9891   0.833   1.222   0.344  0.6444 -0.0090 -0.0742
  665TMC3    C4 9892   0.981   1.191   0.109  0.2658  0.1760 -0.8362
  665TMC3    C5 9893   1.033   1.157   0.231 -0.4728  0.4070  0.1661
  665TMC3    C6 9894   0.961   1.184   0.347 -0.5958  0.7037 -0.0585
  665TMC3     C 9895   0.809   1.317  17.742  0.3910 -0.0392 -0.0631
  665TMC3     O 9896   0.700   1.370  17.746  0.4483  0.5556 -0.1730
  665TMC3     H 9897   0.673   1.284   0.213  0.2431 -0.7286 -1.2599
  665TMC3    H1 9898   1.035   1.166   0.019  3.6897 -2.0078  1.8449
  665TMC3    H2 9899   0.990   1.131   0.437 -0.6714  1.9969  0.7155
  665TMC3    C7 9900   1.178   1.163   0.237 -0.3086 -0.4934  0.0288
  665TMC3    C8 9901   0.772   1.252   0.474 -0.3223 -0.0216 -0.3675
  665TMC3    O1 9902   1.238   1.142   0.136  0.0882  0.5630 -0.3533
  665TMC3    O2 9903   0.854   1.243   0.564 -0.0915  0.2300  0.8046
  666TMC3    C1 9904   0.040   1.375  10.547  0.1096 -0.5502  0.2219
  666TMC3    C2 9905   0.165   1.346  10.563  0.5803  0.0729  0.3891
  666TMC3    C3 9906   0.248   1.452  10.587 -0.0061  0.2954 -0.1745
  666TMC3    C4 9907   4.727   1.498  10.539  0.1513 -0.2139  0.2865
  666TMC3    C5 9908   0.074   1.604  10.550  0.1516  0.1253  1.0270
  666TMC3    C6 9909   0.209   1.583  10.575  0.0640  0.3659  0.2106
  666TMC3     C 9910   4.688   1.264  10.580  0.0203  0.3020 -0.2455
  666TMC3     O 9911   4.589   1.288  10.648  0.4631 -0.1907 -0.8551
  666TMC3     H 9912   0.198   1.245  10.584  0.1973  0.0613  0.9293
  666TMC3    H1 9913   4.624   1.505  10.504 -0.2244 -1.9938  1.0053
  666TMC3    H2 9914   0.275   1.664  10.603  0.6656 -1.1568  3.1954
  666TMC3    C7 9915   0.010   1.734  10.529  0.4519 -0.9184  0.8552
  666TMC3    C8 9916   0.383   1.415  10.625 -0.3244  0.6883  0.5453
  666TMC3    O1 9917   4.624   1.731  10.528 -0.0997 -0.2071  0.2662
  666TMC3    O2 9918   0.403   1.305  10.673  0.3565 -0.2718 -0.6933
  667MPD2     C 9919   1.946   1.438  14.814  0.0870 -0.3726 -0.5310
  667MPD2    C1 9920   1.868   1.527  14.874  0.2577  0.0214  0.3130
  667MPD2    C2 9921   1.730   1.503  14.863 -0.7720 -0.0813  0.2576
  667MPD2    C3 9922   1.679   1.388  14.810  0.6110 -0.3017  1.4675
  667MPD2    C4 9923   1.758   1.297  14.744  0.5186 -0.4142 -0.5132
  667MPD2    C5 9924   1.893   1.325  14.746 -0.0685 -0.1911 -0.2298
  667MPD2     H 9925   1.664   1.570  14.919  0.2520 -0.3641  1.8090
  667MPD2    H1 9926   1.720   1.200  14.715 -0.1246  0.7555 -3.5233
  667MPD2    H2 9927   2.053   1.435  14.832 -0.1275  0.5748  0.9214
  667MPD2    H3 9928   1.962   1.252  14.704 -0.4996 -2.2119  2.5102
  667MPD2     N 9929   1.544   1.348  14.825 -0.0727  0.1062  0.2050
  667MPD2    H5 9930   1.522   1.254  14.795 -0.2524 -0.0457  0.8150
  667MPD2    N1 9931   1.920   1.640  14.941 -0.1061 -0.3362 -0.3013
  667MPD2    H7 9932   1.848   1.691  14.992  0.1277  1.7408 -2.0966
  668TMC3    C1 9933   2.071   1.776  15.055  0.0065 -0.2272 -0.3596
  668TMC3    C2 9934   2.173   1.861  15.040  0.5407 -0.3717 -0.5277
  668TMC3    C3 9935   2.214   1.925  15.159  0.4720 -0.6562 -0.0342
  668TMC3    C4 9936   1.994   1.767  15.174 -0.4841  0.4782  0.6861
  668TMC3    C5 9937   2.032   1.832  15.283 -0.4249 -0.4847 -0.4312
  668TMC3    C6 9938   2.147   1.912  15.283  0.0672 -0.3482  0.2305
  668TMC3     C 9939   2.053   1.679  14.946 -0.3670  0.4343 -0.7769
  668TMC3     O 9940   2.148   1.651  14.875 -0.4473  0.6024  0.4426
  668TMC3     H 9941   2.220   1.875  14.944  0.4793  1.0206 -0.3551
  668TMC3    H1 9942   1.925   1.685  15.194 -0.1393 -0.2178 -0.9342
  668TMC3    H2 9943   2.173   1.970  15.370 -4.2205  1.9330  0.0287
  668TMC3    C7 9944   1.934   1.849  15.387 -0.5041 -0.6353 -0.6459
  668TMC3    C8 9945   2.318   2.025  15.168  0.3337  0.4927 -0.2720
  668TMC3    O1 9946   1.982   1.886  15.494  0.0598  0.3793  0.0945
  668TMC3    O2 9947   2.360   2.066  15.277  0.4971 -0.0843  0.5044
  669TMC3    C1 9948   4.493   1.459  14.876 -0.3643  1.4662  0.5518
  669TMC3    C2 9949   4.376   1.504  14.822 -0.1109 -0.8325 -0.3227
  669TMC3    C3 9950   4.387   1.578  14.706  0.5235  0.3232  0.3457
  669TMC3    C4 9951   4.612   1.478  14.827 -0.1299  0.2677  0.9019
  669TMC3    C5 9952   4.623   1.547  14.707  0.0316 -0.4559  0.1596
  669TMC3    C6 9953   4.510   1.607  14.646  0.2500 -0.3552 -0.0632
  669TMC3     C 9954   4.471   1.360  14.979 -0.0825  0.6073  0.0215
  669TMC3     O 9955   4.373   1.377  15.054  0.1103 -0.3082 -0.6757
  669TMC3     H 9956   4.286   1.472  14.873 -1.0991  0.7359 -1.0845
  669TMC3    H1 9957   4.702   1.444  14.876  0.3299 -2.6913 -2.0454
  669TMC3    H2 9958   4.515   1.674  14.561  1.3817 -2.9147 -2.0167
  669TMC3    C7 9959   0.020   1.595  14.672 -0.0450  0.4045  0.6621
  669TMC3    C8 9960   4.269   1.583  14.620 -0.1315  0.0608 -0.3749
  669TMC3    O1 9961   0.020   1.708  14.624 -0.0175  0.3221 -0.1557
  669TMC3    O2 9962   4.188   1.497  14.645  0.0356 -0.2744  0.5912
  670MPD2     C 9963   3.211   3.748  13.625  0.1323  0.3818 -0.5698
  670MPD2    C1 9964   3.290   3.789  13.728 -0.9387 -0.5890  0.7134
  670MPD2    C2 9965   3.243   3.850  13.842 -0.5012 -0.2955  0.0308
  670MPD2    C3 9966   3.115   3.889  13.848 -0.2840 -0.1440  0.6909
  670MPD2    C4 9967   3.027   3.863  13.737  0.0974  0.1941 -0.1274
  670MPD2    C5 9968   3.072   3.783  13.634  0.3630  0.3578 -0.2484
  670MPD2     H 9969   3.317   3.875  13.917 -0.4648 -1.3895  0.3537
  670MPD2    H1 9970   2.921   3.881  13.749 -0.1293 -1.4956  0.4036
  670MPD2    H2 9971   3.249   3.685  13.546  1.2924  0.1188  0.1962
  670MPD2    H3 9972   3.001   3.764  13.554 -0.0677 -0.4154  0.3188
  670MPD2     N 9973   3.078   3.941  13.970 -0.0033 -0.2463 -0.6173
  670MPD2    H5 9974   3.150   3.938  14.042 -2.8361 -2.2936  2.1150
  670MPD2    N1 9975   3.434   3.768  13.724  0.3638 -0.4457 -0.0065
  670MPD2    H7 9976   3.477   3.808  13.807 -0.1679  2.4096 -1.0924
  671TMC3    C1 9977   2.947   4.015  14.144  0.2750 -0.0661  0.9331
  671TMC3    C2 9978   3.072   4.021  14.209  0.3915  0.2412  0.7301
  671TMC3    C3 9979   3.103   3.926  14.307 -0.2721 -0.1901  0.0780
  671TMC3    C4 9980   2.851   3.935  14.203 -0.0300  0.6908 -0.1499
  671TMC3    C5 9981   2.881   3.853  14.308 -0.9527  0.4769 -0.2141
  671TMC3    C6 9982   3.014   3.839  14.354 -0.1847 -0.1838  0.1082
  671TMC3     C 9983   2.952   3.977  14.010 -0.2574  0.2205 -0.4305
  671TMC3     O 9984   2.842   3.980  13.952 -0.4773  0.1448  0.0721
  671TMC3     H 9985   3.143   4.087  14.161 -0.4071 -0.1426 -0.9841
  671TMC3    H1 9986   2.749   3.926  14.167  0.8454  2.1977 -3.0808
  671TMC3    H2 9987   3.038   3.769  14.433  1.0007  1.0000  0.8048
  671TMC3    C7 9988   2.798   3.736  14.340 -0.2738  0.6063  0.8220
  671TMC3    C8 9989   3.240   3.873  14.298  0.4949 -0.1986 -0.4852
  671TMC3    O1 9990   2.847   3.657  14.420  0.4675  0.6931 -0.1436
  671TMC3    O2 9991   3.293   3.893  14.190  0.0668 -0.7319 -0.1086
  672MPD2     C 9992   2.608   4.091   0.721 -0.2954  0.7628  0.4042
  672MPD2    C1 9993   2.731   4.028   0.726  0.2529  0.4599 -0.0232
  672MPD2    C2 9994   2.838   4.079   0.802  0.4307  0.8561 -0.6995
  672MPD2    C3 9995   2.826   4.204   0.867  0.1938 -0.2915 -0.2146
  672MPD2    C4 9996   2.703   4.265   0.865  0.2380  0.1085  0.7952
  672MPD2    C5 9997   2.601   4.206   0.792  0.5841  0.7973 -0.0816
  672MPD2     H 9998   2.931   4.023   0.800  2.0608  3.3861  2.8987
  672MPD2    H1 9999   2.686   4.352   0.927  2.6447  0.1301  1.4249
  672MPD2    H210000   2.513   4.059   0.679 -1.5406  0.5335  3.4245
  672MPD2    H310001   2.499   4.241   0.806  0.3702  0.5957 -1.1643
  672MPD2     N10002   2.933   4.275   0.925 -0.1873  0.2994  0.3754
  672MPD2    H510003   2.921   4.374   0.942 -0.4760  0.1850  0.8411
  672MPD2    N110004   2.751   3.914   0.653 -0.4041 -0.5357 -0.3797
  672MPD2    H710005   2.839   3.866   0.667 -0.1163  0.1837  0.3220
  673TMC3    C110006   2.752   3.797   0.455 -0.3363  0.4122 -0.3834
  673TMC3    C210007   2.848   3.714   0.514  0.1679  0.0422  0.2527
  673TMC3    C310008   2.953   3.682   0.438  0.1754 -0.1356  0.4937
  673TMC3    C410009   2.746   3.822   0.323  0.3630  0.0789  0.3929
  673TMC3    C510010   2.849   3.772   0.239 -1.0981  0.0899  0.0179
  673TMC3    C610011   2.953   3.704   0.298  0.0043  0.2747 -0.8384
  673TMC3     C10012   2.678   3.885   0.542  0.8256  0.2240 -0.6281
  673TMC3     O10013   2.570   3.926   0.499  0.5706 -0.4576  0.0822
  673TMC3     H10014   2.844   3.685   0.618 -1.8220 -1.7141 -0.3248
  673TMC3    H110015   2.672   3.894   0.290  0.7710  0.2706 -0.1075
  673TMC3    H210016   3.039   3.671   0.242  2.1545  3.1725  0.7299
  673TMC3    C710017   2.880   3.844   0.116  0.8219  0.3197  0.8640
  673TMC3    C810018   3.057   3.605   0.514  0.0817  0.3190 -0.0817
  673TMC3    O110019   2.978   3.791   0.063  0.4474 -0.0469 -0.0872
  673TMC3    O210020   3.026   3.567   0.624 -0.0071 -0.6304  0.3804
  674MPD2     C10021   3.330   2.835  17.736 -0.3181  0.2984  0.0060
  674MPD2    C110022   3.307   2.753   0.099 -0.3938 -0.2324 -0.4328
  674MPD2    C210023   3.245   2.819   0.212  0.4663 -0.3593 -0.1191
  674MPD2    C310024   3.229   2.957   0.208  0.1275  0.1334  0.3578
  674MPD2    C410025   3.256   3.036   0.099 -0.4194  0.1698  0.2741
  674MPD2    C510026   3.302   2.971  17.736 -0.0092  0.4827 -0.6988
  674MPD2     H10027   3.226   2.768   0.306 -2.0394  0.8489  0.0158
  674MPD2    H110028   3.250   3.144   0.099  1.5705  0.2658 -0.1409
  674MPD2    H210029   3.376   2.795  17.647 -0.5154  1.2549 -0.5202
  674MPD2    H310030   3.332   3.032  17.651  0.0019 -0.7139 -1.5594
  674MPD2     N10031   3.204   3.007   0.336  0.1507  0.3896 -0.6519
  674MPD2    H510032   3.221   2.947   0.415  0.0743  2.9679  1.3155
  674MPD2    N110033   3.326   2.615   0.091 -0.2456  0.1539  0.4093
  674MPD2    H710034   3.350   2.579  17.749 -1.1554 -0.4007  0.3977
  675TMC3    C110035   3.379   2.570   0.325  0.1345  0.6499 -0.3047
  675TMC3    C210036   3.340   2.515   0.449  0.3018  0.3015  0.6753
  675TMC3    C310037   3.399   2.552   0.562  0.8166  0.8120  0.7005
  675TMC3    C410038   3.479   2.667   0.327  0.6786  0.1207 -0.3803
  675TMC3    C510039   3.523   2.709   0.443  0.6977 -0.2673 -0.3729
  675TMC3    C610040   3.489   2.654   0.567 -0.1857  0.3094  0.3698
  675TMC3     C10041   3.314   2.528   0.200 -0.3264  0.3284 -0.4877
  675TMC3     O10042   3.272   2.411   0.209 -0.3019 -0.3998 -0.4489
  675TMC3     H10043   3.252   2.454   0.461  0.3202 -0.0051 -0.8024
  675TMC3    H110044   3.528   2.693   0.234  0.7920  2.3580  0.2936
  675TMC3    H210045   3.546   2.675   0.656 -1.6283  0.9831  1.1385
  675TMC3    C710046   3.589   2.838   0.441  0.3382 -0.2116 -0.1007
  675TMC3    C810047   3.352   2.481   0.683 -0.1473 -0.2772 -0.2180
  675TMC3    O110048   3.619   2.878   0.553  0.0684  0.1830 -0.7471
  675TMC3    O210049   3.301   2.372   0.680 -0.2402 -0.5184 -0.2201
  676MPD2     C10050   0.933   2.576  11.050 -0.1601 -0.3038 -0.4389
  676MPD2    C110051   0.818   2.548  11.121  0.3172 -0.2830 -0.3098
  676MPD2    C210052   0.757   2.423  11.102  0.1849 -0.1518  0.4200
  676MPD2    C310053   0.804   2.332  11.010 -0.1623 -0.3868 -0.2801
  676MPD2    C410054   0.919   2.361  10.937  0.5897  0.0753  0.2435
  676MPD2    C510055   0.980   2.484  10.962 -0.5194 -0.3699  0.0586
  676MPD2     H10056   0.666   2.405  11.157 -0.8889  0.3865 -1.1831
  676MPD2    H110057   0.967   2.296  10.865 -2.2299  1.1609 -2.6008
  676MPD2    H210058   0.986   2.670  11.058 -1.5793  0.4713 -0.1514
  676MPD2    H310059   1.072   2.511  10.911  0.5368  2.1817  3.2836
  676MPD2     N10060   0.744   2.211  10.974  0.2765  0.5424  0.1119
  676MPD2    H510061   0.802   2.146  10.922  0.3809 -0.1400  1.0919
  676MPD2    N110062   0.753   2.636  11.216 -0.5666  0.8175  0.3915
  676MPD2    H710063   0.666   2.596  11.249 -1.6157  0.0088 -3.3950
  677TMC3    C110064   0.691   2.834  11.332 -0.5981 -0.2529 -0.1482
  677TMC3    C210065   0.561   2.802  11.330 -0.7019  0.8764 -0.6018
  677TMC3    C310066   0.476   2.872  11.416  0.4395  0.6156  0.4882
  677TMC3    C410067   0.738   2.942  11.412 -0.5182 -0.3307 -0.1022
  677TMC3    C510068   0.651   3.008  11.486  0.9342  0.4242  0.1716
  677TMC3    C610069   0.524   2.968  11.501  0.1935 -0.1184 -0.0614
  677TMC3     C10070   0.786   2.762  11.245 -0.9323  0.0223  1.0829
  677TMC3     O10071   0.878   2.827  11.204  0.0069 -0.0913  1.0696
  677TMC3     H10072   0.522   2.717  11.275 -0.4479 -0.5795  1.4782
  677TMC3    H110073   0.843   2.968  11.410 -0.2706 -1.4840 -2.4701
  677TMC3    H210074   0.459   3.028  11.563 -0.8050  0.9569 -2.1620
  677TMC3    C710075   0.701   3.071  11.608 -0.2067 -0.3271  0.0474
  677TMC3    C810076   0.350   2.813  11.446  0.4841  0.2401 -0.1119
  677TMC3    O110077   0.633   3.063  11.711  0.0691 -0.7330  0.5963
  677TMC3    O210078   0.286   2.782  11.346  0.0865  0.0555  0.2096
  678MPD2     C10079   2.488   1.763   1.385  0.0708  0.7551  0.1740
  678MPD2    C110080   2.515   1.784   1.249 -0.7500  0.0687  0.3808
  678MPD2    C210081   2.417   1.854   1.184  0.2918 -0.2944  0.7688
  678MPD2    C310082   2.309   1.909   1.251  0.3715  0.2017  0.1674
  678MPD2    C410083   2.291   1.894   1.386  0.3573 -0.5067 -0.7016
  678MPD2    C510084   2.382   1.818   1.454 -0.2537  1.0516  0.4060
  678MPD2     H10085   2.434   1.865   1.078  1.2267 -2.0723  0.7342
  678MPD2    H110086   2.207   1.922   1.448  2.7638  1.2852  1.7533
  678MPD2    H210087   2.549   1.691   1.438 -2.1780  0.2547  2.1022
  678MPD2    H310088   2.355   1.803   1.558 -1.7829  0.2870 -0.1054
  678MPD2     N10089   2.219   1.972   1.170  0.8601  0.2890  0.1367
  678MPD2    H510090   2.234   1.968   1.070  1.7178 -0.8134  0.3057
  678MPD2    N110091   2.632   1.745   1.180  0.1592  0.5032  0.5702
  678MPD2    H710092   2.629   1.768   1.081 -0.3287  1.5233  0.8249
  679TMC3    C110093   3.084   1.597   1.150  0.0701  0.1270 -0.1036
  679TMC3    C210094   2.956   1.586   1.196  0.5745 -0.5667 -0.4973
  679TMC3    C310095   2.857   1.655   1.142  0.0963  0.6532 -0.0664
  679TMC3    C410096   3.108   1.664   1.031 -0.5259 -0.1257  0.6928
  679TMC3    C510097   2.996   1.717   0.969 -0.0918 -0.2039  0.3937
  679TMC3    C610098   2.877   1.733   1.029 -0.5696 -0.5006 -0.0250
  679TMC3     C10099   3.178   1.495   1.197  0.1368 -0.1881  0.3346
  679TMC3     O10100   3.138   1.379   1.209 -0.2936 -0.0477 -1.0263
  679TMC3     H10101   2.936   1.511   1.273 -0.3777 -0.4928 -0.6738
  679TMC3    H110102   3.207   1.652   0.987 -1.1143 -1.0671 -0.3654
  679TMC3    H210103   2.797   1.787   0.980 -0.4206  1.9629  2.4712
  679TMC3    C710104   3.006   1.748   0.830  0.9585  0.1292  0.4214
  679TMC3    C810105   2.737   1.669   1.228 -0.1987  0.4389 -0.1642
  679TMC3    O110106   2.942   1.850   0.799  0.3904 -0.6262  0.5287
  679TMC3    O210107   2.753   1.637   1.348  0.1888 -0.6722  0.0346
  680MPD2     C10108   2.440   1.099  13.648  0.8571 -1.0223  0.0800
  680MPD2    C110109   2.524   1.075  13.754 -0.1630 -0.4439 -0.2646
  680MPD2    C210110   2.597   1.180  13.808 -0.3418  0.4391 -0.6900
  680MPD2    C310111   2.601   1.305  13.749  0.1376  0.3532 -0.3195
  680MPD2    C410112   2.524   1.328  13.638 -0.7498  0.0672 -0.7681
  680MPD2    C510113   2.440   1.225  13.593  0.0056  0.0248  0.2115
  680MPD2     H10114   2.663   1.152  13.889 -0.3040  1.7214 -0.2913
  680MPD2    H110115   2.538   1.421  13.583  0.6816  0.6716  0.6195
  680MPD2    H210116   2.396   1.016  13.593 -0.2743  0.0827 -0.6741
  680MPD2    H310117   2.386   1.230  13.499 -0.9472 -1.0468  0.6970
  680MPD2     N10118   2.696   1.405  13.788  0.8086  0.3047  0.2943
  680MPD2    H510119   2.692   1.500  13.752 -0.9308  0.3866  0.7201
  680MPD2    N110120   2.562   0.949  13.800 -0.2303 -0.3919  0.3089
  680MPD2    H710121   2.625   0.947  13.880 -1.1606 -2.2835  0.9960
  681TMC3    C110122   2.561   0.725  13.852 -0.3376 -0.7515  0.0840
  681TMC3    C210123   2.511   0.756  13.983  0.6212  1.0046  0.5319
  681TMC3    C310124   2.585   0.713  14.092 -0.1223  0.2312  0.2768
  681TMC3    C410125   2.681   0.662  13.839  0.4081 -0.1734  0.5191
  681TMC3    C510126   2.747   0.626  13.950  0.3558 -0.4271  0.6155
  681TMC3    C610127   2.705   0.649  14.076  0.4921  0.0010  1.1562
  681TMC3     C10128   2.522   0.824  13.750 -0.0285 -0.7810  0.6573
  681TMC3     O10129   2.443   0.790  13.661  0.2200 -0.4229 -0.0405
  681TMC3     H10130   2.432   0.828  13.997  0.6623  1.0894  0.3170
  681TMC3    H110131   2.726   0.644  13.742 -0.2643 -0.1046  0.1951
  681TMC3    H210132   2.750   0.614  14.168  1.5684 -1.6208  0.0267
  681TMC3    C710133   2.883   0.567  13.945 -0.5372 -0.0561  0.4672
  681TMC3    C810134   2.555   0.793  14.211 -0.5959  0.5689 -0.3376
  681TMC3    O110135   2.925   0.514  14.046  0.6602  0.2473 -0.6158
  681TMC3    O210136   2.436   0.812  14.243 -0.2823  0.7044  0.5615
  682MPD2     C10137   4.166   2.871  10.698 -0.4156 -0.8061  0.3637
  682MPD2    C110138   4.100   2.758  10.729 -0.2961  0.3400  0.6666
  682MPD2    C210139   4.050   2.737  10.857  0.5005 -0.5749 -0.1161
  682MPD2    C310140   4.080   2.820  10.965  0.1919  0.0026  0.1925
  682MPD2    C410141   4.154   2.928  10.936 -0.8259 -1.0881 -0.0344
  682MPD2    C510142   4.195   2.953  10.808  0.2109 -0.5836  0.3555
  682MPD2     H10143   3.986   2.651  10.870  0.8621 -1.2145 -2.4682
  682MPD2    H110144   4.173   3.002  11.014 -2.0741 -1.6126  0.7563
  682MPD2    H210145   4.195   2.906  10.599 -1.5698 -0.6428  0.0867
  682MPD2    H310146   4.264   3.035  10.794 -0.8298  0.1238 -0.6587
  682MPD2     N10147   4.039   2.784  11.104 -0.1147 -0.0795  0.0133
  682MPD2    H510148   3.985   2.698  11.113 -1.0553  0.6057  1.0895
  682MPD2    N110149   4.078   2.660  10.634 -0.7893 -0.3413 -0.3772
  682MPD2    H710150   4.020   2.582  10.662 -0.1659 -0.0676  1.6816
  683TMC3    C110151   4.235   2.660  11.496 -0.4505 -0.1526 -0.0647
  683TMC3    C210152   4.177   2.538  11.485 -0.0866 -0.7617  0.3310
  683TMC3    C310153   4.061   2.524  11.417 -0.8904  0.2955  0.0460
  683TMC3    C410154   4.191   2.765  11.422  0.7644 -0.2506  0.3937
  683TMC3    C510155   4.090   2.744  11.333 -0.1760  0.2223  0.0742
  683TMC3    C610156   4.029   2.622  11.324 -0.0167 -0.3275  0.1790
  683TMC3     C10157   4.339   2.679  11.598  0.6550  0.1187  1.0612
  683TMC3     O10158   4.388   2.791  11.610 -0.2546 -0.0546 -0.1818
  683TMC3     H10159   4.208   2.457  11.550  1.3936  0.6696  1.4052
  683TMC3    H110160   4.225   2.864  11.452  1.1890 -1.0664  2.5809
  683TMC3    H210161   3.955   2.604  11.247 -1.3583 -0.5710  1.5164
  683TMC3    C710162   4.074   2.847  11.223 -0.5667  0.6457  0.5918
  683TMC3    C810163   3.994   2.397  11.410 -0.2586 -0.0883  0.2981
  683TMC3    O110164   4.125   2.956  11.234  0.3712 -0.3784  0.2369
  683TMC3    O210165   3.894   2.403  11.345  0.0181 -0.1805  0.1254
  684MPD2     C10166   3.105   1.343  16.228  0.0351  0.4117 -0.0001
  684MPD2    C110167   3.007   1.433  16.186  0.2724 -0.4561 -0.7383
  684MPD2    C210168   2.974   1.539  16.273 -0.7188 -0.3807  0.5235
  684MPD2    C310169   3.046   1.562  16.390  0.2821  0.1871  0.2961
  684MPD2    C410170   3.151   1.481  16.417  0.2287  0.1982  0.1439
  684MPD2    C510171   3.184   1.377  16.332  0.6462 -0.2877  0.2200
  684MPD2     H10172   2.894   1.608  16.247 -0.3142 -0.1790 -0.1981
  684MPD2    H110173   3.224   1.509  16.493 -1.3891  1.2857  1.2919
  684MPD2    H210174   3.141   1.262  16.165 -1.6391 -1.6782  1.7176
  684MPD2    H310175   3.265   1.310  16.360  1.4368  1.0468  1.1478
  684MPD2     N10176   3.042   1.688  16.455 -0.4406 -0.3898 -0.3428
  684MPD2    H510177   3.091   1.700  16.544  0.9637 -0.6443 -1.0766
  684MPD2    N110178   2.946   1.434  16.063  0.7522 -0.2466  0.7479
  684MPD2    H710179   2.902   1.523  16.040  3.1271  0.9307  0.7093
  685TMC3    C110180   2.974   1.389  15.836  0.1935  0.0561  0.3888
  685TMC3    C210181   2.897   1.484  15.788  0.2281 -0.1121 -0.1185
  685TMC3    C310182   2.958   1.558  15.689 -0.3747 -1.0689 -0.3702
  685TMC3    C410183   3.091   1.344  15.776 -0.1023 -0.2008 -0.0397
  685TMC3    C510184   3.147   1.423  15.679  0.0140  0.0035  0.5102
  685TMC3    C610185   3.078   1.529  15.625 -0.2500 -0.5195  0.3793
  685TMC3     C10186   2.965   1.336  15.969  0.0602 -0.4285 -0.5465
  685TMC3     O10187   3.007   1.220  15.984 -0.3616  0.6489  0.0172
  685TMC3     H10188   2.805   1.520  15.833  0.6784  0.0787  0.6586
  685TMC3    H110189   3.144   1.264  15.826  0.0498  1.1161  1.9399
  685TMC3    H210190   3.120   1.591  15.547 -0.8364  1.1690  1.3969
  685TMC3    C710191   3.286   1.434  15.682  0.4102  0.3963  0.0402
  685TMC3    C810192   2.874   1.655  15.613 -0.1895 -0.8857 -1.1529
  685TMC3    O110193   3.334   1.461  15.574 -0.2222 -0.1184 -0.0758
  685TMC3    O210194   2.918   1.689  15.498 -0.9301 -0.8750 -0.2050
  686MPD2     C10195   4.386   2.152  15.705 -0.2512 -0.2036 -0.3868
  686MPD2    C110196   4.462   2.048  15.759 -0.2410 -0.2400  0.0528
  686MPD2    C210197   4.563   2.006  15.678  0.0608 -0.2814 -0.3252
  686MPD2    C310198   4.577   2.042  15.548 -0.0122  0.6724 -0.4050
  686MPD2    C410199   4.499   2.143  15.497  0.4959  0.0075  0.0364
  686MPD2    C510200   4.402   2.197  15.573 -0.6329  0.1557 -0.4968
  686MPD2     H10201   4.632   1.937  15.726 -2.2516 -2.5414 -0.2015
  686MPD2    H110202   4.496   2.163  15.390 -0.7977 -1.7553 -0.2734
  686MPD2    H210203   4.315   2.208  15.765  0.2775  0.3393 -0.2686
  686MPD2    H310204   4.336   2.266  15.523 -0.5460 -0.7799 -1.9355
  686MPD2     N10205   4.664   1.968  15.463 -0.1154 -0.0988 -0.4963
  686MPD2    H510206   4.697   2.020  15.382 -1.2117 -0.8546 -1.4256
  686MPD2    N110207   4.423   1.988  15.879  0.7353  0.2290  1.0027
  686MPD2    H710208   4.342   2.032  15.921  0.5056  1.5480 -0.8088
  687TMC3    C110209   4.622   1.737  15.541 -0.6791  0.5724  0.5910
  687TMC3    C210210   4.483   1.748  15.544  0.4103 -0.6106 -0.4679
  687TMC3    C310211   4.409   1.647  15.603  0.0917  0.2098 -0.1449
  687TMC3    C410212   4.677   1.623  15.584 -0.1862  0.4335  0.1140
  687TMC3    C510213   4.599   1.532  15.640 -0.3648 -0.1430 -0.8984
  687TMC3    C610214   4.464   1.536  15.660  0.3424  0.4403 -0.0510
  687TMC3     C10215   4.707   1.837  15.482  0.2188 -0.1748  1.1120
  687TMC3     O10216   0.065   1.792  15.419 -0.2621 -0.6223  0.4431
  687TMC3     H10217   4.441   1.835  15.495  2.1094  0.4726  0.0234
  687TMC3    H110218   0.047   1.616  15.588 -0.3510 -1.6188  0.7818
  687TMC3    H210219   4.410   1.446  15.688  0.8696 -0.3578 -1.6020
  687TMC3    C710220   4.671   1.461  15.739 -0.2932  0.8288 -0.5519
  687TMC3    C810221   4.273   1.687  15.657  0.7102 -1.3106  0.3325
  687TMC3    O110222   4.626   1.460  15.852  0.0046 -0.2413 -0.2811
  687TMC3    O210223   4.221   1.621  15.748 -0.5491 -0.4213 -0.3978
  688MPD2     C10224   3.515   0.443  17.133  0.5051 -0.0438  0.2344
  688MPD2    C110225   3.592   0.383  17.231  0.7128  0.8410 -0.0670
  688MPD2    C210226   3.729   0.361  17.199  0.8675 -0.1977  0.0513
  688MPD2    C310227   3.781   0.404  17.079 -1.0034  0.1465 -0.0702
  688MPD2    C410228   3.705   0.488  17.004  0.3830 -0.8654  0.0064
  688MPD2    C510229   3.570   0.495  17.022  0.0924 -0.6249 -0.5062
  688MPD2     H10230   3.789   0.313  17.276  0.7944  0.6349  0.6321
  688MPD2    H110231   3.751   0.523  16.912 -1.7062 -1.4174 -1.2386
  688MPD2    H210232   3.407   0.441  17.135  0.5496 -1.8163  0.2252
  688MPD2    H310233   3.501   0.530  16.946  0.1956  1.7890  0.4918
  688MPD2     N10234   3.915   0.388  17.028  0.2082 -0.3384  0.1009
  688MPD2    H510235   3.937   0.424  16.936 -0.7246 -2.0225 -0.7952
  688MPD2    N110236   3.543   0.335  17.353  0.2341 -0.2734 -0.2022
  688MPD2    H710237   3.605   0.269  17.398 -1.0812 -0.9708  0.5859
  689TMC3    C110238   3.400   0.325  17.535  0.0970 -0.2979 -0.4121
  689TMC3    C210239   3.312   0.400  17.614 -0.4527  0.6136 -0.1901
  689TMC3    C310240   3.267   0.346  17.728 -0.2792  0.4129  0.2392
  689TMC3    C410241   3.435   0.194  17.571  0.0825  0.2417  0.4744
  689TMC3    C510242   3.383   0.144  17.691 -0.1295 -0.3541  0.2361
  689TMC3    C610243   3.294   0.216   0.019 -0.3057  0.4124 -0.4579
  689TMC3     C10244   3.432   0.385  17.407  0.0893 -0.8974 -0.1392
  689TMC3     O10245   3.361   0.478  17.372 -0.2997 -0.6241  0.2928
  689TMC3     H10246   3.278   0.499  17.585 -1.4627 -0.2296 -1.9095
  689TMC3    H110247   3.516   0.135  17.530 -1.3815  0.7031 -3.0869
  689TMC3    H210248   3.242   0.163   0.098 -0.9097 -0.0173 -1.1451
  689TMC3    C710249   3.411   0.007  17.730 -0.2741  0.2447  0.0689
  689TMC3    C810250   3.181   0.412   0.081 -1.2771  0.7044 -0.1442
  689TMC3    O110251   3.382   4.714   0.095  0.4696 -0.2265  0.4051
  689TMC3    O210252   3.167   0.355   0.187 -0.2784  0.3643 -0.2367
  690MPD2     C10253   1.087   2.401  15.759 -0.2367 -0.2644  0.1614
  690MPD2    C110254   1.066   2.429  15.625 -0.7161  0.0524 -0.4818
  690MPD2    C210255   1.149   2.518  15.560  0.1384  0.2247 -0.1574
  690MPD2    C310256   1.255   2.573  15.624  0.7221  0.9701 -0.3844
  690MPD2    C410257   1.273   2.555  15.759  0.2141 -0.1672 -0.0335
  690MPD2    C510258   1.187   2.470  15.819  0.3993  0.5277 -0.2753
  690MPD2     H10259   1.125   2.544  15.458 -2.0962 -3.0262 -0.4578
  690MPD2    H110260   1.356   2.592  15.819  0.0701 -0.8445  0.5932
  690MPD2    H210261   1.017   2.340  15.814 -0.0360 -0.0697  0.6389
  690MPD2    H310262   1.194   2.455  15.927 -0.6177  1.7404 -0.0324
  690MPD2     N10263   1.335   2.650  15.541 -0.5289  0.2162  0.5097
  690MPD2    H510264   1.307   2.655  15.443  3.0742  0.8012 -0.4993
  690MPD2    N110265   0.955   2.371  15.549 -0.2045  0.0774  0.2794
  690MPD2    H710266   0.955   2.371  15.447  0.3901  2.2657  0.2727
  691TMC3    C110267   0.745   2.265  15.518 -0.1773 -0.6394  0.1562
  691TMC3    C210268   0.623   2.264  15.569 -0.0952 -0.3720 -0.7087
  691TMC3    C310269   0.525   2.187  15.501  0.1751  0.3315  0.5876
  691TMC3    C410270   0.788   2.188  15.419  0.0829  0.0252 -0.4209
  691TMC3    C510271   0.696   2.103  15.361 -0.8819 -0.1309  0.0003
  691TMC3    C610272   0.566   2.097  15.406 -0.2678  0.2839 -0.3850
  691TMC3     C10273   0.841   2.323  15.614  0.5124  0.0791  0.0760
  691TMC3     O10274   0.800   2.342  15.727 -0.5450  0.6820 -0.0470
  691TMC3     H10275   0.594   2.317  15.659 -1.0284 -0.3726 -1.0086
  691TMC3    H110276   0.891   2.184  15.386 -0.6044 -1.0792 -2.4861
  691TMC3    H210277   0.490   2.044  15.350 -0.7973  0.1926  0.4247
  691TMC3    C710278   0.753   1.989  15.296  0.0714  0.3997  0.4116
  691TMC3    C810279   0.383   2.204  15.520 -0.8664  0.7427 -0.6235
  691TMC3    O110280   0.867   2.003  15.246 -0.4495  0.1036 -0.2313
  691TMC3    O210281   0.305   2.128  15.463  0.0198  0.0860  0.1536
  692TMC3    C110282   2.937   3.145  15.980 -0.6741  0.3191 -0.1755
  692TMC3    C210283   3.042   3.168  16.067  0.4627  0.0298  0.2135
  692TMC3    C310284   3.091   3.065  16.144 -0.4373 -0.3089  0.2344
  692TMC3    C410285   2.871   3.031  15.987  0.1661 -0.9867 -0.5797
  692TMC3    C510286   2.913   2.932  16.063 -0.4263 -0.0259 -0.3775
  692TMC3    C610287   3.026   2.947  16.144  0.1570 -0.6110 -0.6400
  692TMC3     C10288   2.851   3.259  15.945  0.6187 -0.6650 -0.1207
  692TMC3     O10289   2.737   3.233  15.909 -0.0794 -0.0633 -0.1109
  692TMC3     H10290   3.112   3.243  16.031  0.4591  0.3934  0.9614
  692TMC3    H110291   2.781   3.021  15.927  0.4396 -1.8427 -0.8551
  692TMC3    H210292   3.082   2.865  16.188  1.6358  0.5244 -0.4398
  692TMC3    C710293   2.876   2.810  16.009 -0.7567  0.5780 -0.1448
  692TMC3    C810294   3.116   3.101  16.284 -0.5444 -0.0761 -0.0232
  692TMC3    O110295   2.850   2.805  15.890 -0.1603  1.0333 -0.2900
  692TMC3    O210296   3.135   3.019  16.375 -0.1879 -0.5637  0.8797
  693MPD2     C10297   2.170   1.802  11.089  0.7915  0.0070 -0.3136
  693MPD2    C110298   2.108   1.738  11.190 -0.5710 -0.1440  0.6500
  693MPD2    C210299   2.184   1.667  11.277 -0.8316  0.0281  0.5141
  693MPD2    C310300   2.325   1.659  11.260  0.0372  0.5730 -0.6447
  693MPD2    C410301   2.382   1.737  11.164 -0.1574  0.3946  0.1264
  693MPD2    C510302   2.307   1.817  11.080  0.4386  0.1671  0.4611
  693MPD2     H10303   2.148   1.607  11.360 -0.9275 -0.2946  0.2349
  693MPD2    H110304   2.489   1.750  11.151  0.2481 -2.0556  1.0027
  693MPD2    H210305   2.111   1.869  11.028  1.9162  1.8180  0.5886
  693MPD2    H310306   2.349   1.878  11.001 -1.1043  1.8331  0.9294
  693MPD2     N10307   2.400   1.565  11.336  0.6441  0.0563  0.1743
  693MPD2    H510308   2.345   1.510  11.402 -0.0941  0.3859 -0.1615
  693MPD2    N110309   1.970   1.745  11.208 -0.1752 -0.7731 -0.2519
  693MPD2    H710310   1.935   1.702  11.293  0.1903 -2.8786 -1.1736
  694TMC3    C110311   1.740   1.744  11.147  0.4834  0.0738  0.7775
  694TMC3    C210312   1.665   1.687  11.051  0.7468 -0.0374 -0.6018
  694TMC3    C310313   1.557   1.606  11.094 -0.6354 -0.1444 -0.1179
  694TMC3    C410314   1.716   1.727  11.279 -0.3320  0.0113  0.3809
  694TMC3    C510315   1.624   1.628  11.312  0.0604 -0.4262 -0.8560
  694TMC3    C610316   1.534   1.571  11.226 -0.5090  0.3134 -0.1215
  694TMC3     C10317   1.874   1.784  11.108  0.4743 -0.4586  0.8148
  694TMC3     O10318   1.887   1.831  10.997  0.2478 -0.2969  0.6268
  694TMC3     H10319   1.682   1.708  10.946 -0.9884  1.2291 -0.6248
  694TMC3    H110320   1.759   1.793  11.353  1.0804  0.6555 -0.9965
  694TMC3    H210321   1.448   1.511  11.254 -0.0178 -1.0382 -1.5218
  694TMC3    C710322   1.591   1.609  11.449 -0.3848 -0.1755  0.7991
  694TMC3    C810323   1.471   1.534  10.998  0.2021  0.8941 -0.1914
  694TMC3    O110324   1.635   1.697  11.523 -0.8069  0.9213  0.5667
  694TMC3    O210325   1.405   1.441  11.048  0.3263 -0.5934  0.2408
  695MPD2     C10326   3.008   3.255  13.399 -0.5908 -0.5448 -0.1430
  695MPD2    C110327   3.001   3.319  13.525  0.1460  0.1622 -0.0122
  695MPD2    C210328   2.878   3.357  13.575  0.4357  0.2875 -0.1227
  695MPD2    C310329   2.766   3.344  13.501 -0.5270 -0.2952 -0.0735
  695MPD2    C410330   2.771   3.279  13.383 -0.8695 -0.3587  0.0414
  695MPD2    C510331   2.888   3.240  13.333 -0.2059  0.2871  0.1341
  695MPD2     H10332   2.871   3.406  13.671 -0.6591  2.6640 -1.4208
  695MPD2    H110333   2.684   3.260  13.321 -2.3621  3.0283  1.0514
  695MPD2    H210334   3.099   3.224  13.351  0.3825  1.6595  0.2739
  695MPD2    H310335   2.886   3.181  13.242  0.3267 -0.0521  0.3410
  695MPD2     N10336   2.645   3.383  13.558  0.0141 -0.3914 -0.3290
  695MPD2    H510337   2.645   3.413  13.656 -1.2229  0.4110 -0.5867
  695MPD2    N110338   3.115   3.345  13.603  0.2098  0.8270 -0.1503
  695MPD2    H710339   3.105   3.403  13.686  3.2880  1.7778 -0.4184
  696TMC3    C110340   2.415   3.433  13.571 -0.1483 -0.9597 -0.6019
  696TMC3    C210341   2.419   3.425  13.711  0.6207  0.7718  0.3104
  696TMC3    C310342   2.330   3.510  13.775  0.5535  0.5605 -0.0687
  696TMC3    C410343   2.326   3.509  13.500  0.8136  0.4022 -0.6113
  696TMC3    C510344   2.244   3.598  13.568 -0.0115 -0.6976  0.1377
  696TMC3    C610345   2.260   3.602  13.705  0.1037  0.4323  0.0455
  696TMC3     C10346   2.527   3.397  13.487  0.0957 -0.3871 -0.2373
  696TMC3     O10347   2.507   3.387  13.365  0.4733 -0.2862 -0.6267
  696TMC3     H10348   2.470   3.355  13.776  2.6337 -0.9199 -3.0682
  696TMC3    H110349   2.333   3.516  13.392  1.0014 -1.9136 -0.7433
  696TMC3    H210350   2.200   3.674  13.761 -3.0117 -0.7253 -1.8341
  696TMC3    C710351   2.250   3.720  13.497  0.2409  0.1286  0.6818
  696TMC3    C810352   2.346   3.543  13.915 -0.9268 -0.5405  0.5497
  696TMC3    O110353   2.248   3.722  13.375 -0.6254  0.4431  0.6485
  696TMC3    O210354   2.342   3.662  13.941 -0.4737  0.5601 -0.5247
  697MPD2     C10355   2.449   0.423  15.765  0.1454  0.2673  0.1211
  697MPD2    C110356   2.470   0.373  15.636  0.1421  1.1748 -0.0920
  697MPD2    C210357   2.530   0.459  15.544 -0.5857  0.2484  0.3284
  697MPD2    C310358   2.548   0.591  15.574 -0.6663  0.7016 -0.6230
  697MPD2    C410359   2.521   0.637  15.697  0.9354 -0.3533  0.1768
  697MPD2    C510360   2.475   0.551  15.796  0.2187 -0.0911  0.1682
  697MPD2     H10361   2.558   0.422  15.446  1.2331  1.8996  0.2106
  697MPD2    H110362   2.544   0.740  15.722  3.0214 -0.0593 -2.9318
  697MPD2    H210363   2.389   0.373  15.840  2.9154 -1.0181  1.5151
  697MPD2    H310364   2.446   0.595  15.891  2.3448 -0.2217  0.8823
  697MPD2     N10365   2.615   0.657  15.472  0.5749  0.8785 -0.0228
  697MPD2    H510366   2.633   0.599  15.390  1.7687  0.5556  0.4700
  697MPD2    N110367   2.432   0.248  15.599 -0.1627  0.2922  0.6214
  697MPD2    H710368   2.424   0.243  15.498 -1.3526 -0.6731  0.7561
  698TMC3    C110369   2.665   0.838  15.329  0.8969 -0.3600 -0.3449
  698TMC3    C210370   2.717   0.966  15.314  0.1627  0.0554 -0.3302
  698TMC3    C310371   2.767   1.004  15.196  0.0317  0.4253 -0.7542
  698TMC3    C410372   2.690   0.745  15.227 -0.3507  0.2802  0.2234
  698TMC3    C510373   2.745   0.795  15.111 -0.7969 -0.0875 -0.8452
  698TMC3    C610374   2.779   0.925  15.094 -0.4411  0.0270  0.0165
  698TMC3     C10375   2.639   0.792  15.463 -0.2275  0.1353 -0.2805
  698TMC3     O10376   2.615   0.877  15.544 -0.3294  0.1022 -0.1778
  698TMC3     H10377   2.689   1.043  15.385  1.9650 -0.8022  1.3187
  698TMC3    H110378   2.643   0.647  15.230  0.6215 -0.1857  0.3973
  698TMC3    H210379   2.795   0.973  14.998 -1.5499 -0.8347 -0.6151
  698TMC3    C710380   2.707   0.712  15.001  0.7556  0.1585 -0.2277
  698TMC3    C810381   2.720   1.129  15.144 -0.5876 -0.4836  0.1294
  698TMC3    O110382   2.612   0.635  15.016  0.3645  0.1871 -0.4164
  698TMC3    O210383   2.605   1.160  15.169  0.1301  0.3250  0.3795
  699TMC3    C110384   2.262   3.209  13.121  0.2680 -0.2711  0.6773
  699TMC3    C210385   2.343   3.134  13.201 -0.1775 -0.5004 -0.5369
  699TMC3    C310386   2.287   3.024  13.265  0.2794  0.3059  0.2786
  699TMC3    C410387   2.132   3.173  13.099  0.0471 -0.3902  0.6348
  699TMC3    C510388   2.084   3.065  13.170 -0.0024  0.0964  0.2006
  699TMC3    C610389   2.155   2.995  13.261  0.7811 -0.2498  0.8238
  699TMC3     C10390   2.325   3.311  13.041 -0.3392  0.0780  0.4939
  699TMC3     O10391   2.244   3.356  12.963  0.8441 -0.0521 -0.5596
  699TMC3     H10392   2.447   3.158  13.219  0.2950 -3.4311  0.6871
  699TMC3    H110393   2.061   3.219  13.031  2.3937  0.4652 -1.2314
  699TMC3    H210394   2.108   2.906  13.301 -1.4239  0.2757 -0.6241
  699TMC3    C710395   1.945   3.069  13.190 -0.6587  0.2782  0.4692
  699TMC3    C810396   2.363   2.953  13.367 -0.1613  0.9482 -0.0318
  699TMC3    O110397   1.896   2.962  13.220  0.0594  0.3098  0.0319
  699TMC3    O210398   2.292   2.895  13.444  0.5808 -0.0665  0.0545
  700TMC3    C110399   1.655   0.781  17.105  0.9450  0.6075 -0.3710
  700TMC3    C210400   1.759   0.714  17.068 -0.5726 -0.0206 -0.7126
  700TMC3    C310401   1.857   0.681  17.155 -0.4636  0.4501 -0.0410
  700TMC3    C410402   1.658   0.851  17.226  0.0939  0.0915  0.0782
  700TMC3    C510403   1.772   0.833  17.303  0.0078 -0.8572  0.8241
  700TMC3    C610404   1.866   0.742  17.276  0.6024  0.1166 -1.1174
  700TMC3     C10405   1.595   0.864  16.998 -0.4311  0.0324 -0.2801
  700TMC3     O10406   1.534   0.804  16.907  0.5215  0.1056 -0.5020
  700TMC3     H10407   1.759   0.664  16.972 -2.2263 -0.1074 -0.6646
  700TMC3    H110408   1.568   0.908  17.246  0.4247  0.4892  0.4245
  700TMC3    H210409   1.955   0.731  17.337  1.7181  0.6385 -2.6402
  700TMC3    C710410   1.827   0.968  17.350 -0.1656  0.2764  0.4237
  700TMC3    C810411   1.964   0.584  17.112 -0.1708  0.7756 -0.1166
  700TMC3    O110412   1.945   0.968  17.386  0.2430 -0.4903  0.2972
  700TMC3    O210413   1.962   0.556  16.991  0.2068 -0.2730  0.1583
  701TMC3    C110414   1.775   4.383  15.715 -0.6123 -0.1654 -0.2275
  701TMC3    C210415   1.775   4.330  15.591 -0.2688  0.2125  0.0541
  701TMC3    C310416   1.800   4.416  15.485  0.0488  0.6626 -0.3309
  701TMC3    C410417   1.786   4.518  15.748  1.0967  0.4358 -0.0716
  701TMC3    C510418   1.805   4.605  15.641  0.1948 -0.0889 -0.7624
  701TMC3    C610419   1.807   4.551  15.516  0.4157 -0.1214  0.0555
  701TMC3     C10420   1.738   4.308  15.831  0.8366  0.0035 -0.2324
  701TMC3     O10421   1.763   4.354  15.943  0.1263  0.6786 -0.0039
  701TMC3     H10422   1.785   4.223  15.576  1.2754  0.7810 -3.0787
  701TMC3    H110423   1.802   4.548  15.851  0.0586  1.5453 -0.2298
  701TMC3    H210424   1.825   4.620  15.435 -1.9329  0.2104 -0.1704
  701TMC3    C710425   1.815   0.009  15.639  0.7275  0.1889 -0.1970
  701TMC3    C810426   1.864   4.377  15.363 -0.9906 -0.2365  0.4321
  701TMC3    O110427   1.761   0.075  15.552 -0.1384 -0.6118  0.1795
  701TMC3    O210428   1.935   4.470  15.323 -0.5760 -0.7925 -0.0773
  702MPD2     C10429   0.509   1.994  10.372 -0.4073 -0.5142  0.5513
  702MPD2    C110430   0.588   2.040  10.469 -0.1342 -0.0240  0.1347
  702MPD2    C210431   0.659   2.157  10.448  1.1182 -0.4248  0.1846
  702MPD2    C310432   0.647   2.235  10.331 -0.4951  0.5456 -0.2994
  702MPD2    C410433   0.556   2.188  10.238 -0.7086  0.1783  0.0788
  702MPD2    C510434   0.492   2.066  10.257  0.3032  0.7886 -0.1690
  702MPD2     H10435   0.718   2.199  10.528  0.1644  0.1104  0.6219
  702MPD2    H110436   0.536   2.246  10.148  2.4287  0.5799 -0.3534
  702MPD2    H210437   0.457   1.900  10.385  1.0224 -1.5051 -0.8083
  702MPD2    H310438   0.417   2.029  10.187  0.3389  0.3080  0.0481
  702MPD2     N10439   0.715   2.361  10.320  0.0591  0.2459  0.3041
  702MPD2    H510440   0.760   2.399  10.402  2.4128  0.7984 -1.2343
  702MPD2    N110441   0.596   1.981  10.596  0.2255 -0.2198  0.3801
  702MPD2    H710442   0.666   2.014  10.663  1.2002  2.1069 -1.8001
  703TMC3    C110443   0.734   2.575  10.265  0.0316 -0.0917 -0.4671
  703TMC3    C210444   0.698   2.608  10.386 -0.2578 -0.4460 -0.3809
  703TMC3    C310445   0.763   2.716  10.448 -0.4613  0.2153 -0.3639
  703TMC3    C410446   0.813   2.655  10.197 -0.0735  0.4860 -0.0390
  703TMC3    C510447   0.864   2.763  10.254 -0.0482 -0.7000  0.8806
  703TMC3    C610448   0.842   2.797  10.376  0.5320  0.0665  0.3622
  703TMC3     C10449   0.703   2.447  10.215 -0.3876 -0.4135 -0.0469
  703TMC3     O10450   0.681   2.428  10.094 -0.0409 -0.2574 -0.2803
  703TMC3     H10451   0.628   2.540  10.434 -1.9224  0.4733 -1.4910
  703TMC3    H110452   0.844   2.619  10.099  0.1406  2.7195 -0.7967
  703TMC3    H210453   0.876   2.884  10.432 -1.2310  0.3287  1.0407
  703TMC3    C710454   0.966   2.843  10.190  0.0401 -0.1887 -0.1222
  703TMC3    C810455   0.718   2.757  10.582 -0.3368  0.6403  0.3914
  703TMC3    O110456   1.044   2.895  10.269 -0.3674  0.5152 -0.1156
  703TMC3    O210457   0.779   2.848  10.633 -0.3543  0.3368 -0.3556
  704TMC3    C110458   3.988   0.055  12.648 -0.2861 -0.4321  0.3691
  704TMC3    C210459   4.003   4.727  12.531 -0.0499  1.1116 -0.2928
  704TMC3    C310460   4.050   4.604  12.535  0.0059 -0.7221  0.3154
  704TMC3    C410461   4.005   4.732  12.767  0.5063  0.2364 -0.3051
  704TMC3    C510462   4.038   4.599  12.772 -0.0007 -0.4012  0.0639
  704TMC3    C610463   4.072   4.540  12.656  0.3969 -0.7498  0.4415
  704TMC3     C10464   3.910   0.179  12.650  0.7351 -0.5219  0.3062
  704TMC3     O10465   3.863   0.213  12.759  0.5719 -0.1299  0.5660
  704TMC3     H10466   3.993   0.033  12.432 -1.8452  2.0900  0.3188
  704TMC3    H110467   3.985   0.051  12.858 -1.1899  0.2494 -0.6877
  704TMC3    H210468   4.115   4.440  12.653  1.1914 -0.3621 -0.8038
  704TMC3    C710469   3.978   4.506  12.866  0.2183 -0.6309  0.2078
  704TMC3    C810470   3.997   4.521  12.424 -0.1719  0.2247 -0.0370
  704TMC3    O110471   3.959   4.391  12.821  0.2270 -0.4818 -0.1924
  704TMC3    O210472   3.896   4.570  12.376 -0.2249  0.2983 -0.0371
  705MPD2     C10473   3.287   2.805  16.801  0.7678  0.0599 -0.3695
  705MPD2    C110474   3.218   2.854  16.692  0.5022 -0.5175  0.1274
  705MPD2    C210475   3.084   2.882  16.699 -0.2742  0.1223 -0.1157
  705MPD2    C310476   3.010   2.859  16.809  0.0477  0.0678 -0.6830
  705MPD2    C410477   3.079   2.809  16.921  0.0771 -0.1807  0.8179
  705MPD2    C510478   3.215   2.782  16.909  0.4240  0.0563  0.3069
  705MPD2     H10479   3.036   2.929  16.614  1.1753 -0.0639 -1.0406
  705MPD2    H110480   3.032   2.783  17.015  1.7802  0.7651  1.9389
  705MPD2    H210481   3.392   2.781  16.804  0.9860  1.1755  0.8432
  705MPD2    H310482   3.260   2.718  16.983  2.3728 -0.1388 -1.0440
  705MPD2     N10483   2.875   2.904  16.823  0.0935  0.6078  0.3855
  705MPD2    H510484   2.847   2.919  16.919 -1.1212  1.4283 -0.0991
  705MPD2    N110485   3.281   2.890  16.570  0.0761 -0.2464 -0.0982
  705MPD2    H710486   3.217   2.918  16.496 -0.1921  0.0455  0.2466
  706TMC3    C110487   3.542   2.942  16.206  0.6735 -0.0382 -0.7552
  706TMC3    C210488   3.507   3.075  16.196  0.3060 -0.4695  0.1778
  706TMC3    C310489   3.443   3.135  16.298  0.5441  0.2689  0.2933
  706TMC3    C410490   3.512   2.865  16.313  0.1856  0.1134 -0.0364
  706TMC3    C510491   3.445   2.927  16.412 -0.3727 -0.4645  0.1121
  706TMC3    C610492   3.418   3.057  16.411  0.0616  0.1659  0.1812
  706TMC3     C10493   3.660   2.907  16.128  0.4176  0.1334  0.6941
  706TMC3     O10494   3.751   2.852  16.193 -0.0198 -0.4146  0.1713
  706TMC3     H10495   3.541   3.138  16.115  1.1678 -0.0166  0.8930
  706TMC3    H110496   3.537   2.760  16.323  1.2769  0.3550 -0.1592
  706TMC3    H210497   3.373   3.109  16.495 -1.2687 -0.9835  0.1822
  706TMC3    C710498   3.403   2.847  16.524 -0.1218 -0.6263  0.3539
  706TMC3    C810499   3.429   3.280  16.301 -0.7599 -0.4136 -0.9519
  706TMC3    O110500   3.474   2.765  16.582  0.2291 -0.0767  0.2550
  706TMC3    O210501   3.382   3.340  16.198 -0.5461  0.8953  0.1190
  707TMC3    C110502   4.673   2.109   1.137 -0.2129  0.6336  0.6091
  707TMC3    C210503   0.009   2.106   1.254 -0.0358 -0.1103  0.2925
  707TMC3    C310504   4.681   2.131   1.371 -0.5582  0.1797  0.1953
  707TMC3    C410505   4.539   2.146   1.126 -0.1416 -0.5614  0.1168
  707TMC3    C510506   4.481   2.183   1.244 -0.7558 -0.2279 -1.1541
  707TMC3    C610507   4.548   2.176   1.363  0.1058 -0.6179 -0.0027
  707TMC3     C10508   0.001   2.074   1.013 -0.0952 -0.4949 -0.1346
  707TMC3     O10509   0.122   2.075   1.026  0.0359 -0.0310  0.0481
  707TMC3     H10510   0.115   2.084   1.255 -0.0681 -0.3398 -0.6605
  707TMC3    H110511   4.505   2.164   1.025  3.2399  0.9011 -0.7590
  707TMC3    H210512   4.504   2.202   1.458  2.7055 -3.3787  1.9689
  707TMC3    C710513   4.377   2.273   1.237 -0.3337  0.1108 -0.1885
  707TMC3    C810514   4.710   2.036   1.485 -0.4998  0.0751 -0.6141
  707TMC3    O110515   4.355   2.359   1.324  0.1941 -0.0524 -0.3677
  707TMC3    O210516   4.625   2.034   1.574  0.3731 -0.3298  0.3822
  708MPD2     C10517   1.857   1.668  13.850 -0.0364 -0.1077 -0.1364
  708MPD2    C110518   1.724   1.662  13.890 -0.4289 -0.4482 -0.0228
  708MPD2    C210519   1.700   1.613  14.015 -0.2117  0.1244 -0.1319
  708MPD2    C310520   1.793   1.536  14.084 -0.4870 -0.2073  0.1205
  708MPD2    C410521   1.919   1.540  14.040  0.0563  0.6907  0.3641
  708MPD2    C510522   1.954   1.612  13.928 -0.2343  0.1476  0.0962
  708MPD2     H10523   1.606   1.630  14.066 -0.5688  2.6342 -1.6738
  708MPD2    H110524   2.001   1.490  14.089 -1.6876 -1.0905  1.4915
  708MPD2    H210525   1.897   1.702  13.755  0.9145  3.0779  1.4104
  708MPD2    H310526   2.058   1.616  13.897 -0.6479  1.3664 -1.1486
  708MPD2     N10527   1.760   1.485  14.214 -0.0446 -0.4333 -0.1042
  708MPD2    H510528   1.839   1.472  14.275 -0.0556 -1.0501 -0.2193
  708MPD2    N110529   1.632   1.729  13.805 -0.1519  0.0653 -0.7943
  708MPD2    H710530   1.661   1.750  13.710  1.1266  3.3016  0.2902
  709TMC3    C110531   1.413   1.797  13.715 -0.1933  0.7720 -0.4159
  709TMC3    C210532   1.429   1.721  13.606  0.1457  0.6311 -0.9100
  709TMC3    C310533   1.321   1.650  13.560 -0.1173  0.1662 -1.2236
  709TMC3    C410534   1.282   1.823  13.759 -0.7398  0.5044 -0.1340
  709TMC3    C510535   1.178   1.756  13.707  0.6118 -0.3092  0.5054
  709TMC3    C610536   1.191   1.666  13.608  0.9550 -0.0447 -0.5483
  709TMC3     C10537   1.496   1.754  13.830  0.0072 -0.5323 -0.3732
  709TMC3     O10538   1.423   1.728  13.925 -0.1156  0.1556 -0.0911
  709TMC3     H10539   1.527   1.678  13.590  0.3350  1.3561 -1.7298
  709TMC3    H110540   1.271   1.893  13.841  0.5027 -1.0039  1.3320
  709TMC3    H210541   1.109   1.608  13.568 -0.4880  1.8633 -0.3704
  709TMC3    C710542   1.094   1.709  13.813 -0.2073  0.2184 -0.7254
  709TMC3    C810543   1.345   1.548  13.463 -0.4319 -0.3200  0.1222
  709TMC3    O110544   0.976   1.674  13.789 -0.1077  0.4893 -0.2680
  709TMC3    O210545   1.264   1.464  13.436  0.0316  0.1081 -0.3080
  710TMC3    C110546   2.908   2.186   0.069  0.4171 -0.2332  0.3461
  710TMC3    C210547   3.025   2.206  17.745  1.0831 -0.0070 -0.2355
  710TMC3    C310548   3.145   2.148   0.036 -0.2724 -0.3832 -0.2530
  710TMC3    C410549   2.925   2.129   0.191 -0.1231  0.7113  0.0550
  710TMC3    C510550   3.041   2.061   0.221 -0.6718  0.5497 -0.1535
  710TMC3    C610551   3.161   2.075   0.149 -0.6855 -0.5570  0.2878
  710TMC3     C10552   2.790   2.263   0.036  0.5655 -0.1626  0.4563
  710TMC3     O10553   2.790   2.311  17.672  0.1230 -0.4590 -0.3019
  710TMC3     H10554   3.009   2.258  17.651 -1.2335 -0.0693  0.1175
  710TMC3    H110555   2.831   2.113   0.242 -0.6617 -2.5791 -1.9272
  710TMC3    H210556   3.246   2.015   0.179  0.6946  1.2090 -0.1161
  710TMC3    C710557   3.033   1.962   0.325  0.4948 -0.9896 -0.0963
  710TMC3    C810558   3.251   2.163  17.692  0.6845 -0.2227  0.1045
  710TMC3    O110559   2.941   1.984   0.404  0.1911  0.0597  0.0646
  710TMC3    O210560   3.224   2.226  17.589 -0.5983  0.7226 -0.3557
  711TMC3    C110561   2.586   4.039  15.070 -0.3100  0.1554  0.8434
  711TMC3    C210562   2.579   4.069  15.206  0.7305 -0.2609  0.1028
  711TMC3    C310563   2.673   4.009  15.292 -0.2873 -0.4478  0.2660
  711TMC3    C410564   2.695   3.969  15.031  0.7842 -0.0166  0.0350
  711TMC3    C510565   2.787   3.905  15.118  0.4038  0.1210 -0.1852
  711TMC3    C610566   2.771   3.924  15.253  0.2052  0.0759  0.1638
  711TMC3     C10567   2.471   3.974  15.010  0.0014  0.5368  0.0829
  711TMC3     O10568   2.493   3.903  14.913  0.0033  0.0595  0.1676
  711TMC3     H10569   2.497   4.125  15.251 -0.1772  0.4676 -2.4398
  711TMC3    H110570   2.698   3.948  14.925  0.5275  0.2868 -0.0329
  711TMC3    H210571   2.829   3.868  15.324  0.0981 -1.0629 -0.6525
  711TMC3    C710572   2.792   3.761  15.104  0.1451 -0.7674 -0.2075
  711TMC3    C810573   2.652   4.028  15.433 -0.4849 -0.4514  0.9784
  711TMC3    O110574   2.886   3.705  15.164 -0.0403  0.2956 -0.9031
  711TMC3    O210575   2.549   4.088  15.466  0.2194 -0.3439  0.3767
  712MPD2     C10576   3.793   4.514  13.800  0.3770  0.5072  0.5719
  712MPD2    C110577   3.680   4.592  13.809 -0.3684  0.0369  0.8976
  712MPD2    C210578   3.688   4.717  13.876  0.2156 -0.2257 -0.6768
  712MPD2    C310579   3.798   0.021  13.941  0.0226 -0.0770 -0.0486
  712MPD2    C410580   3.905   4.666  13.950 -0.1883 -1.0137 -0.1444
  712MPD2    C510581   3.896   4.546  13.883  0.1133 -0.0649 -0.7269
  712MPD2     H10582   3.594   0.032  13.877 -0.0215 -0.6685  0.3135
  712MPD2    H110583   3.987   4.693  14.016  0.2149 -3.5237  0.3815
  712MPD2    H210584   3.793   4.421  13.743  1.8405  1.2047 -0.5413
  712MPD2    H310585   3.968   4.468  13.904 -0.2358 -0.4300 -0.8813
  712MPD2     N10586   3.810   0.148  13.997 -0.1378  0.1716  0.2599
  712MPD2    H510587   3.903   0.167  14.032 -0.6753  0.7756  1.3446
  712MPD2    N110588   3.563   4.555  13.748  0.2456  0.6384  0.7173
  712MPD2    H710589   3.488   4.623  13.745 -1.5420 -1.3806 -0.7664
  713TMC3    C110590   3.769   0.386  14.018  0.1127 -0.0661 -0.7192
  713TMC3    C210591   3.899   0.391  14.065  0.2253 -0.0671  0.5599
  713TMC3    C310592   3.943   0.515  14.095  0.6319 -0.2223  0.2155
  713TMC3    C410593   3.685   0.491  13.997  0.3205 -0.3620  0.1151
  713TMC3    C510594   3.736   0.612  14.020 -0.3499 -0.5216 -0.0537
  713TMC3    C610595   3.861   0.622  14.073  0.4685  0.5640  0.1711
  713TMC3     C10596   3.715   0.251  13.997  0.1806  0.3564  0.7541
  713TMC3     O10597   3.599   0.250  13.968  0.1090 -0.1261  0.3820
  713TMC3     H10598   3.961   0.302  14.070  0.7651  0.3447  1.0912
  713TMC3    H110599   3.589   0.479  13.950  0.4528  1.8537 -0.7267
  713TMC3    H210600   3.896   0.721  14.103  2.5763  0.3312 -1.5546
  713TMC3    C710601   3.719   0.717  13.922  0.3257  0.4974 -0.1822
  713TMC3    C810602   4.084   0.546  14.112  0.1107  0.8157  0.3111
  713TMC3    O110603   3.822   0.770  13.888  0.3177 -0.1879  0.4672
  713TMC3    O210604   4.121   0.661  14.135  0.1557 -0.1637  0.3500
  714MPD2     C10605   1.617   3.295   1.592 -0.6257 -0.2440 -0.3227
  714MPD2    C110606   1.575   3.264   1.461 -0.1398  0.0652 -0.3725
  714MPD2    C210607   1.447   3.294   1.429  0.0662 -0.1077 -0.1152
  714MPD2    C310608   1.351   3.347   1.517  0.2670 -0.2440 -0.2325
  714MPD2    C410609   1.394   3.366   1.649  0.3842 -1.1306 -0.0328
  714MPD2    C510610   1.526   3.344   1.675  0.1830  0.4581  0.1483
  714MPD2     H10611   1.419   3.288   1.324 -0.2024  1.3397 -0.1293
  714MPD2    H110612   1.324   3.404   1.723  1.2414 -0.1537  0.2735
  714MPD2    H210613   1.713   3.287   1.643 -1.7464 -0.5388  1.7665
  714MPD2    H310614   1.561   3.356   1.777 -1.1333  3.6349  0.2448
  714MPD2     N10615   1.228   3.382   1.472 -0.4885  0.3485 -0.1066
  714MPD2    H510616   1.213   3.373   1.372  2.4467 -1.8257 -0.3446
  714MPD2    N110617   1.672   3.214   1.366  0.0042 -0.4171 -0.3280
  714MPD2    H710618   1.767   3.232   1.395  0.0031 -0.2970 -0.3985
  715TMC3    C110619   1.776   3.097   1.196  0.3756 -0.2448 -0.2065
  715TMC3    C210620   1.752   2.987   1.126  1.2703 -0.4989  0.0951
  715TMC3    C310621   1.857   2.934   1.059  0.1489 -0.4699  0.1523
  715TMC3    C410622   1.895   3.157   1.212 -0.1394  0.4162  0.0785
  715TMC3    C510623   1.996   3.092   1.152 -0.1252 -0.1720  0.7552
  715TMC3    C610624   1.984   2.976   1.084 -0.1969 -0.3381 -0.2780
  715TMC3     C10625   1.651   3.161   1.244  0.6024 -0.1898  0.1792
  715TMC3     O10626   1.539   3.114   1.208  0.1762  0.0771 -0.5057
  715TMC3     H10627   1.649   2.957   1.110  1.2861  0.9200 -2.5057
  715TMC3    H110628   1.909   3.246   1.272  2.5605 -1.3813  2.1127
  715TMC3    H210629   2.069   2.935   1.031  0.8544  0.7472  0.5571
  715TMC3    C710630   2.120   3.163   1.128 -0.2797  0.8547  0.3669
  715TMC3    C810631   1.835   2.800   1.013  0.0051 -0.2554 -0.4701
  715TMC3    O110632   2.213   3.096   1.082 -0.1284  0.2022 -0.8522
  715TMC3    O210633   1.739   2.777   0.943  0.4516  0.4313 -0.4547
  716MPD2     C10634   1.091   3.140   9.186  0.3174 -0.5650 -0.4847
  716MPD2    C110635   1.037   3.055   9.276  0.2893 -0.4717  0.5987
  716MPD2    C210636   1.110   2.989   9.367 -0.2902 -0.6253  0.6594
  716MPD2    C310637   1.237   3.037   9.385  0.4599  0.0308  0.0078
  716MPD2    C410638   1.288   3.141   9.308 -0.4447  0.1580  0.2002
  716MPD2    C510639   1.221   3.185   9.203 -0.0446  0.5634 -0.2982
  716MPD2     H10640   1.078   2.906   9.429 -0.6160  0.3510  1.7953
  716MPD2    H110641   1.383   3.190   9.328  1.6971 -3.1649 -1.9719
  716MPD2    H210642   1.029   3.177   9.106  0.7607 -1.0424 -1.0474
  716MPD2    H310643   1.248   3.262   9.131  1.4860  0.5313  0.2366
  716MPD2     N10644   1.302   2.974   9.485 -0.3661 -0.0890 -0.1464
  716MPD2    H510645   1.250   2.903   9.534  0.1117 -0.7799 -0.6471
  716MPD2    N110646   0.903   3.010   9.250 -0.4107  0.2803 -0.2381
  716MPD2    H710647   0.863   3.067   9.177 -0.3090 -0.0861 -0.5815
  717TMC3    C110648   1.449   2.938   9.660  0.2479 -0.2522 -0.6104
  717TMC3    C210649   1.356   2.863   9.724  0.2716  0.0303  0.1598
  717TMC3    C310650   1.373   2.836   9.858 -0.5134 -0.6014  0.6210
  717TMC3    C410651   1.563   2.980   9.725 -0.8531  0.2739  0.1158
  717TMC3    C510652   1.579   2.936   9.849  0.1019  0.3808  0.6323
  717TMC3    C610653   1.493   2.852   9.919  0.1535  0.9538 -0.1668
  717TMC3     C10654   1.428   3.002   9.532  0.4509  0.2342  0.7426
  717TMC3     O10655   1.512   3.083   9.491 -0.5648 -0.0983 -0.3045
  717TMC3     H10656   1.264   2.842   9.671  1.3597 -2.5336 -0.7137
  717TMC3    H110657   1.648   3.025   9.675 -0.6920 -2.1577 -1.8096
  717TMC3    H210658   1.506   2.815  10.021 -1.3538  2.4461  0.5595
  717TMC3    C710659   1.683   3.005   9.926  0.3706 -0.3655  0.1002
  717TMC3    C810660   1.294   2.718   9.900  0.3725  0.3022  0.1556
  717TMC3    O110661   1.751   3.084   9.862  0.1150  0.4145  0.0370
  717TMC3    O210662   1.216   2.671   9.816 -0.2276  0.2625  0.4385
  718MPD2     C10663   0.619   0.078  13.402  0.4578  0.5497  0.3674
  718MPD2    C110664   0.581   0.146  13.289  1.1609 -0.2953  0.6010
  718MPD2    C210665   0.454   0.116  13.242 -0.1259  0.6068  0.1082
  718MPD2    C310666   0.372   0.023  13.298 -0.4521  0.1806  0.9436
  718MPD2    C410667   0.412   4.706  13.420 -0.1172 -0.0528  0.6769
  718MPD2    C510668   0.538   4.727  13.468 -0.7001 -0.3239 -0.2142
  718MPD2     H10669   0.428   0.159  13.146 -0.2247  1.6012  0.5790
  718MPD2    H110670   0.356   4.627  13.469  0.9131  0.4665  2.7055
  718MPD2    H210671   0.714   0.099  13.450  0.0160  3.6054 -0.0686
  718MPD2    H310672   0.565   4.686  13.565  1.7622 -1.8436 -1.5499
  718MPD2     N10673   0.252   0.001  13.228 -0.1297 -0.1989 -0.1136
  718MPD2    H510674   0.251   0.049  13.139  0.0276 -0.8254 -0.4509
  718MPD2    N110675   0.676   0.236  13.219  0.5352 -0.0937  0.3317
  718MPD2    H710676   0.775   0.225  13.238  0.6728 -0.1955 -0.4605
  719TMC3    C110677   0.718   0.342  13.010 -1.2578 -0.0293  0.4856
  719TMC3    C210678   0.683   0.253  12.911  0.0893 -0.0983 -0.0996
  719TMC3    C310679   0.667   0.290  12.782 -0.1117 -0.0443 -0.4251
  719TMC3    C410680   0.733   0.470  12.977 -0.3041 -0.2556  0.2608
  719TMC3    C510681   0.730   0.506  12.845  0.8232  0.3526 -0.2111
  719TMC3    C610682   0.692   0.416  12.745 -0.1934  0.0069  0.2862
  719TMC3     C10683   0.630   0.323  13.129 -0.1143  0.1001 -0.3034
  719TMC3     O10684   0.520   0.376  13.134 -0.3004  0.5615 -0.6441
  719TMC3     H10685   0.654   0.157  12.952 -1.5188  0.1558 -0.6377
  719TMC3    H110686   0.722   0.540  13.059 -0.1996  1.6917 -1.3865
  719TMC3    H210687   0.673   0.454  12.645  0.7670  0.6793  0.3592
  719TMC3    C710688   0.758   0.643  12.802  0.3372 -0.2158 -0.1532
  719TMC3    C810689   0.547   0.233  12.727  0.3427 -0.3138 -0.3028
  719TMC3    O110690   0.727   0.679  12.691  0.0355  0.1615  0.8716
  719TMC3    O210691   0.523   0.120  12.768  0.0228  0.2387  0.2922
  720MPD2     C10692   3.455   2.366  13.969  0.2539 -0.1981 -0.8033
  720MPD2    C110693   3.531   2.428  13.877  0.2900 -0.8512 -0.4783
  720MPD2    C210694   3.661   2.459  13.905  0.1432  0.3852  0.1444
  720MPD2    C310695   3.718   2.436  14.034  0.4777  0.1831  0.2685
  720MPD2    C410696   3.637   2.380  14.125  0.0435  0.9007  0.0837
  720MPD2    C510697   3.512   2.337  14.089 -0.2640 -0.0462 -0.7572
  720MPD2     H10698   3.722   2.517  13.837  0.1582 -1.5083 -1.4334
  720MPD2    H110699   3.678   2.358  14.223  0.8591 -0.6975 -0.6209
  720MPD2    H210700   3.355   2.331  13.947  0.1045  0.1473 -0.6710
  720MPD2    H310701   3.459   2.275  14.162  0.8226 -0.3770 -0.2494
  720MPD2     N10702   3.855   2.453  14.063  0.1097 -0.1455 -0.7875
  720MPD2    H510703   3.920   2.476  13.990 -1.5423  0.3778 -2.1013
  720MPD2    N110704   3.481   2.446  13.746 -0.3254  0.0514 -0.4924
  720MPD2    H710705   3.541   2.502  13.685  2.0138 -0.2443  1.5325
  721TMC3    C110706   4.054   2.480  14.203  0.0888  0.5904  0.7614
  721TMC3    C210707   4.102   2.535  14.319 -0.2730 -0.1496  0.0041
  721TMC3    C310708   4.220   2.601  14.331  0.7046 -0.2751  0.6612
  721TMC3    C410709   4.134   2.482  14.093 -0.6300 -0.0586 -0.0059
  721TMC3    C510710   4.259   2.535  14.102  0.6725 -0.3966 -0.0299
  721TMC3    C610711   4.298   2.595  14.216  0.0043 -0.3177  0.3079
  721TMC3     C10712   3.906   2.461  14.194  0.3163 -0.4801  0.3486
  721TMC3     O10713   3.848   2.473  14.297 -0.1743  0.4332  0.4618
  721TMC3     H10714   4.039   2.510  14.403 -1.7813  1.6255 -0.6040
  721TMC3    H110715   4.102   2.439  13.999 -1.6555 -0.4709  0.5273
  721TMC3    H210716   4.395   2.643  14.220 -0.4016  0.6478 -1.6840
  721TMC3    C710717   4.366   2.507  14.007  0.5932  0.0049 -0.8029
  721TMC3    C810718   4.292   2.583  14.452  1.1914  0.3826  0.0863
  721TMC3    O110719   4.467   2.573  14.016 -0.6052  0.8175  0.2295
  721TMC3    O210720   4.414   2.559  14.440  0.3590  0.3193 -1.2256
  722MPD2     C10721   2.617   0.718  13.287 -1.1590  0.0094 -0.0514
  722MPD2    C110722   2.589   0.846  13.326  0.2428 -0.7910  0.5089
  722MPD2    C210723   2.496   0.916  13.255  1.0000  0.3963 -0.2490
  722MPD2    C310724   2.418   0.857  13.159  0.8254 -0.2930  0.5787
  722MPD2    C410725   2.451   0.729  13.125  0.2853 -0.4346  0.2920
  722MPD2    C510726   2.555   0.659  13.188  0.0041 -0.8172  0.5839
  722MPD2     H10727   2.497   1.024  13.269  0.3045 -0.0613  3.2618
  722MPD2    H110728   2.388   0.666  13.063  2.0777 -1.4425 -0.4947
  722MPD2    H210729   2.695   0.660  13.336  0.4542  1.1311 -1.2703
  722MPD2    H310730   2.568   0.552  13.171 -0.0196 -0.7483  0.1226
  722MPD2     N10731   2.316   0.936  13.097 -0.9894  0.3687  0.0851
  722MPD2    H510732   2.297   1.018  13.154  0.2307  1.5119 -1.1395
  722MPD2    N110733   2.666   0.921  13.413 -0.0934 -0.4291  0.0695
  722MPD2    H710734   2.647   1.021  13.423  1.0649 -0.2302  0.3180
  723TMC3    C110735   2.119   0.976  12.967  0.3380  0.4491  0.3196
  723TMC3    C210736   2.038   0.931  12.871  0.0893  0.1962  0.2608
  723TMC3    C310737   1.943   1.019  12.825  0.0182  0.2235  0.5164
  723TMC3    C410738   2.106   1.099  13.027 -0.2839  0.4190  0.3656
  723TMC3    C510739   2.017   1.183  12.972 -0.0613 -0.4504 -0.1038
  723TMC3    C610740   1.933   1.146  12.872  0.2389 -0.3923 -0.5922
  723TMC3     C10741   2.236   0.881  12.999  0.2684  0.2627  0.2869
  723TMC3     O10742   2.238   0.775  12.937  0.4433 -0.2820 -0.1092
  723TMC3     H10743   2.048   0.829  12.835  2.4521  0.4207  0.2529
  723TMC3    H110744   2.187   1.140  13.085  0.1976  0.3914 -0.2952
  723TMC3    H210745   1.846   1.207  12.853  0.5017  0.2044  0.1338
  723TMC3    C710746   2.010   1.317  13.019 -0.0222 -0.0775 -0.3707
  723TMC3    C810747   1.849   0.969  12.725 -0.0074  0.7655  0.4532
  723TMC3    O110748   1.979   1.401  12.941 -0.0276 -0.7968 -0.1511
  723TMC3    O210749   1.794   1.057  12.658 -0.4861  0.0896 -0.6581
  724TMC3    C110750   2.804   3.827  10.972  0.8338  0.0921 -0.0221
  724TMC3    C210751   2.779   3.873  10.846  0.4838 -0.8418 -0.3632
  724TMC3    C310752   2.851   3.971  10.793  0.1841  0.1414  0.1024
  724TMC3    C410753   2.891   3.899  11.048 -0.6587  0.2038 -0.0772
  724TMC3    C510754   2.969   3.994  10.984  0.1543 -0.2443 -0.5633
  724TMC3    C610755   2.959   4.027  10.854  0.4474  0.9102  0.5308
  724TMC3     C10756   2.710   3.746  11.040  0.2563  0.2498 -0.1741
  724TMC3     O10757   2.736   3.724  11.159 -0.6348 -0.2326 -0.5822
  724TMC3     H10758   2.718   3.810  10.783  1.9546 -1.0872 -1.5483
  724TMC3    H110759   2.923   3.865  11.146  1.4139  0.9233 -0.5251
  724TMC3    H210760   3.025   4.090  10.795 -0.7266  0.6791 -1.0335
  724TMC3    C710761   3.059   4.076  11.061  0.2345 -0.4357 -0.3653
  724TMC3    C810762   2.810   4.034  10.665 -0.3334  0.4386 -0.3885
  724TMC3    O110763   3.146   4.123  10.987  0.4746  0.2787  0.1331
  724TMC3    O210764   2.769   3.964  10.577 -0.2395 -0.5889 -0.0462
  725TMC3    C110765   4.462   2.618  12.695 -0.4500  0.0884  0.0416
  725TMC3    C210766   4.343   2.658  12.641 -0.3865  0.7137 -0.2615
  725TMC3    C310767   4.229   2.605  12.697 -0.4439  0.2737  0.7127
  725TMC3    C410768   4.473   2.539  12.805 -0.5224  0.1828 -0.1410
  725TMC3    C510769   4.358   2.485  12.858 -0.2612 -0.1823  0.1124
  725TMC3    C610770   4.236   2.515  12.803  0.2115 -0.3147  0.8352
  725TMC3     C10771   4.556   2.727  12.693 -0.6045 -0.3883  0.5172
  725TMC3     O10772   4.507   2.836  12.671 -0.7968 -0.2072 -0.1368
  725TMC3     H10773   4.344   2.721  12.553 -2.3040  0.2587 -0.6211
  725TMC3    H110774   4.570   2.510  12.845  0.1508  2.5380 -0.0961
  725TMC3    H210775   4.145   2.461  12.823  0.9114 -0.9969  2.1834
  725TMC3    C710776   4.383   2.356  12.913  0.2181  0.2943 -0.4373
  725TMC3    C810777   4.092   2.643  12.648  0.6025 -0.3314  0.4889
  725TMC3    O110778   4.486   2.297  12.876  0.4224  0.5841 -0.2951
  725TMC3    O210779   3.996   2.585  12.698  0.1203  0.1783 -0.1309
  726MPD2     C10780   1.176   0.233  10.290  0.1804 -0.0893 -0.4653
  726MPD2    C110781   1.271   0.163  10.365  0.4467 -0.1956  0.8407
  726MPD2    C210782   1.239   0.039  10.423  0.6331  0.5674 -0.0377
  726MPD2    C310783   1.113   4.722  10.409 -0.3508  0.2092 -0.0609
  726MPD2    C410784   1.018   0.061  10.344 -0.8062 -0.8707 -0.2550
  726MPD2    C510785   1.059   0.170  10.277  0.6545  0.0138  0.3489
  726MPD2     H10786   1.313   4.705  10.456  0.6325  0.4242 -0.3468
  726MPD2    H110787   0.914   0.033  10.341 -1.1987  0.6512 -0.5498
  726MPD2    H210788   1.195   0.329  10.243  3.4694 -0.2671  0.4947
  726MPD2    H310789   0.986   0.219  10.213  3.4495 -0.4195 -3.1608
  726MPD2     N10790   1.080   4.589  10.458  0.1147 -0.1573 -0.1554
  726MPD2    H510791   0.983   4.563  10.446  0.4580 -1.5958  0.1562
  726MPD2    N110792   1.403   0.209  10.373  0.2807  0.0191 -0.4279
  726MPD2    H710793   1.464   0.160  10.438 -2.2935 -0.6724  1.4627
  727TMC3    C110794   1.611   0.316  10.336  0.2287 -0.2973 -0.0528
  727TMC3    C210795   1.671   0.429  10.383 -0.8339  0.5816 -0.4675
  727TMC3    C310796   1.806   0.403  10.395 -0.1821  0.7299  0.5138
  727TMC3    C410797   1.669   0.194  10.316 -0.1560 -0.6474  0.1136
  727TMC3    C510798   1.805   0.178  10.328 -0.7525  0.5568 -0.2803
  727TMC3    C610799   1.869   0.285  10.379 -0.2732  0.8004 -1.0896
  727TMC3     C10800   1.465   0.322  10.320  0.2772 -0.0667  0.5208
  727TMC3     O10801   1.415   0.415  10.260 -0.6324 -0.1188 -0.0952
  727TMC3     H10802   1.617   0.510  10.431  0.1052  0.8135  0.1881
  727TMC3    H110803   1.610   0.109  10.282 -0.5513  0.4062 -1.8617
  727TMC3    H210804   1.977   0.287  10.373 -0.0268 -2.3827  1.9604
  727TMC3    C710805   1.861   0.046  10.322  0.3420 -0.5593  0.4826
  727TMC3    C810806   1.892   0.507  10.448 -0.0011  0.2504  0.2508
  727TMC3    O110807   1.809   4.706  10.247 -0.1911 -0.0375 -0.1005
  727TMC3    O210808   2.005   0.478  10.476 -0.0612  0.2649  0.3929
  728TMC3    C110809   1.517   2.779  15.459  0.4564  0.6604  0.5586
  728TMC3    C210810   1.616   2.869  15.492  0.1058 -0.2807 -0.2776
  728TMC3    C310811   1.661   2.954  15.390  0.4783 -0.8215 -0.2460
  728TMC3    C410812   1.471   2.761  15.336 -0.2802  0.4233  0.1998
  728TMC3    C510813   1.512   2.853  15.240 -0.5110  0.2624  0.3610
  728TMC3    C610814   1.597   2.957  15.270  0.0913 -0.0428 -0.3299
  728TMC3     C10815   1.456   2.711  15.576  0.8161 -0.2426  0.3171
  728TMC3     O10816   1.521   2.714  15.679 -0.5628  0.2705 -0.0839
  728TMC3     H10817   1.654   2.873  15.594 -2.9189 -0.5398  0.8571
  728TMC3    H110818   1.414   2.680  15.294 -0.4447  0.0055  1.2428
  728TMC3    H210819   1.614   3.038  15.200 -1.7536 -0.9503 -1.8136
  728TMC3    C710820   1.501   2.816  15.092 -1.1389  0.1309 -0.3974
  728TMC3    C810821   1.730   3.073  15.430  0.3189 -0.3150  0.1609
  728TMC3    O110822   1.402   2.748  15.063  0.1496 -0.0226  0.6372
  728TMC3    O210823   1.706   3.178  15.371 -0.5920  0.0504 -0.5488
  729MPD2     C10824   3.937   3.354  16.722 -0.2858  0.2270  0.1283
  729MPD2    C110825   3.932   3.491  16.716  0.1552 -0.0344  0.0788
  729MPD2    C210826   3.845   3.559  16.803 -0.0102 -0.0079  0.7817
  729MPD2    C310827   3.781   3.485  16.903  0.7353  0.0684  0.2508
  729MPD2    C410828   3.796   3.348  16.902  0.1538 -0.8908  0.0654
  729MPD2    C510829   3.869   3.281  16.809  0.2686  0.4857  0.7135
  729MPD2     H10830   3.842   3.667  16.792 -1.2506  0.1034  2.1672
  729MPD2    H110831   3.731   3.288  16.965 -0.3133  0.7887  1.1868
  729MPD2    H210832   4.008   3.303  16.657 -0.2851 -0.0436  0.3411
  729MPD2    H310833   3.871   3.173  16.804 -0.6223  0.4799  0.4169
  729MPD2     N10834   3.700   3.536  17.005 -0.0211  0.0819 -0.2603
  729MPD2    H510835   3.664   3.470  17.073 -0.2021  0.3933 -0.0565
  729MPD2    N110836   4.029   3.556  16.633  0.6638 -0.4494 -0.2989
  729MPD2    H710837   4.092   3.494  16.583 -0.6870 -1.9931 -0.1106
  730TMC3    C110838   3.582   3.712  17.122  0.1458 -0.3361  0.1947
  730TMC3    C210839   3.599   3.641  17.239  0.3450  0.0138 -0.9100
  730TMC3    C310840   3.573   3.713  17.354  0.4978 -0.2120 -0.3083
  730TMC3    C410841   3.548   3.842  17.124 -0.1902  0.0883 -0.3284
  730TMC3    C510842   3.526   3.908  17.244 -0.8442  1.2463  0.6473
  730TMC3    C610843   3.527   3.840  17.359 -0.4439  0.4145 -0.7526
  730TMC3     C10844   3.664   3.669  17.006 -0.2270  0.2775 -0.1330
  730TMC3     O10845   3.700   3.762  16.933  0.6117  0.5331 -0.0803
  730TMC3     H10846   3.645   3.543  17.248 -0.0817 -0.0557  0.4982
  730TMC3    H110847   3.536   3.889  17.027 -0.7892 -1.0153 -0.7927
  730TMC3    H210848   3.500   3.890  17.452  2.3102  0.4201  0.0281
  730TMC3    C710849   3.551   4.048  17.231  0.6985 -0.3966  0.4111
  730TMC3    C810850   3.594   3.645  17.483 -0.1865  0.0030  0.0392
  730TMC3    O110851   3.563   4.093  17.115  0.1804  0.0627 -0.0960
  730TMC3    O210852   3.541   3.536  17.504  0.1208  0.5362 -0.0968
  731MPD2     C10853   3.864   2.422  12.926 -0.5316  0.3656  0.1345
  731MPD2    C110854   3.834   2.327  12.830  0.3774  0.6804 -0.1997
  731MPD2    C210855   3.772   2.209  12.870 -0.3074 -0.9412 -0.5015
  731MPD2    C310856   3.730   2.190  13.000  0.2198 -0.2647  0.7578
  731MPD2    C410857   3.769   2.286  13.092 -0.2752  0.5542 -0.1425
  731MPD2    C510858   3.837   2.395  13.053  0.6750  0.2354  0.0307
  731MPD2     H10859   3.741   2.142  12.791  0.4353 -1.1876 -0.5866
  731MPD2    H110860   3.772   2.264  13.198  0.8573 -0.9650 -0.4848
  731MPD2    H210861   3.918   2.514  12.909 -0.3987  0.2149 -0.2599
  731MPD2    H310862   3.879   2.463  13.126  0.6796 -0.8644  1.0465
  731MPD2     N10863   3.654   2.076  13.045 -0.2072 -0.2362  0.1692
  731MPD2    H510864   3.657   1.994  12.986  1.6482 -0.9226  1.2344
  731MPD2    N110865   3.867   2.363  12.694  0.3311  1.0978  0.2225
  731MPD2    H710866   3.920   2.450  12.681  0.8434  0.5982 -1.0753
  732TMC3    C110867   3.919   2.337  12.481  0.2840 -0.1187 -0.2565
  732TMC3    C210868   3.872   2.374  12.355  0.1939  0.1629  0.0445
  732TMC3    C310869   3.967   2.407  12.256 -0.6566 -0.0404  0.6193
  732TMC3    C410870   4.054   2.351  12.511 -0.1990  0.9273 -0.7581
  732TMC3    C510871   4.141   2.381  12.412  0.3162  0.3578  0.0564
  732TMC3    C610872   4.099   2.422  12.290 -0.2112  0.1983 -0.4317
  732TMC3     C10873   3.833   2.295  12.583  0.9895  0.6488  0.1061
  732TMC3     O10874   3.751   2.206  12.561  0.5659  0.3144  0.3728
  732TMC3     H10875   3.767   2.373  12.331  0.3026  1.5131 -0.4915
  732TMC3    H110876   4.085   2.331  12.613 -1.9912 -0.5594 -0.5025
  732TMC3    H210877   4.170   2.460  12.217  0.0267 -0.8072 -0.7319
  732TMC3    C710878   4.276   2.344  12.434  0.4975  0.2704  0.5267
  732TMC3    C810879   3.940   2.352  12.127 -0.3005 -0.0473 -0.0405
  732TMC3    O110880   4.358   2.402  12.364  0.2239  0.0191  0.3627
  732TMC3    O210881   4.016   2.379  12.034  0.1240 -0.7199 -0.0046
  733TMC3    C110882   4.549   4.638  13.151  0.5334  0.1961 -0.1708
  733TMC3    C210883   4.658   4.611  13.228  0.2468  0.8147 -0.1929
  733TMC3    C310884   0.045   4.631  13.178  0.4827  0.1056  0.3521
  733TMC3    C410885   4.570   4.698  13.031 -0.4865  0.0114  0.0027
  733TMC3    C510886   4.698   4.710  12.979 -0.6855 -0.8335 -0.0997
  733TMC3    C610887   0.072   4.684  13.048  0.2190 -0.6923  0.0170
  733TMC3     C10888   4.420   4.652  13.214 -0.0693  1.2965 -0.4121
  733TMC3     O10889   4.329   4.709  13.154  0.7630 -0.2002  0.2487
  733TMC3     H10890   4.644   4.583  13.332 -0.8704  1.1095 -0.2633
  733TMC3    H110891   4.482   0.000  12.982 -1.3218  0.6716  2.0569
  733TMC3    H210892   0.173   4.694  13.011  0.0500 -0.4892 -0.3794
  733TMC3    C710893   4.701   0.051  12.862  0.7319 -0.2900 -0.2199
  733TMC3    C810894   0.149   4.658  13.278  0.1445  0.3728  0.0193
  733TMC3    O110895   4.601   0.055  12.791  1.0809  0.7347 -0.8761
  733TMC3    O210896   0.116   4.633  13.392  0.2998  0.0178  0.1318
  734MPD2     C10897   1.787   3.077  12.254  0.2546 -0.1551 -0.1265
  734MPD2    C110898   1.703   3.005  12.173  0.7963 -0.4386  0.5097
  734MPD2    C210899   1.723   2.993  12.039 -0.3658 -0.2505 -0.1590
  734MPD2    C310900   1.820   3.066  11.979 -0.0735  0.0657 -0.1044
  734MPD2    C410901   1.912   3.137  12.059  0.8783 -0.7085  0.1238
  734MPD2    C510902   1.896   3.138  12.198  0.1020 -0.4678  0.4058
  734MPD2     H10903   1.664   2.930  11.974  0.8452 -0.4133 -1.1170
  734MPD2    H110904   1.990   3.197  12.015  0.1330 -0.4764 -0.8744
  734MPD2    H210905   1.774   3.083  12.362 -1.6580 -0.9227 -0.3221
  734MPD2    H310906   1.968   3.188  12.261 -0.4170  0.2473  0.4259
  734MPD2     N10907   1.819   3.065  11.841 -0.0506 -0.2107 -0.3796
  734MPD2    H510908   1.751   3.001  11.799 -0.2016 -1.3827  1.6654
  734MPD2    N110909   1.604   2.935  12.239 -0.8541 -0.2696  0.0928
  734MPD2    H710910   1.603   2.939  12.340  0.6143 -2.5456  0.2160
  735TMC3    C110911   1.403   2.791  12.268  0.1924 -0.1377 -0.5480
  735TMC3    C210912   1.296   2.755  12.185 -0.0256  0.3261  0.1507
  735TMC3    C310913   1.280   2.624  12.144 -0.1252  0.5536  0.1360
  735TMC3    C410914   1.483   2.696  12.332  0.4057  0.1498  0.1161
  735TMC3    C510915   1.455   2.563  12.295  0.1263  0.3882  1.1542
  735TMC3    C610916   1.355   2.526  12.205  0.6079 -0.0545 -0.2777
  735TMC3     C10917   1.485   2.878  12.188  0.0216  0.6465  0.4201
  735TMC3     O10918   1.440   2.883  12.076 -0.0106  0.1186 -0.1824
  735TMC3     H10919   1.221   2.825  12.152 -1.2343 -1.0187  0.0461
  735TMC3    H110920   1.569   2.721  12.393  1.5210  2.8753 -2.5565
  735TMC3    H210921   1.344   2.423  12.175 -3.0066  0.2815 -0.1000
  735TMC3    C710922   1.576   2.485  12.307  0.0520 -0.4523  0.0954
  735TMC3    C810923   1.246   2.599  12.003 -0.2974  0.5446  0.1973
  735TMC3    O110924   1.684   2.543  12.314 -0.1108  0.1564 -0.3506
  735TMC3    O210925   1.211   2.484  11.973  0.0239  0.0662 -0.2092
  736MPD2     C10926   1.616   2.123  12.308 -0.5158 -0.5958  0.6888
  736MPD2    C110927   1.641   2.255  12.264 -0.1898 -0.2637 -0.1065
  736MPD2    C210928   1.755   2.280  12.192  0.1709  0.7108  0.1878
  736MPD2    C310929   1.850   2.185  12.171 -0.4353  0.3642 -1.0580
  736MPD2    C410930   1.828   2.059  12.215  0.0213  0.0312  0.1667
  736MPD2    C510931   1.705   2.022  12.276  0.2989  1.1160 -0.4011
  736MPD2     H10932   1.773   2.375  12.143  1.3436  0.4644  0.1561
  736MPD2    H110933   1.900   1.979  12.203  1.2708  1.1309  0.3425
  736MPD2    H210934   1.525   2.109  12.364 -0.3431  0.8665  1.3315
  736MPD2    H310935   1.686   1.921  12.310 -1.3799  1.8462  0.8781
  736MPD2     N10936   1.965   2.204  12.081  0.5975 -0.2531  0.3684
  736MPD2    H510937   2.037   2.133  12.085  0.9761 -0.0921 -3.0568
  736MPD2    N110938   1.545   2.350  12.296 -0.1282 -0.3509  0.2949
  736MPD2    H710939   1.453   2.308  12.308  0.3237 -1.2957  0.4677
  737TMC3    C110940   2.133   2.316  11.944  0.6414  0.3838  0.3811
  737TMC3    C210941   2.175   2.432  11.879 -0.2354 -0.6598  0.1100
  737TMC3    C310942   2.308   2.446  11.847 -0.5808  0.0324  0.0717
  737TMC3    C410943   2.223   2.211  11.972  0.2492  0.4133  0.2283
  737TMC3    C510944   2.358   2.228  11.947 -0.3665 -0.0006 -0.8322
  737TMC3    C610945   2.397   2.341  11.871 -0.1384 -0.6208  0.2107
  737TMC3     C10946   1.995   2.314  12.000 -0.1177  0.2781  0.1469
  737TMC3     O10947   1.915   2.400  11.964  0.9162 -0.3996  0.2822
  737TMC3     H10948   2.106   2.514  11.867  1.5134  0.7879 -0.0004
  737TMC3    H110949   2.188   2.115  12.009 -2.3338  1.8071  1.3768
  737TMC3    H210950   2.495   2.362  11.830  0.0619 -2.1255 -0.0559
  737TMC3    C710951   2.439   2.113  11.956 -0.2897 -0.4623 -0.2858
  737TMC3    C810952   2.352   2.553  11.752 -0.6231 -0.3138 -0.4556
  737TMC3    O110953   2.384   2.007  11.961 -0.1793  0.2264  0.0782
  737TMC3    O210954   2.476   2.569  11.741 -0.0546  0.8000 -0.0969
  738MPD2     C10955   2.691   1.389  14.988  0.6265  0.1906 -0.4612
  738MPD2    C110956   2.808   1.320  15.011 -0.0529  0.1559  0.0081
  738MPD2    C210957   2.928   1.369  14.970 -0.1391 -0.8551 -0.1400
  738MPD2    C310958   2.930   1.486  14.897 -0.6002  0.3477 -0.7170
  738MPD2    C410959   2.812   1.550  14.870 -0.1210  0.4221 -0.3864
  738MPD2    C510960   2.694   1.501  14.918 -0.7468 -0.0314 -0.2416
  738MPD2     H10961   3.019   1.316  14.996  1.7846  2.9739  0.9890
  738MPD2    H110962   2.814   1.648  14.823 -0.7388 -0.2098 -1.7173
  738MPD2    H210963   2.591   1.351  15.009  1.8952 -2.0927  1.4226
  738MPD2    H310964   2.602   1.540  14.875 -1.4846 -1.6900 -0.1854
  738MPD2     N10965   3.047   1.542  14.848  0.2839  0.0049 -0.1246
  738MPD2    H510966   3.037   1.618  14.781  0.5400 -1.4648 -1.8422
  738MPD2    N110967   2.819   1.197  15.078  0.7258 -0.6057 -0.0286
  738MPD2    H710968   2.914   1.161  15.084  0.3938 -1.6034 -0.7187
  739TMC3    C110969   3.277   1.604  14.861 -0.6053 -0.9418  0.3850
  739TMC3    C210970   3.268   1.639  14.729 -0.5464 -0.2727  0.4755
  739TMC3    C310971   3.387   1.651  14.668 -0.7025 -0.0240 -0.5677
  739TMC3    C410972   3.386   1.622  14.938 -0.8158 -0.4619 -0.4059
  739TMC3    C510973   3.505   1.646  14.876  0.0901 -0.0460 -0.0452
  739TMC3    C610974   3.509   1.652  14.740 -0.2717  0.3294  0.7374
  739TMC3     C10975   3.167   1.525  14.915  0.3771  0.1388 -0.6908
  739TMC3     O10976   3.178   1.484  15.028  0.2594 -0.4944  0.6764
  739TMC3     H10977   3.177   1.628  14.672 -1.0591  0.7950  1.0810
  739TMC3    H110978   3.383   1.602  15.044 -1.1278 -3.0022 -0.8976
  739TMC3    H210979   3.607   1.657  14.694 -0.4976 -2.5301 -0.0549
  739TMC3    C710980   3.614   1.711  14.947  0.6615  0.1273 -0.2795
  739TMC3    C810981   3.390   1.619  14.525  0.1417 -0.3866  0.3683
  739TMC3    O110982   3.729   1.697  14.911 -0.0121  0.5344 -0.4282
  739TMC3    O210983   3.286   1.585  14.472  0.1681  0.4413 -0.2526
  740TMC3    C110984   3.538   2.799  14.493  0.8177 -0.0714  0.0935
  740TMC3    C210985   3.600   2.720  14.584  0.0128 -0.2456 -0.7171
  740TMC3    C310986   3.726   2.671  14.551 -0.6743  0.6449 -0.7435
  740TMC3    C410987   3.597   2.839  14.379  0.8640  0.3016 -0.1204
  740TMC3    C510988   3.733   2.814  14.360 -0.0965 -0.6313 -0.7710
  740TMC3    C610989   3.797   2.731  14.446  0.5973 -0.8602  0.5636
  740TMC3     C10990   3.405   2.857  14.515 -0.3164  0.1775 -0.1027
  740TMC3     O10991   3.364   2.944  14.436  0.1074  0.2342  0.1267
  740TMC3     H10992   3.556   2.712  14.683  0.7246 -0.0274 -0.3892
  740TMC3    H110993   3.558   2.921  14.320  1.9295  0.2528 -0.8871
  740TMC3    H210994   3.896   2.702  14.412  0.8423  0.2204  0.3297
  740TMC3    C710995   3.818   2.848  14.246 -0.1295  0.0957  0.0258
  740TMC3    C810996   3.808   2.586  14.640 -0.1414  1.0149 -0.6071
  740TMC3    O110997   3.934   2.884  14.261  0.0446 -0.0002 -0.5200
  740TMC3    O210998   3.924   2.570  14.604  0.1859  0.0735  0.0246
  741TMC3    C110999   3.119   1.899  14.033  0.7197 -0.7129  0.6615
  741TMC3    C211000   3.043   1.808  14.099  0.6734  0.4258  0.1743
  741TMC3    C311001   3.077   1.778  14.228 -0.0331  0.6527 -0.6498
  741TMC3    C411002   3.230   1.958  14.100 -0.7336 -0.3435 -0.1199
  741TMC3    C511003   3.256   1.921  14.231  0.1714 -0.0285  0.1912
  741TMC3    C611004   3.178   1.835  14.302  0.8500 -1.1153 -0.5621
  741TMC3     C11005   3.076   1.968  13.912 -0.3629  0.7837  0.3951
  741TMC3     O11006   3.155   2.036  13.845  0.1277 -0.6925  0.3970
  741TMC3     H11007   2.962   1.760  14.046 -0.1046  0.6688  1.1308
  741TMC3    H111008   3.297   2.024  14.046 -2.1213  2.0087  1.0265
  741TMC3    H211009   3.190   1.810  14.407  0.0317  1.6800  0.1842
  741TMC3    C711010   3.379   1.978  14.278  0.2018  0.9211 -0.0778
  741TMC3    C811011   2.973   1.699  14.293 -0.0560 -0.3003 -0.1900
  741TMC3    O111012   3.464   2.004  14.197  0.0770  0.2070 -0.4505
  741TMC3    O211013   2.869   1.702  14.233  0.2534  0.2498  1.0404
  742TMC3    C111014   3.443   0.550  15.656  0.7856  0.0080  0.0475
  742TMC3    C211015   3.330   0.477  15.612  0.7477  0.1044  0.1291
  742TMC3    C311016   3.339   0.427  15.485 -0.2557  0.5348 -0.6528
  742TMC3    C411017   3.556   0.564  15.575 -0.1171  0.3024 -0.2065
  742TMC3    C511018   3.560   0.507  15.455 -0.2264  0.0569  0.0429
  742TMC3    C611019   3.452   0.435  15.407 -0.0203  0.1851 -0.8294
  742TMC3     C11020   3.452   0.604  15.787 -0.4324 -0.9287 -0.2874
  742TMC3     O11021   3.542   0.682  15.813 -0.2829  0.8111 -0.1231
  742TMC3     H11022   3.235   0.500  15.658 -0.1689 -0.7106 -1.3348
  742TMC3    H111023   3.654   0.599  15.607  0.0054 -2.3892  2.3860
  742TMC3    H211024   3.465   0.385  15.312 -0.8960 -2.1263  0.2754
  742TMC3    C711025   3.684   0.435  15.444 -0.0200 -0.0668  0.1009
  742TMC3    C811026   3.231   0.356  15.423 -0.6354  0.6002  0.2167
  742TMC3    O111027   3.672   0.315  15.416  0.0481  0.1816  0.2615
  742TMC3    O211028   3.229   0.353  15.301  0.6357 -0.2046  0.2558
  743MPD2     C11029   0.462   1.039   1.643 -0.6079 -0.2934 -0.9613
  743MPD2    C111030   0.560   1.047   1.548  0.8452 -0.6837 -0.7586
  743MPD2    C211031   0.636   0.932   1.524 -0.1658  0.0338  0.3358
  743MPD2    C311032   0.630   0.816   1.602  0.0195  0.1565 -0.0356
  743MPD2    C411033   0.528   0.812   1.696  0.4606 -0.0028 -0.4106
  743MPD2    C511034   0.445   0.921   1.715 -0.0978  0.2545 -0.1735
  743MPD2     H11035   0.705   0.934   1.440  0.8330  0.9653  1.1621
  743MPD2    H111036   0.512   0.720   1.752  3.4884 -0.6398 -0.6014
  743MPD2    H211037   0.394   1.123   1.651 -2.5858 -2.0762  0.6141
  743MPD2    H311038   0.365   0.910   1.787  2.1139  0.2901  2.2844
  743MPD2     N11039   0.735   0.717   1.590 -0.2426  0.1542 -0.2693
  743MPD2    H511040   0.810   0.729   1.522  0.0455  2.5350  0.4672
  743MPD2    N111041   0.572   1.169   1.471  0.0662  0.3739  0.8405
  743MPD2    H711042   0.492   1.232   1.477 -0.0894  0.3365 -0.7769
  744TMC3    C111043   0.659   1.327   1.320 -0.0412  0.1642 -0.3384
  744TMC3    C211044   0.577   1.421   1.369  0.2182 -0.3234  0.5762
  744TMC3    C311045   0.549   1.533   1.291 -0.5186 -0.4253 -0.0432
  744TMC3    C411046   0.711   1.338   1.189  0.3260  0.0684  0.2736
  744TMC3    C511047   0.682   1.446   1.117  0.1557 -0.9685 -0.5169
  744TMC3    C611048   0.606   1.546   1.165  0.4090  0.3052 -0.1573
  744TMC3     C11049   0.674   1.193   1.382  0.2678  0.5836  0.1874
  744TMC3     O11050   0.770   1.123   1.354 -0.4995  0.3325  0.0586
  744TMC3     H11051   0.544   1.411   1.471  1.4843  0.2467  1.0331
  744TMC3    H111052   0.755   1.248   1.147  0.8973  1.2398 -1.6309
  744TMC3    H211053   0.570   1.629   1.105 -1.6421 -1.9954 -2.0805
  744TMC3    C711054   0.695   1.434   0.974 -0.3072 -0.6270  1.0159
  744TMC3    C811055   0.473   1.645   1.344  0.6406 -0.2940 -0.0301
  744TMC3    O111056   0.788   1.376   0.925  0.3112 -0.5238  0.0968
  744TMC3    O211057   0.477   1.751   1.280 -0.2963  0.2199  0.0752
  745TMC3    C111058   3.413   4.446  13.607 -0.4192  0.1932  0.5603
  745TMC3    C211059   3.324   4.505  13.693 -0.3468  0.3625 -0.1127
  745TMC3    C311060   3.209   4.551  13.632  0.5430  0.0118 -0.1273
  745TMC3    C411061   3.397   4.455  13.468  1.1664 -0.1220 -0.4521
  745TMC3    C511062   3.281   4.504  13.412 -0.7804 -0.8534 -1.0503
  745TMC3    C611063   3.181   4.559  13.492 -0.7129 -0.1082  0.0404
  745TMC3     C11064   3.548   4.450  13.659 -1.0853 -0.7909  0.1265
  745TMC3     O11065   3.639   4.398  13.596  0.3874  0.2973  0.0015
  745TMC3     H11066   3.329   4.490  13.800 -2.1088 -2.2035 -0.3910
  745TMC3    H111067   3.478   4.416  13.407  1.5441 -0.4263  0.2430
  745TMC3    H211068   3.090   4.602  13.454 -0.8851 -0.9839 -0.5250
  745TMC3    C711069   3.281   4.547  13.277 -0.6385  0.1720 -0.2625
  745TMC3    C811070   3.109   4.606  13.725  0.3408  0.0357 -0.0967
  745TMC3    O111071   3.184   4.547  13.207 -0.2040 -0.3113  0.3130
  745TMC3    O211072   2.988   4.592  13.694  0.1282  0.4131  0.3250
  746TMC3    C111073   0.600   2.034  10.975  0.0047 -0.1378  0.0619
  746TMC3    C211074   0.575   2.029  10.842 -0.4804 -0.8203  0.0500
  746TMC3    C311075   0.521   1.912  10.790  1.1765 -0.3845  0.0077
  746TMC3    C411076   0.551   1.941  11.064 -0.0775 -0.3304 -0.6074
  746TMC3    C511077   0.490   1.829  11.009  0.1525  0.4630  0.0420
  746TMC3    C611078   0.474   1.812  10.874  0.0071  0.5104  0.3001
  746TMC3     C11079   0.635   2.157  11.040  0.7039  0.5780 -0.0024
  746TMC3     O11080   0.572   2.194  11.135 -0.1253  0.4009  0.1016
  746TMC3     H11081   0.607   2.112  10.781  1.9853 -1.3721  0.6080
  746TMC3    H111082   0.559   1.955  11.171 -0.0929  0.6974 -0.7357
  746TMC3    H211083   0.413   1.730  10.838 -2.4156  2.6711 -0.5237
  746TMC3    C711084   0.379   1.778  11.090  0.6007 -0.9687 -0.8539
  746TMC3    C811085   0.490   1.914  10.654 -0.0084  0.5081  0.0095
  746TMC3    O111086   0.286   1.725  11.029  0.3595 -0.0127 -0.2418
  746TMC3    O211087   0.379   1.876  10.610 -0.0963  0.0664  0.8037
  747TMC3    C111088   3.357   2.083  11.447 -0.6987 -0.3393 -1.4055
  747TMC3    C211089   3.252   2.009  11.486  0.4282  0.6056 -0.0522
  747TMC3    C311090   3.207   2.033  11.614 -0.4266 -0.7330 -0.0274
  747TMC3    C411091   3.423   2.170  11.530  0.5637  0.0994  1.1215
  747TMC3    C511092   3.375   2.195  11.654  0.6658  0.1466  0.9050
  747TMC3    C611093   3.268   2.130  11.697 -0.7191 -0.3172 -0.6814
  747TMC3     C11094   3.453   2.012  11.358  0.8939 -0.4686  0.1617
  747TMC3     O11095   3.570   2.048  11.374  0.5721 -0.0257  0.3808
  747TMC3     H11096   3.198   1.936  11.426 -1.5752  0.3287  2.0800
  747TMC3    H111097   3.504   2.227  11.486 -0.3396  1.0987  0.7611
  747TMC3    H211098   3.231   2.143  11.797  1.1439 -1.8241  0.2122
  747TMC3    C711099   3.428   2.306  11.732  0.0385  0.0885 -0.2295
  747TMC3    C811100   3.092   1.960  11.664 -0.4867 -0.1376  0.3575
  747TMC3    O111101   3.352   2.361  11.808  0.4144 -0.9106  0.2282
  747TMC3    O211102   3.090   1.841  11.642  0.0607  0.4176 -0.2235
  748MPD2     C11103   4.339   2.269   0.778 -0.1429  0.3130 -0.7045
  748MPD2    C111104   4.411   2.188   0.690 -0.1357  0.0669  0.2491
  748MPD2    C211105   4.549   2.214   0.680 -0.2774 -0.3772  0.3505
  748MPD2    C311106   4.614   2.300   0.763  0.2045 -0.7046 -0.1644
  748MPD2    C411107   4.536   2.375   0.849 -0.0674 -0.3235 -0.0434
  748MPD2    C511108   4.401   2.359   0.856  0.1859  0.1928  0.1153
  748MPD2     H11109   4.603   2.160   0.603 -0.9791 -0.3384 -0.1730
  748MPD2    H111110   4.574   2.453   0.915  0.9786 -1.0438  0.2026
  748MPD2    H211111   4.232   2.252   0.787 -0.2070  1.0345 -0.0972
  748MPD2    H311112   4.342   2.419   0.924  0.4135 -0.1996  0.6606
  748MPD2     N11113   0.018   2.305   0.750  0.2634 -0.1909  0.9575
  748MPD2    H511114   0.062   2.248   0.678 -1.4057 -2.3084  1.6189
  748MPD2    N111115   4.338   2.091   0.610  0.1825 -0.4003  0.0899
  748MPD2    H711116   4.241   2.077   0.638  0.8941 -2.2695  1.6347
  749TMC3    C111117   0.240   2.387   0.806  0.0008  0.1956 -0.2953
  749TMC3    C211118   0.292   2.270   0.744 -0.1571  0.1175 -0.3763
  749TMC3    C311119   0.426   2.253   0.740  0.1277 -0.4262 -0.0531
  749TMC3    C411120   0.323   2.476   0.862 -0.1382 -0.3519 -0.6481
  749TMC3    C511121   0.457   2.456   0.849  0.4902 -0.0458  0.0596
  749TMC3    C611122   0.513   2.343   0.788 -0.1483 -0.2594  0.7491
  749TMC3     C11123   0.093   2.405   0.814 -0.0119 -0.2743 -0.1847
  749TMC3     O11124   0.056   2.499   0.885  0.4861  0.0369  0.0742
  749TMC3     H11125   0.229   2.195   0.698 -1.2296 -0.2593  1.6992
  749TMC3    H111126   0.283   2.558   0.921 -0.1419 -1.4673  0.9094
  749TMC3    H211127   0.620   2.330   0.782 -0.4561 -2.0204 -1.1292
  749TMC3    C711128   0.548   2.559   0.880 -0.4336  0.0718  0.8130
  749TMC3    C811129   0.470   2.155   0.645 -0.0724  0.2243 -0.0743
  749TMC3    O111130   0.510   2.671   0.897  0.0310  0.9978  0.0100
  749TMC3    O211131   0.393   2.120   0.555 -0.4021  0.6005  0.1986
  750MPD2     C11132   0.737   3.413  11.423  0.4538 -0.4522 -0.1540
  750MPD2    C111133   0.602   3.383  11.420  0.4913  0.0741 -0.7917
  750MPD2    C211134   0.541   3.302  11.317  0.0169  0.0835 -0.5936
  750MPD2    C311135   0.625   3.237  11.226 -0.0628  0.8450  0.0138
  750MPD2    C411136   0.766   3.256  11.243  0.3551  0.2328  0.9181
  750MPD2    C511137   0.816   3.344  11.334 -0.1418 -0.0381  1.0209
  750MPD2     H11138   0.434   3.299  11.299  0.0549 -1.5844 -0.5442
  750MPD2    H111139   0.841   3.208  11.181 -1.1300  0.5018 -1.0732
  750MPD2    H211140   0.780   3.470  11.505  0.7531 -0.1674 -0.5116
  750MPD2    H311141   0.921   3.371  11.326  0.2602 -2.5641 -2.3619
  750MPD2     N11142   0.575   3.153  11.125 -0.6061  0.1502  0.4358
  750MPD2    H511143   0.645   3.114  11.062  1.3262  4.0822  0.1396
  750MPD2    N111144   0.522   3.462  11.512  0.2141 -0.3122  0.2074
  750MPD2    H711145   0.574   3.535  11.561  1.5782 -0.2132 -1.3878
  751TMC3    C111146   0.415   3.061  10.974  0.0978 -0.1600 -0.2524
  751TMC3    C211147   0.294   3.002  10.971 -0.8377  0.0341 -0.3669
  751TMC3    C311148   0.240   2.970  10.850  0.8175  0.3054  0.2611
  751TMC3    C411149   0.482   3.094  10.857 -0.7407  0.3715 -0.5409
  751TMC3    C511150   0.426   3.058  10.744 -0.1772  0.8515  0.5388
  751TMC3    C611151   0.302   2.992  10.733  0.2871 -0.4802 -0.0184
  751TMC3     C11152   0.437   3.131  11.096  0.6322  0.4568 -0.1048
  751TMC3     O11153   0.334   3.141  11.159 -0.0142  0.3214  0.0874
  751TMC3     H11154   0.255   2.965  11.065  0.2858  2.2073  0.9659
  751TMC3    H111155   0.581   3.136  10.855 -1.6918  2.6711  0.6665
  751TMC3    H211156   0.261   2.975  10.634  1.2496  0.5340 -0.5895
  751TMC3    C711157   0.518   3.068  10.630 -0.0559  0.2722  0.4630
  751TMC3    C811158   0.100   2.932  10.850 -0.6940  0.4914  0.0238
  751TMC3    O111159   0.618   3.142  10.641  0.1947 -0.1487 -0.0582
  751TMC3    O211160   0.044   2.907  10.743 -0.9136 -0.4685 -0.0589
  752TMC3    C111161   4.721   3.278  17.262  0.4544  0.5408 -0.5354
  752TMC3    C211162   4.731   3.149  17.321 -0.1277 -0.1201 -0.5162
  752TMC3    C311163   4.647   3.126  17.428 -0.3577 -0.8015 -0.0064
  752TMC3    C411164   4.632   3.368  17.310 -0.4409 -0.2551 -0.3646
  752TMC3    C511165   4.546   3.335  17.410  0.2067 -0.0225  0.2895
  752TMC3    C611166   4.553   3.211  17.474  0.0298  0.0486  0.0724
  752TMC3     C11167   0.032   3.292  17.124 -0.1243  0.5825 -0.2312
  752TMC3     O11168   0.102   3.200  17.085  0.0638 -0.3738  0.4201
  752TMC3     H11169   0.069   3.078  17.288  0.5713 -1.1538  3.2426
  752TMC3    H111170   4.641   3.471  17.275  0.2561  0.1149  0.9001
  752TMC3    H211171   4.497   3.191  17.564  0.8419 -0.2022  0.5206
  752TMC3    C711172   4.417   3.395  17.388  0.7981 -0.3895  0.2095
  752TMC3    C811173   4.681   3.004  17.501  0.1133 -0.1043 -0.0490
  752TMC3    O111174   4.415   3.451  17.279 -0.2573  0.4440  0.2537
  752TMC3    O211175   0.042   2.944  17.455  0.0297 -0.1488 -0.6875
  753TMC3    C111176   1.838   4.415  13.607  0.4817  0.1956  0.3102
  753TMC3    C211177   1.861   4.460  13.736 -0.0730  0.2197 -0.0510
  753TMC3    C311178   1.811   4.385  13.841 -0.1553  0.4895  0.1378
  753TMC3    C411179   1.753   4.310  13.572  0.1915  0.2609  0.0951
  753TMC3    C511180   1.709   4.236  13.684 -0.2442  0.2413  0.3419
  753TMC3    C611181   1.739   4.265  13.813 -0.7809  0.8925  0.1697
  753TMC3     C11182   1.839   4.524  13.503  1.0772 -0.0906 -0.0892
  753TMC3     O11183   1.749   4.517  13.422  0.2831 -0.0306 -0.1174
  753TMC3     H11184   1.927   4.545  13.747  1.3859 -1.1726  2.1346
  753TMC3    H111185   1.712   4.293  13.473 -0.0027 -0.5851  0.3132
  753TMC3    H211186   1.710   4.206  13.898  1.0432  0.5381  0.5411
  753TMC3    C711187   1.597   4.148  13.663 -0.6045  0.4216 -1.0659
  753TMC3    C811188   1.869   4.396  13.978  0.2113 -0.5830 -0.1870
  753TMC3    O111189   1.522   4.139  13.764 -0.0995  0.4967 -0.0536
  753TMC3    O211190   1.849   4.305  14.059 -0.0227  0.6190 -0.2408
  754MPD2     C11191   0.509   3.942  13.143  0.1531 -0.1215  0.1056
  754MPD2    C111192   0.533   3.810  13.106 -1.2358  0.0888 -0.1416
  754MPD2    C211193   0.451   3.751  13.011  0.5996 -0.3905 -0.6767
  754MPD2    C311194   0.334   3.806  12.964  0.0054  0.1036 -0.3653
  754MPD2    C411195   0.318   3.939  13.000 -0.0635 -0.3803 -0.0790
  754MPD2    C511196   0.405   4.005  13.082  0.2710  0.0092  0.4535
  754MPD2     H11197   0.474   3.650  12.978 -1.3391 -1.7898  2.2332
  754MPD2    H111198   0.237   3.998  12.959  1.7468  2.5187  0.5632
  754MPD2    H211199   0.570   3.992  13.218  1.0188 -1.6110  0.3953
  754MPD2    H311200   0.387   4.110  13.102  2.6556  0.3678  0.7640
  754MPD2     N11201   0.236   3.741  12.889  0.3561  0.7056  0.2636
  754MPD2    H511202   0.147   3.786  12.869 -1.4226 -1.8838  2.4585
  754MPD2    N111203   0.625   3.732  13.178 -0.5642 -0.3107  0.0661
  754MPD2    H711204   0.672   3.776  13.257 -0.0680 -0.1209 -0.3355
  755MPD2     C11205   4.493   3.507  13.464 -0.4069 -0.5198  0.4406
  755MPD2    C111206   4.394   3.499  13.372 -0.4574  0.1817 -0.4336
  755MPD2    C211207   4.434   3.524  13.241  0.0814  0.3988 -0.0453
  755MPD2    C311208   4.562   3.552  13.202  0.0172  0.0936 -0.3862
  755MPD2    C411209   4.658   3.560  13.303 -0.4661  1.2818 -0.2992
  755MPD2    C511210   4.619   3.540  13.429 -0.0699 -0.1505 -0.2290
  755MPD2     H11211   4.354   3.525  13.168  0.3401  0.0985 -0.3337
  755MPD2    H111212   0.026   3.562  13.279 -0.6455  2.8148 -0.9676
  755MPD2    H211213   4.477   3.483  13.568 -2.0087 -0.8506  0.1127
  755MPD2    H311214   4.696   3.533  13.504  0.5172 -2.2460 -1.0306
  755MPD2     N11215   4.604   3.556  13.074  0.0264 -0.1266 -0.5434
  755MPD2    H511216   4.706   3.550  13.067  0.1382  1.0510  0.1717
  755MPD2    N111217   4.252   3.484  13.403 -0.5446 -0.7282  0.6040
  755MPD2    H711218   4.180   3.511  13.337  2.4605  1.2853 -1.8545
  756MPD2     C11219   0.562   4.403   9.948 -0.2872  0.5817 -0.6886
  756MPD2    C111220   0.434   4.408   9.990 -0.1377  0.6778  0.2274
  756MPD2    C211221   0.333   4.442   9.895  0.0722 -0.6384 -0.2823
  756MPD2    C311222   0.362   4.450   9.758  0.6039  0.1796  0.4655
  756MPD2    C411223   0.495   4.448   9.718  0.2006  0.2189  0.2320
  756MPD2    C511224   0.588   4.426   9.816 -0.3715 -0.5764 -0.4190
  756MPD2     H11225   0.228   4.448   9.924 -1.0422 -0.8047 -4.3314
  756MPD2    H111226   0.524   4.451   9.613 -2.0485  1.6336 -0.3451
  756MPD2    H211227   0.643   4.371  10.014 -1.1956 -0.3509 -0.0260
  756MPD2    H311228   0.692   4.412   9.787 -0.3695 -2.1647  0.3600
  756MPD2     N11229   0.250   4.466   9.670 -0.3591 -0.1626  0.2834
  756MPD2    H511230   0.153   4.460   9.699  0.1550  2.2673  2.4899
  756MPD2    N111231   0.389   4.385  10.125 -0.2799 -0.2980 -0.0598
  756MPD2    H711232   0.293   4.414  10.142  0.4699  3.6081 -2.3334
  757MPD2     C11233   4.184   4.260   9.797 -0.6574 -1.1751  0.0488
  757MPD2    C111234   4.308   4.238   9.851 -0.0513  0.0780  0.5747
  757MPD2    C211235   4.415   4.302   9.788 -0.3317  0.2737  0.0225
  757MPD2    C311236   4.394   4.375   9.677 -0.4476  0.0252  0.2706
  757MPD2    C411237   4.267   4.407   9.639  0.2605 -0.0814 -0.4569
  757MPD2    C511238   4.160   4.353   9.701  0.2300  0.0616 -0.3529
  757MPD2     H11239   4.520   4.285   9.812 -0.2222 -0.7197 -1.1547
  757MPD2    H111240   4.250   4.481   9.562 -1.1937 -0.2459 -0.3018
  757MPD2    H211241   4.098   4.205   9.833 -1.4281 -0.8128 -1.2408
  757MPD2    H311242   4.056   4.369   9.677  0.5696  2.4921 -0.2441
  757MPD2     N11243   4.506   4.430   9.609  0.2453  0.3827 -0.0960
  757MPD2    H511244   4.597   4.387   9.619  0.8285  1.9898  1.5313
  757MPD2    N111245   4.318   4.136   9.942 -0.1191 -0.1376 -0.3133
  757MPD2    H711246   4.234   4.091   9.977  0.9420 -2.9972 -1.3581
  758MPD2     C11247   0.705   3.521  15.731 -0.2175 -0.3083 -0.5913
  758MPD2    C111248   0.738   3.391  15.778  0.3683 -0.3743 -0.3252
  758MPD2    C211249   0.696   3.363  15.906  0.5007  0.6233 -0.9643
  758MPD2    C311250   0.627   3.458  15.984  0.5253 -0.7847 -0.2977
  758MPD2    C411251   0.595   3.576  15.934  0.7462  0.2272 -0.3885
  758MPD2    C511252   0.645   3.614  15.812 -0.1252  0.1595  0.2891
  758MPD2     H11253   0.734   3.271  15.949  0.8352  0.8751 -0.7250
  758MPD2    H111254   0.549   3.644  16.006  1.7124 -0.3890  0.8089
  758MPD2    H211255   0.739   3.543  15.631 -1.1774 -0.8670 -1.0427
  758MPD2    H311256   0.631   3.716  15.778  2.4152  1.2494  2.5211
  758MPD2     N11257   0.599   3.429  16.126  0.5308 -0.2368 -0.1490
  758MPD2    H511258   0.575   3.509  16.183 -1.3728 -0.7107 -0.2655
  758MPD2    N111259   0.810   3.303  15.696  0.0767 -0.6169 -0.0010
  758MPD2    H711260   0.860   3.335  15.614  1.0975 -0.0670  0.8400
  759MPD2     C11261   4.548   1.187  10.242  0.2764 -1.0747 -0.6036
  759MPD2    C111262   4.467   1.249  10.330 -0.2532  0.4788  0.1637
  759MPD2    C211263   4.477   1.392  10.327 -0.2129 -0.1563 -0.1350
  759MPD2    C311264   4.562   1.459  10.242  0.3449 -0.1852  0.4062
  759MPD2    C411265   4.642   1.392  10.155 -0.4957  0.0132 -0.0059
  759MPD2    C511266   4.629   1.257  10.158  0.4861 -0.2614  0.7775
  759MPD2     H11267   4.411   1.451  10.389 -0.3443 -0.3923 -0.0494
  759MPD2    H111268   4.704   1.438  10.079  0.1342 -1.1883 -0.2215
  759MPD2    H211269   4.570   1.081  10.237  0.0386 -1.0889 -1.4089
  759MPD2    H311270   4.679   1.193  10.086 -2.7528 -1.5785 -0.2637
  759MPD2     N11271   4.565   1.600  10.251  0.0841 -0.3425  0.9762
  759MPD2    H511272   4.486   1.631  10.306  0.8486 -0.1654  1.9749
  759MPD2    N111273   4.378   1.184  10.419  0.1550  0.3932 -0.4627
  759MPD2    H711274   4.325   1.240  10.485 -0.6814 -0.7227 -0.1858
  760MPD2     C11275   3.567   3.927  11.870  0.5991  0.1862  0.2793
  760MPD2    C111276   3.701   3.922  11.880 -0.6664  0.1910 -0.7393
  760MPD2    C211277   3.756   3.800  11.909  0.2003 -0.6589 -0.0869
  760MPD2    C311278   3.684   3.686  11.928 -0.6669 -0.0566  0.1692
  760MPD2    C411279   3.546   3.693  11.924 -0.4319  0.1769  0.6780
  760MPD2    C511280   3.489   3.814  11.891  0.2764  0.4245  0.1771
  760MPD2     H11281   3.862   3.793  11.932  0.3138 -2.0646 -1.0241
  760MPD2    H111282   3.480   3.612  11.953 -1.1862  1.4138  2.4473
  760MPD2    H211283   3.519   4.022  11.855 -2.4290 -1.0938  1.8622
  760MPD2    H311284   3.383   3.823  11.912  0.3049  1.0908  0.0398
  760MPD2     N11285   3.745   3.562  11.964  0.0421 -0.2378  0.2903
  760MPD2    H511286   3.686   3.485  11.996  0.7181  0.2858  2.7859
  760MPD2    N111287   3.785   4.034  11.871  0.1043 -0.2708  0.3633
  760MPD2    H711288   3.881   4.011  11.896  0.4634  0.0663 -0.6967
  761MPD2     C11289   4.407   2.799  11.091 -0.5639 -0.3569  0.0571
  761MPD2    C111290   4.455   2.755  10.973 -0.0554  0.2288 -0.2667
  761MPD2    C211291   4.569   2.815  10.922  0.1857  0.4113  0.1696
  761MPD2    C311292   4.645   2.902  11.003 -0.2534 -0.0857  0.0676
  761MPD2    C411293   4.600   2.929  11.132  0.1130 -0.0517  0.0489
  761MPD2    C511294   4.481   2.883  11.174 -0.1198 -1.0321  0.7949
  761MPD2     H11295   4.603   2.790  10.822 -2.8757 -1.8710 -0.2913
  761MPD2    H111296   4.656   2.994  11.197 -1.9237  1.8208 -0.0691
  761MPD2    H211297   4.320   2.745  11.125 -1.0669  0.6555  0.3706
  761MPD2    H311298   4.438   2.897  11.273 -1.7119  1.5683 -0.2576
  761MPD2     N11299   0.037   2.950  10.969  0.3566  0.1525 -0.4946
  761MPD2    H511300   0.094   2.982  11.047 -0.4187  1.3379 -0.4186
  761MPD2    N111301   4.374   2.662  10.905 -0.6068 -0.3344  0.3050
  761MPD2    H711302   4.273   2.660  10.906 -0.6625  2.3331 -0.2459
  762MPD2     C11303   0.414   2.713  10.981 -0.2396 -0.4393  0.8736
  762MPD2    C111304   0.362   2.636  10.874  0.3122  0.7273  0.4779
  762MPD2    C211305   0.431   2.619  10.761 -0.1592 -0.9400 -0.1680
  762MPD2    C311306   0.555   2.687  10.749 -0.9346 -0.4275 -0.6640
  762MPD2    C411307   0.610   2.757  10.858  0.6668 -0.0395  0.3175
  762MPD2    C511308   0.540   2.766  10.973 -0.1766 -0.0185 -0.2064
  762MPD2     H11309   0.396   2.566  10.673  4.1962 -1.6823 -1.4660
  762MPD2    H111310   0.705   2.808  10.846  0.3752  0.2183 -0.9056
  762MPD2    H211311   0.356   2.715  11.072 -1.4025 -1.1486  0.1484
  762MPD2    H311312   0.582   2.821  11.056 -0.2599 -2.4732  1.4553
  762MPD2     N11313   0.618   2.674  10.629  0.1344  0.0144 -0.7241
  762MPD2    H511314   0.575   2.605  10.568 -0.3406  0.7217 -1.1869
  762MPD2    N111315   0.245   2.573  10.903 -0.4965  0.7955 -0.4318
  762MPD2    H711316   0.200   2.578  10.994 -0.3338  0.6628 -0.3458
  763MPD2     C11317   2.745   3.134  16.394  0.3803  0.5085 -0.1643
  763MPD2    C111318   2.656   3.206  16.313 -0.3341 -0.3897 -0.2760
  763MPD2    C211319   2.643   3.340  16.332  0.3869 -0.0020  0.0881
  763MPD2    C311320   2.725   3.407  16.425 -0.5139 -0.4944  0.5429
  763MPD2    C411321   2.799   3.336  16.512  0.1664 -0.0303 -0.7068
  763MPD2    C511322   2.802   3.203  16.497  0.4379  0.6695  0.0828
  763MPD2     H11323   2.583   3.395  16.261  0.8916 -0.6388 -0.8326
  763MPD2    H111324   2.850   3.369  16.602 -0.6151 -1.1871  0.1730
  763MPD2    H211325   2.763   3.028  16.377 -1.9903  0.2024 -0.6902
  763MPD2    H311326   2.867   3.141  16.558 -0.4670 -0.0445  0.3185
  763MPD2     N11327   2.742   3.550  16.430  0.2344 -0.3255  0.1993
  763MPD2    H511328   2.812   3.597  16.487 -0.7655  0.6430  0.6256
  763MPD2    N111329   2.582   3.156  16.204  0.1170 -0.0880  0.2521
  763MPD2    H711330   2.523   3.224  16.158  0.5063  0.1180  0.0604
  764MPD2     C11331   0.854   4.602   0.168  0.0487 -0.1887  0.9959
  764MPD2    C111332   0.909   4.477   0.178 -0.3307 -0.3005  0.4204
  764MPD2    C211333   0.833   4.367   0.232 -0.2408 -0.1500  0.1784
  764MPD2    C311334   0.700   4.394   0.279  0.1828 -0.2528  0.4034
  764MPD2    C411335   0.643   4.524   0.264  0.3815 -0.2199 -0.0455
  764MPD2    C511336   0.722   4.616   0.199 -0.0966  0.4140  0.3937
  764MPD2     H11337   0.881   4.272   0.251  1.5949  0.7334 -0.0868
  764MPD2    H111338   0.536   4.532   0.273  0.3944  0.9336 -0.9510
  764MPD2    H211339   0.901   4.679   0.108  1.1314 -1.1858  0.5645
  764MPD2    H311340   0.678   4.713   0.178  0.7502  0.1525 -2.5202
  764MPD2     N11341   0.626   4.286   0.333 -0.0653 -0.0876 -0.1879
  764MPD2    H511342   0.672   4.197   0.348  1.7725  0.9175  0.2327
  764MPD2    N111343   1.043   4.453   0.132  0.3640  0.4354  0.5836
  764MPD2    H711344   1.071   4.356   0.123  1.4310  0.7609  0.4469
  765MPD2     C11345   4.733   2.502  15.694 -0.4874  0.3502  0.1106
  765MPD2    C111346   0.110   2.577  15.693 -0.2277 -0.0032 -0.4078
  765MPD2    C211347   0.239   2.517  15.664  0.3060 -0.0920  0.0598
  765MPD2    C311348   0.241   2.385  15.627  0.0965  0.2845  0.4043
  765MPD2    C411349   0.126   2.312  15.606  0.4132 -0.1493  0.5615
  765MPD2    C511350   0.009   2.372  15.649 -1.0149 -0.8384  0.0197
  765MPD2     H11351   0.333   2.569  15.678 -1.0459  3.0183 -2.4369
  765MPD2    H111352   0.125   2.211  15.566  2.9926 -0.0938  0.3670
  765MPD2    H211353   4.633   2.543  15.708 -1.5616 -2.0707 -0.3421
  765MPD2    H311354   4.652   2.319  15.640 -1.7821  0.1917  1.9290
  765MPD2     N11355   0.362   2.337  15.570 -0.1902  0.3255  0.0796
  765MPD2    H511356   0.441   2.400  15.558  2.6802 -3.2922 -0.1419
  765MPD2    N111357   0.099   2.713  15.722  0.0335  0.2771 -0.1627
  765MPD2    H711358   0.004   2.745  15.736 -0.8926 -2.7389  0.4683
  766MPD2     C11359   4.439   3.119  15.398 -0.7470  0.7194 -0.2278
  766MPD2    C111360   4.538   3.032  15.424  0.0083  0.8020  0.7950
  766MPD2    C211361   4.565   2.937  15.324 -0.9506  0.2016  0.4170
  766MPD2    C311362   4.509   2.948  15.193  0.3044 -0.3430 -0.1477
  766MPD2    C411363   4.404   3.035  15.175 -0.1921 -0.6647  0.1160
  766MPD2    C511364   4.374   3.122  15.275  0.7073  0.6726 -0.6439
  766MPD2     H11365   4.647   2.868  15.338 -1.3522 -0.1876  0.8761
  766MPD2    H111366   4.360   3.044  15.077 -2.6645  0.8370  1.3464
  766MPD2    H211367   4.410   3.192  15.474 -1.8260  0.7956 -0.7108
  766MPD2    H311368   4.291   3.191  15.267 -1.7808 -2.1217  1.0244
  766MPD2     N11369   4.553   2.872  15.081  0.3033  0.1707 -0.3268
  766MPD2    H511370   4.491   2.875  15.001  0.7678 -2.4716 -0.7877
  766MPD2    N111371   4.614   3.027  15.543  0.7291  0.1983 -0.4107
  766MPD2    H711372   4.681   2.951  15.548 -1.5641 -1.6392  3.0365
  767MPD2     C11373   4.298   3.332  14.970 -0.3742 -0.2810  0.6406
  767MPD2    C111374   4.427   3.298  14.931  0.7854  0.0758  0.1644
  767MPD2    C211375   4.434   3.221  14.816  0.3313  0.3073  0.1152
  767MPD2    C311376   4.327   3.167  14.748 -0.3191  0.5246  1.0357
  767MPD2    C411377   4.198   3.209  14.793  0.1438  0.0594 -0.3947
  767MPD2    C511378   4.188   3.298  14.894  0.0717 -0.4202 -0.2547
  767MPD2     H11379   4.529   3.190  14.776 -0.7925  0.7296 -2.9113
  767MPD2    H111380   4.108   3.166  14.750  0.6865 -0.1662 -1.3118
  767MPD2    H211381   4.281   3.399  15.054  0.8233  1.0484 -0.1791
  767MPD2    H311382   4.089   3.334  14.920 -0.0220 -0.6861 -0.2434
  767MPD2     N11383   4.345   3.078  14.641 -0.2486  0.7806  0.4163
  767MPD2    H511384   4.442   3.058  14.619 -0.2017  1.1909  0.2615
  767MPD2    N111385   4.539   3.346  15.015  0.2980  0.1224  0.4406
  767MPD2    H711386   4.517   3.400  15.098  2.3609  0.0657  1.0081
  768MPD2     C11387   0.003   1.327  10.956  0.3600  0.4121 -0.1095
  768MPD2    C111388   4.735   1.386  11.080  0.4285  0.0001 -0.0284
  768MPD2    C211389   0.115   1.402  11.154  0.3662  0.1939  0.1803
  768MPD2    C311390   0.237   1.370  11.107 -0.2647 -0.2691  0.5887
  768MPD2    C411391   0.243   1.322  10.977 -0.0406  0.6569 -0.3324
  768MPD2    C511392   0.132   1.299  10.902  0.7542 -0.8133  0.4253
  768MPD2     H11393   0.105   1.441  11.255  0.2395  1.1822 -0.2116
  768MPD2    H111394   0.336   1.297  10.928  0.1247 -0.1169  0.3604
  768MPD2    H211395   4.655   1.292  10.901  0.0271 -3.2630  2.7026
  768MPD2    H311396   0.152   1.254  10.806 -1.4057  0.2825 -0.5529
  768MPD2     N11397   0.359   1.390  11.184  0.4335 -0.2774  0.2322
  768MPD2    H511398   0.448   1.383  11.135  0.1464 -0.4159 -0.2716
  768MPD2    N111399   4.618   1.428  11.144 -0.4265  0.4036  0.0435
  768MPD2    H711400   4.627   1.458  11.240 -0.0684 -0.3724  0.2547
  769MPD2     C11401   1.955   4.094  14.950 -0.0150 -0.4132  0.1640
  769MPD2    C111402   1.850   4.037  15.016  0.2594 -0.2032  0.1229
  769MPD2    C211403   1.819   4.090  15.139 -0.7542  0.4608  0.1071
  769MPD2    C311404   1.879   4.205  15.192 -0.2920 -0.3856 -0.0744
  769MPD2    C411405   1.990   4.250  15.129 -0.0730  1.1328 -0.2909
  769MPD2    C511406   2.029   4.199  15.003  0.0631  0.2475 -0.2086
  769MPD2     H11407   1.738   4.045  15.196 -0.4988 -0.4382 -0.2329
  769MPD2    H111408   2.039   4.338  15.170  1.6337  0.3384 -0.6543
  769MPD2    H211409   1.980   4.065  14.848  1.2805 -1.3380  0.7382
  769MPD2    H311410   2.108   4.254  14.953  1.4099  0.5115  2.2195
  769MPD2     N11411   1.824   4.260  15.310 -0.2006 -0.4778  0.3904
  769MPD2    H511412   1.743   4.214  15.351  0.0367  1.0115  2.5410
  769MPD2    N111413   1.791   3.932  14.942  0.1759  0.1312  0.2739
  769MPD2    H711414   1.838   3.908  14.856  0.4509 -2.4904  1.1778
  770MPD2     C11415   0.883   3.326  15.019  0.2102 -0.2433 -0.6392
  770MPD2    C111416   0.927   3.306  14.886 -0.6361 -0.4343 -0.5510
  770MPD2    C211417   1.048   3.360  14.853  0.1352  0.1159  0.2709
  770MPD2    C311418   1.129   3.428  14.944  0.3818  0.5902  0.6196
  770MPD2    C411419   1.076   3.458  15.067  0.0751  0.1717 -0.4534
  770MPD2    C511420   0.951   3.402  15.111  0.1914  0.0070 -0.5155
  770MPD2     H11421   1.094   3.336  14.758 -1.3188 -1.8717  0.0712
  770MPD2    H111422   1.125   3.528  15.133 -0.4747  0.2662 -0.1513
  770MPD2    H211423   0.785   3.289  15.046  0.4585  0.0390  0.6417
  770MPD2    H311424   0.895   3.433  15.198  0.9177 -0.8768  0.2710
  770MPD2     N11425   1.255   3.489  14.902  0.0202 -0.3352 -0.4488
  770MPD2    H511426   1.280   3.487  14.803  0.1870  0.9619 -0.4283
  770MPD2    N111427   0.845   3.235  14.793  0.4319  0.2815  0.2022
  770MPD2    H711428   0.759   3.194  14.828  0.2940  0.7441  0.4036
  771MPD2     C11429   2.626   2.120  14.301 -0.0628 -0.4202 -0.2839
  771MPD2    C111430   2.513   2.162  14.228 -0.0578  0.3972 -0.6289
  771MPD2    C211431   2.444   2.062  14.163  0.6685 -0.4922  0.4841
  771MPD2    C311432   2.474   1.923  14.168  0.3956 -0.1306  0.1893
  771MPD2    C411433   2.594   1.887  14.238 -0.0422  0.2601  0.5775
  771MPD2    C511434   2.665   1.990  14.301  0.2376 -0.2164 -0.7391
  771MPD2     H11435   2.365   2.103  14.101 -0.6623 -0.6047  2.1017
  771MPD2    H111436   2.624   1.783  14.236 -2.9087 -0.5691  0.8373
  771MPD2    H211437   2.688   2.195  14.350 -0.4664 -0.4118  0.2093
  771MPD2    H311438   2.750   1.964  14.363 -0.6737 -1.0887  0.1441
  771MPD2     N11439   2.392   1.831  14.101  0.0428 -0.6697  0.0205
  771MPD2    H511440   2.316   1.869  14.045  1.0931  0.4471 -0.6674
  771MPD2    N111441   2.479   2.298  14.222 -0.7728 -0.6739 -0.7877
  771MPD2    H711442   2.402   2.323  14.161 -1.9221 -1.4199  0.3583
  772MPD2     C11443   2.027   2.529  13.729  0.6803  1.4264  0.1522
  772MPD2    C111444   2.033   2.561  13.864 -0.2385 -0.4669  0.2444
  772MPD2    C211445   1.919   2.558  13.940 -0.8383 -0.6787 -0.5102
  772MPD2    C311446   1.800   2.518  13.878 -0.3791  0.3159  0.1391
  772MPD2    C411447   1.806   2.495  13.740 -0.5569 -0.3156 -0.3729
  772MPD2    C511448   1.920   2.492  13.666  0.0208  0.7500 -0.1620
  772MPD2     H11449   1.932   2.577  14.046  0.8673 -0.0324 -0.8379
  772MPD2    H111450   1.713   2.473  13.688 -1.4943  0.2113  1.1026
  772MPD2    H211451   2.115   2.535  13.666  0.2081 -2.7542 -0.8576
  772MPD2    H311452   1.927   2.463  13.562  2.0009 -2.1272  0.7650
  772MPD2     N11453   1.684   2.491  13.957  0.3250 -0.1268 -0.5013
  772MPD2    H511454   1.604   2.447  13.914 -1.1870  0.5688  1.6174
  772MPD2    N111455   2.160   2.599  13.914 -0.4179  0.0872  0.0391
  772MPD2    H711456   2.238   2.602  13.849  1.1400 -1.3932  1.8570
  773MPD2     C11457   1.132   3.205   0.098  0.9192  0.3699  0.4811
  773MPD2    C111458   1.025   3.122   0.082 -0.7626  0.4347  0.0349
  773MPD2    C211459   1.052   2.981   0.077 -0.4378  0.4297  0.5397
  773MPD2    C311460   1.181   2.930   0.098 -0.5766  0.4702  0.3717
  773MPD2    C411461   1.276   3.022   0.132 -0.0676  0.8069 -1.2820
  773MPD2    C511462   1.258   3.158   0.120  0.3361  0.2800  0.4828
  773MPD2     H11463   0.968   2.913   0.070 -1.3426  1.6897 -0.6578
  773MPD2    H111464   1.378   3.000   0.158 -1.5332 -1.9425  2.1505
  773MPD2    H211465   1.118   3.311   0.115 -0.0381  0.1515  1.0930
  773MPD2    H311466   1.343   3.225   0.119  0.6314 -0.0699  2.6228
  773MPD2     N11467   1.202   2.786   0.093 -0.4397  0.1367  0.1326
  773MPD2    H511468   1.130   2.727   0.052  0.9229 -2.1397  0.9719
  773MPD2    N111469   0.897   3.173   0.094 -0.1022  0.0993  0.2590
  773MPD2    H711470   0.824   3.106   0.071  1.2996 -2.1630  2.3343
  774MPD2     C11471   0.203   2.803  13.370  0.2336 -0.8754  0.7164
  774MPD2    C111472   0.295   2.812  13.476  0.9285  0.5830 -0.6697
  774MPD2    C211473   0.380   2.919  13.470 -0.3675  0.0072 -0.4003
  774MPD2    C311474   0.373   3.015  13.367 -0.0552 -0.3113 -0.1663
  774MPD2    C411475   0.283   2.999  13.265 -0.1712  0.1239 -0.3577
  774MPD2    C511476   0.203   2.894  13.269  0.1729 -0.5394  0.3390
  774MPD2     H11477   0.446   2.939  13.554 -1.7677  1.4510  0.3690
  774MPD2    H111478   0.277   3.064  13.178 -0.1183  1.4103  0.6038
  774MPD2    H211479   0.129   2.727  13.348 -0.9981  0.6630 -0.4892
  774MPD2    H311480   0.128   2.880  13.193  0.4868 -0.8133  0.0806
  774MPD2     N11481   0.464   3.127  13.370 -0.5408  0.0583 -0.1116
  774MPD2    H511482   0.526   3.138  13.450  1.0117 -1.7194 -1.0695
  774MPD2    N111483   0.294   2.702  13.567  0.2565 -0.0317  0.1634
  774MPD2    H711484   0.228   2.626  13.556  0.4144 -0.2857  0.9934
  775MPD2     C11485   1.956   4.002  15.648 -0.2512 -0.0205  0.0233
  775MPD2    C111486   1.995   4.077  15.753 -0.5184 -0.5270 -0.7316
  775MPD2    C211487   2.070   4.188  15.731  0.7280  0.2317 -0.3001
  775MPD2    C311488   2.104   4.228  15.600  0.6206 -0.4493 -0.0146
  775MPD2    C411489   2.064   4.151  15.496  0.4440  0.1755 -0.6980
  775MPD2    C511490   1.987   4.038  15.518 -0.0536  0.0294  0.7388
  775MPD2     H11491   2.111   4.247  15.813  2.0249 -0.4951 -0.4174
  775MPD2    H111492   2.097   4.189  15.400  1.4615 -0.3006 -0.5353
  775MPD2    H211493   1.908   3.907  15.666 -0.3140 -0.0159 -0.1180
  775MPD2    H311494   1.960   3.972  15.436  0.7005 -0.1162  0.6080
  775MPD2     N11495   2.169   4.342  15.558 -0.1411 -0.6574  0.2680
  775MPD2    H511496   2.187   4.352  15.459  1.1010  1.4032  0.6877
  775MPD2    N111497   1.964   4.027  15.881  0.2734 -0.0948 -0.1127
  775MPD2    H711498   1.915   3.938  15.883  1.6275 -0.8993 -1.5198
  776MPD2     C11499   0.611   3.928  11.875  0.1196 -0.3006  0.1373
  776MPD2    C111500   0.498   3.963  11.807  0.5039 -0.2089  0.6998
  776MPD2    C211501   0.452   4.097  11.795 -0.3606 -0.1770  0.0121
  776MPD2    C311502   0.513   4.190  11.877 -0.0669 -0.4050 -0.0136
  776MPD2    C411503   0.619   4.157  11.946  0.4449  0.4739 -0.4289
  776MPD2    C511504   0.675   4.032  11.946 -0.0640 -0.2975  0.3798
  776MPD2     H11505   0.377   4.126  11.723 -0.5478  3.3049  1.6419
  776MPD2    H111506   0.672   4.236  11.997  1.8286 -1.2554  0.8007
  776MPD2    H211507   0.649   3.827  11.886  0.1622 -0.2651  0.3158
  776MPD2    H311508   0.765   4.003  11.998  1.1445 -1.7796 -2.5079
  776MPD2     N11509   0.473   4.326  11.871 -0.0112  0.4137 -0.0662
  776MPD2    H511510   0.522   4.391  11.932  0.9720 -0.6233  0.2379
  776MPD2    N111511   0.424   3.863  11.739  0.5926 -1.0569  0.2222
  776MPD2    H711512   0.467   3.771  11.744  0.2271 -1.2909 -0.8532
  777MPD2     C11513   1.555   1.466   0.392  0.8371  0.2865  0.0768
  777MPD2    C111514   1.449   1.474   0.478  0.3853 -0.5749 -0.0736
  777MPD2    C211515   1.347   1.383   0.468  0.8288 -0.8002  0.1896
  777MPD2    C311516   1.339   1.287   0.370  0.0560 -0.5147 -0.6144
  777MPD2    C411517   1.440   1.282   0.280  0.6495 -0.5593 -0.6385
  777MPD2    C511518   1.548   1.366   0.298 -0.2166  0.0210  0.6200
  777MPD2     H11519   1.257   1.396   0.528  1.0315 -0.4492  0.4209
  777MPD2    H111520   1.452   1.214   0.196  0.6802 -1.3246 -0.0018
  777MPD2    H211521   1.637   1.536   0.399 -0.5297  1.8622  0.3705
  777MPD2    H311522   1.631   1.361   0.229 -0.4652 -2.0953  0.4651
  777MPD2     N11523   1.221   1.220   0.356  0.4511  0.7139  0.2759
  777MPD2    H511524   1.153   1.245   0.427 -1.6978  1.7697 -2.1612
  777MPD2    N111525   1.458   1.585   0.568 -0.3724 -0.4731 -0.0982
  777MPD2    H711526   1.529   1.657   0.561 -2.5051  1.5925 -0.8368
  778MPD2     C11527   2.358   2.321  15.138  0.6438 -0.0873  0.7537
  778MPD2    C111528   2.376   2.230  15.031  0.4051 -0.7820 -0.2305
  778MPD2    C211529   2.406   2.287  14.905 -0.7556  0.2270  0.3391
  778MPD2    C311530   2.433   2.426  14.891 -0.0494  0.3391 -0.1872
  778MPD2    C411531   2.406   2.512  14.991 -0.1810 -0.6851  0.3386
  778MPD2    C511532   2.371   2.457  15.114  0.0835 -0.7102  0.6860
  778MPD2     H11533   2.430   2.221  14.822  0.1446  2.5738 -1.2466
  778MPD2    H111534   2.412   2.620  14.988  1.0062 -0.7747 -0.5198
  778MPD2    H211535   2.331   2.290  15.239 -2.2839  0.5908  0.1497
  778MPD2    H311536   2.340   2.529  15.189 -1.4920 -1.4303  0.7198
  778MPD2     N11537   2.494   2.475  14.770  0.8183 -0.0325  0.7767
  778MPD2    H511538   2.540   2.405  14.712 -0.8690 -1.7510  1.5314
  778MPD2    N111539   2.347   2.087  15.044 -0.7116  0.4730 -0.2011
  778MPD2    H711540   2.314   2.037  14.962 -0.7652 -0.8280  0.6142
  779MPD2     C11541   1.942   0.898  14.370 -0.5130  0.3919 -0.2655
  779MPD2    C111542   2.082   0.908  14.346 -0.4076  0.2881  0.3233
  779MPD2    C211543   2.141   1.030  14.349 -0.5350 -0.7044  1.4330
  779MPD2    C311544   2.069   1.141  14.373  0.2950 -0.4345  0.0271
  779MPD2    C411545   1.935   1.132  14.414 -0.3290 -0.0827  0.4407
  779MPD2    C511546   1.873   1.011  14.410 -0.1935  0.4219 -0.5476
  779MPD2     H11547   2.248   1.048  14.339 -0.8563 -1.1542 -2.7503
  779MPD2    H111548   1.872   1.212  14.451  0.1273 -0.3324  1.7831
  779MPD2    H211549   1.878   0.810  14.360 -0.2049 -0.2049  3.0242
  779MPD2    H311550   1.767   0.998  14.431 -0.4170  2.4065 -0.4733
  779MPD2     N11551   2.146   1.263  14.378 -0.4027  0.0688 -0.1550
  779MPD2    H511552   2.246   1.268  14.358 -0.8298  1.2720 -1.9866
  779MPD2    N111553   2.165   0.793  14.326 -0.2778 -0.1664  0.1403
  779MPD2    H711554   2.262   0.811  14.304  0.1215 -0.4741  1.5899
  780MPD2     C11555   1.759   0.924   1.160 -0.4040 -0.2377  0.3574
  780MPD2    C111556   1.688   0.823   1.106  0.7958 -0.1764  0.2128
  780MPD2    C211557   1.670   0.830   0.972  0.4293  0.2126 -0.1577
  780MPD2    C311558   1.720   0.931   0.885 -0.0900  0.4016  0.7661
  780MPD2    C411559   1.792   1.033   0.954  0.3302  0.0771 -0.0287
  780MPD2    C511560   1.806   1.027   1.093  0.4714  0.8341  0.0666
  780MPD2     H11561   1.603   0.755   0.932 -1.9056  2.1366  0.1444
  780MPD2    H111562   1.835   1.113   0.895 -0.9502  0.1591 -0.8473
  780MPD2    H211563   1.773   0.923   1.267  0.6500 -0.4065  0.2206
  780MPD2    H311564   1.866   1.106   1.138  1.6987  0.2840 -0.6090
  780MPD2     N11565   1.701   0.911   0.753  0.2839 -0.2054 -0.4482
  780MPD2    H511566   1.645   0.829   0.729 -1.1222  0.5458  0.2362
  780MPD2    N111567   1.629   0.715   1.178 -0.3411 -0.4699  0.1979
  780MPD2    H711568   1.557   0.660   1.132 -1.2469  1.7743 -1.0821
  781MPD2     C11569   2.771   3.007  12.529  0.8624  0.1642 -0.0126
  781MPD2    C111570   2.854   2.904  12.508  0.4998 -0.6722 -0.1190
  781MPD2    C211571   2.959   2.916  12.418 -0.2393 -0.5788 -0.7663
  781MPD2    C311572   2.967   3.029  12.334 -0.3809  0.6311 -0.1894
  781MPD2    C411573   2.882   3.134  12.354  0.2622  0.3137 -0.1645
  781MPD2    C511574   2.792   3.124  12.454  0.3523  0.2588 -0.4052
  781MPD2     H11575   3.035   2.842  12.398 -0.9528 -0.9019 -2.2733
  781MPD2    H111576   2.896   3.227  12.300  1.4353  0.6366  0.6966
  781MPD2    H211577   2.692   2.996  12.603 -0.1277  1.2191 -0.9049
  781MPD2    H311578   2.734   3.210  12.484 -1.7131 -0.9415 -0.9813
  781MPD2     N11579   3.069   3.051  12.240  0.3873 -0.1652  0.1940
  781MPD2    H511580   3.064   3.145  12.201 -0.6038  0.1711  1.1333
  781MPD2    N111581   2.855   2.795  12.586 -0.0553  0.2527 -0.7855
  781MPD2    H711582   2.927   2.728  12.563 -0.2835 -0.8544  1.7737
  782MPD2     C11583   0.619   3.835  10.234  0.5020  0.0911  0.5113
  782MPD2    C111584   0.757   3.843  10.220 -0.2259  0.4984  0.1088
  782MPD2    C211585   0.822   3.944  10.287 -0.0175 -0.5416  0.4144
  782MPD2    C311586   0.751   4.030  10.373 -0.3869 -0.5208  0.3288
  782MPD2    C411587   0.618   4.013  10.396 -0.0502 -0.4660  0.3781
  782MPD2    C511588   0.555   3.918  10.323  0.2548  0.6413  0.1430
  782MPD2     H11589   0.928   3.954  10.266  0.0541  0.7464  1.3721
  782MPD2    H111590   0.567   4.069  10.473 -0.1931 -1.6144  1.1114
  782MPD2    H211591   0.560   3.764  10.178 -0.0536  1.2207 -0.3278
  782MPD2    H311592   0.447   3.906  10.328  0.3383  0.1268  0.8338
  782MPD2     N11593   0.831   4.128  10.445  0.1028  0.0854 -0.6682
  782MPD2    H511594   0.928   4.138  10.415  1.2203 -0.7754  2.6249
  782MPD2    N111595   0.829   3.755  10.138  0.5135  0.1182  0.7566
  782MPD2    H711596   0.929   3.755  10.154  0.9380 -2.4824 -1.9634
  783MPD2     C11597   0.462   2.910  10.289  0.0394  0.3854  0.4470
  783MPD2    C111598   0.522   2.991  10.383  0.3612  0.0561 -0.2314
  783MPD2    C211599   0.627   3.079  10.338  0.3935 -0.7754 -0.0940
  783MPD2    C311600   0.667   3.076  10.211 -0.2689  0.9639 -0.5472
  783MPD2    C411601   0.599   2.987  10.126  0.4236 -0.6797 -0.3421
  783MPD2    C511602   0.503   2.902  10.164 -0.0400  0.0018 -0.5633
  783MPD2     H11603   0.680   3.146  10.405  2.4133 -2.6216  0.1260
  783MPD2    H111604   0.639   2.969  10.027  2.5520 -1.6149  0.6826
  783MPD2    H211605   0.380   2.842  10.310  0.6418 -0.6333 -0.4790
  783MPD2    H311606   0.458   2.834  10.092  1.1146  1.2551 -2.4785
  783MPD2     N11607   0.762   3.167  10.172 -0.0531  0.2382 -0.3074
  783MPD2    H511608   0.816   3.208  10.247  0.6321 -1.2194 -0.0064
  783MPD2    N111609   0.471   2.994  10.523  0.2407 -0.1895 -0.6254
  783MPD2    H711610   0.398   2.927  10.546  2.9667 -3.1599 -0.5789
  784MPD2     C11611   3.493   3.343   0.564  0.1821  0.5717  0.3563
  784MPD2    C111612   3.415   3.405   0.662  0.0315 -0.0519  0.5010
  784MPD2    C211613   3.319   3.495   0.618  0.0616 -0.6032 -0.7287
  784MPD2    C311614   3.280   3.501   0.481 -0.4395 -0.4698 -0.3938
  784MPD2    C411615   3.365   3.444   0.384 -0.0526  0.0611 -0.8052
  784MPD2    C511616   3.470   3.363   0.428 -0.7258 -0.6643 -0.0989
  784MPD2     H11617   3.250   3.533   0.693 -1.0103 -0.1720 -1.9311
  784MPD2    H111618   3.350   3.452   0.277  2.8094 -0.7466 -1.2675
  784MPD2    H211619   3.573   3.277   0.596 -1.2588 -1.0396  0.6441
  784MPD2    H311620   3.521   3.314   0.345  0.2048 -4.1632  2.5456
  784MPD2     N11621   3.161   3.566   0.435  0.0609  0.8208  1.0389
  784MPD2    H511622   3.150   3.578   0.334 -0.4813  0.7696  1.0918
  784MPD2    N111623   3.443   3.385   0.802  0.5264  0.1468 -0.3033
  784MPD2    H711624   3.381   3.422   0.874  1.8569  1.0472  0.3921
  785MPD2     C11625   3.782   2.257  11.042 -0.4767  0.3114 -0.2639
  785MPD2    C111626   3.660   2.271  11.102  0.1613 -0.0635  0.4242
  785MPD2    C211627   3.550   2.204  11.046  0.2055  0.2662  0.5863
  785MPD2    C311628   3.567   2.141  10.919  0.1030 -0.2640  0.3840
  785MPD2    C411629   3.692   2.119  10.871  0.8417  0.3696  0.1738
  785MPD2    C511630   3.793   2.176  10.936 -0.1151  0.4500  0.4328
  785MPD2     H11631   3.453   2.192  11.093 -1.5119  3.3917 -2.1351
  785MPD2    H111632   3.720   2.049  10.793 -1.5916 -1.6812  1.1615
  785MPD2    H211633   3.875   2.295  11.083 -0.5372  1.0082 -0.7804
  785MPD2    H311634   3.896   2.150  10.914  0.0276 -0.2877  1.9171
  785MPD2     N11635   3.455   2.082  10.859 -0.1731  0.3388  0.2375
  785MPD2    H511636   3.370   2.087  10.914 -0.4269 -1.1101 -0.0277
  785MPD2    N111637   3.653   2.363  11.215  0.8215  0.5109  0.0780
  785MPD2    H711638   3.733   2.392  11.270  1.3135 -2.3093  0.8871
  786MPD2     C11639   2.761   0.154  15.481 -0.1020 -0.1302  0.2028
  786MPD2    C111640   2.840   0.162  15.366 -0.4115  0.2199  0.3052
  786MPD2    C211641   2.964   0.223  15.375 -0.0070  0.5073  0.0878
  786MPD2    C311642   3.012   0.273  15.492 -0.1054 -0.0136 -0.1658
  786MPD2    C411643   2.937   0.256  15.608 -0.4660 -0.1325  0.0339
  786MPD2    C511644   2.813   0.200  15.595  0.4687 -0.0539 -0.3210
  786MPD2     H11645   3.023   0.228  15.285  0.3569  2.2714  0.4115
  786MPD2    H111646   2.970   0.293  15.704  0.6485 -3.6683  1.0017
  786MPD2    H211647   2.658   0.124  15.474  0.4555 -2.1626  0.8666
  786MPD2    H311648   2.752   0.193  15.685 -0.8439  1.2390 -1.1085
  786MPD2     N11649   3.142   0.326  15.518  0.4039  0.2863  0.4388
  786MPD2    H511650   3.177   0.349  15.611  0.9815 -2.2298  0.8506
  786MPD2    N111651   2.804   0.112  15.239 -0.3828  0.3266 -0.2712
  786MPD2    H711652   2.878   0.105  15.170  1.3159 -0.3166  1.6013
  787MPD2     C11653   2.857   4.363  15.390 -0.3194  0.2605 -0.7190
  787MPD2    C111654   2.848   4.342  15.254 -0.3956  0.5278  0.4273
  787MPD2    C211655   2.944   4.259  15.194  0.9225 -0.1159 -0.1473
  787MPD2    C311656   3.022   4.179  15.274 -0.7960  1.1192  0.5677
  787MPD2    C411657   3.032   4.202  15.406  0.0474 -0.4579  0.4681
  787MPD2    C511658   2.954   4.299  15.465 -0.2053  0.2688  0.2167
  787MPD2     H11659   2.948   4.252  15.086 -0.4525 -0.4023 -0.1789
  787MPD2    H111660   3.096   4.143  15.470  0.3609 -0.7945 -0.1518
  787MPD2    H211661   2.790   4.432  15.439  1.8835  1.0254  1.2188
  787MPD2    H311662   2.953   4.317  15.572 -0.9857  0.9992  0.0925
  787MPD2     N11663   3.102   4.069  15.216 -0.3200  0.0722 -0.2102
  787MPD2    H511664   3.110   4.064  15.115 -1.0988 -0.6034 -0.2360
  787MPD2    N111665   2.747   4.410  15.182  0.1454 -0.1872 -0.3625
  787MPD2    H711666   2.709   4.489  15.234  1.1713  0.2054 -0.2094
  788MPD2     C11667   4.615   3.095   0.950 -0.0400 -0.1057 -0.2507
  788MPD2    C111668   4.656   3.053   0.824 -0.0033 -0.3514 -0.1000
  788MPD2    C211669   4.567   3.050   0.719 -0.2095 -0.3107 -0.1873
  788MPD2    C311670   4.431   3.081   0.735 -0.7705  0.5907 -0.2721
  788MPD2    C411671   4.399   3.128   0.863 -0.8694  0.2124 -0.3522
  788MPD2    C511672   4.488   3.138   0.966 -0.4281  0.2314 -0.2738
  788MPD2     H11673   4.594   2.997   0.628 -1.2128 -0.6570 -0.2906
  788MPD2    H111674   4.303   3.174   0.884 -0.3897 -0.8741  4.2510
  788MPD2    H211675   4.676   3.081   1.039 -0.7563  1.4156  0.4822
  788MPD2    H311676   4.453   3.186   1.057 -0.0329 -0.2402  0.1231
  788MPD2     N11677   4.334   3.090   0.631  0.2210  0.3451 -0.0826
  788MPD2    H511678   4.241   3.128   0.650 -0.0381 -0.0522 -0.5487
  788MPD2    N111679   0.054   3.021   0.798  0.0822  0.0234  0.1248
  788MPD2    H711680   0.070   2.986   0.704 -3.3575 -2.6844  0.5638
  789MPD2     C11681   0.296   2.535  16.549  1.0438 -0.2049  0.3548
  789MPD2    C111682   0.204   2.583  16.461  0.0552  0.0750 -0.3176
  789MPD2    C211683   0.125   2.692  16.495  0.0569 -0.1369 -0.0864
  789MPD2    C311684   0.137   2.756  16.622  0.0075 -0.2871  0.3203
  789MPD2    C411685   0.235   2.702  16.708  0.2397 -0.2018  0.0463
  789MPD2    C511686   0.315   2.600  16.666  0.7214 -0.6110 -0.1663
  789MPD2     H11687   0.044   2.712  16.426  0.3923 -0.7677 -0.6584
  789MPD2    H111688   0.238   2.731  16.812 -0.5394 -0.8591  0.2507
  789MPD2    H211689   0.363   2.454  16.522  0.2931 -0.5549 -0.4732
  789MPD2    H311690   0.389   2.551  16.729 -0.2438 -0.4004  1.1285
  789MPD2     N11691   0.060   2.860  16.659 -0.6528  0.1706  0.5718
  789MPD2    H511692   0.075   2.899  16.752 -0.9831  1.6902 -0.0060
  789MPD2    N111693   0.170   2.513  16.341 -0.1018 -1.0436  0.6039
  789MPD2    H711694   0.092   2.547  16.286 -0.3823 -0.7524  1.1835
  790MPD2     C11695   1.062   0.229  13.217 -0.5187  0.5386 -0.1391
  790MPD2    C111696   1.072   0.116  13.302 -0.0526 -0.6488 -0.4670
  790MPD2    C211697   0.998   0.004  13.268  0.2729  0.0713 -0.0381
  790MPD2    C311698   0.947   4.730  13.136  0.3738 -0.1682  0.5746
  790MPD2    C411699   0.947   0.105  13.053 -0.0002  0.0460 -0.3842
  790MPD2    C511700   1.000   0.220  13.092  1.1754 -0.1748 -0.1893
  790MPD2     H11701   0.992   4.654  13.332  1.0066 -1.3475 -1.9168
  790MPD2    H111702   0.918   0.100  12.948  1.7100 -1.3204 -0.8041
  790MPD2    H211703   1.107   0.326  13.234  0.2670 -0.0317  1.0591
  790MPD2    H311704   1.012   0.303  13.024 -1.9630 -1.2361 -2.0157
  790MPD2     N11705   0.890   4.609  13.090  1.0373 -0.2775 -0.1243
  790MPD2    H511706   0.917   4.528  13.145 -0.3342 -0.4889  0.2264
  790MPD2    N111707   1.145   0.114  13.429 -0.8006  0.4473  0.1979
  790MPD2    H711708   1.144   0.031  13.488  2.0643  0.2417 -0.0365
  791MPD2     C11709   0.232   4.492  12.701 -0.1081 -0.5485 -0.3276
  791MPD2    C111710   0.282   4.380  12.751  0.2154  0.6315  0.6489
  791MPD2    C211711   0.189   4.269  12.752 -0.1574 -0.3493 -0.1427
  791MPD2    C311712   0.059   4.278  12.693  0.2858 -0.2413 -0.0346
  791MPD2    C411713   0.015   4.396  12.638 -0.4507 -0.7621 -0.2406
  791MPD2    C511714   0.105   4.499  12.650  0.0380 -0.8772 -0.2486
  791MPD2     H11715   0.224   4.171  12.782  0.2671 -0.9569 -2.5875
  791MPD2    H111716   4.664   4.412  12.578 -1.0316  1.0561  1.1015
  791MPD2    H211717   0.304   4.572  12.683 -1.7435  1.0207  0.0794
  791MPD2    H311718   0.076   4.591  12.599  0.1487 -0.8218 -0.2125
  791MPD2     N11719   4.709   4.163  12.700  0.4148 -0.0889 -0.2335
  791MPD2    H511720   0.003   4.074  12.738  0.1011 -1.0334 -2.1821
  791MPD2    N111721   0.413   4.378  12.801 -0.6254 -0.5756 -0.0320
  791MPD2    H711722   0.459   4.466  12.825 -1.5333  0.1862 -1.0679
  792MPD2     C11723   0.966   4.634  11.709  0.7998 -0.8809 -0.1599
  792MPD2    C111724   0.920   4.664  11.580 -0.2096 -0.5084 -0.4190
  792MPD2    C211725   0.819   4.588  11.520  0.0283  0.2594 -0.3664
  792MPD2    C311726   0.757   4.483  11.590 -0.4143  0.4105 -0.5955
  792MPD2    C411727   0.810   4.450  11.714  0.0853  0.0476  0.2041
  792MPD2    C511728   0.917   4.525  11.770  0.3500  0.6458  0.4520
  792MPD2     H11729   0.794   4.612  11.417  0.0901  1.4325 -0.1057
  792MPD2    H111730   0.782   4.357  11.761  0.0695 -0.4745 -0.8288
  792MPD2    H211731   1.042   4.692  11.760  1.0699 -1.3011 -0.0895
  792MPD2    H311732   0.953   4.479  11.862 -2.0856  2.9870  2.5691
  792MPD2     N11733   0.646   4.400  11.550  0.2506  0.0694 -0.6947
  792MPD2    H511734   0.615   4.332  11.620  0.0422 -0.4018 -1.2493
  792MPD2    N111735   0.969   0.048  11.531  0.1801 -0.2063 -0.6275
  792MPD2    H711736   1.051   0.087  11.578  0.2479  1.2516 -1.9387
  793MPD2     C11737   4.718   4.194  10.731  0.0717  0.3291  0.2464
  793MPD2    C111738   0.045   4.308  10.764  0.1111 -0.2914 -0.0918
  793MPD2    C211739   0.091   4.323  10.898  0.4700  0.0885  0.2278
  793MPD2    C311740   0.069   4.220  10.994  0.1777  0.8436 -0.0044
  793MPD2    C411741   4.727   4.115  10.956 -0.1385 -0.3083 -0.6802
  793MPD2    C511742   4.699   4.096  10.826 -0.6600  0.2118  0.7819
  793MPD2     H11743   0.151   4.409  10.924 -2.8712  2.1057  1.1928
  793MPD2    H111744   4.710   4.031  11.023 -0.9635  0.3176 -0.0969
  793MPD2    H211745   4.700   4.174  10.626 -0.5076 -2.2992  0.8492
  793MPD2    H311746   4.660   3.999  10.797 -0.0323  0.3564 -0.5270
  793MPD2     N11747   0.121   4.218  11.126  0.7552 -0.3352 -0.4240
  793MPD2    H511748   0.089   4.149  11.193  2.2411 -0.0109  0.6155
  793MPD2    N111749   0.091   4.402  10.671 -0.7777  0.0324  0.4942
  793MPD2    H711750   0.153   4.474  10.704 -0.1802 -0.4533  0.4205
  794MPD2     C11751   0.495   3.709  17.428  0.5097 -0.1792  0.5495
  794MPD2    C111752   0.587   3.612  17.447 -0.7448 -0.1308  1.0900
  794MPD2    C211753   0.689   3.590  17.359  0.2551  0.0469 -0.0366
  794MPD2    C311754   0.695   3.668  17.238  0.8215 -0.3348  0.4723
  794MPD2    C411755   0.604   3.772  17.234 -0.4324  0.5677  0.1113
  794MPD2    C511756   0.521   3.798  17.329 -0.1333 -0.1599  0.2382
  794MPD2     H11757   0.771   3.523  17.381 -1.0496 -1.7951 -0.6909
  794MPD2    H111758   0.604   3.836  17.146  0.2645 -0.4818 -0.6514
  794MPD2    H211759   0.419   3.735  17.501  0.2607  0.1631  0.1694
  794MPD2    H311760   0.444   3.872  17.311  2.0526  1.3487 -2.9408
  794MPD2     N11761   0.803   3.663  17.140  0.2431  0.1534 -0.6206
  794MPD2    H511762   0.799   3.723  17.058 -0.0820  1.6351  0.4911
  794MPD2    N111763   0.585   3.540  17.567 -0.1470 -0.2425 -0.0390
  794MPD2    H711764   0.656   3.467  17.578  0.0114 -0.2354 -0.9245
  795MPD2     C11765   3.479   0.985  13.542  0.2832  0.1967  0.7045
  795MPD2    C111766   3.393   0.963  13.648 -0.3138 -0.2368  0.1133
  795MPD2    C211767   3.433   0.885  13.755 -0.0635  0.2326  0.1350
  795MPD2    C311768   3.558   0.836  13.770 -0.8790 -0.0744 -0.2793
  795MPD2    C411769   3.648   0.876  13.667 -0.1736 -0.7346 -0.1854
  795MPD2    C511770   3.609   0.947  13.557 -0.0202  0.1457  0.1593
  795MPD2     H11771   3.355   0.861  13.826 -0.9819  1.2737 -0.5186
  795MPD2    H111772   3.753   0.849  13.667 -0.3113 -1.2761  1.1358
  795MPD2    H211773   3.450   1.043  13.456 -1.6703 -0.6544  0.8029
  795MPD2    H311774   3.680   0.962  13.476 -0.2932 -0.1508 -0.1339
  795MPD2     N11775   3.585   0.754  13.880 -0.3094 -0.4541 -0.3681
  795MPD2    H511776   3.510   0.728  13.945 -0.0094 -0.3511  0.0214
  795MPD2    N111777   3.253   1.002  13.646 -0.4594  0.0329  0.6302
  795MPD2    H711778   3.190   0.970  13.719 -0.6965  1.4435  1.0312
  796MPD2     C11779   2.808   2.297  16.075 -0.5745 -0.0502 -0.3815
  796MPD2    C111780   2.875   2.347  16.185 -0.2834 -0.3849  0.2135
  796MPD2    C211781   2.895   2.486  16.199  0.4391 -0.2734 -0.5063
  796MPD2    C311782   2.864   2.572  16.093  0.2491 -0.1427  1.4370
  796MPD2    C411783   2.801   2.513  15.984 -0.3511 -0.3102  0.3133
  796MPD2    C511784   2.764   2.381  15.977 -0.0544 -0.4593  0.2379
  796MPD2     H11785   2.949   2.531  16.281 -1.0941 -1.7191  1.3090
  796MPD2    H111786   2.781   2.579  15.900  1.7980  1.0928  0.8959
  796MPD2    H211787   2.781   2.193  16.087  2.6653 -0.8208  0.2490
  796MPD2    H311788   2.700   2.344  15.898  1.9700  0.3011 -1.7461
  796MPD2     N11789   2.895   2.712  16.108  0.2107  0.6129  0.1572
  796MPD2    H511790   2.922   2.747  16.200 -0.3151  1.9968 -0.2182
  796MPD2    N111791   2.932   2.246  16.272  0.4283  0.1495  0.2446
  796MPD2    H711792   2.920   2.146  16.258  3.4672 -0.4863  2.3609
  797MPD2     C11793   4.057   1.301  17.559 -0.2638  0.3698  0.0447
  797MPD2    C111794   4.134   1.413  17.542 -0.0859  1.0509 -0.3149
  797MPD2    C211795   4.074   1.530  17.502 -0.8270 -0.4489  0.0882
  797MPD2    C311796   3.939   1.543  17.479  0.1919 -0.5487 -0.5689
  797MPD2    C411797   3.862   1.431  17.491  0.1486  0.2126 -0.3850
  797MPD2    C511798   3.924   1.313  17.529 -0.6133 -0.3385 -0.5632
  797MPD2     H11799   4.132   1.620  17.486 -2.0141  0.2135 -0.5072
  797MPD2    H111800   3.755   1.425  17.470 -0.1240  1.2503  0.6837
  797MPD2    H211801   4.105   1.208  17.586  0.6423  1.5017  2.2957
  797MPD2    H311802   3.866   1.223  17.544 -0.3036 -0.5795 -0.8084
  797MPD2     N11803   3.889   1.672  17.453  0.1497  0.9682  0.3200
  797MPD2    H511804   3.953   1.742  17.490  1.5138 -0.1720  0.0950
  797MPD2    N111805   4.270   1.406  17.576 -0.1369  0.0245  0.2676
  797MPD2    H711806   4.299   1.323  17.626 -1.2723  0.5033  1.7535
  798MPD2     C11807   4.363   2.195  17.525  0.4577 -0.0211 -0.3308
  798MPD2    C111808   4.297   2.077  17.503 -0.1719  0.9724  0.0094
  798MPD2    C211809   4.363   1.954  17.523 -0.9001  0.1982 -0.3613
  798MPD2    C311810   4.495   1.955  17.558  0.5390  0.2435  0.2563
  798MPD2    C411811   4.561   2.078  17.581 -0.0469 -0.9861  0.6044
  798MPD2    C511812   4.498   2.197  17.572  0.3694  0.1668  0.4953
  798MPD2     H11813   4.317   1.861  17.491  0.1692 -1.2379  2.2382
  798MPD2    H111814   4.665   2.066  17.611 -0.3960 -1.7743  1.5102
  798MPD2    H211815   4.314   2.288  17.501 -0.0353 -0.5306 -1.2684
  798MPD2    H311816   4.556   2.288  17.575 -1.1473  1.0790  2.0739
  798MPD2     N11817   4.554   1.822  17.572  0.0099  0.5991  0.6414
  798MPD2    H511818   4.485   1.754  17.542  1.4694 -0.2649 -0.7377
  798MPD2    N111819   4.157   2.094  17.468 -0.2075 -0.4662 -0.1683
  798MPD2    H711820   4.114   2.183  17.446  0.5999  0.1958  0.9372
  799MPD2     C11821   2.916   4.147  14.742  0.2000  0.6451 -0.2462
  799MPD2    C111822   2.848   4.068  14.652 -0.2683  0.1052 -0.8386
  799MPD2    C211823   2.806   4.125  14.530  0.5491 -0.1498 -0.1050
  799MPD2    C311824   2.830   4.257  14.496 -0.0494  0.2934  0.3003
  799MPD2    C411825   2.906   4.327  14.584 -0.1718  0.0750  0.1976
  799MPD2    C511826   2.941   4.273  14.707 -0.4563 -0.1922  0.2119
  799MPD2     H11827   2.752   4.070  14.454 -0.1516  0.7925 -0.2934
  799MPD2    H111828   2.940   4.428  14.568  1.0961 -0.4216 -0.2359
  799MPD2    H211829   2.942   4.120  14.844 -0.6354 -0.4495 -0.3195
  799MPD2    H311830   2.978   4.333  14.790  2.1024 -0.4228 -0.7694
  799MPD2     N11831   2.795   4.312  14.373 -0.4998 -0.3770 -0.5908
  799MPD2    H511832   2.825   4.405  14.347  0.2436 -0.1256  1.1970
  799MPD2    N111833   2.833   3.929  14.669 -0.2397  0.0316  0.0066
  799MPD2    H711834   2.762   3.883  14.612 -0.5236  0.3753  0.0875
  800MPD2     C11835   3.029   0.227  14.079 -0.0009  0.3514 -0.1052
  800MPD2    C111836   3.155   0.186  14.096 -0.0195  0.9540 -0.3810
  800MPD2    C211837   3.197   0.076  14.014  0.5792 -0.2912  0.3177
  800MPD2    C311838   3.114   0.013  13.922  0.4433 -0.0983  0.9422
  800MPD2    C411839   2.985   0.061  13.905  0.1655 -0.4935  0.0400
  800MPD2    C511840   2.944   0.164  13.990 -0.1507 -0.2552  0.7135
  800MPD2     H11841   3.299   0.040  14.025  1.6104  2.4009 -0.4790
  800MPD2    H111842   2.925   0.042  13.818  0.1452 -0.2026 -0.0117
  800MPD2    H211843   2.994   0.313  14.135  1.0161  1.4065 -1.0800
  800MPD2    H311844   2.852   0.218  13.974 -0.0914 -0.0194  1.1655
  800MPD2     N11845   3.175   4.655  13.835  0.1071 -0.6136 -0.4088
  800MPD2    H511846   3.277   4.659  13.838  0.0593  0.0628  0.1789
  800MPD2    N111847   3.241   0.266  14.182  0.5865 -0.8134 -0.3457
  800MPD2    H711848   3.204   0.355  14.215 -1.2762 -1.1936 -1.3979
  801MPD2     C11849   3.411   0.995  14.149 -0.3856  0.2358 -0.1554
  801MPD2    C111850   3.450   0.957  14.279  0.9457  1.1807 -0.3180
  801MPD2    C211851   3.445   1.056  14.374  0.6267  0.9919  0.2769
  801MPD2    C311852   3.395   1.184  14.351 -0.3817  0.0491  0.0251
  801MPD2    C411853   3.370   1.223  14.222 -0.4453 -0.0076  0.4170
  801MPD2    C511854   3.374   1.128  14.121 -0.2461  0.1106 -0.4784
  801MPD2     H11855   3.475   1.017  14.470  2.5701 -1.3686 -1.2848
  801MPD2    H111856   3.339   1.324  14.197  1.1298  0.2778 -0.4241
  801MPD2    H211857   3.415   0.929  14.063  1.4797 -0.5660  0.5677
  801MPD2    H311858   3.355   1.156  14.018 -1.9513 -1.3383 -0.5531
  801MPD2     N11859   3.375   1.278  14.449  0.2103  0.4873  0.0742
  801MPD2    H511860   3.358   1.373  14.419 -0.4658  0.6101  0.8452
  801MPD2    N111861   3.482   0.821  14.312  0.0232  0.1769  1.1726
  801MPD2    H711862   3.508   0.805  14.409 -0.1215 -0.0938  1.1657
  802MPD2     C11863   2.754   1.817   0.076 -1.6371 -0.1201 -0.2026
  802MPD2    C111864   2.663   1.717   0.112 -1.3182  0.0642  0.3168
  802MPD2    C211865   2.696   1.588   0.085  0.4392 -0.5216 -0.2690
  802MPD2    C311866   2.816   1.561   0.029  0.3636  0.2107  0.1134
  802MPD2    C411867   2.911   1.660   0.017  0.7979 -0.9688  0.0772
  802MPD2    C511868   2.888   1.790   0.051  0.5774  0.1829  0.3219
  802MPD2     H11869   2.615   1.519   0.108  0.6429 -0.7806 -0.3283
  802MPD2    H111870   3.010   1.637  17.726 -0.6145 -0.4453 -3.7058
  802MPD2    H211871   2.726   1.919   0.102  2.7573  0.7680  1.0780
  802MPD2    H311872   2.961   1.869   0.059  1.5893 -0.8162  1.0041
  802MPD2     N11873   2.855   1.427  17.739  0.0506  0.8584 -0.5852
  802MPD2    H511874   2.936   1.416  17.679 -0.2752 -0.5422 -0.7537
  802MPD2    N111875   2.531   1.737   0.154 -0.7917  0.1255 -0.6965
  802MPD2    H711876   2.467   1.664   0.183 -0.3278 -0.0551 -0.1316
  803MPD2     C11877   3.208   4.354  12.710 -0.6032  0.6692  0.1156
  803MPD2    C111878   3.244   4.220  12.682  0.0319 -0.0923 -0.0342
  803MPD2    C211879   3.258   4.128  12.787  0.0862 -0.1045  0.2284
  803MPD2    C311880   3.244   4.161  12.920 -0.4581 -0.0507 -0.2403
  803MPD2    C411881   3.209   4.294  12.943  0.3180  0.3048 -0.3596
  803MPD2    C511882   3.183   4.383  12.842  0.0793 -0.6031  0.5936
  803MPD2     H11883   3.283   4.026  12.758  0.8599  0.1139  0.1278
  803MPD2    H111884   3.190   4.321  13.046  0.8215  0.5772 -0.3341
  803MPD2    H211885   3.187   4.429  12.634  1.1401  0.1392 -0.8789
  803MPD2    H311886   3.154   4.484  12.868  1.6325 -0.6759  2.5618
  803MPD2     N11887   3.265   4.076  13.029 -0.1589 -0.3355 -0.6300
  803MPD2    H511888   3.262   4.111  13.125 -0.6005 -0.0814 -0.7346
  803MPD2    N111889   3.252   4.170  12.551 -0.7427  0.4579  0.7064
  803MPD2    H711890   3.276   4.072  12.546  2.0818  1.2320 -1.3920
  804MPD2     C11891   3.271   0.776  16.779  0.1567  1.2075  0.0971
  804MPD2    C111892   3.244   0.750  16.914 -0.0607  0.0113  0.3933
  804MPD2    C211893   3.343   0.770  17.010 -0.8540  0.1303 -0.2723
  804MPD2    C311894   3.461   0.830  16.975  0.5127 -0.6852 -0.1621
  804MPD2    C411895   3.483   0.868  16.838 -0.1012  0.3605  0.1091
  804MPD2    C511896   3.387   0.833  16.748 -0.2095 -0.4305 -0.5686
  804MPD2     H11897   3.328   0.725  17.108 -0.4732 -1.5099 -0.9726
  804MPD2    H111898   3.581   0.896  16.802 -0.0488 -0.2531 -0.2315
  804MPD2    H211899   3.204   0.757  16.695  1.9258  0.1540 -1.0787
  804MPD2    H311900   3.406   0.856  16.643 -0.7710 -0.4728 -0.6790
  804MPD2     N11901   3.561   0.849  17.081  0.4478 -0.9217 -0.3897
  804MPD2    H511902   3.537   0.827  17.178  0.3780 -0.6323 -0.3391
  804MPD2    N111903   3.127   0.679  16.953 -0.6332 -0.6376 -0.1964
  804MPD2    H711904   3.098   0.660  17.048  0.8932 -0.4448  0.3214
  805MPD2     C11905   2.689   4.103  15.720 -0.5849 -0.2442 -0.0800
  805MPD2    C111906   2.788   4.056  15.639 -0.6695 -0.7089 -0.1401
  805MPD2    C211907   2.915   4.051  15.682 -1.4295 -0.2420 -0.7028
  805MPD2    C311908   2.946   4.079  15.810 -0.0630 -0.8836 -0.0980
  805MPD2    C411909   2.850   4.127  15.895 -0.2822 -0.8752 -0.6012
  805MPD2    C511910   2.724   4.154  15.846 -0.3748 -0.8707  0.0713
  805MPD2     H11911   3.000   4.022  15.621  1.6574 -2.2868  4.4453
  805MPD2    H111912   2.879   4.157  15.995  0.4779 -1.3500 -0.6780
  805MPD2    H211913   2.587   4.120  15.688 -1.6667 -1.5948  2.6352
  805MPD2    H311914   2.647   4.209  15.898 -0.3854  0.8052 -1.7047
  805MPD2     N11915   3.080   4.090  15.855  0.2307  0.5549  0.1067
  805MPD2    H511916   3.158   4.070  15.793  0.2946 -0.1803  0.4321
  805MPD2    N111917   2.766   4.015  15.506  0.0004 -0.5838  0.4314
  805MPD2    H711918   2.851   3.977  15.464  0.4505  2.2516 -1.2302
  806MPD2     C11919   3.241   2.517   1.196 -0.2946 -0.2039  0.3400
  806MPD2    C111920   3.311   2.628   1.145 -0.2458  0.4991  0.2654
  806MPD2    C211921   3.339   2.640   1.009  0.3973  0.4678 -0.5344
  806MPD2    C311922   3.318   2.543   0.917  0.5571  0.3913  0.2291
  806MPD2    C411923   3.256   2.427   0.968 -0.7345 -0.3466 -0.0006
  806MPD2    C511924   3.207   2.423   1.102 -0.0007 -0.1988  0.5383
  806MPD2     H11925   3.387   2.728   0.969 -0.5502  1.6673  0.9766
  806MPD2    H111926   3.223   2.343   0.907  3.7080 -0.8281 -1.7011
  806MPD2    H211927   3.218   2.503   1.301 -1.0044 -1.7173 -0.0101
  806MPD2    H311928   3.162   2.332   1.138  2.6631 -0.9399  1.9608
  806MPD2     N11929   3.362   2.566   0.789  0.3950  0.4744  0.0224
  806MPD2    H511930   3.390   2.663   0.779  1.8573 -0.0802 -1.2562
  806MPD2    N111931   3.341   2.737   1.232  0.7054 -0.2897 -0.2349
  806MPD2    H711932   3.353   2.715   1.331 -2.8892  0.4178  0.3468
  807MPD2     C11933   3.168   3.493   1.498 -0.5892 -0.4158  0.0905
  807MPD2    C111934   3.129   3.362   1.479 -0.0902 -0.8591 -0.4193
  807MPD2    C211935   2.992   3.325   1.487 -0.2648 -0.0679  0.1415
  807MPD2    C311936   2.899   3.422   1.524 -0.5072  0.0273 -0.3111
  807MPD2    C411937   2.947   3.553   1.543 -0.3645 -0.6052  0.3298
  807MPD2    C511938   3.072   3.585   1.517  0.4302  0.2978 -0.2658
  807MPD2     H11939   2.960   3.229   1.449 -0.9978  0.6790 -1.0965
  807MPD2    H111940   2.881   3.635   1.571  0.9211  0.3296  0.6239
  807MPD2    H211941   3.269   3.528   1.479 -0.6173  1.3131  3.2080
  807MPD2    H311942   3.100   3.690   1.516  0.5989  0.2165 -2.5224
  807MPD2     N11943   2.763   3.387   1.531 -0.1809 -0.5121 -0.1414
  807MPD2    H511944   2.747   3.289   1.509 -0.5885 -0.4128 -0.2922
  807MPD2    N111945   3.222   3.259   1.443 -0.6417 -0.7209 -0.1390
  807MPD2    H711946   3.193   3.163   1.457 -0.5860 -0.5985  0.8236
  808MPD2     C11947   3.498   0.371  10.421 -0.3956  0.2623 -0.2627
  808MPD2    C111948   3.402   0.450  10.487 -0.1150 -0.5386 -0.3969
  808MPD2    C211949   3.433   0.581  10.511  0.0832 -0.8386 -0.4509
  808MPD2    C311950   3.552   0.644  10.475 -0.0509  0.0661  0.2585
  808MPD2    C411951   3.649   0.566  10.413 -0.2683 -0.6169 -0.0543
  808MPD2    C511952   3.617   0.432  10.385  0.4059  0.2987 -0.4219
  808MPD2     H11953   3.358   0.641  10.560  2.1346  0.3645  1.2265
  808MPD2    H111954   3.753   0.594  10.403  0.2999 -2.6815  0.0773
  808MPD2    H211955   3.494   0.263  10.407 -1.5789  0.1449  0.9915
  808MPD2    H311956   3.701   0.373  10.351  0.0409 -0.1976 -0.4701
  808MPD2     N11957   3.593   0.773  10.519  0.2579  0.4236  0.0794
  808MPD2    H511958   3.688   0.792  10.488 -0.0538  1.8914 -0.0049
  808MPD2    N111959   3.278   0.399  10.532 -0.6622 -0.1707  0.1072
  808MPD2    H711960   3.224   0.466  10.586 -0.3916 -1.2171  1.6654
  809MPD2     C11961   4.165   1.558  10.266 -0.8163 -0.3608  0.1908
  809MPD2    C111962   4.159   1.423  10.232 -0.0245 -0.0074  0.1736
  809MPD2    C211963   4.073   1.336  10.302  0.0259  0.7482  0.3819
  809MPD2    C311964   3.991   1.389  10.394  0.0891 -0.4329  0.5782
  809MPD2    C411965   3.994   1.527  10.422  0.9964  0.3104 -0.5858
  809MPD2    C511966   4.087   1.611  10.365  0.2491 -0.7558  0.4793
  809MPD2     H11967   4.058   1.234  10.268 -0.5567 -0.1112  3.1798
  809MPD2    H111968   3.931   1.567  10.501  1.7357  1.0231 -0.3523
  809MPD2    H211969   4.215   1.625  10.197 -0.4298 -0.6088  0.2335
  809MPD2    H311970   4.098   1.716  10.392  1.2201  0.1636 -3.3964
  809MPD2     N11971   3.886   1.323  10.462 -0.1675 -0.1194 -0.0004
  809MPD2    H511972   3.826   1.383  10.518  0.6216  1.5342 -0.9132
  809MPD2    N111973   4.218   1.373  10.111  0.1780  0.4776  0.2884
  809MPD2    H711974   4.203   1.278  10.080  0.5807  0.5144 -0.0127
  810MPD2     C11975   2.629   0.048  11.218  0.4676  0.4456  0.0165
  810MPD2    C111976   2.585   0.088  11.101 -0.0770  0.0243 -0.2522
  810MPD2    C211977   2.558   0.219  11.080 -1.2263  0.6421 -0.1533
  810MPD2    C311978   2.561   0.311  11.182 -0.0283 -0.2992 -0.2239
  810MPD2    C411979   2.599   0.271  11.308 -0.2521 -0.0707 -0.3248
  810MPD2    C511980   2.636   0.136  11.326  0.9493 -0.8021 -0.2576
  810MPD2     H11981   2.529   0.242  10.978 -2.1481  0.0112 -0.0284
  810MPD2    H111982   2.603   0.333  11.397  1.6621  0.0251 -0.4808
  810MPD2    H211983   2.657   4.683  11.236  1.8787  0.7969 -0.1695
  810MPD2    H311984   2.660   0.100  11.425 -1.3109  0.1531  0.6579
  810MPD2     N11985   2.536   0.448  11.158  0.5275  0.1564 -0.5387
  810MPD2    H511986   2.551   0.505  11.241 -0.9939 -0.4106  0.1258
  810MPD2    N111987   2.561   0.001  10.990 -0.4502 -0.1180  0.4269
  810MPD2    H711988   2.540   0.044  10.901  0.4032  2.9067  1.6858
  811MPD2     C11989   2.304   4.680  10.237  0.2997 -0.2088 -0.4028
  811MPD2    C111990   2.373   0.009  10.337 -0.0419 -0.7737  0.8883
  811MPD2    C211991   2.348   0.145  10.358  0.1386  0.6318  0.1787
  811MPD2    C311992   2.263   0.220  10.284 -0.2787  0.4064 -0.2498
  811MPD2    C411993   2.196   0.151  10.186 -0.8733  0.1142 -0.2124
  811MPD2    C511994   2.216   0.018  10.157  0.6741  0.2509 -0.3196
  811MPD2     H11995   2.396   0.199  10.439  1.6881  0.0938 -0.3857
  811MPD2    H111996   2.123   0.195  10.119 -0.8709  0.5431  0.0707
  811MPD2    H211997   2.325   4.576  10.218 -0.3808 -0.4974  0.4598
  811MPD2    H311998   2.177   4.702  10.071  0.0718  1.2537 -0.6882
  811MPD2     N11999   2.254   0.357  10.309  0.4740  0.1043  0.2085
  811MPD2    H512000   2.316   0.398  10.379 -3.3107  2.9054  1.9212
  811MPD2    N112001   2.456   4.670  10.417  0.0688 -0.1492 -0.3147
  811MPD2    H712002   2.461   4.571  10.397 -0.5562 -0.0028 -1.1930
  812MPD2     C12003   1.324   4.173  12.582 -0.8393  0.3044 -0.0768
  812MPD2    C112004   1.442   4.223  12.535  0.3173 -0.1064 -0.1484
  812MPD2    C212005   1.558   4.215  12.608  0.7427  0.1342 -0.1252
  812MPD2    C312006   1.543   4.162  12.736 -0.5672 -0.9027 -1.1228
  812MPD2    C412007   1.427   4.102  12.778 -0.0280 -0.3940  0.2025
  812MPD2    C512008   1.319   4.120  12.704  0.2005 -0.0502  0.4790
  812MPD2     H12009   1.661   4.231  12.578  1.0311 -0.6306  0.4865
  812MPD2    H112010   1.411   4.044  12.869  0.2316  0.6175  0.8992
  812MPD2    H212011   1.232   4.174  12.525 -0.4101  1.1729 -0.7508
  812MPD2    H312012   1.229   4.081  12.750 -1.4375 -1.8841 -4.3577
  812MPD2     N12013   1.668   4.158  12.814 -0.0151 -0.1320  0.1217
  812MPD2    H512014   1.753   4.186  12.768  0.0469 -0.8278 -0.1977
  812MPD2    N112015   1.438   4.276  12.404 -0.2977 -0.3305  0.1811
  812MPD2    H712016   1.348   4.272  12.357  0.0531  0.2745 -0.5359
  813MPD2     C12017   1.280   1.551  12.871  0.3709 -0.4719 -1.1093
  813MPD2    C112018   1.325   1.680  12.905 -0.5216  0.0783  0.1802
  813MPD2    C212019   1.259   1.745  13.006 -0.5645 -0.2806  0.6283
  813MPD2    C312020   1.153   1.690  13.074  0.4093  0.9396  0.0342
  813MPD2    C412021   1.125   1.559  13.045 -0.1169 -0.3892 -0.0529
  813MPD2    C512022   1.184   1.491  12.941 -0.2957 -0.2105  1.0421
  813MPD2     H12023   1.300   1.840  13.040 -1.8688  0.9239 -1.1056
  813MPD2    H112024   1.064   1.502  13.114 -0.0128 -0.5691 -0.1106
  813MPD2    H212025   1.331   1.492  12.796 -1.2549 -0.6663 -2.0659
  813MPD2    H312026   1.157   1.386  12.930 -1.5390  0.0405  1.6521
  813MPD2     N12027   1.098   1.745  13.195  0.3158 -0.0905 -0.9697
  813MPD2    H512028   1.142   1.830  13.230 -1.3411  0.0874  0.7017
  813MPD2    N112029   1.442   1.747  12.852  0.4201 -0.0082  0.0996
  813MPD2    H712030   1.452   1.843  12.881  1.5835 -0.4100  1.0136
  814MPD2     C12031   1.102   3.108  12.246 -0.1018  0.0159 -0.2118
  814MPD2    C112032   1.187   3.098  12.136  0.3547  0.0112 -1.0606
  814MPD2    C212033   1.303   3.176  12.136 -0.0089  0.7982  0.6873
  814MPD2    C312034   1.342   3.252  12.244 -0.0179 -0.0592 -0.1572
  814MPD2    C412035   1.254   3.262  12.352  0.5978 -0.0764  0.8201
  814MPD2    C512036   1.139   3.184  12.355 -0.0018  0.0090 -0.1318
  814MPD2     H12037   1.358   3.178  12.043 -1.6896 -2.2523 -0.3638
  814MPD2    H112038   1.273   3.317  12.443 -1.4424 -0.3551  1.4181
  814MPD2    H212039   1.007   3.055  12.246  0.3677 -0.8397  1.5809
  814MPD2    H312040   1.068   3.197  12.436  0.7407  0.1722  0.4947
  814MPD2     N12041   1.453   3.334  12.248  0.2501  0.8985  0.0450
  814MPD2    H512042   1.480   3.364  12.342  0.2637  2.0551 -0.3287
  814MPD2    N112043   1.162   3.032  12.012  0.3095 -0.1550 -0.0064
  814MPD2    H712044   1.239   3.026  11.946  0.1717 -0.2030 -0.1636
  815MPD2     C12045   1.735   1.460  11.953  0.1041 -0.7959  0.3786
  815MPD2    C112046   1.677   1.330  11.936  0.1029 -0.1924 -0.6673
  815MPD2    C212047   1.574   1.289  12.021 -0.0585 -0.1128 -0.3090
  815MPD2    C312048   1.517   1.383  12.105  0.5878  0.1344  0.0499
  815MPD2    C412049   1.583   1.506  12.126 -0.4668 -0.1941 -0.1045
  815MPD2    C512050   1.685   1.552  12.045 -0.5611  0.1521 -0.2379
  815MPD2     H12051   1.509   1.206  11.998 -0.4870  0.1096  0.1027
  815MPD2    H112052   1.552   1.579  12.200  0.7835  0.0361  0.1922
  815MPD2    H212053   1.821   1.487  11.893 -0.3016  1.2604  0.7368
  815MPD2    H312054   1.718   1.654  12.064 -0.6337  0.1466 -0.0858
  815MPD2     N12055   1.407   1.340  12.181  0.4502  0.1746 -0.7239
  815MPD2    H512056   1.368   1.249  12.158 -0.9346  1.0063 -1.6911
  815MPD2    N112057   1.737   1.251  11.834  0.2819 -0.2579  0.4828
  815MPD2    H712058   1.818   1.293  11.788 -0.8043  0.9588 -0.3054
  816MPD2     C12059   2.211   0.400  17.316 -0.4803  0.0529  0.2950
  816MPD2    C112060   2.158   0.444  17.197  0.5222 -0.3230  0.1499
  816MPD2    C212061   2.222   0.414  17.079 -0.4115 -0.7744 -0.1030
  816MPD2    C312062   2.327   0.329  17.077 -0.3927 -0.5267  0.7681
  816MPD2    C412063   2.369   0.269  17.193  0.2833  0.1222 -0.2269
  816MPD2    C512064   2.310   0.302  17.317  0.6163  0.2738  0.2989
  816MPD2     H12065   2.193   0.474  16.993  0.1158  0.5941  0.6697
  816MPD2    H112066   2.454   0.202  17.203  0.8777  0.7293 -1.1896
  816MPD2    H212067   2.172   0.417  17.416  1.8994  0.6543  1.1038
  816MPD2    H312068   2.346   0.251  17.406  0.5189 -1.1514 -0.4748
  816MPD2     N12069   2.397   0.312  16.954  0.4883  0.5697 -0.6456
  816MPD2    H512070   2.359   0.366  16.877 -1.7610  2.0812  1.5392
  816MPD2    N112071   2.048   0.541  17.207  0.5846 -0.5537 -0.2013
  816MPD2    H712072   2.024   0.558  17.304 -1.1661 -3.3236 -0.1762
  817MPD2     C12073   1.491   2.558   9.558  0.3129  0.1261  0.3262
  817MPD2    C112074   1.370   2.497   9.565 -0.0845 -0.1335 -0.0536
  817MPD2    C212075   1.267   2.532   9.481 -0.0753  0.5777 -0.6726
  817MPD2    C312076   1.295   2.619   9.381 -0.2461  0.1344  0.5044
  817MPD2    C412077   1.420   2.670   9.366  0.2967  0.4337  1.1350
  817MPD2    C512078   1.511   2.652   9.463  0.0572  0.2455 -0.1528
  817MPD2     H12079   1.167   2.490   9.490 -0.8999  2.0001 -2.9643
  817MPD2    H112080   1.436   2.748   9.292  0.2871 -0.7050 -0.0549
  817MPD2    H212081   1.574   2.514   9.612 -0.7411 -0.2709  1.6038
  817MPD2    H312082   1.614   2.687   9.460  0.1588  0.0836  1.1766
  817MPD2     N12083   1.181   2.637   9.297 -0.2568  0.6666  0.0710
  817MPD2    H512084   1.096   2.582   9.306 -0.2708  0.7566  0.4842
  817MPD2    N112085   1.342   2.389   9.658 -0.1116  0.2956 -0.4653
  817MPD2    H712086   1.247   2.355   9.658 -0.7634  2.1421  1.5445
  818MPD2     C12087   0.024   2.247  10.455  0.0706  0.4139 -0.2688
  818MPD2    C112088   4.658   2.160  10.480  0.5018 -0.1837  0.2724
  818MPD2    C212089   4.680   2.020  10.500 -0.0132  0.2249  0.0474
  818MPD2    C312090   0.068   1.973  10.501  0.4631 -0.3018  0.5155
  818MPD2    C412091   0.170   2.064  10.476  0.0721 -0.3451 -0.0115
  818MPD2    C512092   0.145   2.193  10.455 -0.8794  0.1118 -0.1428
  818MPD2     H12093   4.595   1.955  10.520 -0.1173 -0.0425 -1.2513
  818MPD2    H112094   0.271   2.031  10.455 -0.3626 -1.0755 -0.9440
  818MPD2    H212095   4.735   2.349  10.432 -2.0031  0.5157  2.5134
  818MPD2    H312096   0.232   2.258  10.450  0.0252 -1.0878  0.0393
  818MPD2     N12097   0.100   1.836  10.524 -0.3057 -0.5465  0.0498
  818MPD2    H512098   0.200   1.819  10.527 -0.6923 -2.6532  0.6177
  818MPD2    N112099   4.522   2.205  10.471  0.5222  0.2321  0.2747
  818MPD2    H712100   4.458   2.132  10.500  0.1190  1.5270  2.6826
  819MPD2     C12101   3.163   3.596  15.701 -0.0280 -0.0318 -0.3889
  819MPD2    C112102   3.190   3.458  15.710 -0.1592  0.0971  0.0684
  819MPD2    C212103   3.305   3.418  15.777 -0.9332  0.3839 -0.4101
  819MPD2    C312104   3.372   3.510  15.855  0.5148 -0.1021 -0.5041
  819MPD2    C412105   3.329   3.640  15.864  0.2682 -0.3500 -0.1413
  819MPD2    C512106   3.234   3.683  15.778 -0.1675  0.1990  0.4915
  819MPD2     H12107   3.342   3.317  15.785 -2.0883  0.2186  2.5936
  819MPD2    H112108   3.388   3.711  15.920 -1.2014  0.1494  0.7640
  819MPD2    H212109   3.086   3.646  15.643 -1.9281  1.8352  3.7478
  819MPD2    H312110   3.212   3.789  15.778  1.4158  0.4912 -4.2133
  819MPD2     N12111   3.486   3.464  15.926  0.6568 -0.0454  0.4380
  819MPD2    H512112   3.518   3.371  15.902  1.0230  0.0540  0.5478
  819MPD2    N112113   3.101   3.371  15.649  0.7801 -0.2497  0.4919
  819MPD2    H712114   3.033   3.417  15.590  1.7713  0.1299 -0.3584
  820MPD2     C12115   2.491   3.567  15.041  0.3248 -0.1270  0.2786
  820MPD2    C112116   2.614   3.595  15.099  0.3931  0.2335 -0.6440
  820MPD2    C212117   2.676   3.498  15.166 -0.4451  0.2495  0.5339
  820MPD2    C312118   2.617   3.379  15.194  0.3186 -0.4658 -0.7746
  820MPD2    C412119   2.492   3.353  15.143  0.1033  0.4043 -0.1702
  820MPD2    C512120   2.426   3.443  15.054  0.5797 -0.6954 -0.1014
  820MPD2     H12121   2.779   3.513  15.197  0.1848  1.9501 -2.4032
  820MPD2    H112122   2.451   3.258  15.175  0.8915 -0.0099 -0.4027
  820MPD2    H212123   2.456   3.628  14.958 -0.4565  0.3591  0.9628
  820MPD2    H312124   2.333   3.417  15.006 -0.1794  0.6568  0.6550
  820MPD2     N12125   2.669   3.287  15.289 -0.4238 -0.3573 -0.2857
  820MPD2    H512126   2.614   3.202  15.295 -0.0204 -0.5012  1.4851
  820MPD2    N112127   2.669   3.716  15.058  0.3882 -0.1066 -0.6200
  820MPD2    H712128   2.613   3.781  15.003  0.4355 -1.0222 -1.7386
  821MPD2     C12129   3.362   0.007  13.055 -0.6870  0.1348 -0.9484
  821MPD2    C112130   3.443   4.700  13.159 -0.4781 -0.2075 -0.1031
  821MPD2    C212131   3.554   0.039  13.188 -0.2376  0.3180  0.2207
  821MPD2    C312132   3.597   0.159  13.129 -0.7167  0.6637  0.6619
  821MPD2    C412133   3.514   0.195  13.031 -0.2887 -0.3141  0.2204
  821MPD2    C512134   3.404   0.120  12.991 -0.3172 -0.9147 -0.6378
  821MPD2     H12135   3.610   4.737  13.272  0.5206 -1.1782 -0.9912
  821MPD2    H112136   3.531   0.283  12.970  0.5989 -1.6879 -1.4968
  821MPD2    H212137   3.273   4.691  13.024 -0.9132  0.2835 -0.5499
  821MPD2    H312138   3.339   0.162  12.915 -0.5059 -1.5448 -0.8195
  821MPD2     N12139   3.709   0.242  13.162  0.3603 -0.0246  0.2210
  821MPD2    H512140   3.719   0.325  13.104  0.4892 -0.3769 -0.2576
  821MPD2    N112141   3.401   4.611  13.254  0.0189  0.1552  0.2627
  821MPD2    H712142   3.472   4.589  13.323  0.5385 -0.5757 -0.5112
  822MPD2     C12143   4.366   0.284  15.749 -0.8017 -1.0142  0.3014
  822MPD2    C112144   4.340   0.227  15.868  0.0264  0.0287  0.5860
  822MPD2    C212145   4.232   0.280  15.941 -0.7311  0.3070 -0.0326
  822MPD2    C312146   4.154   0.378  15.894 -0.4563 -0.0694 -0.4011
  822MPD2    C412147   4.177   0.430  15.768 -0.5163 -0.0167  0.0833
  822MPD2    C512148   4.286   0.380  15.695  0.4743  0.3299 -0.7512
  822MPD2     H12149   4.198   0.236  16.033  0.4960  0.0772  0.3109
  822MPD2    H112150   4.116   0.504  15.718  2.1872  0.8020 -1.9782
  822MPD2    H212151   4.445   0.245  15.686  0.1729 -0.6790  1.3143
  822MPD2    H312152   4.304   0.407  15.592  2.1241  1.8692 -0.0425
  822MPD2     N12153   4.055   0.439  15.988 -0.5324  0.2601  0.1653
  822MPD2    H512154   4.053   0.406  16.084 -0.4583 -1.2838 -0.3555
  822MPD2    N112155   4.419   0.129  15.927  0.2155 -0.3164 -0.0967
  822MPD2    H712156   4.394   0.108  16.023  0.1222 -1.4091 -0.3635
  823MPD2     C12157   3.421   0.501  16.586 -0.5984  0.6260  0.2955
  823MPD2    C112158   3.539   0.459  16.528  1.0749  1.3211  0.3797
  823MPD2    C212159   3.614   0.365  16.595 -0.0258  0.0849  0.4562
  823MPD2    C312160   3.570   0.301  16.711 -0.0381 -0.1390  0.0579
  823MPD2    C412161   3.450   0.339  16.761  0.8735 -0.0933 -0.0376
  823MPD2    C512162   3.381   0.438  16.701  0.2942 -0.2611 -0.8808
  823MPD2     H12163   3.709   0.327  16.557 -0.3296 -2.4125  2.2422
  823MPD2    H112164   3.401   0.309  16.853  1.1935 -0.0342  0.1549
  823MPD2    H212165   3.377   0.592  16.547  1.9537  1.7752  0.0921
  823MPD2    H312166   3.297   0.486  16.749  0.0271 -1.5108 -0.0957
  823MPD2     N12167   3.648   0.215  16.788 -0.3011 -0.7575  0.1412
  823MPD2    H512168   3.596   0.184  16.870 -0.3029 -2.6416 -0.5850
  823MPD2    N112169   3.589   0.518  16.413 -0.1515 -0.2510  0.4993
  823MPD2    H712170   3.546   0.606  16.383 -0.2561 -0.7351 -0.7741
  824MPD2     C12171   0.413   4.470  15.887 -0.2088  0.9164 -0.3370
  824MPD2    C112172   0.305   4.428  15.809 -0.5390  0.1119  0.4690
  824MPD2    C212173   0.314   4.349  15.695  0.3363 -0.2923  0.3818
  824MPD2    C312174   0.440   4.282  15.681  0.1679  0.1412 -0.6390
  824MPD2    C412175   0.547   4.316  15.759  0.0632 -0.2010  0.3256
  824MPD2    C512176   0.535   4.406  15.867 -0.1178  0.2439  0.2395
  824MPD2     H12177   0.228   4.332  15.631  0.4490 -2.3937  0.7656
  824MPD2    H112178   0.644   4.267  15.754 -0.5319 -1.2875 -0.7236
  824MPD2    H212179   0.401   4.532  15.975  0.0493 -2.2419  1.8879
  824MPD2    H312180   0.620   4.419  15.933  0.2049 -1.3543  0.1478
  824MPD2     N12181   0.453   4.177  15.595  0.3918 -1.0385 -0.0562
  824MPD2    H512182   0.377   4.172  15.528 -0.0419 -0.4035  0.3895
  824MPD2    N112183   0.181   4.482  15.841  0.0486 -0.5184  0.6288
  824MPD2    H712184   0.104   4.470  15.776 -1.6903  1.8765  2.2637
  825MPD2     C12185   0.886   4.163  14.823  0.1586 -0.3339  0.6058
  825MPD2    C112186   0.838   4.221  14.939 -0.0390 -1.3071  0.3551
  825MPD2    C212187   0.849   4.356  14.953  0.0289  0.0393 -0.6789
  825MPD2    C312188   0.897   4.434  14.846 -0.4516 -0.6735 -0.5158
  825MPD2    C412189   0.939   4.373  14.728  0.2827 -0.1278 -0.3885
  825MPD2    C512190   0.927   4.237  14.711  0.6330 -0.3727 -0.1888
  825MPD2     H12191   0.823   4.397  15.050 -0.8971 -0.5729 -0.6652
  825MPD2    H112192   0.967   4.433  14.642  1.9719  1.2569  1.1245
  825MPD2    H212193   0.888   4.056  14.805  0.6713 -0.2837  0.3741
  825MPD2    H312194   0.974   4.200  14.620 -1.0012 -1.9069 -0.4015
  825MPD2     N12195   0.901   4.573  14.848 -0.6749  0.1902  0.2979
  825MPD2    H512196   0.937   4.615  14.763 -2.1380 -0.8057 -0.8247
  825MPD2    N112197   0.782   4.133  15.042 -0.6388 -0.4024  0.2503
  825MPD2    H712198   0.752   4.042  15.008  0.5162 -0.1854 -1.2991
  826MPD2     C12199   0.038   4.366  13.978 -0.0135 -0.2143  0.1333
  826MPD2    C112200   0.098   4.446  13.887  0.5556  0.3155 -0.0191
  826MPD2    C212201   0.018   4.524  13.799  0.3364 -0.7650  0.5253
  826MPD2    C312202   4.616   4.523  13.813 -0.3541 -0.1981 -0.4425
  826MPD2    C412203   4.564   4.426  13.891  0.1510 -0.3496  0.5998
  826MPD2    C512204   4.641   4.349  13.973  0.7382  0.7728  0.1628
  826MPD2     H12205   0.067   4.600  13.738  0.4559 -1.8211 -0.6909
  826MPD2    H112206   4.457   4.414  13.908 -0.2278  0.5144 -1.1721
  826MPD2    H212207   0.093   4.305  14.049 -0.8517 -0.5096  0.5301
  826MPD2    H312208   4.589   4.283  14.041  2.6970 -0.3819  0.5480
  826MPD2     N12209   4.540   4.618  13.747 -0.0279 -0.1982 -0.1137
  826MPD2    H512210   4.439   4.618  13.760 -0.0088  0.7233  0.0395
  826MPD2    N112211   0.237   4.447  13.881 -0.2437  0.5532  0.1655
  826MPD2    H712212   0.290   4.397  13.952 -1.3192 -1.8533 -0.7518
  827MPD2     C12213   0.612   1.276  10.289  0.2240  0.5940 -0.7397
  827MPD2    C112214   0.654   1.146  10.313  0.3312  0.0453  0.4760
  827MPD2    C212215   0.620   1.049  10.224  0.3204 -0.7543  0.2634
  827MPD2    C312216   0.543   1.079  10.116  0.4440 -0.2572  0.1651
  827MPD2    C412217   0.488   1.201  10.106 -0.0733  0.4059  0.4608
  827MPD2    C512218   0.526   1.303  10.192  0.5523  0.2549 -0.6812
  827MPD2     H12219   0.650   0.946  10.234  0.1990 -0.8096  0.0561
  827MPD2    H112220   0.416   1.222  10.028 -0.4369 -1.9407  0.1667
  827MPD2    H212221   0.631   1.352  10.364 -1.3646  0.6031 -0.3395
  827MPD2    H312222   0.478   1.400  10.184  2.0729  0.9501 -1.3008
  827MPD2     N12223   0.515   0.980  10.026 -0.5826 -0.1281  0.1391
  827MPD2    H512224   0.529   0.883  10.051  1.9590  0.1923 -0.0023
  827MPD2    N112225   0.742   1.120  10.421 -0.7557 -0.1941  0.1086
  827MPD2    H712226   0.766   1.202  10.476 -0.6479 -0.2948  0.2124
  828MPD2     C12227   4.373   0.422  12.523 -0.3395  0.1693  0.0715
  828MPD2    C112228   4.310   0.548  12.514 -0.6722  0.2939 -0.7698
  828MPD2    C212229   4.361   0.637  12.420  0.4931  0.2441  0.2685
  828MPD2    C312230   4.471   0.608  12.344 -0.0488 -0.3873  0.3309
  828MPD2    C412231   4.534   0.486  12.374  0.4346 -0.2593 -0.2208
  828MPD2    C512232   4.482   0.396  12.452  0.0791  0.2350 -0.3813
  828MPD2     H12233   4.313   0.734  12.407  1.0165  0.5509  0.6381
  828MPD2    H112234   4.618   0.449  12.315  1.0682 -0.8923  1.0806
  828MPD2    H212235   4.333   0.336  12.576  2.3162 -0.7415  0.5921
  828MPD2    H312236   4.523   0.295  12.459  0.8940  0.5714 -0.2417
  828MPD2     N12237   4.512   0.680  12.228  0.4446  0.3747  0.0615
  828MPD2    H512238   4.594   0.650  12.175  0.2588  0.6041 -0.3560
  828MPD2    N112239   4.197   0.590  12.590  0.6435  0.5356 -0.4168
  828MPD2    H712240   4.176   0.688  12.575 -1.0204 -0.0223 -1.7478
  829MPD2     C12241   3.518   0.904  12.147 -0.4149 -0.4705 -0.0121
  829MPD2    C112242   3.476   0.839  12.258  0.7950 -0.0862 -0.5579
  829MPD2    C212243   3.561   0.811  12.358 -0.1531  0.5327 -0.7671
  829MPD2    C312244   3.698   0.830  12.342 -0.4174  0.1958  0.4470
  829MPD2    C412245   3.745   0.889  12.223 -0.3279  0.3431 -0.4418
  829MPD2    C512246   3.655   0.926  12.126  0.4244 -0.2866 -1.0212
  829MPD2     H12247   3.519   0.761  12.445 -0.6346  1.0115 -0.7254
  829MPD2    H112248   3.847   0.926  12.214 -0.5903  0.8019 -1.4949
  829MPD2    H212249   3.443   0.918  12.070 -0.2981 -0.1572 -0.0687
  829MPD2    H312250   3.691   0.972  12.035  0.8789 -0.0038 -0.6960
  829MPD2     N12251   3.794   0.811  12.445 -0.3723 -0.1118  0.4901
  829MPD2    H512252   3.892   0.804  12.420 -1.2663  0.5471 -3.1601
  829MPD2    N112253   3.337   0.804  12.266 -0.7198  0.0493  0.1127
  829MPD2    H712254   3.286   0.799  12.178  1.6683 -0.1901 -1.2595
  830MPD2     C12255   4.269   3.155  16.088  0.0811 -0.7043 -0.1139
  830MPD2    C112256   4.182   3.217  16.005 -0.7597 -0.0711  0.0397
  830MPD2    C212257   4.234   3.316  15.924 -0.3941 -0.1698  0.1760
  830MPD2    C312258   4.369   3.341  15.921 -0.3717 -0.0766 -0.6285
  830MPD2    C412259   4.461   3.273  16.005  0.0085 -0.5740  0.7968
  830MPD2    C512260   4.407   3.172  16.084  0.2737 -0.3494  0.3998
  830MPD2     H12261   4.167   3.371  15.859 -1.9163 -0.1583  1.7508
  830MPD2    H112262   4.566   3.297  16.016  0.4394 -2.3420  0.7058
  830MPD2    H212263   4.231   3.081  16.158 -0.0829 -0.7514 -0.2539
  830MPD2    H312264   4.464   3.103  16.145  3.2669  0.4221 -1.5329
  830MPD2     N12265   4.430   3.432  15.838 -0.4893 -0.0469  0.4988
  830MPD2    H512266   4.529   3.457  15.836 -0.4864 -0.1515 -1.0282
  830MPD2    N112267   4.037   3.197  16.015 -0.5434  0.1139  0.1566
  830MPD2    H712268   4.007   3.128  16.083  1.2207 -2.4644 -1.6834
  831MPD2     C12269   4.185   0.575  16.367 -0.5526 -0.2048 -0.1438
  831MPD2    C112270   4.229   0.474  16.284 -1.0016 -0.5515 -1.0753
  831MPD2    C212271   4.175   0.348  16.301  0.4639  0.6075 -0.3028
  831MPD2    C312272   4.066   0.325  16.383  0.5042  0.3217  0.2063
  831MPD2    C412273   4.027   0.428  16.471 -0.4770  0.0856  0.1319
  831MPD2    C512274   4.092   0.547  16.463  0.7640 -0.6809  0.1365
  831MPD2     H12275   4.219   0.265  16.247 -0.2006 -2.4433  3.9135
  831MPD2    H112276   3.948   0.412  16.543  0.5063 -0.3220  1.1269
  831MPD2    H212277   4.224   0.675  16.352  1.0465 -0.7101  0.6360
  831MPD2    H312278   4.051   0.629  16.520  2.4675  1.3507 -1.5832
  831MPD2     N12279   3.985   0.207  16.389 -0.7326 -0.6911 -0.3845
  831MPD2    H512280   3.910   0.207  16.457 -1.0598 -0.8283 -0.7440
  831MPD2    N112281   4.338   0.506  16.200  0.0055  0.2876 -0.1771
  831MPD2    H712282   4.362   0.604  16.192  0.3626  0.1595 -0.6842
  832MPD2     C12283   2.534   1.353  17.178 -0.6173  0.4470  0.1694
  832MPD2    C112284   2.553   1.490  17.157 -0.0266  0.5954  0.2639
  832MPD2    C212285   2.452   1.555  17.090 -0.2942 -0.0232  0.8594
  832MPD2    C312286   2.332   1.492  17.060 -0.1583  0.3975 -0.4202
  832MPD2    C412287   2.312   1.359  17.091 -0.0783 -0.0354 -0.3875
  832MPD2    C512288   2.420   1.294  17.145 -0.3717 -0.0421 -0.4102
  832MPD2     H12289   2.450   1.664  17.084  0.1726 -0.0855 -0.5415
  832MPD2    H112290   2.221   1.309  17.062  0.0907 -0.7171  0.2639
  832MPD2    H212291   2.599   1.279  17.224 -0.1641  1.2662  0.8548
  832MPD2    H312292   2.409   1.190  17.175 -2.7764  1.1036  2.6748
  832MPD2     N12293   2.211   1.561  17.026  0.3486  0.2949  0.3512
  832MPD2    H512294   2.129   1.503  17.013  2.4167 -2.2586 -1.1925
  832MPD2    N112295   2.682   1.538  17.197 -0.5173  0.9784  0.0742
  832MPD2    H712296   2.751   1.468  17.225 -1.8065 -0.2672  0.1740
  833MPD2     C12297   4.010   3.108  12.699 -0.0631 -0.3376 -0.2615
  833MPD2    C112298   4.053   3.211  12.618  0.1461  1.0159 -0.1248
  833MPD2    C212299   4.181   3.190  12.566  0.0760  0.2501  0.8722
  833MPD2    C312300   4.255   3.079  12.606  0.2510 -0.4268  0.4329
  833MPD2    C412301   4.205   2.985  12.695 -0.8475  0.1807 -0.3007
  833MPD2    C512302   4.084   3.000  12.743  0.6718 -0.0762 -0.3841
  833MPD2     H12303   4.222   3.249  12.485 -0.7072 -0.3949  0.0145
  833MPD2    H112304   4.256   2.893  12.721  1.4472  0.5328 -3.6404
  833MPD2    H212305   3.909   3.103  12.739 -0.6609 -0.9440 -1.8539
  833MPD2    H312306   4.043   2.920  12.804  0.1791  2.2210  2.2481
  833MPD2     N12307   4.372   3.040  12.536 -0.5292 -0.1858  0.0524
  833MPD2    H512308   4.409   2.950  12.566  0.4416 -0.0196 -0.6452
  833MPD2    N112309   3.979   3.328  12.595  0.2283 -0.0361 -0.4863
  833MPD2    H712310   3.889   3.336  12.643  0.3042 -1.0177 -0.1918
  834MPD2     C12311   4.491   2.418  11.811 -0.1470  1.0421 -0.1391
  834MPD2    C112312   4.452   2.547  11.769 -0.5434 -0.5879 -0.5554
  834MPD2    C212313   4.476   2.651  11.856  0.1782 -0.0734  0.3532
  834MPD2    C312314   4.535   2.635  11.978 -0.1414 -0.0347 -0.1765
  834MPD2    C412315   4.585   2.509  12.012  0.2426  0.4030 -0.2561
  834MPD2    C512316   4.568   2.401  11.926 -0.4490 -0.2944  0.2747
  834MPD2     H12317   4.434   2.748  11.833 -2.0027 -1.2782 -0.7068
  834MPD2    H112318   4.630   2.498  12.110  1.0499 -3.9016 -1.1461
  834MPD2    H212319   4.466   2.331  11.751 -0.8993  0.2281  1.3401
  834MPD2    H312320   4.609   2.303  11.952 -0.4766  0.1549  2.0374
  834MPD2     N12321   4.533   2.753  12.064  0.4537 -0.1448  0.1605
  834MPD2    H512322   4.507   2.840  12.020 -0.7235 -1.2731 -1.3821
  834MPD2    N112323   4.378   2.560  11.653  0.4411  0.6038  0.1911
  834MPD2    H712324   4.358   2.473  11.603 -2.7136  1.4250  0.0489
  835MPD2     C12325   4.527   1.093  11.186 -0.2984  0.5304  0.0975
  835MPD2    C112326   4.472   1.161  11.290 -0.1916  0.4311  0.3941
  835MPD2    C212327   4.545   1.197  11.398 -0.5482  0.5068 -0.2900
  835MPD2    C312328   4.679   1.175  11.396 -1.1809  0.5009  0.1828
  835MPD2    C412329   0.002   1.112  11.293 -0.2559 -0.1180 -0.2005
  835MPD2    C512330   4.661   1.066  11.186 -0.4024  0.2307  0.5688
  835MPD2     H12331   4.494   1.239  11.485  0.7464 -0.7768  1.0851
  835MPD2    H112332   0.108   1.102  11.273 -0.2268 -1.2368  0.5235
  835MPD2    H212333   4.479   1.061  11.094 -0.3432  2.0198 -0.3987
  835MPD2    H312334   4.716   1.035  11.098 -0.1335  2.5089 -0.0659
  835MPD2     N12335   0.022   1.204  11.503 -0.0756  0.1531  0.1571
  835MPD2    H512336   0.117   1.183  11.474 -0.7568 -0.2370 -1.8178
  835MPD2    N112337   4.344   1.207  11.288 -0.4541 -0.2148 -0.3037
  835MPD2    H712338   4.321   1.283  11.352  1.8608  0.8636 -0.7667
  836MPD2     C12339   4.512   1.148  12.233  0.3617  0.6967  1.2481
  836MPD2    C112340   4.646   1.116  12.219 -1.1591 -0.7219  0.5239
  836MPD2    C212341   4.703   1.021  12.306  0.1952 -0.6048  0.2143
  836MPD2    C312342   4.631   0.969  12.417 -0.5459  0.1475 -0.5990
  836MPD2    C412343   4.494   0.998  12.422 -0.0329 -0.6202  0.1779
  836MPD2    C512344   4.442   1.092  12.337 -0.4808  0.4302 -0.0006
  836MPD2     H12345   0.070   0.996  12.294  0.5557  0.3848  1.3465
  836MPD2    H112346   4.427   0.955  12.495 -1.6368  1.2181 -0.2241
  836MPD2    H212347   4.465   1.224  12.171 -1.4250 -1.4874 -0.1060
  836MPD2    H312348   4.339   1.124  12.353 -0.2775  1.3039 -0.4403
  836MPD2     N12349   4.683   0.870  12.502  0.3424  0.0253 -0.6755
  836MPD2    H512350   4.620   0.837  12.575  2.1889 -1.3240  0.3177
  836MPD2    N112351   4.708   1.181  12.107  0.2753  0.4365  0.5039
  836MPD2    H712352   4.641   1.230  12.050  1.2437  1.6550  0.4035
  837MPD2     C12353   2.650   0.819  10.689  0.1451  0.7809  0.3857
  837MPD2    C112354   2.564   0.898  10.614  0.3671  0.1879 -0.1327
  837MPD2    C212355   2.542   1.025  10.659  0.1727 -0.2376  0.1731
  837MPD2    C312356   2.581   1.064  10.788 -0.1297 -0.0117 -0.5936
  837MPD2    C412357   2.671   0.986  10.855 -0.4581 -0.5328  0.1943
  837MPD2    C512358   2.699   0.862  10.811  0.3652  0.7031  0.0996
  837MPD2     H12359   2.480   1.084  10.594  1.2201  1.6079  0.8546
  837MPD2    H112360   2.709   1.012  10.953 -0.8639  2.3015 -0.3771
  837MPD2    H212361   2.677   0.717  10.665 -1.2409  0.8112 -1.2413
  837MPD2    H312362   2.772   0.800  10.862 -0.2603  0.0465  0.1757
  837MPD2     N12363   2.526   1.186  10.835 -1.0513 -0.6528  0.0525
  837MPD2    H512364   2.466   1.236  10.771  0.1142  1.4947  0.6452
  837MPD2    N112365   2.494   0.857  10.500 -0.0196  0.6254 -0.4844
  837MPD2    H712366   2.426   0.924  10.466 -0.2861  0.3626 -0.4741
  838MPD2     C12367   1.293   3.864  12.151 -0.8309 -0.4394 -1.0600
  838MPD2    C112368   1.228   3.781  12.062 -0.3032  0.0895  0.3315
  838MPD2    C212369   1.136   3.695  12.112 -0.8244 -0.6826  0.5030
  838MPD2    C312370   1.112   3.676  12.244  0.4492  0.0765  0.4437
  838MPD2    C412371   1.187   3.750  12.336  0.2778  0.7182  0.1821
  838MPD2    C512372   1.270   3.844  12.287 -0.6936 -0.1447 -0.4297
  838MPD2     H12373   1.084   3.638  12.036  2.7570 -0.5957 -1.9946
  838MPD2    H112374   1.180   3.746  12.444 -3.7226  0.1805 -0.0686
  838MPD2    H212375   1.362   3.941  12.119 -0.5976 -0.2563 -0.1227
  838MPD2    H312376   1.316   3.908  12.362  0.4924 -0.3323 -0.9915
  838MPD2     N12377   1.011   3.592  12.285 -0.2109  0.4646  0.1570
  838MPD2    H512378   0.956   3.540  12.217  1.5247  1.2805 -1.8543
  838MPD2    N112379   1.249   3.785  11.916  0.5026 -1.0254 -0.6244
  838MPD2    H712380   1.199   3.718  11.858  1.4009  0.5815 -3.2713
  839MPD2     C12381   0.856   3.201  11.825 -0.3613 -0.0669  0.7388
  839MPD2    C112382   0.884   3.214  11.689  0.2893  0.4145  0.5973
  839MPD2    C212383   0.973   3.312  11.642  0.0519  0.1986 -0.1102
  839MPD2    C312384   1.046   3.390  11.739 -0.6245 -0.6941  0.3909
  839MPD2    C412385   1.023   3.366  11.870 -0.2445 -0.3552 -0.4612
  839MPD2    C512386   0.930   3.272  11.915  0.2449  0.5455 -0.2115
  839MPD2     H12387   0.999   3.308  11.537  0.8481  2.2160  0.0075
  839MPD2    H112388   1.083   3.411  11.948 -0.0288  0.9392 -1.3677
  839MPD2    H212389   0.796   3.120  11.866 -2.4217  1.4999  0.8128
  839MPD2    H312390   0.909   3.251  12.019  2.1655 -0.1330  0.0396
  839MPD2     N12391   1.138   3.490  11.697 -0.0411  0.6785 -0.1868
  839MPD2    H512392   1.207   3.519  11.765 -0.7157 -0.1928  0.8665
  839MPD2    N112393   0.821   3.139  11.588 -0.4446  0.3098 -0.0325
  839MPD2    H712394   0.845   3.146  11.490 -0.6190 -2.0995 -0.2365
  840MPD2     C12395   1.219   1.476  10.548  0.1872 -0.3187 -0.3572
  840MPD2    C112396   1.205   1.401  10.663 -0.9787 -0.5650 -0.2048
  840MPD2    C212397   1.282   1.442  10.769  0.1607  0.3940 -0.3714
  840MPD2    C312398   1.363   1.556  10.772  0.6685 -0.4304  0.1335
  840MPD2    C412399   1.374   1.628  10.663 -0.4517  0.3461  0.5108
  840MPD2    C512400   1.295   1.589  10.550  0.0149 -1.0984 -0.0074
  840MPD2     H12401   1.292   1.372  10.851  1.5706  1.4737  0.3877
  840MPD2    H112402   1.440   1.713  10.664 -0.1509  0.1299 -0.3594
  840MPD2    H212403   1.168   1.453  10.455  0.3204  1.0464 -0.7593
  840MPD2    H312404   1.298   1.667  10.474 -2.7939 -0.9067  0.0843
  840MPD2     N12405   1.461   1.589  10.877  0.1405  0.1800  0.0029
  840MPD2    H512406   1.512   1.677  10.870 -0.0560  0.2028 -1.0431
  840MPD2    N112407   1.110   1.295  10.660 -0.0404  0.1801  0.5334
  840MPD2    H712408   1.072   1.266  10.570 -0.3368 -0.5202  0.8841
  841MPD2     C12409   0.464   1.366  14.856  0.0655 -0.0085 -0.3194
  841MPD2    C112410   0.526   1.250  14.810  0.5498 -0.5679  0.6498
  841MPD2    C212411   0.665   1.247  14.780  0.8201  0.3008  0.2861
  841MPD2    C312412   0.739   1.355  14.814  0.0097 -0.3958  0.5431
  841MPD2    C412413   0.678   1.469  14.854 -0.0082  0.0452 -0.5484
  841MPD2    C512414   0.541   1.477  14.874  0.6808  0.1028  0.1575
  841MPD2     H12415   0.704   1.153  14.743 -0.9265 -0.2872 -0.0559
  841MPD2    H112416   0.734   1.550  14.899  1.5061 -1.4713  0.3109
  841MPD2    H212417   0.356   1.375  14.859  0.3118  3.3516 -1.2386
  841MPD2    H312418   0.488   1.566  14.907  2.8916  1.3951  0.2550
  841MPD2     N12419   0.876   1.328  14.833  0.9146  0.3849  0.8600
  841MPD2    H512420   0.913   1.236  14.808  0.2436  0.4740 -0.4960
  841MPD2    N112421   0.460   1.133  14.803  0.2879 -0.0861 -0.3385
  841MPD2    H712422   0.514   1.059  14.758  0.5480 -0.1198  0.0300
  842MPD2     C12423   1.844   2.030  16.932 -0.2959  0.3782 -0.0296
  842MPD2    C112424   1.733   1.944  16.914 -0.3022 -0.3742 -0.7648
  842MPD2    C212425   1.679   1.874  17.023 -0.0462  0.0426  0.7049
  842MPD2    C312426   1.722   1.905  17.157 -0.4310 -0.0663  0.1628
  842MPD2    C412427   1.824   1.998  17.168  0.5552  0.0585  0.2388
  842MPD2    C512428   1.884   2.049  17.057  0.2583 -0.2408 -0.0396
  842MPD2     H12429   1.589   1.814  17.013 -2.4948  3.3902  2.8457
  842MPD2    H112430   1.863   2.023  17.266 -0.6190  0.3789  0.6247
  842MPD2    H212431   1.896   2.089  16.856 -0.7379 -0.3143 -0.8699
  842MPD2    H312432   1.968   2.117  17.066  0.2033 -0.2072  0.2285
  842MPD2     N12433   1.665   1.862  17.278  0.1987  0.5328  0.1443
  842MPD2    H512434   1.721   1.891  17.357  0.4542  0.6918 -0.0944
  842MPD2    N112435   1.683   1.929  16.781  0.0286  0.3431 -0.1556
  842MPD2    H712436   1.721   2.002  16.722 -1.1018  0.9402 -0.1452
  843MPD2     C12437   3.854   1.413   0.100 -0.3087 -0.7033  0.0183
  843MPD2    C112438   3.984   1.393   0.134 -0.8513  0.0316  0.6268
  843MPD2    C212439   4.076   1.502   0.133 -0.1869 -0.1865 -0.4528
  843MPD2    C312440   4.032   1.620   0.083  0.0175 -0.0426 -0.4221
  843MPD2    C412441   3.902   1.636   0.046 -0.6766 -0.2882  0.3508
  843MPD2    C512442   3.810   1.535   0.054 -0.3218 -0.0886  0.5433
  843MPD2     H12443   4.181   1.489   0.155  0.2528  1.4709 -1.6043
  843MPD2    H112444   3.856   1.727   0.010 -0.4954  0.0627  0.9968
  843MPD2    H212445   3.793   1.324   0.102  0.6079 -1.3051  1.2297
  843MPD2    H312446   3.708   1.555   0.020 -0.5695  0.0596  1.3799
  843MPD2     N12447   4.112   1.734   0.059  0.1263  0.2878  0.2804
  843MPD2    H512448   4.078   1.809   0.000  2.1822  1.2794  0.3637
  843MPD2    N112449   4.025   1.268   0.171  0.0976  0.0247  0.8454
  843MPD2    H712450   3.954   1.199   0.192 -0.0906  0.0299  0.2196
  844MPD2     C12451   2.053   1.253  16.490 -0.1248  0.0533 -0.5167
  844MPD2    C112452   2.175   1.218  16.434 -0.9220 -0.0640  0.3218
  844MPD2    C212453   2.288   1.286  16.468 -0.5017 -0.1749  0.4691
  844MPD2    C312454   2.277   1.392  16.556 -1.1035 -0.0057 -0.3950
  844MPD2    C412455   2.164   1.426  16.615 -0.3010  0.3741  0.2496
  844MPD2    C512456   2.048   1.362  16.577  0.0948  0.5595  0.6161
  844MPD2     H12457   2.381   1.257  16.423  1.4065  3.0813  2.3350
  844MPD2    H112458   2.165   1.497  16.697 -0.4343  1.2441 -0.4936
  844MPD2    H212459   1.966   1.197  16.456 -0.1777  0.4132 -0.9767
  844MPD2    H312460   1.957   1.387  16.630 -0.7419 -3.5212  1.1172
  844MPD2     N12461   2.397   1.459  16.578  0.5842 -0.2712  0.6422
  844MPD2    H512462   2.481   1.407  16.554 -0.2688 -1.2921 -0.1623
  844MPD2    N112463   2.192   1.119  16.336 -0.9818 -0.2549  0.0112
  844MPD2    H712464   2.283   1.094  16.298 -0.8029 -0.6812  0.7114
  845MPD2     C12465   2.699   2.421  16.698  0.6049  0.0752  0.3669
  845MPD2    C112466   2.715   2.354  16.814 -0.4936 -0.3596 -0.1215
  845MPD2    C212467   2.710   2.216  16.818 -0.3802 -0.1846 -0.4214
  845MPD2    C312468   2.689   2.138  16.700 -0.1156  0.2383  0.4907
  845MPD2    C412469   2.671   2.209  16.581 -1.2732 -0.8097 -0.0821
  845MPD2    C512470   2.672   2.347  16.584 -0.0883 -0.0697 -1.4702
  845MPD2     H12471   2.701   2.177  16.919  1.4778  1.3704  0.3400
  845MPD2    H112472   2.652   2.156  16.489 -0.1986 -3.1053  1.0135
  845MPD2    H212473   2.713   2.528  16.693  1.8121 -0.0315  1.9005
  845MPD2    H312474   2.653   2.409  16.497  0.8044  2.1193 -0.1025
  845MPD2     N12475   2.681   1.997  16.704 -0.2132  0.1075 -0.0560
  845MPD2    H512476   2.645   1.946  16.624  2.6342 -0.9140 -0.6944
  845MPD2    N112477   2.732   2.431  16.924  0.4031  0.2502 -0.3151
  845MPD2    H712478   2.713   2.531  16.916  2.5216  0.5400 -1.6620
  846MPD2     C12479   3.955   2.760  13.769  0.5511 -0.0962  0.0254
  846MPD2    C112480   3.825   2.805  13.767  0.8355  0.1760  0.1231
  846MPD2    C212481   3.763   2.824  13.884 -0.7606 -0.0226 -0.2875
  846MPD2    C312482   3.828   2.799  14.003 -0.2377  0.2356 -0.3498
  846MPD2    C412483   3.954   2.751  14.002  0.5536 -0.2097  0.0752
  846MPD2    C512484   4.015   2.734  13.881  0.3073 -0.2435 -0.3094
  846MPD2     H12485   3.667   2.875  13.880  0.5829  2.5523  0.4054
  846MPD2    H112486   4.007   2.735  14.095 -1.0066 -0.9790  0.8533
  846MPD2    H212487   4.010   2.743  13.678  0.8405  4.2115 -0.5577
  846MPD2    H312488   4.118   2.700  13.870 -0.6009 -2.5056 -1.8569
  846MPD2     N12489   3.756   2.822  14.124  0.0535  0.3006 -0.2537
  846MPD2    H512490   3.655   2.821  14.125  0.0826 -1.4076  0.8148
  846MPD2    N112491   3.763   2.834  13.648  0.2979 -0.1861 -0.2610
  846MPD2    H712492   3.686   2.901  13.645 -0.5765 -1.1751  0.3193
  847MPD2     C12493   4.317   3.747  14.726 -0.6381  0.9220  0.2189
  847MPD2    C112494   4.322   3.866  14.673 -0.2383 -0.2693  0.4014
  847MPD2    C212495   4.442   3.922  14.639 -1.0480 -0.5545 -0.0804
  847MPD2    C312496   4.557   3.857  14.671  0.2084  0.6024 -0.2825
  847MPD2    C412497   4.552   3.739  14.745 -0.0030  0.4713 -0.2316
  847MPD2    C512498   4.429   3.683  14.769 -0.1990  0.2427  0.2981
  847MPD2     H12499   4.435   4.015  14.585 -3.2262  0.1287  1.3667
  847MPD2    H112500   4.637   3.676  14.770 -1.3630 -1.3775 -0.2376
  847MPD2    H212501   4.219   3.710  14.755 -0.6525  0.6906 -0.1239
  847MPD2    H312502   4.418   3.594  14.831  1.5107  0.1197  0.4206
  847MPD2     N12503   4.681   3.923  14.637  0.5745 -0.2674 -0.4640
  847MPD2    H512504   4.674   4.015  14.595  2.0743  0.4101  0.7377
  847MPD2    N112505   4.206   3.940  14.632  0.1086 -0.1727 -0.5375
  847MPD2    H712506   4.232   4.026  14.585 -0.7875 -0.5866 -1.7948
  848MPD2     C12507   1.957   1.977  16.351  0.0936  0.2676  0.4801
  848MPD2    C112508   2.020   2.005  16.469  0.0812 -0.6582  0.4539
  848MPD2    C212509   2.085   2.133  16.479 -0.0162 -0.8075 -0.1457
  848MPD2    C312510   2.076   2.235  16.387 -0.0445  0.3092  0.0759
  848MPD2    C412511   2.007   2.193  16.268  0.0073 -0.6587  0.0989
  848MPD2    C512512   1.957   2.069  16.246  0.4025  0.0313 -0.5972
  848MPD2     H12513   2.135   2.153  16.573 -0.0971 -0.3512 -0.2004
  848MPD2    H112514   1.994   2.265  16.188 -1.9535 -0.0981  0.9180
  848MPD2    H212515   1.896   1.890  16.331 -0.6245  0.1849  3.1091
  848MPD2    H312516   1.913   2.054  16.148 -0.1770 -1.7501 -0.0573
  848MPD2     N12517   2.133   2.359  16.395 -0.1902 -0.3603  0.0241
  848MPD2    H512518   2.151   2.413  16.311 -1.1264 -1.0886 -0.6334
  848MPD2    N112519   1.999   1.930  16.585 -0.1191 -0.7870 -0.1152
  848MPD2    H712520   2.051   1.963  16.666  0.6122 -0.3096 -0.7922
  849MPD2     C12521   0.976   1.607  14.075  0.3981 -0.1936  0.3685
  849MPD2    C112522   1.111   1.617  14.049  0.1795 -0.7175  0.3799
  849MPD2    C212523   1.202   1.582  14.145  0.1612 -0.1484  0.0185
  849MPD2    C312524   1.167   1.547  14.275  0.3161 -0.1433 -0.5873
  849MPD2    C412525   1.032   1.544  14.305 -0.5284 -0.5050  1.0749
  849MPD2    C512526   0.944   1.577  14.204 -0.8444 -0.0595 -0.4270
  849MPD2     H12527   1.305   1.587  14.114  0.4409  1.8820  1.2644
  849MPD2    H112528   0.996   1.513  14.403 -2.3944  0.0124  0.5565
  849MPD2    H212529   0.892   1.631  14.011  2.4823  1.4719 -1.7581
  849MPD2    H312530   0.840   1.561  14.228 -0.2327 -0.2257  2.0982
  849MPD2     N12531   1.276   1.498  14.351 -0.1046 -0.2135 -0.0377
  849MPD2    H512532   1.359   1.469  14.299  0.6687 -1.6322  2.0004
  849MPD2    N112533   1.164   1.681  13.931  0.4611  0.2157 -0.5728
  849MPD2    H712534   1.263   1.701  13.921  0.5976  0.0635  0.4708
  850MPD2     C12535   4.252   4.175  14.953  0.1778 -0.8712 -0.2604
  850MPD2    C112536   4.234   4.308  14.983  0.1420  0.4623 -0.5746
  850MPD2    C212537   4.353   4.385  14.977 -0.0229 -0.1374  0.5269
  850MPD2    C312538   4.481   4.331  14.958  0.0159 -0.2830  0.4888
  850MPD2    C412539   4.496   4.201  14.915 -0.6152 -0.1721  0.2742
  850MPD2    C512540   4.378   4.122  14.928 -0.1964 -0.4238  0.3805
  850MPD2     H12541   4.342   4.493  14.979  0.0147 -0.1455  1.6031
  850MPD2    H112542   4.588   4.156  14.880 -1.2061  1.3636 -3.2491
  850MPD2    H212543   4.167   4.108  14.963 -1.6601  1.0639 -2.8641
  850MPD2    H312544   4.396   4.016  14.920  2.4830  0.1740 -1.5535
  850MPD2     N12545   4.585   4.416  14.966  0.3417  0.3731 -0.2822
  850MPD2    H512546   4.671   4.369  14.938 -0.3396 -0.1958 -1.4348
  850MPD2    N112547   4.101   4.355  15.023 -0.2735 -0.2146 -0.3013
  850MPD2    H712548   4.028   4.293  14.990  0.2272 -0.5579 -0.7775
  851MPD2     C12549   4.459   4.393  15.816 -0.1975 -0.0460 -0.0687
  851MPD2    C112550   4.453   4.344  15.684 -0.2798 -0.6159 -0.5523
  851MPD2    C212551   4.497   4.210  15.668 -0.1807  0.5758 -0.3964
  851MPD2    C312552   4.531   4.128  15.769 -0.1877 -0.7270  0.4428
  851MPD2    C412553   4.539   4.174  15.900 -0.1939  0.0117 -0.0132
  851MPD2    C512554   4.503   4.315  15.919 -0.4519  0.2872 -0.1712
  851MPD2     H12555   4.507   4.174  15.566 -0.0213  0.9261 -0.5064
  851MPD2    H112556   4.573   4.110  15.981 -2.5387  0.2648  1.1622
  851MPD2    H212557   4.416   4.486  15.851 -1.3162  0.1521 -1.9365
  851MPD2    H312558   4.483   4.347  16.021  1.6971  1.7055 -0.2085
  851MPD2     N12559   4.568   3.996  15.728  0.2204 -0.2898 -0.0749
  851MPD2    H512560   4.543   3.990  15.630 -1.1741  2.8217  0.0991
  851MPD2    N112561   4.384   4.418  15.593 -0.4960 -0.3925 -0.3479
  851MPD2    H712562   4.345   4.505  15.629 -0.5993 -0.0461 -1.3034
  852MPD2     C12563   3.396   2.461  10.258 -0.3362 -0.6221  0.2639
  852MPD2    C112564   3.410   2.451  10.392  0.6049 -0.1195 -0.3669
  852MPD2    C212565   3.498   2.541  10.450 -0.5462 -0.2012  0.5428
  852MPD2    C312566   3.564   2.636  10.377  0.3756  0.1992 -0.5720
  852MPD2    C412567   3.534   2.648  10.244 -0.2527 -0.0890 -0.3320
  852MPD2    C512568   3.460   2.553  10.177 -0.2084 -0.1304 -0.6126
  852MPD2     H12569   3.522   2.533  10.556 -0.5312 -1.6670  0.4304
  852MPD2    H112570   3.584   2.720  10.179 -0.4275  1.3126  1.0806
  852MPD2    H212571   3.329   2.399  10.199 -0.6111 -1.7036  1.7159
  852MPD2    H312572   3.420   2.568  10.077  2.5449 -0.4019 -1.7594
  852MPD2     N12573   3.654   2.720  10.436  0.0883 -0.8308 -0.5473
  852MPD2    H512574   3.659   2.712  10.537 -0.3110  3.3133 -0.1857
  852MPD2    N112575   3.339   2.356  10.477 -0.1192 -0.5409  0.0568
  852MPD2    H712576   3.345   2.370  10.577  0.9949  0.2977 -0.1288
  853MPD2     C12577   0.859   2.009  12.284 -0.1895 -0.4504 -0.1109
  853MPD2    C112578   0.863   2.150  12.261  0.5068 -0.5827  0.5665
  853MPD2    C212579   0.874   2.191  12.126 -0.2784  0.3383 -1.3074
  853MPD2    C312580   0.883   2.103  12.014  0.2141 -0.0185  0.3310
  853MPD2    C412581   0.888   1.968  12.047  0.6600  0.5071 -0.8682
  853MPD2    C512582   0.882   1.927  12.174 -0.4771 -0.3872  1.4322
  853MPD2     H12583   0.869   2.297  12.105 -1.5509  0.5047 -0.1300
  853MPD2    H112584   0.895   1.892  11.970  0.9929 -0.4079  0.0619
  853MPD2    H212585   0.870   1.967  12.384 -5.0310 -3.0777 -0.7031
  853MPD2    H312586   0.871   1.821  12.196 -3.1536 -0.5697 -0.7198
  853MPD2     N12587   0.870   2.151  11.877 -0.0227 -0.3274 -0.1959
  853MPD2    H512588   0.874   2.085  11.800  1.1565 -1.4872  0.8487
  853MPD2    N112589   0.855   2.238  12.370  0.7739  0.3749  0.6429
  853MPD2    H712590   0.826   2.202  12.461 -0.5918  0.4660  0.2425
  854MPD2     C12591   1.927   1.966  12.573  0.4442 -0.4376  0.3868
  854MPD2    C112592   2.021   2.022  12.661 -0.0594  0.0184  0.1083
  854MPD2    C212593   2.105   1.935  12.731 -0.6670 -0.0135 -0.9279
  854MPD2    C312594   2.113   1.805  12.701 -0.5259 -0.2097 -0.3374
  854MPD2    C412595   2.033   1.751  12.607 -0.1424 -0.2983  0.4575
  854MPD2    C512596   1.939   1.834  12.539 -0.2532 -0.6646 -0.5821
  854MPD2     H12597   2.178   1.966  12.805  0.1583 -3.2565 -0.3583
  854MPD2    H112598   2.046   1.646  12.584 -0.6859 -0.9284  3.0216
  854MPD2    H212599   1.868   2.032  12.510  1.6146  1.9040  1.7062
  854MPD2    H312600   1.869   1.789  12.469  0.2690 -1.2016 -0.7616
  854MPD2     N12601   2.216   1.718  12.746  0.3638  0.1348 -0.5201
  854MPD2    H512602   2.198   1.621  12.724  2.5848 -0.6870  1.2370
  854MPD2    N112603   2.031   2.159  12.676  0.5132 -0.2688 -0.0795
  854MPD2    H712604   1.958   2.210  12.627  0.9741  0.3561 -0.1199
  855MPD2     C12605   3.082   1.817  13.313  0.0405 -0.0479 -0.9222
  855MPD2    C112606   2.972   1.745  13.368  0.1610  0.2195 -0.3677
  855MPD2    C212607   2.860   1.716  13.301  0.1977 -0.4275  0.4837
  855MPD2    C312608   2.862   1.738  13.169 -0.5053 -0.3203  0.3157
  855MPD2    C412609   2.961   1.809  13.108  0.6852 -0.4722  0.5137
  855MPD2    C512610   3.075   1.845  13.178  0.5668 -0.1078 -0.1597
  855MPD2     H12611   2.772   1.668  13.344 -0.0766  0.9442  1.4473
  855MPD2    H112612   2.963   1.841  13.004  0.5502 -1.0732  0.3281
  855MPD2    H212613   3.172   1.831  13.372  0.2491 -2.4294 -0.6602
  855MPD2    H312614   3.144   1.908  13.124  0.1629 -0.4972 -1.1381
  855MPD2     N12615   2.754   1.683  13.094  0.1544 -0.2377  0.4587
  855MPD2    H512616   2.681   1.637  13.147  0.7490  1.3069  2.6513
  855MPD2    N112617   2.967   1.698  13.506  0.2809  0.6578  0.3939
  855MPD2    H712618   2.880   1.656  13.537  1.1000 -0.5928  1.0121
  856MPD2     C12619   0.179   2.646  14.037 -0.4528  0.0502  0.0738
  856MPD2    C112620   0.261   2.750  13.995  0.4647 -0.8939 -0.1863
  856MPD2    C212621   0.210   2.837  13.901  0.1287  0.8222 -0.0441
  856MPD2    C312622   0.097   2.816  13.825 -0.7483 -0.1528 -0.2131
  856MPD2    C412623   0.032   2.695  13.849  0.5249 -0.0424 -0.3707
  856MPD2    C512624   0.064   2.617  13.962 -0.2412 -0.6474 -0.5935
  856MPD2     H12625   0.267   2.929  13.897  2.9376 -0.8561  0.6181
  856MPD2    H112626   4.688   2.664  13.785 -1.3705  2.1153  1.0343
  856MPD2    H212627   0.207   2.578  14.116  1.6602  0.7291 -0.0836
  856MPD2    H312628   0.004   2.529  13.983 -0.7534  0.0369  0.8028
  856MPD2     N12629   0.055   2.894  13.714 -0.4006 -0.1830 -0.0657
  856MPD2    H512630   0.005   2.852  13.636  0.2375  1.5922 -1.4114
  856MPD2    N112631   0.390   2.786  14.038 -0.7346  0.3302 -0.3904
  856MPD2    H712632   0.436   2.867  13.998  0.4388  0.5338  1.3718
  857MPD2     C12633   1.628   0.606  12.433  0.2624 -0.0703  0.3763
  857MPD2    C112634   1.686   0.546  12.543  0.7143  1.2975 -0.6538
  857MPD2    C212635   1.753   0.623  12.637  0.4517  0.7093  0.3457
  857MPD2    C312636   1.764   0.761  12.619 -0.2390 -0.0914 -0.0390
  857MPD2    C412637   1.719   0.817  12.500  0.5036  0.0856 -1.0164
  857MPD2    C512638   1.648   0.740  12.413  0.3864  0.5666  0.2421
  857MPD2     H12639   1.783   0.585  12.734 -1.2037 -0.2965  0.4757
  857MPD2    H112640   1.725   0.924  12.481  0.6479  0.7078  2.6238
  857MPD2    H212641   1.563   0.556  12.362 -0.9702  2.3826 -0.2207
  857MPD2    H312642   1.617   0.784  12.319  1.3604  0.5618 -0.0814
  857MPD2     N12643   1.832   0.836  12.722  0.0582  0.1995 -0.0881
  857MPD2    H512644   1.878   0.784  12.796  1.1060  2.4678  0.8714
  857MPD2    N112645   1.648   0.410  12.562 -0.3183  0.7095 -0.9623
  857MPD2    H712646   1.579   0.378  12.495 -0.4831 -2.5531  0.8005
  858MPD2     C12647   2.558   4.271  16.711  0.1009  0.4061  0.6336
  858MPD2    C112648   2.644   4.172  16.741 -0.6180  0.4865 -0.1986
  858MPD2    C212649   2.677   4.152  16.869 -0.2538  0.0846 -0.6879
  858MPD2    C312650   2.633   4.234  16.975 -0.6339 -0.0922  0.2095
  858MPD2    C412651   2.549   4.339  16.941 -0.1883  0.2850 -0.4101
  858MPD2    C512652   2.504   4.357  16.809 -0.8152 -0.2083 -0.7535
  858MPD2     H12653   2.734   4.062  16.892 -1.7687 -0.0377  2.5961
  858MPD2    H112654   2.516   4.407  17.018  0.3989  0.6510 -0.4785
  858MPD2    H212655   2.549   4.299  16.607 -1.4875 -2.6491 -0.0642
  858MPD2    H312656   2.450   4.447  16.783  0.1481  0.7127  0.4514
  858MPD2     N12657   2.661   4.214  17.111 -0.3400  0.0317  0.2264
  858MPD2    H512658   2.612   4.270  17.180  0.1635  1.2157 -0.3783
  858MPD2    N112659   2.677   4.079  16.641  0.1318  0.1800 -0.0883
  858MPD2    H712660   2.628   4.078  16.552  0.4392 -1.9059 -0.2491
  859MPD2     C12661   1.140   2.024  15.778  0.3339  0.2720  0.4732
  859MPD2    C112662   1.132   1.930  15.680 -0.3942 -1.1104  0.2442
  859MPD2    C212663   1.095   1.806  15.718  0.4562  0.0655 -0.7443
  859MPD2    C312664   1.051   1.767  15.841 -0.7543 -0.2756  0.0520
  859MPD2    C412665   1.050   1.863  15.935 -0.0921  0.1399 -0.6578
  859MPD2    C512666   1.094   1.994  15.905 -0.7518 -0.0711 -0.6602
  859MPD2     H12667   1.106   1.726  15.646  2.5920 -0.3191  0.0148
  859MPD2    H112668   1.030   1.840  16.039  0.8164 -0.2476 -0.5609
  859MPD2    H212669   1.192   2.117  15.759  0.6874 -0.6878 -3.2328
  859MPD2    H312670   1.100   2.068  15.984  0.8985  0.0111 -0.8659
  859MPD2     N12671   1.005   1.637  15.872 -0.4187 -0.5159 -0.1602
  859MPD2    H512672   0.996   1.622  15.972 -0.7619  4.2715  0.5034
  859MPD2    N112673   1.183   1.959  15.551 -0.3565 -0.1221  0.1412
  859MPD2    H712674   1.249   2.035  15.543 -0.4727 -0.2327 -1.9369
  860MPD2     C12675   3.842   2.177  11.887  0.7250  0.4502  0.3607
  860MPD2    C112676   3.780   2.189  12.011 -0.2466 -0.8844 -0.2520
  860MPD2    C212677   3.663   2.119  12.027  0.0634  0.3230 -0.2083
  860MPD2    C312678   3.611   2.038  11.931 -0.2245  0.2348 -0.3040
  860MPD2    C412679   3.675   2.029  11.808 -0.2927 -0.5597  0.2635
  860MPD2    C512680   3.793   2.096  11.788  0.0934 -0.3653  0.3672
  860MPD2     H12681   3.615   2.120  12.124  0.6906 -0.8589  0.1216
  860MPD2    H112682   3.656   1.962  11.725 -0.3689  0.9148 -0.8959
  860MPD2    H212683   3.937   2.227  11.874  1.8160 -0.9873  2.8218
  860MPD2    H312684   3.855   2.089  11.699 -0.7297  3.6748 -0.5391
  860MPD2     N12685   3.494   1.966  11.966  0.4245  0.1336  0.2415
  860MPD2    H512686   3.461   1.983  12.061  0.1432  1.4327 -0.0969
  860MPD2    N112687   3.822   2.272  12.121  0.1380  0.4936 -0.1487
  860MPD2    H712688   3.763   2.274  12.204  0.6840 -0.6122  0.2662
  861MPD2     C12689   2.067   4.520  11.070 -0.3573  0.6228 -0.0325
  861MPD2    C112690   2.092   4.647  11.086 -0.5510 -0.2717  0.2284
  861MPD2    C212691   2.037   4.736  10.999 -0.3850 -0.1470 -0.0452
  861MPD2    C312692   1.947   4.703  10.900 -0.5837 -0.2463  0.1752
  861MPD2    C412693   1.926   4.568  10.881 -0.1047 -0.2072 -0.2141
  861MPD2    C512694   2.002   4.479  10.956 -0.3021 -0.0300 -0.7287
  861MPD2     H12695   2.068   0.102  11.005  1.6062 -0.8083  0.8485
  861MPD2    H112696   1.877   4.527  10.793  0.7481 -1.2888 -0.1871
  861MPD2    H212697   2.112   4.441  11.128  0.5696  1.2075  0.0422
  861MPD2    H312698   1.999   4.372  10.940 -1.7761 -0.0215 -0.5493
  861MPD2     N12699   1.874   0.062  10.828 -0.6129  0.1789 -0.1756
  861MPD2    H512700   1.792   0.021  10.784  0.6696 -0.9248 -1.5607
  861MPD2    N112701   2.176   4.700  11.186  0.0884  0.0524 -0.4312
  861MPD2    H712702   2.186   0.063  11.188  0.3108  0.0327 -0.5220
  862MPD2     C12703   1.167   0.133  10.749 -0.6040  0.4047  0.0267
  862MPD2    C112704   1.260   0.121  10.856 -0.9596  0.5699  0.1916
  862MPD2    C212705   1.230   0.045  10.967 -0.0336 -0.4552  0.0273
  862MPD2    C312706   1.108   4.728  10.974  0.0410  0.3914  0.7858
  862MPD2    C412707   1.017   4.737  10.874  0.3688  0.0146  0.0480
  862MPD2    C512708   1.046   0.069  10.756 -0.6894  0.1904  0.4505
  862MPD2     H12709   1.312   0.036  11.037 -1.3885 -0.1504  1.6705
  862MPD2    H112710   0.925   4.681  10.883 -0.2357  1.2479  1.4432
  862MPD2    H212711   1.190   0.183  10.656  1.3630  2.5773  1.6969
  862MPD2    H312712   0.982   0.073  10.669  1.0187 -0.1328 -0.8186
  862MPD2     N12713   1.072   4.636  11.079 -0.4159 -0.2685  0.3216
  862MPD2    H512714   0.980   4.596  11.072  0.7542 -2.9013  0.0580
  862MPD2    N112715   1.386   0.176  10.852  0.1211  0.1408 -0.1417
  862MPD2    H712716   1.451   0.158  10.928 -1.2933  0.0685  1.0511
  863MPD2     C12717   1.027   2.851  16.427  0.5378  0.5582  0.5507
  863MPD2    C112718   0.951   2.904  16.530 -0.0022 -0.1999  0.3627
  863MPD2    C212719   0.974   2.858  16.664 -0.5308 -0.0435 -0.0042
  863MPD2    C312720   1.085   2.781  16.704  0.3452  0.1270 -0.5827
  863MPD2    C412721   1.164   2.736  16.600 -0.5001  0.1093  0.0710
  863MPD2    C512722   1.130   2.763  16.464  1.2326 -0.3676  1.0223
  863MPD2     H12723   0.915   2.904  16.743  0.6123  0.1076  0.7597
  863MPD2    H112724   1.250   2.674  16.619 -1.4465 -1.7606 -1.6891
  863MPD2    H212725   1.016   2.876  16.322  1.0340 -2.2227 -0.1868
  863MPD2    H312726   1.196   2.721  16.389  0.6007  1.6755 -0.6677
  863MPD2     N12727   1.109   2.743  16.834 -0.4903  0.1742  0.5080
  863MPD2    H512728   1.199   2.704  16.860 -1.3775 -0.9582  1.8272
  863MPD2    N112729   0.853   3.003  16.492 -0.1261  0.4175 -0.4061
  863MPD2    H712730   0.841   3.017  16.393  3.1815  1.7724 -0.6160
  864MPD2     C12731   1.506   3.900  17.397  0.4449 -0.0624 -0.0596
  864MPD2    C112732   1.574   3.828  17.302  0.2089 -0.7440  0.1496
  864MPD2    C212733   1.710   3.861  17.281  0.1707 -0.8663  0.0657
  864MPD2    C312734   1.769   3.975  17.340  0.3342 -0.3407  0.0660
  864MPD2    C412735   1.690   4.049  17.430  0.2907  0.1020  0.3465
  864MPD2    C512736   1.560   4.006  17.457  0.1986 -0.1734 -0.2017
  864MPD2     H12737   1.778   3.802  17.221  0.4962  0.5595 -0.9655
  864MPD2    H112738   1.731   4.139  17.474  0.2986 -0.7657  2.1027
  864MPD2    H212739   1.401   3.878  17.413  0.2065  1.1473  0.0471
  864MPD2    H312740   1.504   4.050  17.538  1.7947  0.8080  0.3741
  864MPD2     N12741   1.908   4.010  17.321  0.5408  0.0067  0.1255
  864MPD2    H512742   1.946   4.084  17.380 -0.7679  1.3723 -0.7543
  864MPD2    N112743   1.510   3.712  17.243  0.5724  0.0677  0.3317
  864MPD2    H712744   1.430   3.666  17.282  0.8718  0.4525  1.3891
  865MPD2     C12745   1.957   4.418  16.540  0.5301 -0.1695  0.5638
  865MPD2    C112746   1.971   4.290  16.570 -0.4743  0.8805  0.5381
  865MPD2    C212747   2.004   4.255  16.703  0.1730 -0.3472  0.1609
  865MPD2    C312748   2.037   4.353  16.795 -0.6780 -0.0928  0.1186
  865MPD2    C412749   2.018   4.487  16.764 -0.3565 -0.0509  0.3079
  865MPD2    C512750   1.982   4.516  16.633 -0.5672  0.8020  0.2064
  865MPD2     H12751   1.989   4.152  16.731  1.4727 -0.4772  0.3734
  865MPD2    H112752   2.045   4.564  16.835 -3.1825  0.5971  0.6837
  865MPD2    H212753   1.914   4.443  16.444 -1.6098 -2.1220  1.0386
  865MPD2    H312754   1.965   4.622  16.616 -0.7551  0.7750  0.2187
  865MPD2     N12755   2.083   4.315  16.922 -0.3743 -0.2967  0.0427
  865MPD2    H512756   2.086   4.383  16.998 -0.7827 -0.2531  0.0204
  865MPD2    N112757   1.938   4.192  16.470  0.0435  0.0903 -0.2274
  865MPD2    H712758   1.913   4.233  16.380 -1.7935 -1.3523 -0.3801
  866MPD2     C12759   2.471   0.771  11.894 -0.2700  0.2983  0.2479
  866MPD2    C112760   2.553   0.721  11.791  0.3701 -0.2524 -0.3114
  866MPD2    C212761   2.495   0.681  11.676  0.0264  0.4557 -0.3138
  866MPD2    C312762   2.367   0.715  11.653  0.1599 -0.5452 -0.9400
  866MPD2    C412763   2.293   0.784  11.748  0.4299  0.9865  0.1256
  866MPD2    C512764   2.343   0.812  11.871 -0.4117 -0.4077 -1.0230
  866MPD2     H12765   2.551   0.619  11.607 -0.7797  0.8569 -1.3237
  866MPD2    H112766   2.197   0.827  11.724 -0.7457 -1.4046  0.6629
  866MPD2    H212767   2.521   0.789  11.988  0.4081  0.2386 -0.0994
  866MPD2    H312768   2.287   0.864  11.947  0.6868 -1.5562  0.5536
  866MPD2     N12769   2.297   0.685  11.535  0.0538 -0.0899 -0.4110
  866MPD2    H512770   2.201   0.719  11.539 -0.0019 -0.2795 -0.0792
  866MPD2    N112771   2.686   0.684  11.819  0.9508  0.0577 -0.5198
  866MPD2    H712772   2.732   0.708  11.907 -0.3028 -1.3724  0.5264
  867MPD2     C12773   1.316   4.262  16.998 -0.0759 -0.6243 -0.6309
  867MPD2    C112774   1.279   4.181  17.098 -0.0835  0.5688 -0.1945
  867MPD2    C212775   1.310   4.210  17.232 -0.2289 -0.4956 -0.7417
  867MPD2    C312776   1.367   4.333  17.262 -0.0292 -0.3256  0.3921
  867MPD2    C412777   1.415   4.414  17.159  0.2727  0.0914  0.3582
  867MPD2    C512778   1.384   4.378  17.027 -0.2179 -0.8331 -0.2120
  867MPD2     H12779   1.270   4.138  17.304 -0.4478 -0.7611 -1.1291
  867MPD2    H112780   1.449   4.516  17.177 -0.0321  0.6377 -2.0445
  867MPD2    H212781   1.294   4.231  16.896 -1.3206  1.3122 -0.9532
  867MPD2    H312782   1.428   4.441  16.951 -1.5569  0.4723  0.1163
  867MPD2     N12783   1.383   4.374  17.397  0.0287 -0.5901  0.3333
  867MPD2    H512784   1.438   4.456  17.419 -2.0744  0.8821  0.1506
  867MPD2    N112785   1.206   4.070  17.057 -0.3253 -0.3608  0.0337
  867MPD2    H712786   1.198   4.054  16.957 -1.3742  0.2844  0.0069
  868MPD2     C12787   1.670   3.126  13.262  0.3320  0.2607 -0.3645
  868MPD2    C112788   1.760   3.224  13.234  0.1003  0.9089  1.2216
  868MPD2    C212789   1.720   3.351  13.252 -0.0230 -0.0571  0.1456
  868MPD2    C312790   1.600   3.389  13.308  0.2793 -0.4509 -0.1637
  868MPD2    C412791   1.504   3.292  13.320 -0.6002  0.4750  0.0065
  868MPD2    C512792   1.540   3.161  13.300  0.0441 -0.5003  0.4597
  868MPD2     H12793   1.795   3.428  13.241  0.9651 -0.8791  1.1889
  868MPD2    H112794   1.403   3.320  13.348 -0.5364  1.0186 -0.3031
  868MPD2    H212795   1.681   3.018  13.255 -1.1066  0.1628 -1.0134
  868MPD2    H312796   1.469   3.079  13.311 -0.8967 -0.0063 -2.0342
  868MPD2     N12797   1.578   3.524  13.347 -0.1241 -0.1675 -0.4790
  868MPD2    H512798   1.638   3.598  13.313 -0.6251 -0.0528 -1.1226
  868MPD2    N112799   1.896   3.200  13.197  0.3393  0.0295  0.3588
  868MPD2    H712800   1.961   3.274  13.176 -0.5211  0.8408  0.5478
  869MPD2     C12801   2.779   0.837   1.020 -0.5218 -0.1172 -0.5895
  869MPD2    C112802   2.877   0.872   0.931 -0.4605  0.2609 -0.1195
  869MPD2    C212803   2.996   0.799   0.941  0.1449  0.2298  0.3481
  869MPD2    C312804   3.023   0.709   1.047  0.2961 -0.2342 -0.1195
  869MPD2    C412805   2.929   0.690   1.144  0.1227  0.5479  0.5488
  869MPD2    C512806   2.805   0.753   1.126 -0.3175  0.0339  0.2408
  869MPD2     H12807   3.077   0.830   0.876  0.0840  0.3812  0.3452
  869MPD2    H112808   2.952   0.630   1.232 -0.9184 -1.0785 -0.2814
  869MPD2    H212809   2.686   0.891   1.010 -1.8017 -2.2042  0.0676
  869MPD2    H312810   2.736   0.738   1.208 -1.5203  1.8521 -0.4499
  869MPD2     N12811   3.156   0.661   1.071 -0.0140 -0.0181 -0.0807
  869MPD2    H512812   3.170   0.616   1.161  0.5631 -0.8545 -0.5975
  869MPD2    N112813   2.866   0.982   0.840  0.3066  0.0831 -0.7466
  869MPD2    H712814   2.782   1.036   0.857 -0.0838 -0.1766 -1.8638
  870MPD2     C12815   2.663   0.516   1.398  0.6131  0.0699 -0.1492
  870MPD2    C112816   2.683   0.409   1.315  0.3320 -0.3688 -0.0646
  870MPD2    C212817   2.574   0.366   1.241 -0.4791  0.1511 -0.3207
  870MPD2    C312818   2.448   0.418   1.258 -0.7478  0.1593 -0.2985
  870MPD2    C412819   2.437   0.523   1.344  0.3005 -0.2935  0.0836
  870MPD2    C512820   2.538   0.567   1.421 -0.3793  0.0441  0.9201
  870MPD2     H12821   2.573   0.274   1.183  1.6879 -0.2506  0.2746
  870MPD2    H112822   2.351   0.587   1.357  0.4017 -0.2922  0.7573
  870MPD2    H212823   2.748   0.559   1.450  0.6336 -1.1598  0.8365
  870MPD2    H312824   2.520   0.659   1.476 -0.8033  0.2292  0.4731
  870MPD2     N12825   2.338   0.369   1.191 -0.5907 -0.7096 -0.8370
  870MPD2    H512826   2.353   0.278   1.149 -1.5914 -1.5101  0.5545
  870MPD2    N112827   2.816   0.360   1.307  0.6331  0.4026 -0.6833
  870MPD2    H712828   2.896   0.391   1.360 -0.8819  1.8824  0.7625
  871MPD2     C12829   4.228   4.548  16.464 -0.4093  0.0830  0.2579
  871MPD2    C112830   4.168   4.484  16.563 -0.0796  0.6591  0.1989
  871MPD2    C212831   4.163   4.341  16.560  0.4581 -0.5883 -0.2300
  871MPD2    C312832   4.233   4.270  16.468  0.2543  0.2525 -0.2916
  871MPD2    C412833   4.296   4.336  16.362  0.4959  0.3090 -0.1292
  871MPD2    C512834   4.289   4.471  16.367  0.0988  0.2997 -0.4602
  871MPD2     H12835   4.114   4.290  16.642 -0.2331  1.9350  0.9364
  871MPD2    H112836   4.356   4.281  16.291  0.8187 -0.7264  0.9553
  871MPD2    H212837   4.223   4.656  16.464 -0.1069  0.0970 -4.6719
  871MPD2    H312838   4.341   4.531  16.292 -0.4790  1.1894 -0.1414
  871MPD2     N12839   4.224   4.128  16.472  0.4675 -0.2169  0.3987
  871MPD2    H512840   4.173   4.088  16.549  0.0089  0.5612  0.5048
  871MPD2    N112841   4.101   4.560  16.657  0.9164 -0.3351 -0.0063
  871MPD2    H712842   4.111   4.660  16.643  0.9135 -0.6150 -2.0102
  872MPD2     C12843   4.642   2.158  13.761 -0.3941  0.4740  0.3423
  872MPD2    C112844   4.669   2.294  13.778  0.6739  0.2362  0.5504
  872MPD2    C212845   4.568   2.387  13.818  0.2623 -0.5861  0.2174
  872MPD2    C312846   4.447   2.331  13.845  0.8415  0.1176 -0.6529
  872MPD2    C412847   4.416   2.207  13.805 -0.0834 -0.7257  0.9462
  872MPD2    C512848   4.513   2.124  13.760 -0.2409  0.7346 -0.5701
  872MPD2     H12849   4.584   2.491  13.843  1.3910 -0.2876 -1.7423
  872MPD2    H112850   4.318   2.163  13.820 -0.7538  0.1536 -0.8358
  872MPD2    H212851   4.719   2.088  13.730  1.3581  2.1059  0.9583
  872MPD2    H312852   4.488   2.021  13.735 -3.7304  1.3934  0.2048
  872MPD2     N12853   4.350   2.397  13.924 -0.6068 -0.0756  0.3593
  872MPD2    H512854   4.268   2.342  13.950 -1.5367  0.8438 -0.5914
  872MPD2    N112855   0.069   2.344  13.776  0.3434 -0.2696 -0.0939
  872MPD2    H712856   0.084   2.444  13.784 -1.2998 -0.0824  0.6524
  873MPD2     C12857   2.045   1.611   0.658 -0.1977 -0.0180 -0.3526
  873MPD2    C112858   1.936   1.674   0.722  0.6102  0.0993 -0.7575
  873MPD2    C212859   1.821   1.606   0.746 -0.3416 -0.1134 -0.0521
  873MPD2    C312860   1.813   1.470   0.701 -0.3672  0.0506  0.3196
  873MPD2    C412861   1.905   1.413   0.620  0.2147 -0.1750  0.0878
  873MPD2    C512862   2.021   1.481   0.604  0.3802  0.3257  0.2885
  873MPD2     H12863   1.747   1.645   0.815 -1.9590 -1.7499 -0.8693
  873MPD2    H112864   1.910   1.306   0.602  1.2047  0.0150 -0.6969
  873MPD2    H212865   2.142   1.649   0.629 -0.4689  0.4783 -0.6097
  873MPD2    H312866   2.108   1.440   0.554 -0.4291 -0.8201 -0.1801
  873MPD2     N12867   1.700   1.389   0.733  0.5732  0.4911  0.1944
  873MPD2    H512868   1.695   1.296   0.691  1.4483  1.2111 -1.4927
  873MPD2    N112869   1.959   1.797   0.786  0.3668  0.3683 -0.0625
  873MPD2    H712870   2.053   1.834   0.778  0.4721  0.0537 -0.2610
  874MPD2     C12871   1.560   2.364  16.096 -0.5591 -0.6550 -0.2480
  874MPD2    C112872   1.605   2.322  16.219  0.6625  0.4947  0.3546
  874MPD2    C212873   1.704   2.396  16.277  0.2000 -0.2627 -0.0554
  874MPD2    C312874   1.761   2.513  16.221  0.6607  0.4952 -0.6490
  874MPD2    C412875   1.705   2.548  16.102 -0.4481  0.2909  0.2592
  874MPD2    C512876   1.607   2.477  16.038  0.8595 -0.1220  0.5541
  874MPD2     H12877   1.745   2.374  16.375  2.4050  1.2015 -0.6356
  874MPD2    H112878   1.744   2.632  16.046 -0.4581 -0.8888 -1.5319
  874MPD2    H212879   1.493   2.294  16.049 -1.7374  0.9279 -0.9138
  874MPD2    H312880   1.571   2.510  15.941  2.9820  0.3513 -0.0854
  874MPD2     N12881   1.864   2.580  16.292 -0.5363  0.2143  0.0675
  874MPD2    H512882   1.902   2.532  16.373 -2.3075  1.2413  1.5015
  874MPD2    N112883   1.559   2.205  16.273 -0.2675  0.0335  0.1410
  874MPD2    H712884   1.498   2.153  16.210 -0.2850 -0.2513  0.3917
  875MPD2     C12885   2.789   0.556  14.515 -0.4833 -0.2580  0.3128
  875MPD2    C112886   2.669   0.556  14.586 -0.1452  0.8058 -0.0805
  875MPD2    C212887   2.678   0.608  14.716  0.1462 -0.4206 -0.0397
  875MPD2    C312888   2.794   0.656  14.773  0.3233 -0.2822 -0.3743
  875MPD2    C412889   2.904   0.652  14.693  0.8546  0.3848 -0.7206
  875MPD2    C512890   2.904   0.583  14.577  0.2053  0.4777 -0.2646
  875MPD2     H12891   2.590   0.596  14.779  0.3770 -3.0033 -0.2138
  875MPD2    H112892   3.000   0.671  14.739 -1.3180  0.1279  3.9127
  875MPD2    H212893   2.794   0.528  14.410  1.1931 -0.1613  0.3695
  875MPD2    H312894   2.993   0.585  14.516  0.4862 -3.2670  0.0207
  875MPD2     N12895   2.808   0.708  14.904  0.1048  0.0787 -0.8207
  875MPD2    H512896   2.893   0.762  14.915 -0.5718  1.4186 -2.0834
  875MPD2    N112897   2.547   0.515  14.532  0.6008  0.0956 -0.0287
  875MPD2    H712898   2.460   0.550  14.570  0.6863 -0.9997  1.1609
  876MPD2     C12899   1.478   2.017  15.968 -0.1098  0.4503 -0.6886
  876MPD2    C112900   1.607   1.991  15.921 -0.1138  0.0626  0.4713
  876MPD2    C212901   1.680   1.893  15.985 -0.7496  0.1952 -0.6285
  876MPD2    C312902   1.613   1.811  16.070 -0.4672 -0.0828  0.0662
  876MPD2    C412903   1.478   1.827  16.098  0.5455 -0.5695 -0.1395
  876MPD2    C512904   1.412   1.936  16.060  0.4854 -0.3999  0.2586
  876MPD2     H12905   1.781   1.874  15.951 -0.3763  0.9256  0.0642
  876MPD2    H112906   1.424   1.757  16.160 -1.3419  1.4156  0.4428
  876MPD2    H212907   1.423   2.107  15.943 -0.1103  0.4890 -0.5487
  876MPD2    H312908   1.309   1.955  16.088  1.0300  1.3425  1.0844
  876MPD2     N12909   1.674   1.687  16.100  0.3299 -0.0105 -1.1652
  876MPD2    H512910   1.759   1.666  16.049  0.9002  0.7243 -0.5044
  876MPD2    N112911   1.668   2.078  15.828 -0.3695  0.2016  0.4507
  876MPD2    H712912   1.605   2.145  15.785  0.9837  1.4754  0.4388
  877MPD2     C12913   1.402   2.425  15.267  0.2516 -0.0887 -0.3838
  877MPD2    C112914   1.539   2.446  15.256 -0.5502  0.1070  0.1101
  877MPD2    C212915   1.600   2.457  15.127 -0.2356  0.0855  0.4869
  877MPD2    C312916   1.519   2.462  15.015  0.2083 -0.1852 -0.1253
  877MPD2    C412917   1.382   2.453  15.028 -0.1755  0.3817  0.4618
  877MPD2    C512918   1.331   2.438  15.154  0.4777  0.3732 -0.0706
  877MPD2     H12919   1.706   2.472  15.114 -0.3584 -0.3801 -1.0640
  877MPD2    H112920   1.310   2.473  14.949 -2.3271  2.3862  2.9264
  877MPD2    H212921   1.347   2.426  15.361  1.1362 -2.3513  0.1428
  877MPD2    H312922   1.224   2.448  15.168  0.4507 -0.7582  0.5152
  877MPD2     N12923   1.562   2.494  14.876 -0.2589 -0.4500  0.2489
  877MPD2    H512924   1.483   2.488  14.812  0.2592 -0.9816 -0.3444
  877MPD2    N112925   1.633   2.436  15.359  0.2372  0.5003  0.4457
  877MPD2    H712926   1.729   2.426  15.327 -0.0996  0.3424 -0.4967
  878MPD2     C12927   1.656   1.397  13.088 -0.1118  0.2186  0.5924
  878MPD2    C112928   1.687   1.531  13.114 -0.4177 -0.4300 -0.0025
  878MPD2    C212929   1.616   1.587  13.218 -0.7619  0.2353  0.4379
  878MPD2    C312930   1.517   1.515  13.285  0.0514  1.0682  0.2484
  878MPD2    C412931   1.476   1.381  13.255 -0.0486 -0.5098 -0.0020
  878MPD2    C512932   1.560   1.326  13.162 -0.9161  0.4855 -0.1858
  878MPD2     H12933   1.632   1.692  13.239 -2.3911  0.7065 -0.6824
  878MPD2    H112934   1.398   1.326  13.306  0.0757  0.2211  0.9896
  878MPD2    H212935   1.721   1.340  13.024 -0.1995  1.5321 -0.6572
  878MPD2    H312936   1.541   1.223  13.132 -1.8674  0.2558  1.1800
  878MPD2     N12937   1.456   1.594  13.387 -0.0040  0.0249 -0.4048
  878MPD2    H512938   1.499   1.686  13.399  0.2163 -0.2713  1.0947
  878MPD2    N112939   1.775   1.595  13.027 -0.8456 -0.2023 -0.4046
  878MPD2    H712940   1.828   1.546  12.955 -1.3815 -0.6110 -0.5196
  879MPD2     C12941   1.641   3.188  16.938 -0.4735  0.3958  0.9259
  879MPD2    C112942   1.696   3.065  16.955 -0.3356  0.0905 -0.4970
  879MPD2    C212943   1.676   2.974  16.851 -0.8953  0.2863 -0.1834
  879MPD2    C312944   1.609   3.006  16.739  0.4923  0.8437 -0.4960
  879MPD2    C412945   1.564   3.134  16.720 -0.1483  0.6635  0.4219
  879MPD2    C512946   1.584   3.218  16.818 -0.6719 -0.1360 -0.4105
  879MPD2     H12947   1.705   2.871  16.869 -1.1853 -0.0745 -1.8219
  879MPD2    H112948   1.499   3.173  16.642  1.2826  2.4909  0.1453
  879MPD2    H212949   1.647   3.275  17.002 -0.8432  1.1485 -0.0757
  879MPD2    H312950   1.547   3.318  16.802 -1.8062 -0.2983  1.1692
  879MPD2     N12951   1.588   2.916  16.640  0.4673  0.0504 -0.3598
  879MPD2    H512952   1.524   2.951  16.569  0.2456 -0.5689 -0.4637
  879MPD2    N112953   1.760   3.037  17.078 -1.1363  0.1946  0.1604
  879MPD2    H712954   1.773   3.115  17.141 -1.9047  0.3149  0.1613
  880MPD2     C12955   2.940   4.308  17.657 -0.6813 -0.2703 -0.0344
  880MPD2    C112956   2.841   4.316   0.010  0.4820 -0.2470  0.1368
  880MPD2    C212957   2.815   4.205   0.080 -0.2802 -0.4299 -0.0353
  880MPD2    C312958   2.887   4.086   0.053 -1.0264 -0.2619  0.1465
  880MPD2    C412959   2.983   4.079  17.696 -0.4187 -0.4213 -0.1908
  880MPD2    C512960   2.992   4.192  17.628  0.0705 -0.7260  0.1898
  880MPD2     H12961   2.747   4.209   0.164  0.3525  0.5546  0.4274
  880MPD2    H112962   3.041   3.993  17.664 -0.6315 -0.9708  0.9128
  880MPD2    H212963   2.972   4.392  17.596 -2.7682  0.7168  0.2203
  880MPD2    H312964   3.056   4.192  17.540  1.0675 -0.0821  0.9261
  880MPD2     N12965   2.835   3.967   0.122  0.6400  0.3662 -0.3252
  880MPD2    H512966   2.762   3.993   0.188 -0.3911 -0.0372 -1.2954
  880MPD2    N112967   2.774   4.439   0.021  0.1435 -0.1476 -0.1197
  880MPD2    H712968   2.809   4.517  17.715 -2.2709 -0.3369 -1.9224
  881MPD2     C12969   2.558   0.568  17.370  0.1407 -0.4715 -0.2773
  881MPD2    C112970   2.631   0.456  17.341 -0.8982 -0.0582  0.1249
  881MPD2    C212971   2.638   0.354  17.435 -0.9797  0.1979  0.0673
  881MPD2    C312972   2.558   0.367  17.550  0.3131 -0.2528 -0.6542
  881MPD2    C412973   2.469   0.467  17.563  0.1713  0.3481 -0.8303
  881MPD2    C512974   2.469   0.573  17.477 -0.2615 -0.1519  0.7324
  881MPD2     H12975   2.703   0.267  17.426 -1.3162 -0.3894  3.1279
  881MPD2    H112976   2.410   0.479  17.654 -0.0607 -0.6270 -0.8496
  881MPD2    H212977   2.537   0.636  17.288 -0.2873 -0.5868 -0.2638
  881MPD2    H312978   2.401   0.655  17.494 -1.1557 -1.0088  1.2692
  881MPD2     N12979   2.555   0.263  17.649  0.6345 -0.0140 -0.1822
  881MPD2    H512980   2.478   0.262  17.714 -1.1517 -0.4155 -2.3225
  881MPD2    N112981   2.706   0.466  17.225 -0.2142  0.5221 -0.3463
  881MPD2    H712982   2.685   0.540  17.158 -0.4665 -1.7464 -2.7918
  882MPD2     C12983   1.474   2.004  14.340  0.4950 -0.6969  0.3304
  882MPD2    C112984   1.411   2.123  14.380 -0.0492 -0.2608 -1.0245
  882MPD2    C212985   1.275   2.121  14.398 -0.3941 -0.1114 -0.4213
  882MPD2    C312986   1.201   2.010  14.377 -0.3150  0.2192 -0.0703
  882MPD2    C412987   1.259   1.898  14.328 -0.5290 -1.1518 -0.6573
  882MPD2    C512988   1.392   1.899  14.313 -0.2289 -0.4912  0.7906
  882MPD2     H12989   1.226   2.211  14.433  0.3506 -0.0824  0.5457
  882MPD2    H112990   1.207   1.804  14.317  0.8272 -1.9344 -0.5010
  882MPD2    H212991   1.581   1.992  14.344  0.5438 -0.7810 -1.1669
  882MPD2    H312992   1.432   1.801  14.290 -1.0832 -0.0727 -2.4753
  882MPD2     N12993   1.065   1.995  14.415  0.0776  0.6403 -0.4533
  882MPD2    H512994   1.033   1.900  14.430 -0.6554  0.6641 -1.8896
  882MPD2    N112995   1.492   2.234  14.405  0.4803  0.2161  0.2575
  882MPD2    H712996   1.589   2.206  14.394  0.0460 -1.1866  0.0442
  883MPD2     C12997   3.153   2.071  16.042 -0.8469  0.3575 -0.7346
  883MPD2    C112998   3.196   2.169  15.955  0.3603  0.0500  0.2645
  883MPD2    C212999   3.291   2.264  15.993 -0.2822 -0.8829  0.4656
  883MPD2    C313000   3.346   2.262  16.123  0.3358  0.7127 -0.6635
  883MPD2    C413001   3.319   2.152  16.202 -0.8164  0.3191  0.3017
  883MPD2    C513002   3.221   2.062  16.158  0.3574 -0.6720 -0.6340
  883MPD2     H13003   3.318   2.349  15.930  0.4973  0.2083  2.2710
  883MPD2    H113004   3.363   2.134  16.300  1.1832 -0.8102 -0.7979
  883MPD2    H213005   3.073   2.002  16.017  0.2774 -1.4933  0.8011
  883MPD2    H313006   3.195   1.982  16.226 -1.8463 -1.1101 -2.0003
  883MPD2     N13007   3.446   2.359  16.152  0.2810  1.1608  0.0114
  883MPD2    H513008   3.474   2.416  16.073 -2.1107 -0.1727 -1.7865
  883MPD2    N113009   3.125   2.199  15.833 -0.1453 -0.3331 -0.4043
  883MPD2    H713010   3.178   2.264  15.775  0.0259  1.5712  1.8793
  884MPD2     C13011   0.638   2.899  15.171  0.2008 -0.8061 -0.1373
  884MPD2    C113012   0.559   2.933  15.060  0.2062  0.1391  0.5205
  884MPD2    C213013   0.435   2.983  15.082  0.1117 -0.0641 -0.1873
  884MPD2    C313014   0.382   2.995  15.204  0.8733 -0.7076 -0.7711
  884MPD2    C413015   0.450   2.938  15.313 -0.2930 -1.0672  0.1415
  884MPD2    C513016   0.579   2.893  15.299 -0.5491 -0.1638  0.0220
  884MPD2     H13017   0.376   3.024  15.001 -2.3800  2.6903  2.9997
  884MPD2    H113018   0.402   2.943  15.409  0.7905  0.8538  0.5900
  884MPD2    H213019   0.736   2.854  15.160  0.4918 -0.5452  1.3334
  884MPD2    H313020   0.634   2.850  15.381 -0.3942  0.7703  0.4116
  884MPD2     N13021   0.277   3.084  15.219  0.0878 -0.7158  0.4941
  884MPD2    H513022   0.258   3.148  15.142 -0.7463  1.1661  2.2623
  884MPD2    N113023   0.617   2.942  14.930  0.3921  0.0716  0.1614
  884MPD2    H713024   0.550   2.955  14.855  0.1505  1.8265  0.6905
  885MPD2     C13025   3.717   2.520   0.136  0.0245 -0.0090 -0.3954
  885MPD2    C113026   3.800   2.619   0.189  0.2285  0.8007 -0.0817
  885MPD2    C213027   3.807   2.747   0.123 -0.1617  0.3705 -0.3628
  885MPD2    C313028   3.726   2.778   0.013 -0.1848 -0.0216  0.0919
  885MPD2    C413029   3.656   2.672  17.705 -0.0450  0.0102 -0.2927
  885MPD2    C513030   3.650   2.546   0.020  0.6492 -0.2634  0.2939
  885MPD2     H13031   3.876   2.825   0.154 -0.5699  0.5911 -0.0224
  885MPD2    H113032   3.597   2.674  17.615  0.3423 -1.8904 -0.5804
  885MPD2    H213033   3.707   2.429   0.195 -0.2712  0.7374  0.7164
  885MPD2    H313034   3.602   2.467  17.713 -1.7089  1.0859  0.4335
  885MPD2     N13035   3.729   2.908  17.702  0.5526 -0.2142  0.4131
  885MPD2    H513036   3.786   2.977   0.001 -1.1122  1.9356 -0.6913
  885MPD2    N113037   3.879   2.594   0.301  0.2604 -0.3251 -0.3553
  885MPD2    H713038   3.891   2.497   0.326  1.2802 -0.4108 -1.1930
  886MPD2     C13039   4.613   1.548  15.260 -0.4907  0.3480 -0.0268
  886MPD2    C113040   4.727   1.546  15.177 -0.1178 -0.4558  0.4593
  886MPD2    C213041   0.030   1.670  15.117 -0.2717 -0.5453  0.5947
  886MPD2    C313042   4.684   1.774  15.113 -0.2567  0.0414  0.6123
  886MPD2    C413043   4.555   1.751  15.159 -0.3779  0.0388  0.5612
  886MPD2    C513044   4.523   1.645  15.236 -0.1060 -0.7933 -0.3636
  886MPD2     H13045   0.130   1.684  15.078  0.0339 -0.9881  1.2218
  886MPD2    H113046   4.478   1.827  15.147  0.8023  1.2127  0.4051
  886MPD2    H213047   4.572   1.464  15.314  2.8009 -1.3465 -0.1204
  886MPD2    H313048   4.421   1.646  15.272 -0.4112 -1.7757 -1.1956
  886MPD2     N13049   4.717   1.891  15.050 -0.1757 -0.0030 -0.3412
  886MPD2    H513050   4.656   1.971  15.060  0.4934  0.5409 -0.6187
  886MPD2    N113051   0.084   1.436  15.182 -0.9084 -0.6544 -0.0524
  886MPD2    H713052   0.160   1.435  15.115 -1.2897  1.9444 -0.5076
  887MPD2     C13053   0.766   1.495  15.176 -0.1622 -0.1490 -0.1819
  887MPD2    C113054   0.646   1.520  15.228 -0.0401 -0.1960  0.3804
  887MPD2    C213055   0.605   1.653  15.255  0.6148  0.4798  0.0480
  887MPD2    C313056   0.703   1.749  15.259  0.0304  0.6498 -0.0171
  887MPD2    C413057   0.837   1.722  15.224 -0.4822 -0.5362 -0.5033
  887MPD2    C513058   0.860   1.594  15.174 -1.0918  0.2823  0.3870
  887MPD2     H13059   0.501   1.664  15.282  0.6061  1.3912 -0.3563
  887MPD2    H113060   0.922   1.789  15.226  0.7637 -2.1075 -1.0480
  887MPD2    H213061   0.797   1.400  15.134  2.0281  0.7894 -0.6607
  887MPD2    H313062   0.955   1.570  15.127 -1.8837 -1.8145 -0.1243
  887MPD2     N13063   0.663   1.880  15.302  0.1515  0.0324  0.5605
  887MPD2    H513064   0.565   1.897  15.319 -0.2256  0.5291 -2.0400
  887MPD2    N113065   0.553   1.422  15.235  0.0587 -0.4754 -0.1016
  887MPD2    H713066   0.464   1.458  15.268 -0.3586 -0.1033 -1.6200
  888MPD2     C13067   2.441   1.706  14.971  0.3974  0.4232 -0.1838
  888MPD2    C113068   2.519   1.719  15.080 -0.0331  0.3106 -0.1720
  888MPD2    C213069   2.597   1.832  15.092  0.5766  0.3793 -0.6997
  888MPD2    C313070   2.610   1.933  14.991  0.3440  0.4485 -0.6514
  888MPD2    C413071   2.541   1.907  14.878  0.2423 -0.4389 -0.6505
  888MPD2    C513072   2.463   1.797  14.866 -0.8798 -0.9123 -0.2370
  888MPD2     H13073   2.647   1.854  15.185  4.0793 -2.7094 -1.8722
  888MPD2    H113074   2.538   1.973  14.792 -1.6024 -0.4607 -0.6172
  888MPD2    H213075   2.390   1.612  14.955  0.3405  0.2062  1.2804
  888MPD2    H313076   2.409   1.792  14.771 -0.4969 -0.6193 -0.4700
  888MPD2     N13077   2.684   2.056  15.010 -0.5654  0.0017 -0.0794
  888MPD2    H513078   2.716   2.075  15.104 -1.8658  0.4417  0.2671
  888MPD2    N113079   2.508   1.633  15.193  0.2261  0.2454 -0.6680
  888MPD2    H713080   2.592   1.634  15.251  1.1454 -4.0256 -1.9200
  889MPD2     C13081   2.072   1.575  13.170  0.2599  0.1610  0.4253
  889MPD2    C113082   2.095   1.451  13.221  0.0684 -0.1670 -0.6388
  889MPD2    C213083   2.119   1.441  13.357 -0.7734 -0.8040 -0.5059
  889MPD2    C313084   2.169   1.553  13.419  0.6195  0.3098 -1.2303
  889MPD2    C413085   2.168   1.678  13.367 -0.3539 -0.1856 -0.1149
  889MPD2    C513086   2.113   1.686  13.238  1.0713  0.7924 -0.6796
  889MPD2     H13087   2.137   1.346  13.406  1.9129 -0.5119 -0.9479
  889MPD2    H113088   2.199   1.769  13.416 -0.5983  2.1457 -4.3170
  889MPD2    H213089   2.050   1.592  13.065  2.1894  1.2959  0.2049
  889MPD2    H313090   2.114   1.783  13.189 -0.8731 -0.0612 -2.4037
  889MPD2     N13091   2.201   1.522  13.554  0.4095 -0.1438 -0.2439
  889MPD2    H513092   2.174   1.428  13.582  0.3156 -0.0701 -0.0823
  889MPD2    N113093   2.059   1.329  13.151  0.3122 -0.0900 -0.0641
  889MPD2    H713094   2.053   1.253  13.218  0.9279  0.5001  0.6655
  890MPD2     C13095   1.611   2.929  14.599 -0.3673 -0.0850 -0.2974
  890MPD2    C113096   1.703   2.986  14.680  0.5319 -0.3009  0.0613
  890MPD2    C213097   1.711   2.945  14.817 -0.5249  0.3047  0.2990
  890MPD2    C313098   1.611   2.866  14.877 -0.3754  0.0392 -0.2844
  890MPD2    C413099   1.518   2.815  14.787 -0.8013 -0.5393 -0.0196
  890MPD2    C513100   1.520   2.839  14.655 -0.3037  0.3072 -0.4232
  890MPD2     H13101   1.790   2.991  14.874 -0.1523 -0.5376  0.4736
  890MPD2    H113102   1.444   2.744  14.824  0.5046 -1.3392  1.0829
  890MPD2    H213103   1.600   2.973  14.501 -0.3900  0.2386 -0.1513
  890MPD2    H313104   1.436   2.803  14.597 -0.0422  0.3299 -0.8089
  890MPD2     N13105   1.606   2.869  15.018  1.3617 -0.5977 -0.0950
  890MPD2    H513106   1.673   2.931  15.061 -1.4138  2.5139 -0.3171
  890MPD2    N113107   1.784   3.088  14.624  0.5485 -0.3315  0.3562
  890MPD2    H713108   1.768   3.121  14.529 -0.3224  0.7573  0.8810
  891MPD2     C13109   4.096   1.027  16.689 -0.5279  0.2654  0.0510
  891MPD2    C113110   4.130   1.157  16.666  0.1793 -0.3348  0.7540
  891MPD2    C213111   4.263   1.194  16.688 -0.3791 -0.3956 -0.5927
  891MPD2    C313112   4.356   1.095  16.721 -0.6666 -0.2040 -0.2107
  891MPD2    C413113   4.319   0.960  16.732  0.3364 -1.0249 -0.1174
  891MPD2    C513114   4.187   0.929  16.722 -0.0126 -0.0817  1.2170
  891MPD2     H13115   4.288   1.299  16.685 -0.0886 -0.5409 -2.6319
  891MPD2    H113116   4.383   0.873  16.745  0.3914 -0.9091  0.3994
  891MPD2    H213117   3.993   1.004  16.667 -0.8526  1.7224  0.0533
  891MPD2    H313118   4.154   0.830  16.751 -0.4345 -0.5444 -0.8249
  891MPD2     N13119   4.488   1.142  16.748  0.1628  0.1901  0.0253
  891MPD2    H513120   4.502   1.242  16.734  0.9848 -0.0886 -1.1434
  891MPD2    N113121   4.026   1.249  16.632 -0.9255  0.7826 -0.0544
  891MPD2    H713122   3.933   1.209  16.627 -0.6571  0.0917  0.6500
  892MPD2     C13123   0.574   2.781  14.574  0.2161  0.0328 -0.1434
  892MPD2    C113124   0.500   2.699  14.655 -0.4818 -0.0744  0.0553
  892MPD2    C213125   0.531   2.558  14.664  0.0980 -0.3068 -0.4425
  892MPD2    C313126   0.631   2.514  14.585 -0.3438  0.0209 -0.2143
  892MPD2    C413127   0.703   2.599  14.510  0.0340  0.0522 -0.1346
  892MPD2    C513128   0.672   2.732  14.496 -0.0133 -0.4570  0.2837
  892MPD2     H13129   0.471   2.497  14.731  1.0123 -0.3284  0.3590
  892MPD2    H113130   0.785   2.564  14.449 -0.3781  0.1569 -0.7480
  892MPD2    H213131   0.551   2.887  14.564  1.1351  0.1608 -0.8981
  892MPD2    H313132   0.727   2.783  14.417 -1.9634  4.2941  2.0522
  892MPD2     N13133   0.662   2.378  14.586 -0.0955  0.1503 -0.2552
  892MPD2    H513134   0.748   2.354  14.538 -0.8797 -1.2733 -0.9574
  892MPD2    N113135   0.390   2.754  14.712 -0.4117 -0.0856  0.7179
  892MPD2    H713136   0.375   2.853  14.701  2.9645  0.6572  2.6494
  893MPD2     C13137   1.695   1.293   1.563  0.1400 -0.4524  0.0278
  893MPD2    C113138   1.800   1.380   1.592 -0.5951  0.3509  0.2966
  893MPD2    C213139   1.771   1.500   1.660 -0.3346  0.1693 -0.2801
  893MPD2    C313140   1.643   1.540   1.686  0.0605  0.6966 -0.1118
  893MPD2    C413141   1.537   1.459   1.655  0.4307 -0.3591 -0.2636
  893MPD2    C513142   1.568   1.343   1.585  0.2503 -0.5084 -0.3610
  893MPD2     H13143   1.852   1.569   1.680 -0.5445  0.3167  0.0543
  893MPD2    H113144   1.438   1.491   1.686 -0.4295  1.6200 -4.9230
  893MPD2    H213145   1.711   1.196   1.519  1.7946  0.4658 -1.4011
  893MPD2    H313146   1.490   1.276   1.551  2.1403 -1.6411 -2.4219
  893MPD2     N13147   1.615   1.670   1.737 -0.1203 -0.0758  0.5189
  893MPD2    H513148   1.519   1.705   1.739  0.8339  2.5538  0.6329
  893MPD2    N113149   1.932   1.332   1.560  0.1786  0.3112  0.0000
  893MPD2    H713150   1.937   1.245   1.508 -0.1792 -0.3089  0.9904
  894MPD2     C13151   0.145   3.515   1.323  0.3129  0.6258  0.4652
  894MPD2    C113152   0.223   3.482   1.213  0.5557 -0.1910  0.0031
  894MPD2    C213153   0.363   3.483   1.219 -0.1992 -0.1734  0.0448
  894MPD2    C313154   0.419   3.527   1.340 -0.0319  0.0020  0.2985
  894MPD2    C413155   0.342   3.554   1.451 -0.1279 -0.3704 -0.0217
  894MPD2    C513156   0.210   3.550   1.442 -0.3341  0.1913 -0.1440
  894MPD2     H13157   0.413   3.446   1.130 -0.3729 -0.7841  0.2043
  894MPD2    H113158   0.380   3.580   1.549 -1.9603  2.4433 -0.0601
  894MPD2    H213159   0.038   3.496   1.328  0.4891 -0.3518  0.5054
  894MPD2    H313160   0.151   3.565   1.532 -0.8654 -2.0727 -0.1166
  894MPD2     N13161   0.564   3.540   1.349  0.0597  0.9267  0.2464
  894MPD2    H513162   0.614   3.513   1.265  0.5966  1.8291  0.2784
  894MPD2    N113163   0.167   3.453   1.088 -0.2360  0.0902 -0.5758
  894MPD2    H713164   0.229   3.437   1.009 -1.2661  0.7008 -1.5160
  895MPD2     C13165   0.037   1.616  13.559  0.2925 -0.8006 -0.7269
  895MPD2    C113166   4.677   1.536  13.621 -0.2526 -0.6913 -0.7726
  895MPD2    C213167   4.707   1.399  13.640  0.1563 -0.3225 -0.3518
  895MPD2    C313168   0.080   1.338  13.590  0.0326  0.3690  0.0247
  895MPD2    C413169   0.175   1.420  13.524  0.0564 -0.2996  0.1898
  895MPD2    C513170   0.154   1.556  13.522 -0.1558 -0.4298  0.3933
  895MPD2     H13171   4.631   1.329  13.673  1.5566 -1.1543  1.1291
  895MPD2    H113172   0.268   1.378  13.487  0.6017 -1.3285  2.7494
  895MPD2    H213173   0.029   1.722  13.537  0.5547 -0.2870  1.6493
  895MPD2    H313174   0.230   1.616  13.473 -0.1853  0.9169  2.0057
  895MPD2     N13175   0.102   1.195  13.579  0.3027 -0.0978  0.3104
  895MPD2    H513176   0.163   1.159  13.506 -1.2190  0.4041 -1.2230
  895MPD2    N113177   4.546   1.581  13.653  0.3811  0.2597  0.5249
  895MPD2    H713178   4.494   1.513  13.708 -1.8350  1.4564 -0.1035
  896MPD2     C13179   2.340   3.976   1.603  0.1219  0.2124 -0.1935
  896MPD2    C113180   2.306   3.945   1.473  0.3056  0.2290  0.0978
  896MPD2    C213181   2.202   3.861   1.454  0.6438  0.4158 -0.3913
  896MPD2    C313182   2.125   3.814   1.560  0.1816  0.0182  0.6575
  896MPD2    C413183   2.168   3.837   1.689 -0.1292  0.3324  0.9303
  896MPD2    C513184   2.275   3.920   1.710 -0.2513  0.0453 -0.9938
  896MPD2     H13185   2.178   3.834   1.352  2.9173 -0.0308 -0.7994
  896MPD2    H113186   2.121   3.787   1.773 -1.3578 -1.0184 -0.5705
  896MPD2    H213187   2.432   4.029   1.624 -0.3171  0.8789  0.0577
  896MPD2    H313188   2.316   3.949   1.806 -0.9422  0.5898 -0.8584
  896MPD2     N13189   2.020   3.724   1.529  0.3582  0.1693  0.6845
  896MPD2    H513190   2.002   3.707   1.430 -0.2990  0.1118  0.8122
  896MPD2    N113191   2.387   3.993   1.367 -0.0594  0.0751  0.5939
  896MPD2    H713192   2.474   4.042   1.386 -0.3085  2.4363 -4.2894
  897MPD2     C13193   3.187   1.052  10.962 -0.0427  0.7340  0.1375
  897MPD2    C113194   3.106   1.142  10.915  0.1394 -0.2045  0.1021
  897MPD2    C213195   3.011   1.197  11.002 -0.2300 -0.0218  0.0395
  897MPD2    C313196   2.986   1.132  11.124 -0.3275 -0.2009  0.3835
  897MPD2    C413197   3.070   1.028  11.172  0.2601  0.0263 -0.1050
  897MPD2    C513198   3.169   0.991  11.085  0.0230 -0.2984  0.1064
  897MPD2     H13199   2.942   1.277  10.979  1.7470  0.8088 -3.0480
  897MPD2    H113200   3.064   0.970  11.263  4.4882  0.5910  0.5459
  897MPD2    H213201   3.271   1.016  10.903 -1.5026 -0.5590 -1.1353
  897MPD2    H313202   3.239   0.913  11.110 -1.5342 -0.9700  2.3032
  897MPD2     N13203   2.875   1.183  11.193 -0.2552  0.6672 -0.6342
  897MPD2    H513204   2.814   1.246  11.141 -1.4817  0.1038  0.1111
  897MPD2    N113205   3.138   1.200  10.793  0.3418  0.3321 -0.4169
  897MPD2    H713206   3.210   1.164  10.731  1.4671  0.1462  0.9931
  898MPD2     C13207   0.202   1.611  17.323 -0.5440 -0.3254  0.2937
  898MPD2    C113208   0.281   1.726  17.304 -0.0106  0.5171 -0.4998
  898MPD2    C213209   0.217   1.843  17.270  0.7814  0.4806  0.2308
  898MPD2    C313210   0.080   1.854  17.254 -0.3000  0.3702  0.4806
  898MPD2    C413211   0.005   1.739  17.266  0.1279 -0.1572 -0.1961
  898MPD2    C513212   0.065   1.620  17.291  0.5176  0.0195 -0.3151
  898MPD2     H13213   0.273   1.935  17.256 -0.3724  1.2712  0.7592
  898MPD2    H113214   4.636   1.746  17.252  0.0090  1.3055  1.4074
  898MPD2    H213215   0.236   1.511  17.348 -0.9614 -0.6200 -0.3176
  898MPD2    H313216   4.736   1.535  17.303  2.5072 -1.5285 -0.3023
  898MPD2     N13217   0.034   1.984  17.233 -0.5626  0.1185  0.0796
  898MPD2    H513218   0.105   2.057  17.227  1.1432 -1.5417  0.1312
  898MPD2    N113219   0.423   1.711  17.311 -0.0982  0.3384 -0.4866
  898MPD2    H713220   0.453   1.623  17.352 -0.4003  1.0545  1.2544
  899MPD2     C13221   0.738   2.307  17.271  0.6897  0.4811  0.0247
  899MPD2    C113222   0.796   2.395  17.361  0.1038  0.2624 -0.2939
  899MPD2    C213223   0.790   2.366  17.494 -0.8743  0.5113 -0.5185
  899MPD2    C313224   0.706   2.265  17.547 -0.0813 -0.2945 -0.2522
  899MPD2    C413225   0.641   2.184  17.456  0.1503  0.4686  0.1142
  899MPD2    C513226   0.653   2.213  17.322  0.8369 -0.2994 -0.4166
  899MPD2     H13227   0.825   2.441  17.564 -0.7328  1.3241 -1.4567
  899MPD2    H113228   0.578   2.104  17.491 -0.2306  0.8017  0.1857
  899MPD2    H213229   0.744   2.330  17.165 -1.8308 -0.1777 -0.2524
  899MPD2    H313230   0.597   2.156  17.250  2.7364 -1.8157 -0.6995
  899MPD2     N13231   0.690   2.238  17.683 -0.5387  0.0791  0.1649
  899MPD2    H513232   0.619   2.169  17.708 -0.3699 -0.3049 -0.4149
  899MPD2    N113233   0.870   2.511  17.311  0.4674 -0.4869  0.2531
  899MPD2    H713234   0.872   2.520  17.210  1.4349  0.2134  0.3449
  900MPD2     C13235   0.829   3.887  12.395 -0.4326  0.5040  0.1510
  900MPD2    C113236   0.774   3.899  12.518  0.4477  0.3174 -0.0376
  900MPD2    C213237   0.658   3.976  12.541  0.6724 -0.8412  0.2699
  900MPD2    C313238   0.595   4.036  12.430 -0.0041 -0.1106  0.0249
  900MPD2    C413239   0.637   4.004  12.306  0.6847 -0.2565 -0.7577
  900MPD2    C513240   0.754   3.936  12.294  0.3902 -0.1882 -0.0114
  900MPD2     H13241   0.624   3.998  12.642 -0.5022 -1.0057 -0.0933
  900MPD2    H113242   0.577   4.021  12.217  0.1447 -1.4909 -0.6275
  900MPD2    H213243   0.911   3.820  12.374 -0.3354  0.0104  2.1234
  900MPD2    H313244   0.779   3.908  12.192  2.3807  0.6385  0.2637
  900MPD2     N13245   0.481   4.120  12.452 -0.1872 -0.0003  0.1454
  900MPD2    H513246   0.438   4.122  12.544  0.4222  0.5532  0.4200
  900MPD2    N113247   0.862   3.866  12.617 -0.1941  0.4209  0.2728
  900MPD2    H713248   0.948   3.818  12.594 -0.5642  0.9712 -2.2091
  901MPD2     C13249   1.093   3.250  13.429 -0.2713  0.8752  0.1057
  901MPD2    C113250   1.102   3.211  13.297  0.5137  0.2953  0.1139
  901MPD2    C213251   1.076   3.309  13.202 -0.3301 -0.1577  0.1411
  901MPD2    C313252   1.049   3.439  13.236  0.6242 -0.1313  1.0012
  901MPD2    C413253   1.042   3.470  13.369  0.7180  0.0840  0.6227
  901MPD2    C513254   1.059   3.372  13.467 -0.5558 -0.3491  0.1088
  901MPD2     H13255   1.089   3.280  13.098  0.4459 -0.3452  0.2938
  901MPD2    H113256   1.030   3.570  13.410 -1.3403  1.4966 -3.4532
  901MPD2    H213257   1.117   3.172  13.501 -2.0542 -0.1737 -0.4279
  901MPD2    H313258   1.054   3.401  13.571  1.2920  1.2573 -0.2453
  901MPD2     N13259   1.056   3.547  13.136  0.3091 -0.2368 -0.0342
  901MPD2    H513260   1.061   3.516  13.040 -2.6654  2.8468 -1.1940
  901MPD2    N113261   1.150   3.078  13.275  0.3572 -0.3721 -0.3913
  901MPD2    H713262   1.195   3.026  13.349  3.7136  3.4108  0.2040
  902MPD2     C13263   4.124   2.215  13.124 -0.8706  0.6961  0.3851
  902MPD2    C113264   4.232   2.201  13.033 -0.3099 -0.8083 -0.0436
  902MPD2    C213265   4.305   2.089  13.012  0.2461  0.6069  0.7947
  902MPD2    C313266   4.263   1.974  13.066  0.7217  0.0450 -0.1112
  902MPD2    C413267   4.166   1.977  13.159  0.0092  0.3141  0.3394
  902MPD2    C513268   4.089   2.093  13.184 -1.1407  0.3064 -0.3887
  902MPD2     H13269   4.394   2.089  12.950  0.5131  0.2018  1.1814
  902MPD2    H113270   4.145   1.894  13.225  2.6463 -0.6527 -0.0353
  902MPD2    H213271   4.073   2.306  13.152 -0.5261  1.4083 -1.2868
  902MPD2    H313272   4.013   2.090  13.261  0.1371  1.0022  0.9181
  902MPD2     N13273   4.334   1.863  13.023 -0.3950  0.3635 -0.3306
  902MPD2    H513274   4.411   1.875  12.959  0.1971 -1.1947  0.1018
  902MPD2    N113275   4.272   2.322  12.981  0.4073  0.1694 -0.0500
  902MPD2    H713276   4.203   2.394  12.996 -1.6325 -1.5007 -1.4106
  903MPD2     C13277   4.652   2.041  12.625  0.5024 -0.1095  0.4362
  903MPD2    C113278   4.527   1.989  12.644  0.6490  0.3959  0.4106
  903MPD2    C213279   4.412   2.062  12.617 -0.3621 -0.1520  0.0849
  903MPD2    C313280   4.418   2.183  12.556 -0.4854 -0.5620 -0.1232
  903MPD2    C413281   4.541   2.233  12.523  0.0452 -0.1471 -0.3537
  903MPD2    C513282   4.652   2.159  12.559 -0.5629 -0.2869 -0.1142
  903MPD2     H13283   4.319   2.008  12.632 -0.5752 -0.3697 -2.0598
  903MPD2    H113284   4.558   2.322  12.462  0.3205  1.3563  1.9408
  903MPD2    H213285   0.003   1.985  12.652  1.4526  1.0104 -0.3773
  903MPD2    H313286   0.012   2.201  12.540 -1.2555  0.2055 -2.6507
  903MPD2     N13287   4.290   2.236  12.518 -0.2433 -0.5043  0.6397
  903MPD2    H513288   4.207   2.185  12.544 -1.7542  1.8706  0.4315
  903MPD2    N113289   4.509   1.859  12.679 -0.5005 -0.4096 -0.3694
  903MPD2    H713290   4.413   1.828  12.695 -0.6945 -0.4902 -1.7011
  904MPD2     C13291   4.202   1.129  14.484 -0.6476  0.7026 -0.3292
  904MPD2    C113292   4.186   1.185  14.358 -0.0143  0.0886 -0.4845
  904MPD2    C213293   4.293   1.254  14.298 -0.0334  0.0105 -0.1326
  904MPD2    C313294   4.420   1.266  14.353 -0.1165 -0.0713  0.2335
  904MPD2    C413295   4.435   1.204  14.477  0.7435  0.0487 -0.0560
  904MPD2    C513296   4.331   1.135  14.529 -0.9643  1.0004  0.5839
  904MPD2     H13297   4.278   1.295  14.200  2.6817 -0.3655 -0.7159
  904MPD2    H113298   4.532   1.202  14.526  0.3985  1.1679  0.6820
  904MPD2    H213299   4.113   1.097  14.536 -0.2382 -1.8084 -1.1999
  904MPD2    H313300   4.345   1.092  14.627  0.2315  2.5014  1.0726
  904MPD2     N13301   4.521   1.346  14.303  0.7392  0.1597  0.2910
  904MPD2    H513302   4.501   1.406  14.223  0.7868 -0.5182 -0.2272
  904MPD2    N113303   4.072   1.161  14.284 -0.0565 -0.9124  0.1220
  904MPD2    H713304   4.078   1.204  14.192  0.1618  0.8342  0.9579
  905MPD2     C13305   3.939   1.098  13.508  0.8767 -0.1071  0.3478
  905MPD2    C113306   3.994   1.086  13.633 -0.4512  0.1811  0.0408
  905MPD2    C213307   4.123   1.031  13.641 -0.6574  0.8814 -0.8990
  905MPD2    C313308   4.197   0.995  13.533  0.0734  0.1419 -0.1973
  905MPD2    C413309   4.142   1.005  13.410 -0.3478 -0.1974 -0.2000
  905MPD2    C513310   4.011   1.045  13.399 -0.6781  0.2292  0.0688
  905MPD2     H13311   4.167   1.013  13.738  0.9971 -1.2056 -2.0488
  905MPD2    H113312   4.189   0.964  13.321  1.4957  0.4841  0.4628
  905MPD2    H213313   3.844   1.148  13.488  1.7247  1.4872  0.2928
  905MPD2    H313314   3.961   1.045  13.302 -1.0275  2.0434  0.2477
  905MPD2     N13315   4.321   0.935  13.556 -0.0890 -0.1795  0.8192
  905MPD2    H513316   4.347   0.910  13.651 -0.7288 -0.0312  1.0316
  905MPD2    N113317   3.921   1.129  13.741 -0.8554  0.6221  0.4908
  905MPD2    H713318   3.824   1.151  13.722 -0.6180  0.3322 -1.0806
  906MPD2     C13319   1.458   1.518  11.700  0.1944 -0.0859  0.0383
  906MPD2    C113320   1.471   1.436  11.593 -0.0295 -0.0434  0.4624
  906MPD2    C213321   1.431   1.307  11.594  0.2615 -0.2802 -0.5725
  906MPD2    C313322   1.385   1.258  11.712 -0.0173 -0.7112 -0.2789
  906MPD2    C413323   1.352   1.340  11.821  0.2379  0.1997  0.5232
  906MPD2    C513324   1.389   1.473  11.812 -0.0411 -0.4206 -0.2368
  906MPD2     H13325   1.441   1.245  11.506  0.0902 -0.6068 -0.3649
  906MPD2    H113326   1.306   1.308  11.913  0.2992  3.1834  1.6089
  906MPD2    H213327   1.484   1.624  11.694 -1.9066  0.4490  0.4734
  906MPD2    H313328   1.358   1.543  11.889  0.2446  0.4694 -0.9278
  906MPD2     N13329   1.347   1.126  11.725  0.0138  0.0334 -0.1366
  906MPD2    H513330   1.290   1.107  11.807 -1.7549  2.5472 -0.8077
  906MPD2    N113331   1.534   1.482  11.471  0.0111  0.4957 -0.2352
  906MPD2    H713332   1.540   1.410  11.400  1.3220 -0.5561  0.9413
  907MPD2     C13333   0.642   0.440  15.371  0.2244  0.0835 -0.3108
  907MPD2    C113334   0.771   0.411  15.324  0.3255  0.1006  0.1718
  907MPD2    C213335   0.880   0.434  15.404 -0.4812  0.1499 -0.4283
  907MPD2    C313336   0.875   0.499  15.521  0.8664 -0.3395  0.0103
  907MPD2    C413337   0.749   0.525  15.566 -0.1540 -0.2774 -0.2516
  907MPD2    C513338   0.635   0.499  15.494  0.1634 -1.1084 -0.5655
  907MPD2     H13339   0.974   0.401  15.361  0.4738  0.2895  1.5830
  907MPD2    H113340   0.721   0.570  15.661 -0.5787  1.5914 -1.2683
  907MPD2    H213341   0.556   0.407  15.315  1.0137 -0.5050 -1.1789
  907MPD2    H313342   0.539   0.531  15.535  1.1330  0.6377  0.3365
  907MPD2     N13343   0.992   0.523  15.596 -0.0242  0.4881  0.5003
  907MPD2    H513344   1.072   0.491  15.542  0.1728  2.3608 -0.2989
  907MPD2    N113345   0.797   0.353  15.197  0.4008 -0.1270  0.1609
  907MPD2    H713346   0.889   0.322  15.167  0.6806 -0.0875  1.0044
  908MPD2     C13347   3.545   0.906  10.081  0.1946  1.1270  0.5407
  908MPD2    C113348   3.446   0.869  10.175  0.5021  0.3512 -0.2126
  908MPD2    C213349   3.404   0.960  10.269 -0.4788 -0.2002 -0.6064
  908MPD2    C313350   3.452   1.088  10.272  0.2439 -0.0192 -0.1039
  908MPD2    C413351   3.548   1.122  10.182  0.6954  0.0554 -0.3268
  908MPD2    C513352   3.602   1.035  10.086 -0.3622  0.3236  0.3599
  908MPD2     H13353   3.327   0.934  10.341 -1.1935  1.0656 -0.9081
  908MPD2    H113354   3.591   1.221  10.177  2.2335 -0.6776 -1.9987
  908MPD2    H213355   3.588   0.835  10.012 -1.5551  1.2412 -0.6701
  908MPD2    H313356   3.680   1.064  10.017  0.8631  2.3249  2.5815
  908MPD2     N13357   3.401   1.164  10.382  0.3012 -0.2372 -0.3780
  908MPD2    H513358   3.324   1.130  10.439  1.2623 -2.4485 -0.4030
  908MPD2    N113359   3.395   0.738  10.163  0.1685 -0.4451 -0.2042
  908MPD2    H713360   3.428   0.688  10.082 -0.0805  0.2988 -0.7638
  909MPD2     C13361   3.238   3.791  11.654  0.6063  0.0394  0.3554
  909MPD2    C113362   3.260   3.927  11.677  0.3917  0.1770 -0.7241
  909MPD2    C213363   3.185   3.986  11.777 -0.1100 -0.3228 -0.3308
  909MPD2    C313364   3.095   3.918  11.856 -0.4231 -0.2069 -0.1809
  909MPD2    C413365   3.075   3.789  11.830 -0.0516  0.3128 -0.2409
  909MPD2    C513366   3.145   3.728  11.730 -0.0649  0.0865  0.1074
  909MPD2     H13367   3.201   4.091  11.797  0.7104 -0.6816  0.9192
  909MPD2    H113368   3.011   3.723  11.887  0.0571  0.3168 -0.1156
  909MPD2    H213369   3.282   3.737  11.571  0.8250  1.7365 -0.6321
  909MPD2    H313370   3.119   3.625  11.706  2.9705 -0.3441 -1.3111
  909MPD2     N13371   3.025   3.989  11.959 -0.3621  0.7028 -0.4924
  909MPD2    H513372   3.052   4.087  11.961 -0.4681  0.7644 -2.8287
  909MPD2    N113373   3.359   3.999  11.602 -0.4914  0.4872 -0.3165
  909MPD2    H713374   3.346   4.099  11.613 -0.2164  0.5053 -0.1375
  910MPD2     C13375   0.073   1.123  16.398  0.1292  0.8505 -0.0479
  910MPD2    C113376   0.092   1.029  16.304 -0.2327  0.2633 -0.2181
  910MPD2    C213377   0.028   1.038  16.184 -0.9257 -0.0963  0.5532
  910MPD2    C313378   4.675   1.143  16.168 -0.0626 -0.2783  0.2759
  910MPD2    C413379   4.664   1.242  16.268  0.6299 -0.1999  0.2042
  910MPD2    C513380   4.735   1.230  16.384  0.4473  0.3753 -0.0503
  910MPD2     H13381   0.038   0.962  16.107  2.2143 -0.1876  1.0752
  910MPD2    H113382   4.584   1.314  16.254 -1.1314 -1.8159  1.9518
  910MPD2    H213383   0.113   1.126  16.499  1.7740 -0.7929 -0.6477
  910MPD2    H313384   4.720   1.304  16.462  0.4361 -0.9359  1.1731
  910MPD2     N13385   4.589   1.161  16.054  0.3579  0.3033  0.1913
  910MPD2    H513386   4.542   1.251  16.052 -2.2562 -1.0806 -1.2447
  910MPD2    N113387   0.165   0.907  16.336  0.3702  0.5237 -0.0749
  910MPD2    H713388   0.182   0.850  16.254 -4.6373 -2.0529  0.6994
  911MPD2     C13389   2.570   1.205  16.037 -0.1108 -0.9484  0.0795
  911MPD2    C113390   2.585   1.278  16.159  0.3209  0.1284  0.0599
  911MPD2    C213391   2.496   1.385  16.180 -0.8730  0.2085 -0.5457
  911MPD2    C313392   2.402   1.414  16.087  0.1930  0.1060  0.3034
  911MPD2    C413393   2.398   1.346  15.966 -0.0755  0.5762 -0.3587
  911MPD2    C513394   2.487   1.244  15.942 -0.3192  1.1311 -0.0137
  911MPD2     H13395   2.489   1.426  16.280  2.7144  2.5853 -1.2590
  911MPD2    H113396   2.327   1.370  15.887 -1.8807 -1.8274  0.5413
  911MPD2    H213397   2.634   1.121  16.014 -0.2734 -1.1137  0.2312
  911MPD2    H313398   2.485   1.188  15.849  2.7052 -0.3000  0.7876
  911MPD2     N13399   2.310   1.525  16.098  0.0616  0.2151 -0.8653
  911MPD2    H513400   2.232   1.537  16.035 -0.9995  1.1905  0.6363
  911MPD2    N113401   2.687   1.233  16.253 -0.9850  0.1138 -0.3279
  911MPD2    H713402   2.754   1.161  16.227  0.0723  0.4722  1.3923
  912MPD2     C13403   2.065   1.566  15.557 -0.2262 -0.2196 -0.9196
  912MPD2    C113404   2.047   1.572  15.693 -0.5661 -0.2890  0.4432
  912MPD2    C213405   2.060   1.459  15.768  0.4892 -0.6758 -0.1986
  912MPD2    C313406   2.079   1.340  15.713  0.6243  0.0290 -0.1775
  912MPD2    C413407   2.095   1.335  15.575  0.1777  0.1090 -0.1410
  912MPD2    C513408   2.089   1.446  15.497  0.2869 -0.2451  0.6544
  912MPD2     H13409   2.046   1.461  15.875 -1.4509 -1.4368 -0.4347
  912MPD2    H113410   2.112   1.240  15.527 -1.9845 -0.9039  1.0828
  912MPD2    H213411   2.057   1.651  15.490  2.5573  2.5723  2.2077
  912MPD2    H313412   2.089   1.426  15.390 -1.5664  0.7165  0.4801
  912MPD2     N13413   2.091   1.223  15.796 -0.1291 -0.3228 -0.1221
  912MPD2    H513414   2.086   1.242  15.895 -1.1036 -2.4920  0.2388
  912MPD2    N113415   2.029   1.706  15.752 -0.5301  0.5952 -0.5067
  912MPD2    H713416   2.042   1.790  15.698  0.0130 -0.6585 -2.3168
  913MPD2     C13417   2.173   2.980  11.509  0.0747  0.5387 -0.5319
  913MPD2    C113418   2.306   3.030  11.520 -0.4414  0.0996  0.9277
  913MPD2    C213419   2.369   3.075  11.399 -0.7601 -0.0973 -0.2549
  913MPD2    C313420   2.298   3.089  11.283  0.6285 -0.0586  0.0850
  913MPD2    C413421   2.163   3.053  11.281  0.0685  0.0126 -0.3434
  913MPD2    C513422   2.103   2.999  11.396  0.1567  1.0266  0.4425
  913MPD2     H13423   2.475   3.098  11.395 -0.9893  1.2663  1.3250
  913MPD2    H113424   2.106   3.053  11.188 -1.5861 -0.5384  0.6723
  913MPD2    H213425   2.119   2.932  11.590  0.3758 -1.0740 -1.2667
  913MPD2    H313426   2.008   2.950  11.377  1.2191 -1.1972  0.8890
  913MPD2     N13427   2.341   3.144  11.160  0.5832 -0.4828  0.2063
  913MPD2    H513428   2.266   3.151  11.091 -0.0366 -1.0899  0.8204
  913MPD2    N113429   2.370   3.019  11.644 -0.9939 -0.3162  0.1975
  913MPD2    H713430   2.307   2.982  11.715  0.5895 -1.6718  0.9009
  914MPD2     C13431   0.896   2.848  12.424  0.1909 -0.5054  0.0383
  914MPD2    C113432   0.886   2.938  12.528  0.1394  0.5172  0.2048
  914MPD2    C213433   0.941   2.902  12.649  0.4756  0.9452 -0.3169
  914MPD2    C313434   1.003   2.778  12.669  0.1612  0.1849 -0.1183
  914MPD2    C413435   1.020   2.693  12.560 -0.0577  0.0452 -0.0361
  914MPD2    C513436   0.964   2.730  12.439  0.3493  0.6170  0.0902
  914MPD2     H13437   0.932   2.968  12.734 -0.1874 -1.9651  1.8686
  914MPD2    H113438   1.059   2.592  12.568  2.1661  0.8757 -0.3722
  914MPD2    H213439   0.858   2.871  12.326  0.6867 -1.1665 -0.3080
  914MPD2    H313440   0.975   2.672  12.348  1.5588  1.6767 -0.4435
  914MPD2     N13441   1.050   2.771  12.799  0.3138 -0.5629  0.1135
  914MPD2    H513442   1.027   2.845  12.864 -2.6822 -0.5608 -0.9431
  914MPD2    N113443   0.827   3.066  12.506 -0.0603 -0.1843  0.1697
  914MPD2    H713444   0.782   3.074  12.416 -1.3698 -0.7869  0.7592
  915MPD2     C13445   3.945   2.955  15.693 -0.1222 -0.1541  0.7145
  915MPD2    C113446   3.824   3.006  15.663 -0.2915 -0.3583  0.2634
  915MPD2    C213447   3.723   3.006  15.760 -0.7497  0.2684  0.1622
  915MPD2    C313448   3.746   2.941  15.887 -0.0321  0.7211 -0.6839
  915MPD2    C413449   3.872   2.895  15.910  0.2510 -0.2887  0.1689
  915MPD2    C513450   3.973   2.893  15.814 -0.5288  0.4371 -0.1831
  915MPD2     H13451   3.623   3.041  15.740 -0.4012  0.4333 -1.2666
  915MPD2    H113452   3.891   2.866  16.013 -1.2773  0.5089  0.6739
  915MPD2    H213453   4.023   2.964  15.619 -0.5369  0.7621  0.3977
  915MPD2    H313454   4.071   2.860  15.846 -1.5134 -1.9099  0.3537
  915MPD2     N13455   3.644   2.939  15.992  0.0226  0.4461  0.3567
  915MPD2    H513456   3.552   2.968  15.962 -0.6078 -0.3591  1.5291
  915MPD2    N113457   3.807   3.054  15.535  0.2067  0.0827 -0.4915
  915MPD2    H713458   3.883   3.046  15.467  0.4415 -0.0247 -0.2161
  916MPD2     C13459   1.692   1.415  15.547  0.3384 -0.4634  0.0026
  916MPD2    C113460   1.734   1.321  15.635 -0.0467 -0.0065 -0.2101
  916MPD2    C213461   1.797   1.207  15.586 -0.9373  0.4980  0.0881
  916MPD2    C313462   1.821   1.184  15.452  0.0409  0.2408 -0.1747
  916MPD2    C413463   1.780   1.280  15.361  0.4540  0.9205 -0.1026
  916MPD2    C513464   1.716   1.392  15.414 -0.2270 -0.3887 -0.2975
  916MPD2     H13465   1.827   1.132  15.658  0.6834 -0.9871 -2.1205
  916MPD2    H113466   1.789   1.273  15.253  1.4827 -0.8343  0.0862
  916MPD2    H213467   1.634   1.503  15.573 -0.0071 -0.4220 -0.9173
  916MPD2    H313468   1.667   1.460  15.345  0.0984  0.2787  0.1292
  916MPD2     N13469   1.876   1.056  15.425 -0.5838  0.0427 -0.6051
  916MPD2    H513470   1.902   0.989  15.496  1.8164  1.2915 -0.3001
  916MPD2    N113471   1.713   1.346  15.776 -0.2768 -0.0555 -0.1648
  916MPD2    H713472   1.683   1.439  15.801  0.3653  0.1798 -0.2762
  917MPD2     C13473   1.661   3.973  11.218  0.1478 -0.0474  0.3103
  917MPD2    C113474   1.754   3.972  11.320 -0.1851  0.1093 -0.2517
  917MPD2    C213475   1.833   4.079  11.337  0.3364  0.7263  0.1659
  917MPD2    C313476   1.824   4.187  11.251  0.0759 -0.2970  0.0236
  917MPD2    C413477   1.734   4.188  11.144 -0.5123  0.7435  0.5873
  917MPD2    C513478   1.654   4.075  11.126  0.0810  0.3753  0.2626
  917MPD2     H13479   1.908   4.073  11.415  0.8154 -1.9643 -0.5164
  917MPD2    H113480   1.736   4.271  11.074  1.2618  0.0572 -0.1728
  917MPD2    H213481   1.590   3.894  11.196  0.3907  0.0325 -0.7935
  917MPD2    H313482   1.591   4.083  11.038  0.6392 -2.1074 -0.3561
  917MPD2     N13483   1.884   4.307  11.294  0.0293  0.4178 -0.2892
  917MPD2    H513484   1.846   4.392  11.253  0.0149  0.4182 -0.2751
  917MPD2    N113485   1.748   3.868  11.414 -0.3635 -0.1462 -0.2595
  917MPD2    H713486   1.689   3.789  11.390  1.3625 -1.2670 -0.8255
  918MPD2     C13487   1.753   3.927  12.424  0.0563  0.5873 -0.2320
  918MPD2    C113488   1.871   3.937  12.360 -0.2247  0.5587 -0.3935
  918MPD2    C213489   1.867   3.897  12.233 -0.2560 -0.2212 -0.2895
  918MPD2    C313490   1.752   3.851  12.171 -0.0300 -0.1686 -0.3306
  918MPD2    C413491   1.629   3.847  12.240 -0.0425  0.6540 -0.5997
  918MPD2    C513492   1.636   3.893  12.368 -0.3264 -0.3396  1.0402
  918MPD2     H13493   1.951   3.900  12.164  0.6173  3.4648  0.9670
  918MPD2    H113494   1.540   3.817  12.186 -0.2031  0.4186 -0.2054
  918MPD2    H213495   1.739   3.950  12.529 -3.1505  1.0405 -0.7692
  918MPD2    H313496   1.550   3.894  12.434 -0.1395  0.1961  1.2755
  918MPD2     N13497   1.768   3.803  12.040  0.2264 -0.3786  0.2894
  918MPD2    H513498   1.857   3.807  11.991 -1.4958  1.4728 -2.6761
  918MPD2    N113499   1.994   3.975  12.415  0.6390  0.5538  0.3426
  918MPD2    H713500   2.074   3.966  12.354 -0.3028 -2.0279 -0.5277
  919MPD2     C13501   2.396   2.672  11.487  0.4106 -0.1535 -0.8113
  919MPD2    C113502   2.271   2.631  11.531 -0.3453 -0.0423  0.4539
  919MPD2    C213503   2.167   2.627  11.438  0.5358 -0.1489 -0.0680
  919MPD2    C313504   2.187   2.667  11.307  0.4249 -0.5841 -0.6865
  919MPD2    C413505   2.313   2.713  11.268  0.7531 -1.0597 -0.3775
  919MPD2    C513506   2.412   2.713  11.361  0.6564  0.1079 -0.2922
  919MPD2     H13507   2.068   2.594  11.468  0.1323 -0.7345 -2.0512
  919MPD2    H113508   2.340   2.750  11.170  0.6311 -0.3232 -0.1352
  919MPD2    H213509   2.483   2.680  11.551  0.1217 -0.4574 -0.3747
  919MPD2    H313510   2.514   2.735  11.330 -0.6514 -0.1505 -4.7056
  919MPD2     N13511   2.089   2.691  11.208 -0.4263  0.2657 -0.0952
  919MPD2    H513512   2.123   2.727  11.119 -0.3506  1.2115  0.3171
  919MPD2    N113513   2.250   2.579  11.659 -0.8143 -0.2261 -0.1375
  919MPD2    H713514   2.155   2.554  11.686 -0.6665 -1.5402 -0.8282
  920MPD2     C13515   1.794   3.431  10.681  0.8836 -0.8895  0.2019
  920MPD2    C113516   1.725   3.320  10.626  0.5222 -0.0687 -0.9697
  920MPD2    C213517   1.720   3.210  10.701 -0.0120 -0.1674  0.3074
  920MPD2    C313518   1.769   3.198  10.827  0.3526 -0.4415 -0.2171
  920MPD2    C413519   1.843   3.308  10.877  0.1385 -0.3017 -0.1661
  920MPD2    C513520   1.845   3.428  10.811  0.3692  0.1771 -0.4769
  920MPD2     H13521   1.663   3.129  10.657  0.6839 -2.2282  3.1900
  920MPD2    H113522   1.899   3.319  10.969  1.3576  0.7958 -1.0542
  920MPD2    H213523   1.810   3.529  10.638  1.7466 -0.5930  1.1912
  920MPD2    H313524   1.899   3.509  10.859  0.2049  1.0745 -1.8009
  920MPD2     N13525   1.755   3.077  10.895 -0.1090 -0.7382 -0.1543
  920MPD2    H513526   1.722   2.996  10.844 -2.0302  0.0024 -0.0792
  920MPD2    N113527   1.670   3.324  10.498  0.0918 -0.0776  0.6491
  920MPD2    H713528   1.611   3.246  10.470  0.6511 -0.0484 -0.6103
  921MPD2     C13529   3.464   1.219  16.924  0.0331  0.2637 -0.0661
  921MPD2    C113530   3.432   1.282  16.807  0.4907 -0.7927  0.3850
  921MPD2    C213531   3.299   1.276  16.764 -0.4085 -0.6386 -0.2385
  921MPD2    C313532   3.209   1.207  16.840 -0.7621  1.0673  0.4166
  921MPD2    C413533   3.252   1.145  16.947 -0.2741 -0.0794 -0.4490
  921MPD2    C513534   3.379   1.143  16.992  0.1824 -0.2767 -0.2873
  921MPD2     H13535   3.258   1.327  16.677  0.8538  0.5276 -0.1561
  921MPD2    H113536   3.183   1.079  16.997  2.3671 -0.4900  2.6808
  921MPD2    H213537   3.568   1.211  16.956  0.2352 -0.2670 -0.8561
  921MPD2    H313538   3.405   1.084  17.079 -3.0369 -0.6384  0.4523
  921MPD2     N13539   3.073   1.186  16.804 -0.2657  0.7758 -0.0375
  921MPD2    H513540   3.029   1.103  16.842  1.5159  0.0640  0.4599
  921MPD2    N113541   3.539   1.340  16.739 -0.5454 -0.3751 -0.2552
  921MPD2    H713542   3.630   1.303  16.762  0.0957  1.0053 -0.5630
  922MPD2     C13543   3.749   3.658   0.236  0.2716  0.0678  0.4120
  922MPD2    C113544   3.789   3.771   0.169  0.1079  0.0202 -0.0050
  922MPD2    C213545   3.765   3.788   0.033  0.5499 -1.3819  0.1761
  922MPD2    C313546   3.679   3.705  17.712  0.2265  0.0634  0.5516
  922MPD2    C413547   3.619   3.606   0.035  0.3072 -0.6228 -0.4028
  922MPD2    C513548   3.654   3.586   0.165 -0.4653  0.5894 -0.4062
  922MPD2     H13549   3.803   3.876  17.731  1.3343 -2.7028 -1.4814
  922MPD2    H113550   3.544   3.543  17.737 -1.4113  0.4729  0.8958
  922MPD2    H213551   3.763   3.633   0.340 -1.8920  0.3791  0.7651
  922MPD2    H313552   3.596   3.512   0.219  1.3100 -0.0726  0.6272
  922MPD2     N13553   3.655   3.736  17.573  0.2653 -0.4665 -0.4252
  922MPD2    H513554   3.695   3.821  17.535  1.9456 -1.2751 -0.4513
  922MPD2    N113555   3.872   3.868   0.230 -0.3233  0.1124 -0.0465
  922MPD2    H713556   3.901   3.941   0.166 -0.7998  0.8530  0.5902
  923MPD2     C13557   1.063   2.383  10.207  0.0076 -0.0493  0.0380
  923MPD2    C113558   1.083   2.375  10.063  0.0797  0.3182  0.3761
  923MPD2    C213559   1.171   2.472  10.009  0.4877 -0.1445 -0.0723
  923MPD2    C313560   1.229   2.572  10.085  0.3431 -0.3722 -0.2378
  923MPD2    C413561   1.207   2.574  10.224  0.1266 -0.2305  0.5593
  923MPD2    C513562   1.135   2.473  10.282  0.0043  0.6904 -0.1172
  923MPD2     H13563   1.179   2.484   9.902 -0.4939  1.2568  0.0130
  923MPD2    H113564   1.261   2.642  10.289  0.9893 -0.9431  0.5995
  923MPD2    H213565   0.993   2.320  10.261  1.1415 -1.7838 -0.5143
  923MPD2    H313566   1.118   2.476  10.389 -2.4866  0.8301 -0.5093
  923MPD2     N13567   1.289   2.689  10.033  0.3045  0.3468  0.2514
  923MPD2    H513568   1.316   2.765  10.095  0.9188 -1.1394  1.8032
  923MPD2    N113569   1.009   2.283   9.981  0.8120 -0.0354 -0.0211
  923MPD2    H713570   0.951   2.219  10.034  1.2928  1.7165  2.5869
  924MPD2     C13571   1.632   4.694  16.055 -1.2745  0.6855 -0.0035
  924MPD2    C113572   1.505   4.701  16.010 -0.5761 -0.2256  0.1930
  924MPD2    C213573   1.461   0.072  15.937 -0.5114  0.4647  0.6994
  924MPD2    C313574   1.554   0.179  15.912  0.2455 -0.2831  0.0052
  924MPD2    C413575   1.684   0.169  15.949 -0.3216 -0.2570  0.3971
  924MPD2    C513576   1.718   0.057  16.021  0.2772 -0.8771  0.1590
  924MPD2     H13577   1.360   0.074  15.900 -0.4468  2.7649  0.6677
  924MPD2    H113578   1.757   0.244  15.923 -1.3594  0.9126  0.8631
  924MPD2    H213579   1.667   4.619  16.125 -2.4348  0.4532  0.3302
  924MPD2    H313580   1.823   0.052  16.050  0.6261 -0.3139 -1.0485
  924MPD2     N13581   1.507   0.297  15.841 -0.4334 -0.9574  0.3461
  924MPD2    H513582   1.569   0.378  15.843  0.8629 -1.9078 -0.9953
  924MPD2    N113583   1.413   4.613  16.071 -0.3108  0.1556  0.0612
  924MPD2    H713584   1.458   4.559  16.144  2.0343  1.5352 -0.3731
  925MPD2     C13585   4.415   2.571  14.728  0.2226 -0.5643 -0.7397
  925MPD2    C113586   4.279   2.583  14.700 -0.0577 -0.2217 -0.1757
  925MPD2    C213587   4.201   2.584  14.813 -0.1583 -0.1668  0.3969
  925MPD2    C313588   4.244   2.567  14.943 -0.0412  0.0008 -0.3400
  925MPD2    C413589   4.381   2.557  14.960 -0.4805  0.1166  0.0582
  925MPD2    C513590   4.463   2.562  14.853 -0.2712 -0.3178 -0.0913
  925MPD2     H13591   4.096   2.593  14.788  0.5008 -1.1591 -2.7361
  925MPD2    H113592   4.417   2.560  15.063  2.4912 -1.8953 -0.9206
  925MPD2    H213593   4.485   2.558  14.646  3.7559 -0.0921  2.1663
  925MPD2    H313594   4.565   2.530  14.875 -0.4525 -0.6029  0.3396
  925MPD2     N13595   4.164   2.545  15.055 -0.1228  0.1401  0.0421
  925MPD2    H513596   4.200   2.509  15.143 -0.0690 -1.4661 -0.6230
  925MPD2    N113597   4.220   2.588  14.570 -0.5009 -0.0172  0.1094
  925MPD2    H713598   4.119   2.597  14.558 -0.4995  1.2759  1.0914
  926MPD2     C13599   3.170   0.487  13.886  0.1911  0.0109  0.0096
  926MPD2    C113600   3.077   0.546  13.798 -0.1955 -0.4547  0.9301
  926MPD2    C213601   3.117   0.589  13.674 -0.0926 -0.9999  0.0910
  926MPD2    C313602   3.246   0.577  13.634  0.1830 -0.3541 -0.4993
  926MPD2    C413603   3.330   0.519  13.720 -0.5202  0.0693 -0.1087
  926MPD2    C513604   3.299   0.476  13.846  0.2375  0.0636 -0.2885
  926MPD2     H13605   3.047   0.635  13.605 -1.3377 -1.2283  1.2071
  926MPD2    H113606   3.433   0.514  13.687 -0.7294  1.7205 -1.0088
  926MPD2    H213607   3.129   0.456  13.981 -2.4093  0.5499 -0.9369
  926MPD2    H313608   3.370   0.412  13.898 -0.6895  0.7136  1.7667
  926MPD2     N13609   3.295   0.627  13.506 -0.2696  0.0088  0.0745
  926MPD2    H513610   3.394   0.612  13.495 -0.1798 -1.2791  2.6443
  926MPD2    N113611   2.936   0.563  13.819 -0.3322  0.8054  0.0625
  926MPD2    H713612   2.882   0.604  13.743 -2.1719 -0.8511  0.4714
  927MPD2     C13613   3.619   2.142  17.735 -0.3917 -0.3907 -0.1823
  927MPD2    C113614   3.498   2.169  17.674  0.5409 -0.0005  0.5516
  927MPD2    C213615   3.500   2.237  17.554  0.1240  0.0209  0.1141
  927MPD2    C313616   3.617   2.281  17.505  0.0255 -0.6016  0.5036
  927MPD2    C413617   3.738   2.257  17.571  0.0698  0.0519  0.2584
  927MPD2    C513618   3.739   2.184  17.685 -0.7090 -0.1182 -0.1413
  927MPD2     H13619   3.414   2.272  17.498 -0.3006  0.3138  0.9537
  927MPD2    H113620   3.831   2.299  17.533 -0.1582  0.7491  0.4835
  927MPD2    H213621   3.629   2.089   0.080  2.6792  0.8437  0.1949
  927MPD2    H313622   3.834   2.172  17.736  0.1287 -1.7771 -2.0685
  927MPD2     N13623   3.615   2.361  17.388  0.5610  0.0764  0.0828
  927MPD2    H513624   3.527   2.365  17.337  1.0324  0.0706 -0.7249
  927MPD2    N113625   3.379   2.132  17.745 -0.7367 -0.7857 -0.4075
  927MPD2    H713626   3.381   2.109   0.094 -2.2684 -0.7952 -0.3670
  928MPD2     C13627   0.396   1.460   0.753 -0.6095 -0.2708  0.2966
  928MPD2    C113628   0.532   1.434   0.785  0.4338 -0.3787 -0.1934
  928MPD2    C213629   0.615   1.379   0.688  0.0265  0.0685 -0.1028
  928MPD2    C313630   0.562   1.337   0.570 -0.0490  0.5947 -0.6204
  928MPD2    C413631   0.429   1.368   0.541 -0.0019  0.8148  0.1753
  928MPD2    C513632   0.346   1.430   0.628  0.3350  0.2995 -0.2430
  928MPD2     H13633   0.722   1.377   0.704  0.0460 -2.9987 -0.5041
  928MPD2    H113634   0.392   1.342   0.443 -1.5757 -0.0538  1.0149
  928MPD2    H213635   0.323   1.486   0.829 -2.0652  1.0291 -1.5511
  928MPD2    H313636   0.243   1.445   0.600  0.3980  2.4072  0.6779
  928MPD2     N13637   0.645   1.289   0.462  0.0737  0.6660  0.2526
  928MPD2    H513638   0.587   1.268   0.381  0.6275 -0.2746  0.1111
  928MPD2    N113639   0.573   1.459   0.917 -0.1954  0.4369  0.4210
  928MPD2    H713640   0.499   1.473   0.985  0.8749 -1.0668  1.8617
  929MPD2     C13641   0.860   1.550  10.751 -0.1927  0.4874  0.4075
  929MPD2    C113642   0.772   1.470  10.824 -0.0334 -0.1575  0.4382
  929MPD2    C213643   0.649   1.452  10.765 -0.3758  0.3726 -0.1540
  929MPD2    C313644   0.609   1.522  10.650  0.0771 -0.7971 -0.8862
  929MPD2    C413645   0.701   1.593  10.584 -0.7183 -0.3761 -0.2272
  929MPD2    C513646   0.830   1.617  10.633  0.1654  0.5215  0.1988
  929MPD2     H13647   0.565   1.401  10.811 -1.2162  1.6101 -0.3059
  929MPD2    H113648   0.683   1.658  10.499 -0.5855 -1.1775 -0.8693
  929MPD2    H213649   0.962   1.557  10.788  0.1079  0.8169 -0.4782
  929MPD2    H313650   0.886   1.696  10.585 -2.4099  2.1087 -0.2157
  929MPD2     N13651   0.480   1.510  10.594  0.1704  0.5520  0.2440
  929MPD2    H513652   0.458   1.573  10.517 -1.6843 -1.0281 -0.5170
  929MPD2    N113653   0.813   1.401  10.941  0.2871  0.6302  0.2417
  929MPD2    H713654   0.913   1.393  10.957  0.9252  1.6767 -3.3017
  930MPD2     C13655   2.643   3.483  14.325  0.5805 -0.6527 -0.4529
  930MPD2    C113656   2.634   3.590  14.235  0.5996 -0.7478 -0.5385
  930MPD2    C213657   2.545   3.586  14.135 -0.0435  0.1855  0.0408
  930MPD2    C313658   2.475   3.465  14.106  0.5781  0.1429 -0.0044
  930MPD2    C413659   2.489   3.357  14.191 -0.6188 -0.5458 -0.2950
  930MPD2    C513660   2.571   3.367  14.301 -0.8022  0.4351  0.3012
  930MPD2     H13661   2.530   3.677  14.078 -0.1966  0.2199  0.1375
  930MPD2    H113662   2.445   3.260  14.171 -2.3378 -0.3320  2.4063
  930MPD2    H213663   2.710   3.488  14.410  0.3615  1.0608 -0.3898
  930MPD2    H313664   2.585   3.286  14.371  1.0726  0.3151 -0.2103
  930MPD2     N13665   2.394   3.447  13.997 -0.3552  0.1395  0.0747
  930MPD2    H513666   2.371   3.349  13.983  3.3960 -0.5554 -1.1979
  930MPD2    N113667   2.704   3.711  14.241 -0.1429  0.2198 -0.0446
  930MPD2    H713668   2.688   3.777  14.166 -0.8861 -0.2971 -0.3339
  931MPD2     C13669   3.210   1.650   0.362  0.3437  0.1759 -0.0370
  931MPD2    C113670   3.119   1.744   0.395  0.2707 -0.5937 -0.1200
  931MPD2    C213671   3.061   1.744   0.529 -0.2991  0.2732 -0.5592
  931MPD2    C313672   3.104   1.657   0.623  0.0777 -0.0879  0.0561
  931MPD2    C413673   3.186   1.554   0.583  0.6780  0.0316 -1.3193
  931MPD2    C513674   3.244   1.553   0.458  0.3448 -0.2507  0.6756
  931MPD2     H13675   3.003   1.829   0.562 -0.3752  0.1505 -0.3753
  931MPD2    H113676   3.223   1.486   0.659 -1.4675  0.1690 -0.1668
  931MPD2    H213677   3.256   1.651   0.264  0.5597 -0.0342  0.0632
  931MPD2    H313678   3.321   1.479   0.445 -0.6888 -1.0843 -0.6563
  931MPD2     N13679   3.066   1.649   0.761 -0.1413 -0.2854 -0.7163
  931MPD2    H513680   3.107   1.576   0.818  0.8893 -1.1297 -2.5562
  931MPD2    N113681   3.104   1.850   0.303 -0.3567  0.0927 -0.3952
  931MPD2    H713682   3.149   1.839   0.213 -1.1276 -1.4149 -0.5908
  932MPD2     C13683   3.969   2.124  11.319 -0.3846 -0.5205  0.1319
  932MPD2    C113684   4.033   2.162  11.434 -0.6497 -0.9665  0.2950
  932MPD2    C213685   4.096   2.064  11.508 -0.0593  0.1457  0.1219
  932MPD2    C313686   4.090   1.928  11.477  0.7394  0.0085  0.1657
  932MPD2    C413687   4.025   1.893  11.357  0.1608 -0.0007 -0.1746
  932MPD2    C513688   3.969   1.994  11.280  0.1399  0.2788 -0.8285
  932MPD2     H13689   4.128   2.087  11.609 -1.1206  0.3014  0.4287
  932MPD2    H113690   4.004   1.788  11.336 -1.9569  0.9312 -2.7555
  932MPD2    H213691   3.928   2.193  11.246  0.3844  0.2153  0.3926
  932MPD2    H313692   3.923   1.969  11.185 -2.5245  1.5104  0.1190
  932MPD2     N13693   4.138   1.823  11.562 -0.2270  0.0675 -0.2133
  932MPD2    H513694   4.127   1.728  11.527 -0.5984 -0.3618  1.0602
  932MPD2    N113695   4.060   2.294  11.466 -0.1364 -0.2535 -0.6751
  932MPD2    H713696   4.121   2.316  11.544 -1.3418 -0.5408  0.3429
  933MPD2     C13697   0.222   1.609   1.612  0.1857 -0.7220  0.3474
  933MPD2    C113698   0.281   1.660   1.499 -0.6090 -0.7780  1.1403
  933MPD2    C213699   0.237   1.785   1.466  0.1797  0.2707  0.0026
  933MPD2    C313700   0.131   1.852   1.528 -0.4091 -0.1336 -0.3453
  933MPD2    C413701   0.061   1.791   1.627 -0.0399  0.7397 -0.4214
  933MPD2    C513702   0.110   1.673   1.667 -0.3691  0.5613 -0.1434
  933MPD2     H13703   0.281   1.827   1.376  1.1136  1.4394  0.9981
  933MPD2    H113704   4.708   1.834   1.671 -0.2788  2.0288 -2.1664
  933MPD2    H213705   0.239   1.509   1.651 -0.0465 -1.3392 -1.1367
  933MPD2    H313706   0.056   1.610   1.737  1.8871 -1.7425 -0.4648
  933MPD2     N13707   0.094   1.970   1.467  0.6577  0.2796  0.5726
  933MPD2    H513708   0.152   2.005   1.392 -1.3880  0.4079 -0.9380
  933MPD2    N113709   0.390   1.593   1.445 -0.2167  0.3631 -0.1329
  933MPD2    H713710   0.406   1.500   1.481 -0.1843  0.4861  0.1702
  934MPD2     C13711   2.450   3.542   1.215  0.0411  0.8351  0.1767
  934MPD2    C113712   2.472   3.412   1.180 -0.6850 -0.3255 -0.7808
  934MPD2    C213713   2.359   3.336   1.156  0.1246  0.8523 -0.4854
  934MPD2    C313714   2.234   3.383   1.184 -0.0234 -0.0060  0.7650
  934MPD2    C413715   2.214   3.504   1.225 -0.6127  0.6212  0.6911
  934MPD2    C513716   2.325   3.590   1.242  0.5129  0.0519  0.4175
  934MPD2     H13717   2.374   3.238   1.112 -1.8985  1.1939 -1.9164
  934MPD2    H113718   2.116   3.539   1.255 -1.6514 -0.5517 -1.3081
  934MPD2    H213719   2.524   3.620   1.230  2.3425 -0.9455 -2.0837
  934MPD2    H313720   2.319   3.692   1.279 -1.7186  1.2420 -3.1774
  934MPD2     N13721   2.121   3.296   1.168  0.9209 -0.4173 -0.0412
  934MPD2    H513722   2.030   3.342   1.175  0.7806 -0.5533 -1.0809
  934MPD2    N113723   2.601   3.365   1.153  0.3678  0.5415 -0.1080
  934MPD2    H713724   2.606   3.275   1.107 -1.4719 -0.3137  1.3872
  935MPD2     C13725   2.031   2.346   0.892  1.3810  0.0826 -0.1341
  935MPD2    C113726   1.923   2.410   0.848 -0.0032  0.0113 -0.5774
  935MPD2    C213727   1.867   2.520   0.915  0.0370 -0.2729 -0.1813
  935MPD2    C313728   1.949   2.581   1.006  0.1371  0.4320 -0.2033
  935MPD2    C413729   2.059   2.517   1.053  0.1951 -0.4865 -0.0887
  935MPD2    C513730   2.100   2.399   0.999 -0.7071  0.1556  0.0742
  935MPD2     H13731   1.774   2.563   0.879 -0.9469 -1.9943  0.2557
  935MPD2    H113732   2.105   2.560   1.141  2.2492 -0.8481 -0.9990
  935MPD2    H213733   2.067   2.252   0.852 -0.3051 -0.2944 -0.7895
  935MPD2    H313734   2.181   2.339   1.038  0.3378  2.4656  1.5026
  935MPD2     N13735   1.933   2.712   1.048  0.0687  0.0966 -0.7160
  935MPD2    H513736   1.997   2.742   1.121 -0.3947  0.8458 -0.6169
  935MPD2    N113737   1.840   2.350   0.745  0.3316 -0.6834  0.2257
  935MPD2    H713738   1.746   2.385   0.730  0.8027  0.0088 -1.1227
  936MPD2     C13739   0.045   0.242  12.631  0.1895  0.6529 -0.2805
  936MPD2    C113740   0.123   0.191  12.730  0.1907 -0.6758  0.1899
  936MPD2    C213741   0.256   0.212  12.733  0.2856  0.2489  0.0638
  936MPD2    C313742   0.321   0.284  12.639  0.4146  0.3971 -0.2928
  936MPD2    C413743   0.240   0.346  12.547 -0.0233  0.3876  0.0342
  936MPD2    C513744   0.100   0.324  12.545 -0.7584  0.5646 -0.0249
  936MPD2     H13745   0.308   0.174  12.821 -0.3325  0.0714  0.3554
  936MPD2    H113746   0.283   0.408  12.469  0.0543  1.3099  0.8030
  936MPD2    H213747   4.677   0.220  12.630  0.5519 -1.3261  3.3263
  936MPD2    H313748   0.039   0.368  12.466  0.9914 -0.7339 -2.1025
  936MPD2     N13749   0.462   0.312  12.650 -0.0562  0.9314 -1.3593
  936MPD2    H513750   0.508   0.382  12.593 -0.0713 -0.1361 -2.6676
  936MPD2    N113751   0.082   0.112  12.844 -0.0973  0.0676 -0.4793
  936MPD2    H713752   0.149   0.106  12.920  0.7229 -1.4498 -1.3277
  937MPD2     C13753   2.655   1.912  11.929 -0.2395  1.1228 -0.0399
  937MPD2    C113754   2.667   2.043  11.891 -0.0550  0.2209  0.4453
  937MPD2    C213755   2.793   2.086  11.841  0.8350  0.4505 -0.1046
  937MPD2    C313756   2.892   1.997  11.806  0.1319  0.4104 -0.9716
  937MPD2    C413757   2.869   1.861  11.829  0.2520 -0.0977 -0.7786
  937MPD2    C513758   2.754   1.826  11.890 -0.7224  1.0708 -0.1974
  937MPD2     H13759   2.800   2.192  11.820 -1.5821  0.0385 -2.9767
  937MPD2    H113760   2.939   1.782  11.804 -1.8249 -1.8852 -0.9793
  937MPD2    H213761   2.568   1.870  11.978  0.8475 -1.8497 -0.6329
  937MPD2    H313762   2.743   1.725  11.929  0.6800 -0.0647 -2.7532
  937MPD2     N13763   3.011   2.041  11.738  0.6636  0.3134 -0.3700
  937MPD2    H513764   3.037   2.139  11.738 -0.1920  0.5500 -1.0671
  937MPD2    N113765   2.574   2.140  11.935 -0.3108  0.3472  0.3636
  937MPD2    H713766   2.607   2.236  11.929 -1.3544  0.6414 -0.7068
  938MPD2     C13767   1.032   2.707   0.936  0.2318  0.6087  0.2776
  938MPD2    C113768   0.928   2.771   0.873  0.6760 -0.9869 -0.5938
  938MPD2    C213769   0.805   2.712   0.870  0.2640  0.1248  0.1092
  938MPD2    C313770   0.791   2.586   0.918 -0.4801 -0.5731 -0.1145
  938MPD2    C413771   0.894   2.518   0.981  0.5820  0.3923 -0.8366
  938MPD2    C513772   1.011   2.586   0.989  0.4408 -0.0164  0.3534
  938MPD2     H13773   0.727   2.761   0.813  0.7022  0.3154 -0.3201
  938MPD2    H113774   0.876   2.418   1.019  0.2071 -0.2157 -2.6033
  938MPD2    H213775   1.136   2.739   0.936  0.8863 -1.4767  0.5713
  938MPD2    H313776   1.092   2.546   1.048 -0.0875  0.1696  1.2084
  938MPD2     N13777   0.671   2.509   0.907 -0.2353  0.1755 -0.3548
  938MPD2    H513778   0.673   2.408   0.923 -2.2099  0.3379  0.9094
  938MPD2    N113779   0.937   2.900   0.817  0.0838  0.1947 -0.2641
  938MPD2    H713780   0.857   2.947   0.775  2.2912  2.9448 -1.3373
  939MPD2     C13781   2.208   4.334   0.925 -0.4273  0.5969 -0.0774
  939MPD2    C113782   2.168   4.224   0.993  0.0397 -0.3102 -0.2091
  939MPD2    C213783   2.163   4.101   0.937  0.5441  0.0575 -0.4831
  939MPD2    C313784   2.186   4.084   0.801 -0.6356 -0.4818 -0.7303
  939MPD2    C413785   2.211   4.197   0.720  0.8950  0.4337 -0.6170
  939MPD2    C513786   2.232   4.315   0.789 -0.2817 -1.2589 -0.6316
  939MPD2     H13787   2.144   4.009   0.992  0.8711 -0.7565 -1.7377
  939MPD2    H113788   2.242   4.206   0.617  0.6276 -1.5030 -0.8553
  939MPD2    H213789   2.213   4.437   0.959 -0.3321  0.2181  1.0550
  939MPD2    H313790   2.293   4.391   0.742 -1.0962 -1.1353 -1.4934
  939MPD2     N13791   2.184   3.955   0.752 -0.2570 -0.5681 -0.2056
  939MPD2    H513792   2.166   3.878   0.816 -1.3706 -1.7883 -1.9816
  939MPD2    N113793   2.123   4.248   1.123  0.0219 -0.1389  0.1317
  939MPD2    H713794   2.152   4.334   1.169  1.0086 -0.5591  0.2967
  940MPD2     C13795   1.352   0.702  13.589 -0.5535  0.3187  0.4549
  940MPD2    C113796   1.233   0.654  13.547 -0.4921 -0.6677  0.1684
  940MPD2    C213797   1.214   0.643  13.410 -0.0010  0.5091  0.3383
  940MPD2    C313798   1.310   0.675  13.317 -0.0173 -0.5025  0.3061
  940MPD2    C413799   1.429   0.728  13.366 -0.2287 -1.0554  0.2779
  940MPD2    C513800   1.446   0.741  13.503  0.2038  0.1040  1.0288
  940MPD2     H13801   1.120   0.606  13.371  1.4992 -3.4146  0.4944
  940MPD2    H113802   1.510   0.756  13.299 -0.8795  0.9666  0.3206
  940MPD2    H213803   1.377   0.721  13.693  0.7158  1.6401 -0.0970
  940MPD2    H313804   1.530   0.798  13.541  0.9945 -1.3435  1.4315
  940MPD2     N13805   1.289   0.662  13.174  0.6779 -0.0915  0.3130
  940MPD2    H513806   1.369   0.696  13.122 -0.4187 -1.4177 -2.2243
  940MPD2    N113807   1.133   0.608  13.639  0.0944  0.8202 -0.0799
  940MPD2    H713808   1.036   0.616  13.613  0.2010 -0.4824 -0.8422
  941MPD2     C13809   0.045   0.100   9.662  0.1922  0.6205  0.0870
  941MPD2    C113810   0.068   0.042   9.787  0.7967 -0.3419 -0.0005
  941MPD2    C213811   4.697   4.719   9.851 -0.2427 -0.2523  0.2293
  941MPD2    C313812   4.568   4.736   9.810 -0.7418  0.5040  0.6074
  941MPD2    C413813   4.543   0.066   9.692 -0.2285  0.3043 -0.6578
  941MPD2    C513814   4.651   0.109   9.616 -1.0332 -0.7015 -0.7249
  941MPD2     H13815   4.725   4.666   9.942  1.0407 -0.6296 -0.3815
  941MPD2    H113816   4.439   0.082   9.666 -0.6096  0.0079  0.7082
  941MPD2    H213817   0.121   0.149   9.602  0.9159 -2.1950 -1.2967
  941MPD2    H313818   4.626   0.161   9.525  1.9224  0.3611 -0.9334
  941MPD2     N13819   4.457   4.687   9.887 -0.1590 -0.2639  0.1293
  941MPD2    H513820   4.368   4.697   9.839 -1.0096 -0.5825  1.6627
  941MPD2    N113821   0.192   0.040   9.848  0.2795  0.3388 -0.0315
  941MPD2    H713822   0.190   0.032   9.949 -3.1216  1.2326 -0.0566
  942MPD2     C13823   4.388   2.318   9.776  0.5018 -0.1825 -0.2771
  942MPD2    C113824   4.349   2.196   9.828 -0.1247 -0.0609  0.5842
  942MPD2    C213825   4.436   2.088   9.822  0.3995  0.3373  0.1088
  942MPD2    C313826   4.559   2.094   9.762  0.2980  1.1443 -0.0556
  942MPD2    C413827   4.606   2.216   9.723 -0.1647 -0.3676  0.3169
  942MPD2    C513828   4.515   2.320   9.718 -0.3772  0.2343  0.1529
  942MPD2     H13829   4.393   1.990   9.840  0.9744  0.3372  1.4478
  942MPD2    H113830   4.709   2.223   9.689  0.0934  1.5107  1.4403
  942MPD2    H213831   4.329   2.408   9.790 -1.4271 -1.2538 -1.5816
  942MPD2    H313832   4.551   2.415   9.681  0.7150  0.0307  0.6841
  942MPD2     N13833   4.646   1.984   9.765 -0.1189 -0.1775  0.0741
  942MPD2    H513834   0.007   2.000   9.748 -0.3735  2.2932  0.9540
  942MPD2    N113835   4.217   2.172   9.874 -0.0623  0.0352 -0.4990
  942MPD2    H713836   4.201   2.083   9.920  1.0493 -0.2074 -0.5761
  943MPD2     C13837   3.328   4.527  10.405  0.1081  0.1413 -0.2653
  943MPD2    C113838   3.316   4.447  10.516 -0.0991 -0.2833  0.0559
  943MPD2    C213839   3.336   4.495  10.643 -0.0132 -0.6831  0.0365
  943MPD2    C313840   3.373   4.623  10.664  0.0387 -0.3410  0.1854
  943MPD2    C413841   3.377   4.705  10.553 -0.0797  0.4900  0.4684
  943MPD2    C513842   3.364   4.655  10.427  0.8090  0.0657 -0.2253
  943MPD2     H13843   3.315   4.433  10.730  1.9153 -0.9247  0.3197
  943MPD2    H113844   3.388   0.075  10.557  1.2372  0.2729  2.5549
  943MPD2    H213845   3.319   4.487  10.304  0.6263  1.0741 -0.6825
  943MPD2    H313846   3.363   4.718  10.339  2.4322  2.1314  1.2423
  943MPD2     N13847   3.388   4.663  10.796  0.3294  0.2797  0.2519
  943MPD2    H513848   3.404   4.591  10.866  1.6910 -0.0439 -0.4058
  943MPD2    N113849   3.275   4.313  10.497  0.2110 -0.0507  0.0378
  943MPD2    H713850   3.262   4.280  10.402 -0.0587 -4.4318  1.5893
  944MPD2     C13851   3.004   3.106  11.447 -0.1182 -0.2020 -0.0301
  944MPD2    C113852   3.082   3.210  11.388  0.0718  0.4317  0.6452
  944MPD2    C213853   3.058   3.339  11.425  0.0582 -0.1785  0.4285
  944MPD2    C313854   2.959   3.369  11.517 -0.6718  0.6108 -0.5764
  944MPD2    C413855   2.872   3.268  11.564  0.1675 -0.4763 -0.4970
  944MPD2    C513856   2.902   3.140  11.529  0.3306 -0.2960  0.0535
  944MPD2     H13857   3.114   3.423  11.386 -2.2668  0.6201 -1.1929
  944MPD2    H113858   2.788   3.295  11.627 -0.4423 -0.2126 -1.4106
  944MPD2    H213859   3.027   3.003  11.420 -1.1393 -0.6379  0.7785
  944MPD2    H313860   2.845   3.056  11.569  0.5777 -0.1996  0.6082
  944MPD2     N13861   2.930   3.507  11.549 -0.2977  1.0651 -0.2741
  944MPD2    H513862   2.975   3.576  11.490  0.9243  1.2062  0.8244
  944MPD2    N113863   3.178   3.168  11.293  0.2013  0.1672  0.4918
  944MPD2    H713864   3.175   3.073  11.260  2.5916 -0.6013  2.4893
    1TMC1    C113865   1.146   4.176  15.139  1.3299 -0.1684  0.4075
    1TMC1    C213866   1.122   4.101  15.017 -0.3343 -0.1366  0.2628
    1TMC1    C313867   1.098   3.964  15.031 -0.3847 -0.0119 -0.1022
    1TMC1    C413868   1.142   4.113  15.258  0.4525  0.4070  0.0156
    1TMC1    C513869   1.102   3.984  15.268  0.5360  0.0633 -0.3113
    1TMC1    C613870   1.069   3.915  15.157 -1.1478  0.1330  0.2178
    1TMC1     C13871   1.210   4.302  15.142  0.5327  0.0468 -0.3369
    1TMC1     O13872   1.262   4.330  15.248 -0.3810  0.0508 -0.2521
    1TMC1     H13873   1.127   4.146  14.918 -0.3053  2.1978  1.3167
    1TMC1    H113874   1.186   4.157  15.347 -0.1219 -1.2504  1.1113
    1TMC1    H213875   1.026   3.816  15.161  1.4864 -1.0512 -0.6908
    1TMC1    C713876   1.062   3.924  15.387 -0.4930 -0.3311  0.0926
    1TMC1    C813877   1.073   3.890  14.917 -0.1560  0.1897  0.6490
    1TMC1    O113878   1.048   3.805  15.409  0.2136  0.0675  0.3743
    1TMC1    O213879   0.969   3.838  14.893 -1.1023  0.2803 -0.8394
    1TMC1    O313880   1.029   4.024  15.471  0.7153  0.6075 -0.0752
    1TMC1    H313881   1.048   4.117  15.447 -0.0264  0.8926  0.4400
    1TMC1    O513882   1.205   3.854  14.877 -0.1840  0.2981  0.4014
    1TMC1    H513883   1.266   3.928  14.896  2.0916 -1.7737  1.0756
    2MPD2     C13884   1.356   0.014  14.956 -0.9000  0.0893 -0.1816
    2MPD2    C113885   1.280   4.689  14.854  0.5020  0.1371 -0.2899
    2MPD2    C213886   1.230   4.562  14.877 -0.6503 -0.3263  0.6102
    2MPD2    C313887   1.253   4.502  15.001 -0.0176 -0.2295  0.1327
    2MPD2    C413888   1.307   4.574  15.100  0.1593 -1.1227  0.5788
    2MPD2    C513889   1.354   4.699  15.080  0.3148 -0.7429  0.5952
    2MPD2     H13890   1.174   4.501  14.807 -0.2327  0.0240 -0.0239
    2MPD2    H113891   1.314   4.543  15.204 -0.8605 -0.3503  0.8718
    2MPD2    H213892   1.394   0.115  14.942 -4.4231  1.5135  0.4647
    2MPD2    H313893   1.394   0.026  15.158 -2.5784  0.0256  1.4673
    2MPD2     N13894   1.206   4.369  15.015 -0.1122  0.2230 -0.4092
    2MPD2    H513895   1.160   4.340  14.930 -0.2863  0.0123 -0.2400
    2MPD2    N113896   1.256   0.032  14.744  0.1663  0.1000 -0.4390
    2MPD2    H713897   1.312   0.117  14.740  0.1273  0.1277 -0.3938
    3TMC2    C113898   1.170   0.096  14.531  0.1160 -0.1841  0.1142
    3TMC2    C213899   1.057   0.109  14.459 -0.0364  0.1591 -0.4975
    3TMC2    C313900   1.070   0.180  14.342  0.5843 -0.3304 -0.7701
    3TMC2    C413901   1.280   0.169  14.508  0.1166 -0.4409 -0.7721
    3TMC2    C513902   1.288   0.248  14.401  0.6533 -0.4524 -0.0645
    3TMC2    C613903   1.187   0.248  14.310  0.1092 -0.2878 -0.1633
    3TMC2     C13904   1.170   4.735  14.639  0.1625 -0.2724  0.5012
    3TMC2     O13905   1.076   4.658  14.635 -0.2159  0.0186  0.3292
    3TMC2     H13906   0.963   0.062  14.487  1.0026 -0.3280  2.1173
    3TMC2    H113907   1.359   0.164  14.582 -1.2577 -0.0223  0.7231
    3TMC2    H213908   1.190   0.302  14.216 -1.3980  2.2123  1.2095
    3TMC2    C713909   1.412   0.313  14.367  0.2863 -0.8775 -0.4246
    3TMC2    C813910   0.976   0.157  14.237  0.4911  0.9435 -0.5031
    3TMC2    O113911   1.517   0.254  14.384  0.2701  0.5206  0.3773
    3TMC2    O213912   1.006   0.175  14.121 -0.8756  0.1333 -0.6043
    3TMC2    O513913   0.860   0.186  14.292  0.2797  0.2525  0.3300
    3TMC2    H513914   0.849   0.189  14.389  3.1277  0.1907  0.6734
    4TMC2    C113915   1.062   0.996  13.806 -0.1793  0.9401  0.2349
    4TMC2    C213916   1.135   1.028  13.699 -0.3748  0.0818 -0.2922
    4TMC2    C313917   1.272   1.017  13.704 -0.4998  1.0822  0.4612
    4TMC2    C413918   1.116   0.924  13.911 -0.4307  0.5776  0.7307
    4TMC2    C513919   1.256   0.924  13.916  0.4740  0.0009 -0.4021
    4TMC2    C613920   1.332   0.969  13.816 -0.1448  0.0654 -0.0842
    4TMC2     C13921   0.922   0.956  13.791  0.0121 -0.3332 -0.1742
    4TMC2     O13922   0.875   0.865  13.860 -0.1695  0.5724  0.4429
    4TMC2     H13923   1.093   1.060  13.604 -2.1514  0.4646  0.6309
    4TMC2    H113924   1.055   0.887  13.993 -2.1614 -1.0986 -1.3045
    4TMC2    H213925   1.440   0.978  13.819 -0.1222 -0.2958  0.1534
    4TMC2    C713926   1.316   0.859  14.031 -0.1745 -0.0588 -0.0764
    4TMC2    C813927   1.350   1.087  13.596 -0.0642  0.4765  0.4353
    4TMC2    O113928   1.250   0.853  14.133 -0.0172 -0.1122  0.4658
    4TMC2    O213929   1.463   1.053  13.562  0.3319  0.1032 -0.6244
    4TMC2    O513930   1.281   1.194  13.553  0.1548 -0.0258  1.0342
    4TMC2    H513931   1.202   1.211  13.609  1.0794  0.5780  2.1540
    5MPD2     C13932   0.468   0.987  13.557 -0.1922  0.6508  0.2429
    5MPD2    C113933   0.558   1.066  13.491 -0.4076 -0.1018  0.2422
    5MPD2    C213934   0.690   1.072  13.534 -0.0334 -0.1706  0.1539
    5MPD2    C313935   0.724   1.021  13.656 -0.3142  0.6986  0.3947
    5MPD2    C413936   0.631   0.949  13.726  0.7377  0.1584  0.1219
    5MPD2    C513937   0.504   0.924  13.673  0.2679  0.3849 -0.1138
    5MPD2     H13938   0.764   1.127  13.477  0.1365 -0.2833  0.2664
    5MPD2    H113939   0.649   0.903  13.823  1.5544 -0.6039 -0.3853
    5MPD2    H213940   0.364   0.975  13.527 -0.1816 -1.4062  0.9908
    5MPD2    H313941   0.430   0.868  13.729  1.2510 -0.1549  0.6400
    5MPD2     N13942   0.858   1.031  13.700 -0.2453 -0.5090  0.1365
    5MPD2    H513943   0.916   1.098  13.650 -1.2501 -0.0901 -0.4962
    5MPD2    N113944   0.521   1.148  13.384 -0.1198 -0.1547  0.1339
    5MPD2    H713945   0.598   1.195  13.338  0.4162 -1.8356 -0.6878
    6MPD1     C13946   4.421   2.817  13.111  0.0003  0.0844 -0.1839
    6MPD1    C113947   4.325   2.736  13.167 -0.9108 -0.2381  0.1020
    6MPD1    C213948   4.361   2.624  13.240 -0.1420 -0.4131  0.2063
    6MPD1    C313949   4.481   2.562  13.210 -0.6616 -1.3726  0.2619
    6MPD1    C413950   4.576   2.644  13.142 -0.5833  0.9468 -0.0041
    6MPD1    C513951   4.547   2.765  13.090 -0.2680 -0.7358  0.5914
    6MPD1     H13952   4.292   2.584  13.314  0.0398 -1.2692 -0.0807
    6MPD1    H113953   4.682   2.621  13.140 -0.8067 -0.1741  0.8041
    6MPD1    H213954   4.407   2.923  13.091  3.2079  0.3120 -1.2152
    6MPD1    H313955   4.624   2.831  13.050 -2.1017  0.3478 -1.1248
    6MPD1     N13956   4.504   2.426  13.243 -0.6183  0.4409 -0.6362
    6MPD1    H513957   4.583   2.381  13.197 -2.4219 -3.4659  0.1193
    6MPD1    N113958   4.201   2.799  13.209 -0.0868 -0.1044  0.1898
    6MPD1    H613959   4.124   2.734  13.219 -0.0918 -0.2690 -0.9609
    6MPD1    H713960   4.179   2.873  13.142 -0.2021  0.7914  1.2131
    7MPD2     C13961   4.420   1.569  13.305  0.3111 -0.5353 -0.8236
    7MPD2    C113962   4.533   1.649  13.282  0.1014  0.2347 -0.0202
    7MPD2    C213963   4.657   1.600  13.234 -0.0633 -0.9612  0.1194
    7MPD2    C313964   4.660   1.469  13.189 -0.0810  0.5031  0.1452
    7MPD2    C413965   4.552   1.391  13.212  0.0829  0.8571 -0.4379
    7MPD2    C513966   4.438   1.438  13.270  0.1577 -0.1878 -0.1449
    7MPD2     H13967   0.003   1.665  13.212 -1.4780  0.7882  0.0201
    7MPD2    H113968   4.550   1.288  13.178  1.1324 -0.1665  2.6661
    7MPD2    H213969   4.321   1.609  13.326 -0.1139 -0.8537 -2.1974
    7MPD2    H313970   4.351   1.376  13.252 -0.4402  0.2930  1.1028
    7MPD2     N13971   0.038   1.414  13.128  0.3034  0.9673  0.2210
    7MPD2    H513972   0.028   1.314  13.111 -0.1115  1.3384 -1.6645
    7MPD2    N113973   4.534   1.790  13.308  0.1168 -0.6823  0.1743
    7MPD2    H713974   4.615   1.843  13.278 -0.2603  0.4457  1.0996
    8TMC3    C113975   0.268   1.398  13.068 -0.1856  0.7547 -0.1167
    8TMC3    C213976   0.280   1.296  13.162  0.9042 -0.2985 -0.1588
    8TMC3    C313977   0.402   1.265  13.219 -0.3262 -0.2411  0.5704
    8TMC3    C413978   0.379   1.475  13.054  0.4984  0.4859  0.9409
    8TMC3    C513979   0.496   1.454  13.126  0.3813 -0.1914  0.6131
    8TMC3    C613980   0.517   1.335  13.196  0.1021 -1.0077  0.1451
    8TMC3     C13981   0.147   1.479  13.082 -1.1959  0.8007 -0.2821
    8TMC3     O13982   0.185   1.594  13.082  0.7446 -0.0761  0.5271
    8TMC3     H13983   0.191   1.241  13.191 -0.5703  2.4981  0.6348
    8TMC3    H113984   0.388   1.558  12.986 -2.1602 -0.2099 -0.2467
    8TMC3    H213985   0.611   1.318  13.247 -0.3542 -2.1665  0.5923
    8TMC3    C713986   0.531   1.556  13.215 -0.1342  0.1205  0.7034
    8TMC3    C813987   0.392   1.176  13.334 -0.0634  0.5098 -0.5809
    8TMC3    O113988   0.624   1.546  13.292  0.0140 -0.2395 -0.2435
    8TMC3    O213989   0.281   1.141  13.371  0.5641 -0.1104 -1.0957
    9TMC3    C113990   4.489   2.218  13.343  0.7706 -0.1404 -0.4095
    9TMC3    C213991   4.628   2.222  13.358  0.1037  0.0366  0.2263
    9TMC3    C313992   4.693   2.115  13.405  0.1810  0.4533 -0.2558
    9TMC3    C413993   4.415   2.107  13.362 -0.0482 -0.3526  0.4058
    9TMC3    C513994   4.491   1.996  13.402 -1.0675 -0.5019  0.3363
    9TMC3    C613995   4.629   1.993  13.419  0.6170  0.3044 -0.0120
    9TMC3     C13996   4.422   2.333  13.310 -0.6664  0.0057  0.4514
    9TMC3     O13997   4.308   2.350  13.348 -0.2658 -0.0780  0.0706
    9TMC3     H13998   4.693   2.304  13.333  0.7214 -0.1529  1.1749
    9TMC3    H113999   4.310   2.104  13.336  0.3424  4.9248 -1.6621
    9TMC3    H214000   4.675   1.913  13.475 -1.1080 -0.2691  0.5718
    9TMC3    C714001   4.436   1.865  13.360  0.7412 -0.4463 -0.0646
    9TMC3    C814002   0.103   2.123  13.396 -0.3117 -0.3854  0.1697
    9TMC3    O114003   4.320   1.845  13.369  0.3886  0.6442 -0.5990
    9TMC3    O214004   0.166   2.218  13.445  0.2724 -0.0420  0.2037
   10MPD2     C14005   0.523   1.842  13.327 -0.0949  0.2626 -0.5625
   10MPD2    C114006   0.423   1.777  13.273 -0.1124 -0.2692  0.2048
   10MPD2    C214007   0.304   1.841  13.264 -0.0105  0.1506  0.2056
   10MPD2    C314008   0.279   1.957  13.342  0.1966 -0.8460  0.2035
   10MPD2    C414009   0.382   2.015  13.415  0.0714 -0.5282  0.6774
   10MPD2    C514010   0.502   1.959  13.402  0.1641  0.1029 -0.4686
   10MPD2     H14011   0.226   1.794  13.206 -0.8726 -1.1388  2.4420
   10MPD2    H114012   0.365   2.099  13.481 -0.4388 -0.0940 -0.0129
   10MPD2    H214013   0.622   1.800  13.326 -0.7118 -1.2193  0.4672
   10MPD2    H314014   0.581   2.001  13.464 -1.1098  0.9546  0.5727
   10MPD2     N14015   0.150   2.013  13.340 -0.0441  0.0814 -0.0352
   10MPD2    H514016   0.076   1.967  13.288 -0.9728  1.0274  0.4317
   10MPD2    N114017   0.426   1.652  13.210 -0.4474  0.0735 -0.0108
   10MPD2    H714018   0.349   1.617  13.154 -0.2614 -0.7324  0.2440
   11MPD2     C14019   1.602   0.469  14.185 -0.0105  0.1241 -0.0740
   11MPD2    C114020   1.477   0.504  14.217  0.8278  0.7077 -0.4923
   11MPD2    C214021   1.424   0.616  14.159  0.3074 -0.0553 -0.3204
   11MPD2    C314022   1.497   0.701  14.076 -0.1769 -0.0099 -0.0703
   11MPD2    C414023   1.628   0.656  14.037  0.2596 -0.1584  0.3229
   11MPD2    C514024   1.680   0.540  14.094 -0.5224  0.4138 -0.2723
   11MPD2     H14025   1.322   0.641  14.185 -0.5647 -3.9176  0.0046
   11MPD2    H114026   1.692   0.703  13.963 -1.1432  0.5468 -0.4414
   11MPD2    H214027   1.641   0.381  14.236 -1.7603 -0.6101  0.0050
   11MPD2    H314028   1.780   0.509  14.066 -0.6816  1.4364 -1.9330
   11MPD2     N14029   1.444   0.812  14.006  0.3400 -0.6829  0.3499
   11MPD2    H514030   1.493   0.840  13.921  0.4018 -0.2130  0.5437
   11MPD2    N114031   1.389   0.427  14.294 -0.5334 -0.3077 -1.0457
   11MPD2    H714032   1.294   0.463  14.292 -0.7639 -0.7181  1.3575
    1MPD1     C14033   3.394   1.782  15.902 -0.2303 -0.3553  0.3391
    1MPD1    C114034   3.346   1.728  16.017 -0.6677 -0.4645 -0.3372
    1MPD1    C214035   3.420   1.724  16.131 -0.1444  0.9007  0.3530
    1MPD1    C314036   3.542   1.794  16.134 -0.3584  0.1938  0.2335
    1MPD1    C414037   3.590   1.851  16.016 -0.4062  0.5514  0.1832
    1MPD1    C514038   3.514   1.839  15.901 -0.1825  0.2370 -0.3916
    1MPD1     H14039   3.372   1.681  16.219  1.7126 -0.5067  0.6776
    1MPD1    H114040   3.680   1.912  16.016  0.5094 -0.7781 -2.3475
    1MPD1    H214041   3.341   1.770  15.808 -0.0546 -1.2458  0.3558
    1MPD1    H314042   3.556   1.878  15.809  0.7250  2.9157  1.1441
    1MPD1     N14043   3.608   1.824  16.252  0.1116 -0.0052 -0.2355
    1MPD1    H514044   3.691   1.882  16.246 -0.3547  0.8269  1.6460
    1MPD1    N114045   3.218   1.665  15.999 -0.2134 -0.5577  0.0483
    1MPD1    H614046   3.159   1.650  16.081  0.1536 -0.8612  0.2606
    1MPD1    H714047   3.161   1.724  15.940 -0.1281  1.2821  1.8367
    2MPD1     C14048   4.097   1.470  17.134 -0.6458 -0.5604 -0.2417
    2MPD1    C114049   4.106   1.605  17.141  0.5203  0.6110 -1.2965
    2MPD1    C214050   4.059   1.682  17.041  0.4442  0.4715  1.4585
    2MPD1    C314051   3.969   1.640  16.948 -0.3570  0.0887  0.6898
    2MPD1    C414052   3.935   1.506  16.950 -0.5256 -0.1061 -0.3141
    2MPD1    C514053   4.010   1.421  17.036  0.2524  0.1070  0.5106
    2MPD1     H14054   4.101   1.783  17.043 -0.3140  0.8148 -0.1441
    2MPD1    H114055   3.868   1.472  16.872 -0.2148  0.5206 -0.8549
    2MPD1    H214056   4.160   1.408  17.196  0.8114  1.7769  0.6007
    2MPD1    H314057   3.989   1.315  17.020 -0.7778  0.7991 -2.7980
    2MPD1     N14058   3.917   1.734  16.857  0.4972  0.1674 -0.4923
    2MPD1    H514059   3.972   1.820  16.849  1.2046 -0.0216  2.5754
    2MPD1    N114060   4.217   1.652  17.217 -0.5223 -0.2777  0.0358
    2MPD1    H614061   4.215   1.753  17.230 -2.6528 -0.7041  3.0486
    2MPD1    H714062   4.225   1.603  17.307  0.2500  1.0610  0.6956
    3TMC3    C114063   3.781   1.815  16.665  0.7401 -0.0295  0.2893
    3TMC3    C214064   3.861   1.920  16.638 -0.1724  1.0504 -0.0908
    3TMC3    C314065   3.837   1.990  16.524 -0.0071 -0.7860 -0.3171
    3TMC3    C414066   3.674   1.785  16.582  0.0917  0.5871 -0.2397
    3TMC3    C514067   3.645   1.867  16.477 -0.8692  0.3821  0.0520
    3TMC3    C614068   3.733   1.965  16.440 -0.2253  0.5875 -0.0024
    3TMC3     C14069   3.806   1.718  16.779  0.3605  0.0923  0.4222
    3TMC3     O14070   3.718   1.633  16.786 -0.2551  0.4035  0.3822
    3TMC3     H14071   3.940   1.946  16.708 -0.4211 -1.3501  1.0713
    3TMC3    H114072   3.603   1.704  16.595  1.9024 -1.3837 -2.4926
    3TMC3    H214073   3.700   2.039  16.368  1.3074  0.4887 -0.8112
    3TMC3    C714074   3.563   1.802  16.375  0.2121  0.0158  0.3670
    3TMC3    C814075   3.906   2.117  16.506  0.0354 -0.2548 -0.0310
    3TMC3    O114076   3.481   1.719  16.408  0.4535 -0.1216 -0.0824
    3TMC3    O214077   3.887   2.187  16.405 -0.3954  0.1042 -0.9056
    4MPD1     C14078   4.206   2.505  16.676  0.2141 -0.2819  0.0477
    4MPD1    C114079   4.231   2.392  16.751 -0.4038  0.0294 -0.0845
    4MPD1    C214080   4.166   2.279  16.715  0.1275  0.1706  0.1006
    4MPD1    C314081   4.067   2.266  16.621 -0.6398 -0.1939  0.2181
    4MPD1    C414082   4.044   2.390  16.553 -0.4253 -0.0382  0.2150
    4MPD1    C514083   4.108   2.509  16.581 -0.6250  0.5791  0.1070
    4MPD1     H14084   4.206   2.190  16.763 -1.5667 -0.3461  0.5626
    4MPD1    H114085   3.968   2.398  16.476  0.3582 -1.2988 -0.6960
    4MPD1    H214086   4.266   2.595  16.682  0.2129 -0.1504 -1.7511
    4MPD1    H314087   4.081   2.603  16.536  1.4196  1.6923  1.2128
    4MPD1     N14088   3.998   2.145  16.602 -0.1847  0.1593 -0.4755
    4MPD1    H514089   4.019   2.071  16.668  1.5967  0.8330 -0.2778
    4MPD1    N114090   4.350   2.389  16.818  0.0441 -0.1165 -0.1798
    4MPD1    H614091   4.354   2.334  16.904  0.2941 -0.1513 -0.2123
    4MPD1    H714092   4.387   2.478  16.850  1.4073 -1.0359  0.8081
    1TCq1    O114093   4.520   1.764  11.796  0.0897  0.3325  0.5582
    1TCq1    C114094   4.500   1.889  11.846 -0.1546 -1.1681  0.0978
    1TCq1    O214095   4.497   1.906  11.965 -0.0828 -0.0239 -0.0025
    1TCq1    C214096   4.587   1.966  11.755 -0.0566 -0.2683  0.0033
    1TCq1    C314097   4.724   1.961  11.790  0.5225  0.3872 -0.1956
    1TCq1    C414098   0.070   2.009  11.696 -0.0837 -0.7692 -0.0970
    1TCq1    C514099   0.032   2.053  11.573  0.4663  0.2551 -0.2851
    1TCq1    C614100   4.635   2.040  11.544 -0.3150 -0.0765 -0.6043
    1TCq1    C714101   4.541   2.007  11.633  0.2498  0.7300 -0.7730
    1TCq1    C814102   4.604   2.069  11.406 -0.4690 -0.3497  0.5286
    1TCq1    O414103   4.483   2.094  11.382  0.0819  0.0473 -0.0079
    1TCq1    C914104   0.206   2.030  11.744 -0.3477  0.0709  0.0082
    1TCq1    O514105   0.284   2.073  11.651  0.2278  0.0562  0.3872
    1TCq1    O614106   0.235   1.983  11.857  1.0331 -0.5634 -0.0043
    1TCq1    H114107   4.547   1.760  11.701  4.5357 -0.2226  1.8417
    1TCq1    H214108   0.010   1.938  11.893 -0.7569  0.3069  0.0865
    1TCq1    H314109   0.104   2.103  11.510  1.1958  0.6592  0.8814
    1TCq1    H414110   4.436   2.000  11.609  0.4051 -1.0153 -0.9615
    2MPD1     C14111   4.682   2.077  10.891 -0.2171 -0.1894  0.3879
    2MPD1    C114112   0.042   2.004  10.953  0.4009  0.4734  0.1260
    2MPD1    C214113   0.061   2.016  11.090 -0.0017 -0.2016  0.8296
    2MPD1    C314114   4.704   2.070  11.171 -0.9820 -0.1346  1.0043
    2MPD1    C414115   4.599   2.136  11.111 -0.2831 -0.5342  1.0915
    2MPD1    C514116   4.590   2.140  10.971  0.1282  0.3108 -0.0257
    2MPD1     H14117   0.143   1.963  11.137  0.0479 -1.6234 -0.8598
    2MPD1    H114118   4.516   2.177  11.167  0.7011 -0.0396  2.1905
    2MPD1    H214119   4.660   2.073  10.785  0.3979 -0.4784  0.2707
    2MPD1    H314120   4.504   2.185  10.923 -1.2109 -1.6404  0.5229
    2MPD1     N14121   4.712   2.047  11.320 -0.0327  0.4006 -0.1322
    2MPD1    H514122   0.059   2.010  11.363 -0.3962 -1.6851 -1.1727
    2MPD1    N114123   0.132   1.922  10.879 -0.3455  0.0056  0.1119
    2MPD1    H614124   0.094   1.895  10.789 -0.5853  0.0878  0.1904
    2MPD1    H714125   0.172   1.843  10.930  2.1371  1.3690  0.2869
    1TMC1    C114126   4.353   0.689   1.122 -0.2811 -0.6352  0.2712
    1TMC1    C214127   4.369   0.821   1.146 -0.0539 -1.0944  0.3268
    1TMC1    C314128   4.331   0.879   1.267 -0.1302  0.7172  0.0176
    1TMC1    C414129   4.292   0.620   1.221  0.2531 -0.7190 -0.8436
    1TMC1    C514130   4.240   0.681   1.333 -0.3990  0.3045  0.1527
    1TMC1    C614131   4.254   0.814   1.360  0.2413 -0.0286  0.0968
    1TMC1     C14132   4.409   0.628   1.004 -0.3455 -0.1530  0.5872
    1TMC1     O14133   4.410   0.505   1.006  0.2333 -0.1423  0.0266
    1TMC1     H14134   4.404   0.889   1.068  0.1184 -0.1947  1.1811
    1TMC1    H114135   4.260   0.518   1.201  0.3998 -0.9293 -0.0013
    1TMC1    H214136   4.195   0.851   1.444 -0.7636 -1.5064  0.0322
    1TMC1    C714137   4.181   0.599   1.442 -0.7652 -0.5595  0.4450
    1TMC1    C814138   4.336   1.025   1.284  0.6565 -0.8387  0.0300
    1TMC1    O114139   4.088   0.630   1.514 -0.3596 -0.0361 -0.4447
    1TMC1    O214140   4.340   1.100   1.187  1.2004 -0.0167  0.6280
    1TMC1    O314141   4.242   0.481   1.440  0.4477  0.4184  0.8616
    1TMC1    H314142   4.331   0.505   1.407  0.4888 -1.2547 -0.2601
    1TMC1    O514143   4.382   1.049   1.409  0.1188  0.3086 -0.8456
    1TMC1    H514144   4.397   0.971   1.467  0.4428 -0.1402 -1.5316
    2MPD1     C14145   4.672   0.628   0.563 -0.7310 -0.1699  0.4225
    2MPD1    C114146   4.693   0.745   0.628  0.1751 -0.0736 -0.3295
    2MPD1    C214147   4.632   0.765   0.746 -0.8271  0.3756  0.5345
    2MPD1    C314148   4.548   0.673   0.807 -0.0594  0.6005  0.1122
    2MPD1    C414149   4.530   0.554   0.746  0.1976  0.3668  0.5995
    2MPD1    C514150   4.582   0.543   0.622  0.5047 -0.2412 -0.0648
    2MPD1     H14151   4.649   0.853   0.806  0.2516 -0.1417  0.9977
    2MPD1    H114152   4.464   0.474   0.778  1.0226 -0.6128 -0.1749
    2MPD1    H214153   4.708   0.599   0.465 -3.7360  0.1405 -0.7541
    2MPD1    H314154   4.548   0.460   0.562 -0.0648 -0.3820  0.4488
    2MPD1     N14155   4.481   0.711   0.923  0.6202  0.4116 -0.0730
    2MPD1    H514156   4.488   0.804   0.962 -0.2036  0.6291 -0.4384
    2MPD1    N114157   0.034   0.849   0.568 -0.0364  0.7348  0.6092
    2MPD1    H614158   0.046   0.849   0.467  0.4711  1.9146  0.6778
    2MPD1    H714159   0.027   0.940   0.612  0.0239  1.6905 -1.3587
    1MPD1     C14160   2.519   1.484  12.165  0.4401 -0.3411 -0.6443
    1MPD1    C114161   2.447   1.602  12.177 -0.2782  0.3182 -0.7782
    1MPD1    C214162   2.407   1.666  12.063  0.1861 -0.4619 -0.3071
    1MPD1    C314163   2.453   1.623  11.939  0.2548 -0.0343  0.3771
    1MPD1    C414164   2.532   1.512  11.933  0.9895  0.0406  0.4809
    1MPD1    C514165   2.578   1.451  12.046 -0.3223 -0.3596 -0.1185
    1MPD1     H14166   2.333   1.744  12.075  0.7045  0.4353 -3.1127
    1MPD1    H114167   2.589   1.483  11.845  1.6930  1.0705  0.5961
    1MPD1    H214168   2.552   1.431  12.253  1.2784 -2.2320 -2.0991
    1MPD1    H314169   2.645   1.366  12.040 -0.0539 -0.4039  3.0789
    1MPD1     N14170   2.414   1.699  11.825  0.5567 -0.1238  0.0193
    1MPD1    H514171   2.376   1.788  11.857  0.8221  0.3360 -0.9280
    1MPD1    N114172   2.383   1.653  12.292  0.1322 -0.3916  0.4652
    1MPD1    H614173   2.363   1.753  12.289 -0.8116 -0.6296 -0.7988
    1MPD1    H714174   2.450   1.642  12.368  1.1398  0.8311 -0.2439
    2MPD1     C14175   1.611   2.205   9.470  0.4785 -0.3625 -0.2821
    2MPD1    C114176   1.531   2.091   9.471 -0.0046 -0.4822  0.4071
    2MPD1    C214177   1.561   1.984   9.558 -0.3386 -0.0511 -0.1577
    2MPD1    C314178   1.657   1.999   9.659  0.2466 -0.1267  1.1562
    2MPD1    C414179   1.719   2.116   9.661  0.5616  0.5134  0.4444
    2MPD1    C514180   1.705   2.219   9.569  0.0609 -0.0018  0.9093
    2MPD1     H14181   1.515   1.886   9.550  1.6588 -1.2801  3.3445
    2MPD1    H114182   1.788   2.145   9.740 -0.7305  2.4681  0.8391
    2MPD1    H214183   1.605   2.277   9.389  2.5358  0.7017  0.4830
    2MPD1    H314184   1.759   2.311   9.589  0.6116  0.0635 -0.8479
    2MPD1     N14185   1.692   1.900   9.763 -0.3366  0.7871  0.0582
    2MPD1    H514186   1.768   1.918   9.828  0.9929 -1.3626 -0.8744
    2MPD1    N114187   1.432   2.073   9.376  0.2013 -0.4789  0.3824
    2MPD1    H614188   1.356   2.024   9.423 -1.6319  1.8287 -0.2046
    2MPD1    H714189   1.395   2.156   9.331  1.7697  0.2538  0.4388
    3MPD1     C14190   1.267   1.012   9.908  0.0881  0.4531  0.1391
    3MPD1    C114191   1.241   1.132   9.854  0.4166 -0.7202 -1.0682
    3MPD1    C214192   1.327   1.242   9.874  0.5453  0.2477  0.2062
    3MPD1    C314193   1.442   1.231   9.955  0.4986  0.4274 -0.0198
    3MPD1    C414194   1.462   1.117  10.016  0.2946  0.1333 -0.0803
    3MPD1    C514195   1.366   1.014  10.007 -0.2530  0.4146  0.2486
    3MPD1     H14196   1.296   1.327   9.814 -2.3825 -1.8758 -1.3103
    3MPD1    H114197   1.535   1.102  10.095 -0.3929  2.6723  1.0528
    3MPD1    H214198   1.211   0.923   9.884  0.7764 -0.9222  3.6005
    3MPD1    H314199   1.402   0.920  10.049  0.0808 -0.6562 -2.4376
    3MPD1     N14200   1.524   1.345   9.965  0.0310 -0.0086  0.0614
    3MPD1    H514201   1.478   1.426   9.923  0.5565  0.0159 -0.4523
    3MPD1    N114202   1.146   1.153   9.751 -0.3976  0.2572  0.4600
    3MPD1    H614203   1.104   1.245   9.747 -0.5202  0.1964  0.3254
    3MPD1    H714204   1.066   1.089   9.755  0.6513 -1.0369  0.5829
    4MPD2     C14205   1.945   2.063  11.356  0.0017  0.8102 -0.7641
    4MPD2    C114206   2.085   2.080  11.327 -0.7977  0.4755  0.0588
    4MPD2    C214207   2.125   2.117  11.202  0.0963  0.4745  0.1294
    4MPD2    C314208   2.032   2.148  11.106  0.4411  0.0784  0.1244
    4MPD2    C414209   1.896   2.135  11.139  0.3845  0.1331  0.0643
    4MPD2    C514210   1.857   2.101  11.262  0.1105 -0.4483 -0.2961
    4MPD2     H14211   2.231   2.112  11.178 -0.0636 -2.4253 -0.0464
    4MPD2    H114212   1.820   2.160  11.065  0.6382  0.7939  0.0193
    4MPD2    H214213   1.902   2.044  11.453  0.0500 -0.7115 -1.0430
    4MPD2    H314214   1.751   2.094  11.280  0.0682  0.9327  0.0024
    4MPD2     N14215   2.074   2.175  10.969  0.1528  0.5865 -0.4318
    4MPD2    H514216   1.995   2.192  10.909 -0.5984  2.2995  1.0418
    4MPD2    N114217   2.192   2.059  11.417  0.5922  0.3423  0.2632
    4MPD2    H714218   2.288   2.070  11.384  0.5732 -3.5866 -1.1792
    5TMC3    C114219   2.319   2.004  11.606 -0.4968  0.1997  0.3932
    5TMC3    C214220   2.341   1.882  11.654  0.3019 -0.0067  0.6676
    5TMC3    C314221   2.451   1.810  11.629 -0.2618  0.7268 -0.3446
    5TMC3    C414222   2.419   2.057  11.535  0.8295  0.5730 -0.5060
    5TMC3    C514223   2.526   1.988  11.487 -0.1249  0.2576 -0.6072
    5TMC3    C614224   2.542   1.858  11.532  0.8038  0.0774 -0.8554
    5TMC3     C14225   2.186   2.032  11.550  0.5133 -0.0899 -0.3397
    5TMC3     O14226   2.084   2.015  11.618 -0.1814 -0.1244 -0.5605
    5TMC3     H14227   2.265   1.844  11.721 -0.3382 -3.2393 -1.9037
    5TMC3    H114228   2.432   2.165  11.533 -1.6438  0.9144  1.4778
    5TMC3    H214229   2.634   1.804  11.512  1.5564  1.5082 -1.2062
    5TMC3    C714230   2.549   2.014  11.346 -0.5992 -0.1387 -0.9443
    5TMC3    C814231   2.468   1.689  11.696 -0.6946  0.5471  0.7380
    5TMC3    O114232   2.453   2.074  11.300  0.4241  0.3024 -0.4075
    5TMC3    O214233   2.556   1.613  11.652 -0.4109  0.0313 -0.1940
    6TMC3    C114234   1.685   1.711   9.896  1.0142 -0.0027 -0.8141
    6TMC3    C214235   1.622   1.594   9.921  0.1952 -0.1555 -0.0599
    6TMC3    C314236   1.690   1.503   9.997 -0.6324  0.6096  0.4459
    6TMC3    C414237   1.813   1.741   9.934  0.2787 -0.3123 -0.2265
    6TMC3    C514238   1.880   1.647  10.010  0.2718 -0.4421 -0.9838
    6TMC3    C614239   1.813   1.535  10.056 -0.6575 -0.3103 -0.6224
    6TMC3     C14240   1.626   1.783   9.778 -0.3023 -0.0011 -0.3104
    6TMC3     O14241   1.521   1.737   9.732 -0.1141  0.2467  0.0921
    6TMC3     H14242   1.515   1.588   9.909  0.0328 -0.5510  1.5824
    6TMC3    H114243   1.871   1.826   9.900  0.4670 -0.7367 -0.9793
    6TMC3    H214244   1.866   1.465  10.119  2.1231 -0.0232 -2.6404
    6TMC3    C714245   1.986   1.697  10.103  0.0043 -0.0619 -0.0562
    6TMC3    C814246   1.633   1.375  10.043  0.5925 -0.2406 -0.9396
    6TMC3    O114247   2.003   1.819  10.112 -0.3979 -0.2000  0.1330
    6TMC3    O214248   1.701   1.300  10.109  0.2039 -1.0315 -0.6078
    7MPD2     C14249   2.767   2.019  10.888 -0.8018 -0.0047 -0.0650
    7MPD2    C114250   2.645   2.065  10.932 -0.2016  0.0287  0.3755
    7MPD2    C214251   2.607   2.041  11.060  0.2878 -0.3401  0.1930
    7MPD2    C314252   2.689   1.981  11.152  0.7395 -0.1564 -0.1436
    7MPD2    C414253   2.818   1.943  11.107 -0.1564 -0.6866  0.0581
    7MPD2    C514254   2.855   1.961  10.975  0.1539 -0.1040  0.6183
    7MPD2     H14255   2.510   2.079  11.089  1.0737  0.6376  1.5807
    7MPD2    H114256   2.895   1.905  11.173 -0.1129  1.1932  1.0567
    7MPD2    H214257   2.802   2.048  10.789 -1.2177  0.4857 -0.0681
    7MPD2    H314258   2.954   1.928  10.946  1.0516  0.0442  3.4371
    7MPD2     N14259   2.654   1.954  11.287 -0.4297 -0.2192  0.4461
    7MPD2    H514260   2.718   1.904  11.348  1.4576  2.1011  0.3516
    7MPD2    N114261   2.546   2.131  10.859  0.1744  0.5426 -0.1567
    7MPD2    H714262   2.461   2.161  10.907 -0.1359 -0.1490 -0.2799
    8TMC3    C114263   2.413   2.190  10.676 -0.0611  0.4595 -0.1634
    8TMC3    C214264   2.366   2.082  10.604  0.4790  0.1525  0.1407
    8TMC3    C314265   2.235   2.057  10.618 -0.4112 -0.3757 -0.6174
    8TMC3    C414266   2.334   2.258  10.762  0.0247  0.8597 -0.5178
    8TMC3    C514267   2.201   2.226  10.783  0.4856 -0.8302 -0.0624
    8TMC3    C614268   2.151   2.122  10.710  0.5546  0.1885  0.1252
    8TMC3     C14269   2.547   2.157  10.728 -0.2865  0.2204 -0.8494
    8TMC3     O14270   2.635   2.135  10.646 -0.4111  0.1482  0.1361
    8TMC3     H14271   2.429   2.016  10.545 -0.8178 -0.0117 -1.0606
    8TMC3    H114272   2.379   2.327  10.833  0.8171 -0.5735  0.3779
    8TMC3    H214273   2.058   2.076  10.740  1.1273 -1.7095 -1.0174
    8TMC3    C714274   2.197   2.195  10.918 -0.4821  0.4445  0.6620
    8TMC3    C814275   2.170   1.953  10.557  0.1347 -0.7784  0.4711
    8TMC3    O114276   2.305   2.179  10.976 -0.3285 -0.1713  0.4533
    8TMC3    O214277   2.066   1.990  10.501  0.5531  0.1857  0.2660
    9MPD2     C14278   2.306   1.629  10.492 -0.4656  0.2838  0.2277
    9MPD2    C114279   2.220   1.733  10.468  0.5012 -0.1494 -0.7688
    9MPD2    C214280   2.140   1.732  10.359  0.5567 -0.4221  0.1465
    9MPD2    C314281   2.136   1.617  10.278 -0.0610  0.7048  0.5260
    9MPD2    C414282   2.225   1.518  10.300 -0.4464 -0.2539 -0.2251
    9MPD2    C514283   2.294   1.517  10.411  0.1870 -0.1938 -0.2229
    9MPD2     H14284   2.074   1.813  10.331 -0.5846 -2.1334 -2.2114
    9MPD2    H114285   2.225   1.425  10.245 -1.2176 -0.0305 -0.6071
    9MPD2    H214286   2.378   1.624  10.573  1.3640  0.6217 -1.3778
    9MPD2    H314287   2.369   1.440  10.419 -0.5579 -0.7811  1.0723
    9MPD2     N14288   2.052   1.600  10.168  0.2655 -0.1847 -0.0115
    9MPD2    H514289   2.059   1.508  10.126 -1.4307 -0.4499  0.2829
    9MPD2    N114290   2.245   1.841  10.552  0.0910 -0.0160 -0.0899
    9MPD2    H714291   2.311   1.832  10.629 -1.0073  1.7189  1.0501
    1MPD1     C14292   1.662   0.438  15.599 -0.0716 -0.1148 -0.8634
    1MPD1    C114293   1.663   0.534  15.699 -0.1789  0.1833  0.2902
    1MPD1    C214294   1.603   0.659  15.670  0.0982  0.0379 -0.1373
    1MPD1    C314295   1.572   0.700  15.535 -0.1556  0.2806 -0.0209
    1MPD1    C414296   1.581   0.596  15.442  0.5440 -0.1577  0.0709
    1MPD1    C514297   1.627   0.469  15.473  0.0254  0.5984 -0.0342
    1MPD1     H14298   1.595   0.725  15.755  0.2202  0.0094 -0.1034
    1MPD1    H114299   1.562   0.632  15.341  0.4727 -2.1103 -0.6061
    1MPD1    H214300   1.684   0.333  15.617 -0.6201 -0.3630 -1.6066
    1MPD1    H314301   1.628   0.389  15.400 -0.2534  1.3512 -0.8717
    1MPD1     N14302   1.534   0.828  15.487  0.2314 -0.1878 -0.3441
    1MPD1    H514303   1.511   0.842  15.389 -0.7715 -0.6856 -0.1767
    1MPD1    N114304   1.702   0.496  15.826  0.4794  0.3697  0.3218
    1MPD1    H614305   1.723   0.568  15.894  1.3745  1.7801 -1.4479
    1MPD1    H714306   1.785   0.436  15.821 -0.0124 -0.3030  0.1980
    2TMC2    C114307   1.328   1.232  15.586  0.3672  0.5507  0.1571
    2TMC2    C214308   1.328   1.280  15.456  0.5458 -0.4102  0.3743
    2TMC2    C314309   1.418   1.218  15.377 -0.1892  0.1139  0.4846
    2TMC2    C414310   1.371   1.108  15.618 -0.6184  0.2087  0.6728
    2TMC2    C514311   1.445   1.043  15.530 -0.0670 -0.1634 -0.2383
    2TMC2    C614312   1.470   1.098  15.408 -0.4430  0.6858 -0.1745
    2TMC2     C14313   1.310   1.329  15.699 -0.2949 -0.4647 -0.4402
    2TMC2     O14314   1.288   1.445  15.659 -0.8742  0.3310 -0.1546
    2TMC2     H14315   1.282   1.375  15.430  1.6720  0.0652  0.1310
    2TMC2    H114316   1.381   1.062  15.715 -1.1205 -1.9635 -0.2994
    2TMC2    H214317   1.532   1.049  15.334 -0.3234 -1.3132  1.2430
    2TMC2    C714318   1.517   0.925  15.580  0.1935  0.1048  0.5386
    2TMC2    C814319   1.440   1.260  15.237 -0.0084 -0.4980  0.8643
    2TMC2    O114320   1.543   0.925  15.700 -0.1670  0.2266  0.9833
    2TMC2    O214321   1.515   1.200  15.163  0.6382 -0.0467 -0.0506
    2TMC2    O514322   1.373   1.382  15.213 -0.2954 -0.0492  0.1536
    2TMC2    H514323   1.319   1.409  15.290 -0.7796 -1.5009  0.3241
    3MPD1     C14324   1.289   1.467  16.206  0.1433 -0.2659 -0.1749
    3MPD1    C114325   1.316   1.333  16.198 -0.6106  0.2331 -0.6334
    3MPD1    C214326   1.329   1.274  16.072  0.5000  0.1268 -0.6317
    3MPD1    C314327   1.316   1.343  15.953  0.7595 -0.0044  0.0603
    3MPD1    C414328   1.292   1.479  15.958 -0.7328  0.5821 -0.3404
    3MPD1    C514329   1.269   1.538  16.086 -0.1512 -0.2884  0.0527
    3MPD1     H14330   1.348   1.167  16.067 -0.5610 -0.1767  1.7390
    3MPD1    H114331   1.279   1.547  15.876  2.8077 -0.0856 -1.4690
    3MPD1    H214332   1.286   1.519  16.301  0.5611  1.7646 -1.2599
    3MPD1    H314333   1.238   1.642  16.080 -0.9861 -0.6317 -1.5945
    3MPD1     N14334   1.322   1.272  15.823 -0.0672  0.3010  0.2023
    3MPD1    H514335   1.333   1.172  15.820  0.1673  0.3506 -0.5685
    3MPD1    N114336   1.329   1.256  16.311 -0.3433  0.1522  0.9564
    3MPD1    H614337   1.341   1.313  16.394  1.1569  1.1624  0.0484
    3MPD1    H714338   1.402   1.186  16.303  0.3452  0.8857  0.7840
    1TMC1    C114339   4.608   3.979  13.390  0.5485 -0.4627 -0.4960
    1TMC1    C214340   4.661   3.916  13.494 -0.0026  0.2141 -0.0697
    1TMC1    C314341   4.578   3.850  13.581  0.7029 -0.4841  0.2271
    1TMC1    C414342   4.480   3.957  13.349  0.6271  0.9659  0.9256
    1TMC1    C514343   4.408   3.865  13.427  0.1547 -1.2731 -0.3424
    1TMC1    C614344   4.455   3.809  13.542 -0.3710  0.3210 -0.0460
    1TMC1     C14345   4.690   4.062  13.300 -0.3332 -0.6042  0.1422
    1TMC1     O14346   4.641   4.085  13.191  0.3220 -0.5661  0.1740
    1TMC1     H14347   0.025   3.933  13.526 -0.0379 -2.1270  1.3310
    1TMC1    H114348   4.434   3.991  13.257 -0.7874 -1.5746  0.7005
    1TMC1    H214349   4.392   3.761  13.616  0.7290  0.2088  0.8098
    1TMC1    C714350   4.266   3.851  13.403  0.1927 -0.6528  0.0319
    1TMC1    C814351   4.642   3.803  13.697 -0.2325  0.2927  0.2914
    1TMC1    O114352   4.202   3.763  13.462  0.5286 -0.2201 -0.0981
    1TMC1    O214353   4.611   3.709  13.768  0.0844  0.9911 -0.3669
    1TMC1    O314354   4.215   3.966  13.350 -0.2245  0.1439  0.2529
    1TMC1    H314355   4.273   4.043  13.333 -0.5424  0.9666  2.8996
    1TMC1    O514356   4.677   3.914  13.753  0.8313 -0.0512 -0.3263
    1TMC1    H514357   4.677   3.993  13.695  1.6703  0.0664 -0.1710
    2MPD2     C14358   0.139   4.266  13.191  0.4113  0.1965  0.3356
    2MPD2    C114359   0.162   4.197  13.305 -0.3184  0.0235  0.0129
    2MPD2    C214360   0.288   4.214  13.364 -0.6741 -0.8718 -0.5765
    2MPD2    C314361   0.393   4.284  13.298  0.0134 -0.2271 -0.2329
    2MPD2    C414362   0.367   4.344  13.180 -0.3228  0.1614  0.2653
    2MPD2    C514363   0.239   4.337  13.126 -0.0679  0.0922 -0.4857
    2MPD2     H14364   0.321   4.159  13.451 -0.9312 -0.7441 -0.4012
    2MPD2    H114365   0.440   4.405  13.128 -2.7290  1.7994 -1.1799
    2MPD2    H214366   0.041   4.265  13.144  0.1469 -0.4657  0.8956
    2MPD2    H314367   0.229   4.401  13.039  0.3851 -0.1000 -0.6776
    2MPD2     N14368   0.526   4.277  13.354 -0.3217 -0.0042 -0.4782
    2MPD2    H514369   0.542   4.235  13.445  0.4967 -0.2017 -0.7100
    2MPD2    N114370   0.069   4.107  13.354 -0.2395 -0.5990  0.1962
    2MPD2    H714371   0.098   4.076  13.447 -1.4662 -0.4340  0.6311
    3TCq1    O114372   1.089   4.581  13.571 -0.3490  0.0919 -0.2697
    3TCq1    C114373   0.960   4.591  13.620  0.5612  0.3728 -0.1624
    3TCq1    O214374   0.900   4.697  13.601 -0.5514  0.0506 -0.6124
    3TCq1    C214375   0.887   4.470  13.571  0.4994  0.4460 -1.1257
    3TCq1    C314376   0.931   4.348  13.613  0.4632  0.1185  0.6929
    3TCq1    C414377   0.878   4.234  13.548 -0.1722  0.6313 -0.0499
    3TCq1    C514378   0.778   4.246  13.457 -0.2721 -1.0407 -0.5442
    3TCq1    C614379   0.724   4.370  13.429  0.0920 -0.3919  0.5240
    3TCq1    C714380   0.790   4.481  13.472 -0.5599  0.2478  0.1277
    3TCq1    C814381   0.625   4.371  13.321  0.0680  0.2645  0.6736
    3TCq1    O414382   0.624   4.476  13.255 -0.7279  0.3143  0.2756
    3TCq1    C914383   0.910   4.102  13.588 -0.4009 -1.2158  0.2445
    3TCq1    O514384   0.889   4.014  13.503 -0.5861  0.5743  0.4600
    3TCq1    O614385   0.981   4.091  13.691 -0.1234 -0.1556 -0.4276
    3TCq1    H114386   1.135   4.494  13.575  1.0171  0.7838 -0.8574
    3TCq1    H214387   0.996   4.344  13.700 -0.7033 -0.4273  1.5353
    3TCq1    H314388   0.742   4.156  13.407  2.4850 -2.5730  0.2098
    3TCq1    H414389   0.771   4.579  13.429 -0.5668 -0.6443 -1.8907
    1MPD2     C14390   4.460   0.961  14.842 -0.3900 -0.3136  0.0102
    1MPD2    C114391   4.388   0.875  14.919  0.2404 -0.4194  0.1461
    1MPD2    C214392   4.432   0.748  14.938  0.3400 -0.4049 -0.6760
    1MPD2    C314393   4.554   0.701  14.898 -0.9485 -0.8380 -0.0357
    1MPD2    C414394   4.625   0.782  14.813  0.3202  0.0044  0.2976
    1MPD2    C514395   4.583   0.911  14.784  0.2201 -0.2995 -0.5286
    1MPD2     H14396   4.369   0.681  14.995  0.5323  0.5154  0.6082
    1MPD2    H114397   4.723   0.759  14.774  0.5256  1.4945 -0.0675
    1MPD2    H214398   4.431   1.064  14.827  2.0150  0.2459 -0.9046
    1MPD2    H314399   4.659   0.965  14.729  0.9529  0.9215  1.6938
    1MPD2     N14400   4.617   0.573  14.936  1.0282 -0.1216 -0.1322
    1MPD2    H514401   4.711   0.556  14.903  0.9841  0.3274 -0.4937
    1MPD2    N114402   4.272   0.931  14.971 -0.7233  0.2308  0.0640
    1MPD2    H714403   4.252   1.028  14.949 -1.8917  0.1280  0.6821
    2TMC3    C114404   4.038   0.906  15.043  0.2384  0.5706  0.8470
    2TMC3    C214405   3.950   0.807  15.092 -0.4900 -0.8614  0.1756
    2TMC3    C314406   3.841   0.770  15.028  0.4031 -0.6439 -0.4471
    2TMC3    C414407   3.989   0.985  14.938  0.2132 -0.8426  0.2122
    2TMC3    C514408   3.875   0.942  14.875  0.4811 -0.2817 -0.5929
    2TMC3    C614409   3.791   0.847  14.922  0.0686  0.3538 -0.5569
    2TMC3     C14410   4.175   0.856  15.038  0.7722  0.4522 -0.1349
    2TMC3     O14411   4.182   0.749  15.092  0.5795 -0.1288  0.3625
    2TMC3     H14412   3.977   0.750  15.180  0.4103 -1.8559 -0.7437
    2TMC3    H114413   4.056   1.060  14.898 -2.0602  0.8397 -0.4527
    2TMC3    H214414   3.717   0.808  14.853 -0.7595 -0.4520  0.7615
    2TMC3    C714415   3.817   1.033  14.779 -0.0368 -0.6394 -0.5359
    2TMC3    C814416   3.821   0.626  15.021 -0.4039 -0.5780  0.3661
    2TMC3    O114417   3.741   0.974  14.699  0.0489 -0.2881  0.8476
    2TMC3    O214418   3.718   0.569  14.997  0.2042  0.0312  0.5465
    3TCq1    O114419   4.170   2.231  14.668 -0.0331 -0.4908 -0.5648
    3TCq1    C114420   4.160   2.132  14.579 -0.4376 -0.5488  0.6662
    3TCq1    O214421   4.162   2.129  14.456  0.1098 -0.2585 -0.0046
    3TCq1    C214422   4.142   2.005  14.647 -0.4607  0.7212 -0.2498
    3TCq1    C314423   4.197   1.993  14.768 -0.5177 -0.0047  0.3743
    3TCq1    C414424   4.152   1.901  14.854 -0.2758 -0.2502 -0.1926
    3TCq1    C514425   4.056   1.811  14.814 -0.0441 -0.3953  0.1129
    3TCq1    C614426   4.002   1.825  14.688 -0.6784  0.3037  0.3979
    3TCq1    C714427   4.040   1.923  14.596  0.2863  0.9873  0.5747
    3TCq1    C814428   3.902   1.735  14.633  0.1880  0.3233  0.1408
    3TCq1    O414429   3.818   1.785  14.560  0.3121 -0.1402  0.0106
    3TCq1    C914430   4.201   1.894  14.987 -0.0555 -0.5177  0.0805
    3TCq1    O514431   4.277   1.985  15.023 -0.3509  0.6432 -0.4091
    3TCq1    O614432   4.158   1.800  15.061  0.4065 -0.5313 -0.3202
    3TCq1    H114433   4.131   2.195  14.750 -1.6973 -2.0334 -2.0293
    3TCq1    H214434   4.275   2.064  14.792 -0.0145 -0.1004 -0.9938
    3TCq1    H314435   4.017   1.743  14.889  0.8934  0.4547  1.3679
    3TCq1    H414436   4.000   1.936  14.496 -0.2959 -0.0400  0.6776
    4MPD2     C14437   3.769   1.484  14.535 -0.1994  0.6883  0.4558
    4MPD2    C114438   3.852   1.495  14.642  0.6578  0.3894 -0.0580
    4MPD2    C214439   3.879   1.386  14.724 -0.6520  0.2492 -0.0388
    4MPD2    C314440   3.816   1.262  14.708 -0.4688  0.3186 -0.0234
    4MPD2    C414441   3.733   1.253  14.598  0.2140 -1.2543 -1.5786
    4MPD2    C514442   3.715   1.365  14.522  0.1901  0.6621  0.4597
    4MPD2     H14443   3.954   1.390  14.802 -0.9727 -1.4949  0.3645
    4MPD2    H114444   3.683   1.161  14.568  0.7941 -2.0177 -0.2228
    4MPD2    H214445   3.745   1.568  14.471 -0.2831  0.4214  0.1372
    4MPD2    H314446   3.644   1.353  14.440 -1.2438 -0.0647  1.8032
    4MPD2     N14447   3.845   1.162  14.799  0.0379 -0.7900  0.4353
    4MPD2    H514448   3.898   1.200  14.877  2.8108  0.4356 -2.0639
    4MPD2    N114449   3.918   1.609  14.685  0.1747 -0.7350  0.0797
    4MPD2    H714450   3.985   1.596  14.760  1.6607  0.8306 -0.9861
    5TMC2    C114451   4.493   0.154  14.968 -0.4973  0.2561  0.9035
    5TMC2    C214452   4.570   0.132  14.859 -0.1559  0.3069 -0.3062
    5TMC2    C314453   4.684   0.206  14.848 -0.2642 -0.6746 -0.6154
    5TMC2    C414454   4.516   0.266  15.051 -0.1314  1.2200 -0.2872
    5TMC2    C514455   4.619   0.352  15.025 -0.2080  0.3432  0.0559
    5TMC2    C614456   4.713   0.314  14.926  0.3591 -0.5506  0.0326
    5TMC2     C14457   4.355   0.147  14.925 -0.1753 -0.1139  0.1859
    5TMC2     O14458   4.323   0.055  14.851 -0.0317 -0.0163 -0.4348
    5TMC2     H14459   4.558   0.039  14.805  0.1628 -0.0597  0.2504
    5TMC2    H114460   4.464   0.279  15.145  2.2825 -1.5399  1.4364
    5TMC2    H214461   0.062   0.379  14.925  1.1420 -1.6186 -1.2538
    5TMC2    C714462   4.554   0.475  15.006  0.0351 -0.1451  0.3030
    5TMC2    C814463   0.038   0.177  14.740 -0.1903 -0.2115  0.7249
    5TMC2    O114464   4.440   0.479  15.049 -0.4062  0.2806 -0.3255
    5TMC2    O214465   0.150   0.227  14.739 -0.5654  0.0196  0.4517
    5TMC2    O514466   4.704   0.165  14.627 -0.2344 -0.2546 -0.4131
    5TMC2    H514467   4.612   0.191  14.649  0.0320  1.9470 -1.9131
    6MPD2     C14468   3.872   0.358  14.911 -0.2372 -0.1342 -0.1169
    6MPD2    C114469   3.973   0.444  14.961  0.0475  0.3825  0.5585
    6MPD2    C214470   4.104   0.405  14.987 -0.6412 -0.2311 -0.6144
    6MPD2    C314471   4.141   0.277  14.954  0.1133 -0.3271 -0.5890
    6MPD2    C414472   4.050   0.190  14.908  0.1428  0.1120 -0.1831
    6MPD2    C514473   3.919   0.234  14.888  0.2911 -0.1481  0.3803
    6MPD2     H14474   4.183   0.473  15.020 -1.8682  0.4157  0.9985
    6MPD2    H114475   4.075   0.090  14.874  0.5364  0.8460 -2.0871
    6MPD2    H214476   3.766   0.380  14.900  0.1147  1.0754 -1.1454
    6MPD2    H314477   3.849   0.157  14.859  2.4440 -1.0404 -2.4903
    6MPD2     N14478   4.279   0.252  14.979 -0.4067 -0.2543 -0.4534
    6MPD2    H514479   4.332   0.326  15.025 -0.6935 -0.8612  0.8608
    6MPD2    N114480   3.943   0.574  15.007 -0.2806  0.1724  0.6106
    6MPD2    H714481   4.022   0.638  15.010 -0.9580  1.0016  1.1113
  945NH3     N114482   0.422   0.375   2.926 -0.0326 -0.3848  0.1226
  945NH3     H214483   0.414   0.451   2.992  1.3152 -0.1526  0.0195
  945NH3     H314484   0.347   0.308   2.939  0.5510 -1.4177 -1.7625
  945NH3     H414485   0.408   0.412   2.833  1.4726  0.4085  0.2159
  946SOD     NA14486   0.262   0.271  17.550 -0.1198 -0.0705 -0.3426
  947SOD     NA14487   0.117   3.992  12.072  0.3630  0.4356  0.3436
  948SOD     NA14488   2.180   4.733   3.164 -0.1527 -0.3275  0.0469
  949SOD     NA14489   4.519   0.439  11.316 -0.0490 -0.5016  0.0481
  950SOD     NA14490   4.506   2.338  14.397 -0.0198  0.3806  0.3928
  951SOD     NA14491   0.499   0.950   4.159 -0.2567  0.0754 -0.0477
  952SOD     NA14492   0.030   1.765  16.804 -0.1639 -0.1483 -0.5283
  953SOD     NA14493   1.373   4.183  13.911 -0.4669  0.1026  0.6838
  954SOL     OW14494   3.196   4.431  16.229  0.2582  0.0346 -0.7040
  954SOL    HW114495   3.151   4.361  16.277 -0.7003  1.5119  0.5381
  954SOL    HW214496   3.191   4.491  16.303  0.2343  1.8395 -2.1820
  955SOL     OW14497   2.984   0.492   4.016 -0.4345  0.6200  0.0812
  955SOL    HW114498   2.986   0.533   4.102 -1.1713  0.0542  0.3610
  955SOL    HW214499   2.974   0.400   4.039  0.6270  0.3971 -0.3294
  956SOL     OW14500   0.058   4.462   7.433 -0.7115  0.4128 -0.3972
  956SOL    HW114501   0.092   4.468   7.523  0.0783  1.0946 -0.7383
  956SOL    HW214502   0.036   4.552   7.413 -0.9251 -0.0236 -2.1346
  957SOL     OW14503   2.338   3.454   9.798 -0.8113 -0.2977  0.5552
  957SOL    HW114504   2.335   3.505   9.717  0.9136 -2.2109 -0.7123
  957SOL    HW214505   2.430   3.458   9.825 -0.7049  0.8253  0.0332
  958SOL     OW14506   1.249   4.425   7.220  0.3086  0.1396  0.2258
  958SOL    HW114507   1.320   4.443   7.281  0.2078  1.0230  0.0839
  958SOL    HW214508   1.295   4.374   7.154  1.3891 -1.9742  2.6096
  959SOL     OW14509   4.736   0.510  11.319 -0.6080  0.4418 -0.3482
  959SOL    HW114510   0.063   0.547  11.259  1.4899 -0.2079  1.4970
  959SOL    HW214511   0.057   0.457  11.373  1.6863  2.8331 -0.5094
  960SOL     OW14512   3.356   3.056   0.876  0.5221 -0.7376 -0.4277
  960SOL    HW114513   3.366   3.006   0.957  1.5563 -1.3537 -0.9361
  960SOL    HW214514   3.302   3.131   0.900  0.9750 -1.1195  1.7842
  961SOL     OW14515   3.959   0.409   1.077  0.0485 -0.0184 -0.2986
  961SOL    HW114516   4.042   0.380   1.114 -0.4138  1.2260  1.7230
  961SOL    HW214517   3.962   0.363   0.994  0.0992  0.4407 -0.5527
  962SOL     OW14518   4.050   3.129   0.685 -0.4263 -0.3912  0.2450
  962SOL    HW114519   3.983   3.070   0.648 -0.2684  0.6249 -1.6774
  962SOL    HW214520   4.011   3.144   0.771  0.4920  0.9931  0.4023
  963SOL     OW14521   4.107   1.127   7.006  0.4480  0.2414 -0.1390
  963SOL    HW114522   4.041   1.179   7.051  1.5479  0.3955  1.3266
  963SOL    HW214523   4.074   1.142   6.918  0.2330 -0.5234 -0.1875
  964SOL     OW14524   2.392   4.588   8.674 -0.2271 -0.3420 -0.1840
  964SOL    HW114525   2.313   4.546   8.641 -0.4324  0.5076 -0.7549
  964SOL    HW214526   2.387   4.676   8.638  0.6308 -0.1113  0.2709
  965SOL     OW14527   4.570   1.759   8.348  0.1592 -0.1813  0.0942
  965SOL    HW114528   4.597   1.836   8.298 -1.8569  0.1740 -0.4366
  965SOL    HW214529   4.658   1.724   8.363 -0.8576 -2.0785  1.5269
  966SOL     OW14530   3.900   3.716   7.983 -0.3612 -0.4289  0.7031
  966SOL    HW114531   3.915   3.667   7.902 -0.5985  0.1392  0.3169
  966SOL    HW214532   3.909   3.646   8.048 -0.9387  0.9172  2.2275
  967SOL     OW14533   2.296   1.354   0.020  0.0496 -0.1646  0.6556
  967SOL    HW114534   2.220   1.378   0.073  0.4878  3.4429 -0.3053
  967SOL    HW214535   2.372   1.366   0.077  1.2702 -1.4387 -0.7046
  968SOL     OW14536   2.701   0.465   9.691 -0.3063 -0.3408 -0.1566
  968SOL    HW114537   2.652   0.546   9.679  0.6859  0.4571  1.1466
  968SOL    HW214538   2.768   0.495   9.753 -1.6982  1.5219  0.4537
  969SOL     OW14539   4.017   3.450  17.097 -0.0382  0.2146  0.1648
  969SOL    HW114540   4.046   3.408  17.177 -1.6488 -0.4684  0.3933
  969SOL    HW214541   3.948   3.387  17.075  0.7820 -0.3303 -0.8403
  970SOL     OW14542   0.460   1.555   2.619 -0.3727  0.0472 -0.3715
  970SOL    HW114543   0.517   1.533   2.692  0.1779  2.8523  0.0357
  970SOL    HW214544   0.472   1.650   2.614  1.5037 -0.3201 -2.4752
  971SOL     OW14545   1.406   3.491   0.104 -0.3096 -0.2202 -0.3321
  971SOL    HW114546   1.338   3.462   0.043 -0.9371 -0.0513  0.2983
  971SOL    HW214547   1.455   3.553   0.050 -0.3818 -0.4194 -0.6292
  972SOL     OW14548   4.287   4.201  11.321 -0.3771 -0.1136  0.4032
  972SOL    HW114549   4.232   4.238  11.390 -0.6411 -0.5000  0.3990
  972SOL    HW214550   4.370   4.236  11.356 -0.1073 -2.3700  2.0250
  973SOL     OW14551   3.087   0.508  14.247  0.1389  0.1404 -0.5286
  973SOL    HW114552   3.014   0.499  14.186 -0.3821 -0.8471  0.2657
  973SOL    HW214553   3.070   0.456  14.325  1.4397  0.6468  0.1021
  974SOL     OW14554   0.310   4.343   3.420  0.2608  0.7164  0.2183
  974SOL    HW114555   0.231   4.366   3.372  0.4438 -2.0243 -1.4392
  974SOL    HW214556   0.307   4.247   3.425  1.4690  0.7374  1.3004
  975SOL     OW14557   4.692   0.473   7.812 -0.5196 -0.0731 -0.0801
  975SOL    HW114558   4.680   0.439   7.901  1.3032 -3.2149 -1.0302
  975SOL    HW214559   4.637   0.414   7.761 -1.3682 -1.1573  2.0803
  976SOL     OW14560   1.726   2.556   2.425  0.2311  1.3681  0.4215
  976SOL    HW114561   1.722   2.515   2.511  1.6236 -2.5847 -1.4179
  976SOL    HW214562   1.822   2.554   2.418  0.3205  2.0438  1.4249
  977SOL     OW14563   2.047   3.460  12.729 -0.7442  0.3221  0.1489
  977SOL    HW114564   2.126   3.507  12.756  0.2172 -1.0829 -0.1971
  977SOL    HW214565   2.022   3.497  12.645 -2.1083  0.7706  0.7495
  978SOL     OW14566   2.698   4.074   2.023  0.8080 -0.0133 -0.4476
  978SOL    HW114567   2.779   4.122   2.038 -0.2664  1.1783  1.5751
  978SOL    HW214568   2.719   3.998   2.078  1.1564  1.0012  0.8074
  979SOL     OW14569   3.313   3.263   5.082 -0.4289 -0.6865 -0.5167
  979SOL    HW114570   3.224   3.251   5.114 -0.8694  2.3728 -0.6438
  979SOL    HW214571   3.355   3.192   5.131 -0.3103  0.2217  0.6934
  980SOL     OW14572   1.981   0.450   0.627  0.0092  0.5807 -0.7080
  980SOL    HW114573   2.073   0.470   0.612  0.6509 -0.2955  2.0928
  980SOL    HW214574   1.970   0.407   0.542  1.7446 -0.0692 -0.6119
  981SOL     OW14575   3.765   0.048   7.656  0.2148  0.9054 -0.2579
  981SOL    HW114576   3.717   0.009   7.583 -0.2286  2.3161 -0.7186
  981SOL    HW214577   3.804   4.709   7.697  0.5686  1.4674  0.4618
  982SOL     OW14578   2.420   4.124   2.029  0.1295  0.3231  0.1743
  982SOL    HW114579   2.386   4.096   2.114  0.2317  1.9951  0.7832
  982SOL    HW214580   2.508   4.087   2.028  0.8471  2.0261 -0.5294
  983SOL     OW14581   1.445   1.759   2.860  0.7216 -0.0336  0.2349
  983SOL    HW114582   1.450   1.676   2.813  1.6556  1.4599 -2.3130
  983SOL    HW214583   1.399   1.733   2.940 -0.0603 -0.3565 -0.3315
  984SOL     OW14584   0.820   2.185   1.770 -0.2894 -0.2248  0.3589
  984SOL    HW114585   0.846   2.097   1.744  0.2355 -0.0299  0.2322
  984SOL    HW214586   0.773   2.214   1.692  0.8974  0.5358 -0.0744
  985SOL     OW14587   0.297   1.913   5.212  0.4323  0.4057 -0.3550
  985SOL    HW114588   0.269   1.960   5.133 -1.3532  0.2811  0.2117
  985SOL    HW214589   0.245   1.833   5.206 -1.8470  1.8206  0.7782
  986SOL     OW14590   0.842   0.689  15.133 -0.2847  0.4934  0.3843
  986SOL    HW114591   0.801   0.704  15.219 -1.4527 -2.3532  0.3067
  986SOL    HW214592   0.894   0.768  15.117 -0.3836  0.5178  0.1926
  987SOL     OW14593   3.826   3.909  17.443  0.2194 -0.2726 -0.0138
  987SOL    HW114594   3.870   3.979  17.491 -1.6739  0.1212  1.1348
  987SOL    HW214595   3.856   3.916  17.352 -2.4203 -1.5633 -0.9701
  988SOL     OW14596   1.958   3.923  17.643  0.3036 -0.2943  0.5098
  988SOL    HW114597   2.034   3.877  17.609 -0.7096 -1.1935 -0.5301
  988SOL    HW214598   1.982   4.015  17.631 -0.9313  0.0626  0.6992
  989SOL     OW14599   0.134   0.744   7.588  0.4657  0.2055 -0.0266
  989SOL    HW114600   0.161   0.835   7.576  1.7150 -0.3094 -1.1334
  989SOL    HW214601   0.045   0.768   7.613  0.4035 -0.4304  0.3721
  990SOL     OW14602   3.488   1.825   5.678  0.1935  0.0658 -0.0398
  990SOL    HW114603   3.392   1.826   5.677  0.1651 -1.2622  1.1693
  990SOL    HW214604   3.493   1.918   5.699  1.0788 -0.4382  1.9214
  991SOL     OW14605   0.627   4.162   5.762 -0.6848 -0.0849 -0.2987
  991SOL    HW114606   0.553   4.108   5.735 -0.5951 -0.8677  1.0504
  991SOL    HW214607   0.690   4.128   5.698  0.1368  3.2939 -1.2912
  992SOL     OW14608   0.996   1.417  16.564  0.0517 -0.3404 -0.0376
  992SOL    HW114609   1.084   1.453  16.554 -1.2239  1.9827 -2.6681
  992SOL    HW214610   1.017   1.324  16.553  0.3028 -0.3001  0.0811
  993SOL     OW14611   2.209   4.600  16.322 -0.1041  0.4574 -0.1623
  993SOL    HW114612   2.166   4.683  16.303 -1.7483 -0.2624  0.4634
  993SOL    HW214613   2.191   4.542  16.249  0.3292 -0.2547  0.2992
  994SOL     OW14614   0.498   4.020   7.059  0.3631  0.4580  0.4889
  994SOL    HW114615   0.466   4.061   7.140  2.2145  1.0393  0.9365
  994SOL    HW214616   0.427   4.032   6.996  1.0830  0.1462 -0.3681
  995SOL     OW14617   1.318   2.813   5.785  0.8220 -0.5195  0.2842
  995SOL    HW114618   1.309   2.908   5.771 -2.1934 -0.9046 -0.5409
  995SOL    HW214619   1.263   2.771   5.718 -0.3837 -1.0358  1.6031
  996SOL     OW14620   1.916   3.772   0.954 -0.5481 -0.6826  0.3542
  996SOL    HW114621   1.936   3.685   0.918 -0.7782  1.0182 -3.8670
  996SOL    HW214622   1.885   3.831   0.886  0.5028  0.0145  0.4675
  997SOL     OW14623   3.708   1.091   7.977  0.3005  0.7877  0.0364
  997SOL    HW114624   3.656   1.171   7.989 -1.9278 -0.9746  2.2357
  997SOL    HW214625   3.702   1.054   8.065  0.1235 -0.7638 -0.6394
  998SOL     OW14626   3.754   1.373   7.299 -0.7945 -0.4404  0.2527
  998SOL    HW114627   3.709   1.331   7.226  0.5060 -1.3486 -0.0440
  998SOL    HW214628   3.827   1.311   7.299  0.2246  0.7526  0.0522
  999SOL     OW14629   4.637   2.888   3.200  0.0556  0.6331  0.9166
  999SOL    HW114630   4.683   2.805   3.213 -1.5501 -0.3553  0.4014
  999SOL    HW214631   4.706   2.947   3.170 -0.0710 -0.1957 -1.0150
 1000SOL     OW14632   2.224   1.886   9.794  0.4906  0.0949  0.1052
 1000SOL    HW114633   2.266   1.971   9.808 -0.4540  0.3203  1.5627
 1000SOL    HW214634   2.298   1.831   9.818  0.5806 -0.1656 -0.7762
 1001SOL     OW14635   0.282   3.988   1.370  0.1539  0.1941 -0.1596
 1001SOL    HW114636   0.308   3.954   1.284  0.4463 -1.6060  0.6541
 1001SOL    HW214637   0.315   4.078   1.371  1.4847 -0.2849 -0.9689
 1002SOL     OW14638   0.629   4.695   4.164  0.6115  0.3415  0.5994
 1002SOL    HW114639   0.568   0.030   4.181  0.3851  0.3340 -0.1837
 1002SOL    HW214640   0.597   4.638   4.234 -0.0868 -1.2742 -1.0405
 1003SOL     OW14641   3.645   2.841   2.109 -0.2236  0.2014 -0.1775
 1003SOL    HW114642   3.596   2.813   2.031 -0.0924 -0.5707  0.0293
 1003SOL    HW214643   3.681   2.925   2.079  0.1401 -0.3798 -1.3498
 1004SOL     OW14644   0.099   0.657   1.033 -0.3488  0.0696 -0.4583
 1004SOL    HW114645   0.188   0.623   1.037 -1.0321 -1.3509  2.6356
 1004SOL    HW214646   0.054   0.586   0.987  2.9259 -2.2461 -0.0986
 1005SOL     OW14647   2.693   3.549   4.723  0.0054 -0.2612  0.2897
 1005SOL    HW114648   2.704   3.643   4.738  1.6683 -0.1462 -1.6260
 1005SOL    HW214649   2.607   3.550   4.680  0.3984 -0.9369 -0.5048
 1006SOL     OW14650   2.376   1.278   9.128 -0.2180 -0.4240 -0.1103
 1006SOL    HW114651   2.282   1.263   9.122 -0.0133 -1.8690  0.3622
 1006SOL    HW214652   2.395   1.260   9.036  0.0330  0.1516 -0.1682
 1007SOL     OW14653   0.485   3.498   6.146  0.3431 -0.3860 -0.3578
 1007SOL    HW114654   0.555   3.474   6.085  1.9599 -2.0195  2.1151
 1007SOL    HW214655   0.415   3.495   6.081 -2.0627 -0.6978  2.2401
 1008SOL     OW14656   1.188   1.647  15.124 -1.0859  0.4770 -0.5739
 1008SOL    HW114657   1.199   1.665  15.031  1.8763 -0.0253 -0.3241
 1008SOL    HW214658   1.280   1.655  15.149 -1.7716  0.0801  2.1580
 1009SOL     OW14659   0.485   4.387   9.182  0.0326  0.6602 -0.1212
 1009SOL    HW114660   0.507   4.324   9.251 -1.9549  0.0836 -0.0310
 1009SOL    HW214661   0.458   4.326   9.113  1.2376 -1.1769  1.0292
 1010SOL     OW14662   0.181   2.756   1.789 -0.3517  0.0678  0.8020
 1010SOL    HW114663   0.192   2.732   1.881 -1.6767  1.3706  1.3004
 1010SOL    HW214664   0.252   2.712   1.743 -1.6043 -1.7297  0.5797
 1011SOL     OW14665   0.819   0.983   1.864  0.3494 -0.2054  0.2395
 1011SOL    HW114666   0.831   1.044   1.937 -0.4763  0.0434  0.1600
 1011SOL    HW214667   0.770   1.040   1.805  1.8933  0.1529 -0.7109
 1012SOL     OW14668   1.216   1.078  11.971 -0.0044  0.0882 -0.8809
 1012SOL    HW114669   1.139   1.134  11.958 -0.3491 -0.0521  0.6022
 1012SOL    HW214670   1.185   1.001  12.018 -3.5857  2.3434  0.4239
 1013SOL     OW14671   1.422   2.312   8.317 -0.3053 -0.2390 -0.2698
 1013SOL    HW114672   1.374   2.330   8.236  1.7656  0.1942 -1.3965
 1013SOL    HW214673   1.342   2.282   8.362 -1.6719  1.8893 -1.2588
 1014SOL     OW14674   0.029   3.771  14.006 -0.0397 -0.0520 -0.3865
 1014SOL    HW114675   4.715   3.784  13.926 -0.5942 -1.1532 -0.2151
 1014SOL    HW214676   0.041   3.676  13.998 -0.7112 -0.1679 -0.0892
 1015SOL     OW14677   1.943   3.254   7.423  0.4371 -0.3818  0.2125
 1015SOL    HW114678   1.878   3.214   7.480  0.5401 -0.6757  0.1205
 1015SOL    HW214679   1.893   3.287   7.348 -1.3741  0.3799  1.7517
 1016SOL     OW14680   4.514   4.071   2.186 -0.2019  0.1119  0.0631
 1016SOL    HW114681   4.499   3.984   2.224 -1.5544 -0.4825 -1.8228
 1016SOL    HW214682   4.434   4.102   2.227  0.1453  1.1501 -0.0540
 1017SOL     OW14683   0.440   2.994  17.124  0.5700  1.1315  0.5141
 1017SOL    HW114684   0.513   2.980  17.064  1.4163  0.2923  1.7315
 1017SOL    HW214685   0.432   3.089  17.122  0.5662  1.0968 -1.0656
 1018SOL     OW14686   3.658   1.697   6.380 -0.2253 -0.4278  0.1567
 1018SOL    HW114687   3.711   1.775   6.365 -0.3725 -0.4450 -0.4328
 1018SOL    HW214688   3.713   1.632   6.424  1.4887  1.5478  0.9043
 1019SOL     OW14689   3.265   2.540   9.482  0.1770 -0.2492 -1.0012
 1019SOL    HW114690   3.201   2.599   9.440 -1.6055  0.5640  2.9005
 1019SOL    HW214691   3.225   2.458   9.454 -0.1644 -0.2176 -0.6046
 1020SOL     OW14692   4.510   4.197  11.825  0.0221  0.7995 -0.1801
 1020SOL    HW114693   4.465   4.174  11.744  0.5199  2.9290 -1.0565
 1020SOL    HW214694   4.432   4.221  11.875  0.4228 -0.2705  0.9662
 1021SOL     OW14695   2.837   2.057   0.642 -0.0255  0.3281 -0.3971
 1021SOL    HW114696   2.867   1.984   0.697 -2.2835  0.9636  1.6576
 1021SOL    HW214697   2.874   2.036   0.556 -0.6174  1.5054 -0.9274
 1022SOL     OW14698   1.211   4.107  16.700 -0.2713  0.4082  0.1033
 1022SOL    HW114699   1.159   4.069  16.629 -0.2944  1.4648 -0.4398
 1022SOL    HW214700   1.154   4.182  16.721  0.8212  1.2883 -0.0918
 1023SOL     OW14701   3.242   4.593  16.006  0.5944  0.1530 -0.4613
 1023SOL    HW114702   3.248   4.569  16.099  3.4282 -0.7680 -0.8720
 1023SOL    HW214703   3.251   4.505  15.968  2.5425  0.3939 -0.5790
 1024SOL     OW14704   1.477   0.259   6.196 -0.2416 -0.3360  0.2606
 1024SOL    HW114705   1.469   0.234   6.288  0.3331  0.3775  0.5037
 1024SOL    HW214706   1.507   0.174   6.164  0.4526  0.0581 -0.1337
 1025SOL     OW14707   3.943   0.320   7.023  0.3975 -0.3361 -0.4484
 1025SOL    HW114708   3.985   0.238   6.996  2.0861  0.4394 -0.1782
 1025SOL    HW214709   3.991   0.393   6.983 -0.0029  1.1956  1.8136
 1026SOL     OW14710   1.662   1.092  13.386 -0.2154  0.2323 -0.2407
 1026SOL    HW114711   1.616   1.051  13.313 -1.0445 -0.9383  0.9578
 1026SOL    HW214712   1.596   1.092  13.455  0.2516 -0.1016  0.2105
 1027SOL     OW14713   4.628   2.533  10.166 -0.3652 -0.1296 -0.8860
 1027SOL    HW114714   4.651   2.445  10.139 -0.8724 -0.9688  1.4500
 1027SOL    HW214715   4.557   2.521  10.230 -0.0511 -1.5818 -0.8314
 1028SOL     OW14716   3.241   2.871   9.359 -0.2350 -0.3416  0.2278
 1028SOL    HW114717   3.304   2.866   9.431  0.2693 -0.1636 -0.2062
 1028SOL    HW214718   3.169   2.887   9.420 -0.1162 -1.1206  0.5699
 1029SOL     OW14719   0.602   3.604   3.651 -0.0435 -0.2144  0.6210
 1029SOL    HW114720   0.568   3.648   3.574  0.0935 -1.1765  0.0069
 1029SOL    HW214721   0.549   3.640   3.722  0.0617  1.8721 -0.3693
 1030SOL     OW14722   4.180   3.585   1.152  0.1417  0.0847  0.9452
 1030SOL    HW114723   4.258   3.530   1.163  1.4970  2.2036  1.8642
 1030SOL    HW214724   4.118   3.513   1.139 -0.8848  1.1124  0.1565
 1031SOL     OW14725   4.530   3.537  14.096  0.8700  0.2217 -0.7266
 1031SOL    HW114726   4.579   3.512  14.018 -0.5402  0.1925 -1.6081
 1031SOL    HW214727   4.502   3.453  14.134  2.2718  0.4157  0.7545
 1032SOL     OW14728   4.441   4.268   5.943  0.3061 -0.1366 -0.3159
 1032SOL    HW114729   4.369   4.258   6.006  0.8436 -1.0736  0.1525
 1032SOL    HW214730   4.524   4.259   5.990 -1.6865 -1.7819  2.8853
 1033SOL     OW14731   1.289   1.510   6.734 -0.0992  0.4228 -0.1847
 1033SOL    HW114732   1.345   1.504   6.656 -0.5934 -2.4884 -0.3277
 1033SOL    HW214733   1.298   1.602   6.758  0.4885  0.6313 -1.1764
 1034SOL     OW14734   1.256   4.182   8.393 -0.6035  0.0222  0.6524
 1034SOL    HW114735   1.285   4.094   8.417 -3.4298 -0.5566  1.9246
 1034SOL    HW214736   1.327   4.206   8.334 -0.9223 -2.2213 -0.6428
 1035SOL     OW14737   1.356   2.515   6.770  0.0933  0.3691  0.1252
 1035SOL    HW114738   1.323   2.445   6.713  2.1397 -1.5047  1.2626
 1035SOL    HW214739   1.371   2.467   6.852 -0.3231 -0.6994 -0.4246
 1036SOL     OW14740   1.244   0.511  15.146 -0.0900  0.1634  0.0931
 1036SOL    HW114741   1.320   0.541  15.095  0.6968 -1.5154  0.2856
 1036SOL    HW214742   1.177   0.525  15.079 -1.7231  2.0933  2.1486
 1037SOL     OW14743   1.946   2.332   2.813  0.2556  0.1335  0.4192
 1037SOL    HW114744   1.969   2.415   2.771  0.1473 -0.6874 -1.2608
 1037SOL    HW214745   1.852   2.341   2.830  0.1987 -0.8809  0.6481
 1038SOL     OW14746   4.126   3.731   8.818  0.8110  0.7611 -0.4612
 1038SOL    HW114747   4.203   3.764   8.771  1.1224  1.3725  0.4769
 1038SOL    HW214748   4.091   3.668   8.756  1.3754 -1.5667  1.5647
 1039SOL     OW14749   1.683   2.502  11.909 -0.1805  0.2543  0.2225
 1039SOL    HW114750   1.766   2.469  11.943 -0.8777 -2.0920 -0.3386
 1039SOL    HW214751   1.650   2.421  11.871 -0.1148  1.5540 -2.6349
 1040SOL     OW14752   3.995   1.736   9.116  0.7987  0.3882  0.4904
 1040SOL    HW114753   3.916   1.785   9.140  2.6091  2.4667  2.2491
 1040SOL    HW214754   4.056   1.775   9.178 -0.0757  0.8266  1.0675
 1041SOL     OW14755   0.740   3.055  12.218  0.0142  0.1705 -0.0198
 1041SOL    HW114756   0.678   3.077  12.148  2.1682  0.2258 -1.9135
 1041SOL    HW214757   0.806   3.007  12.169 -0.1677  0.3131 -0.4096
 1042SOL     OW14758   0.679   1.557  15.562 -0.2884 -0.8395  0.4267
 1042SOL    HW114759   0.721   1.643  15.565 -1.6133 -0.1970  0.4517
 1042SOL    HW214760   0.691   1.526  15.652 -0.1016  2.6721  1.6396
 1043SOL     OW14761   0.171   0.185   0.584  0.8870  0.2607  0.5102
 1043SOL    HW114762   0.194   0.093   0.596 -3.0439 -0.9090 -1.0965
 1043SOL    HW214763   0.217   0.188   0.500 -0.0051 -1.1274 -0.0240
 1044SOL     OW14764   2.167   1.195   0.657  0.4927 -0.0149  0.4407
 1044SOL    HW114765   2.204   1.212   0.570 -0.6107  1.4412  0.2696
 1044SOL    HW214766   2.122   1.112   0.641 -1.1782  1.0397 -0.3962
 1045SOL     OW14767   4.293   2.210  15.160  0.1922  0.1301  0.1459
 1045SOL    HW114768   4.231   2.180  15.227 -0.0389  0.2490 -0.0133
 1045SOL    HW214769   4.290   2.132  15.104  1.2061 -0.4297  0.8814
 1046SOL     OW14770   4.489   0.828   8.211 -0.1014 -0.2552  0.3020
 1046SOL    HW114771   4.410   0.865   8.250 -0.7637 -0.5511 -0.7668
 1046SOL    HW214772   4.510   0.879   8.133  0.4012  1.5802  1.6412
 1047SOL     OW14773   4.502   3.398   4.302  0.5321  0.2221 -0.1585
 1047SOL    HW114774   4.541   3.407   4.389  0.9324  1.0186 -0.4197
 1047SOL    HW214775   4.531   3.312   4.272  1.5322 -0.5661  3.0517
 1048SOL     OW14776   3.806   3.067   8.010  0.2928  0.2728  0.4142
 1048SOL    HW114777   3.728   3.075   8.065 -0.1797  1.4562 -0.4229
 1048SOL    HW214778   3.852   3.149   8.029 -0.2093  0.4883  0.7066
 1049SOL     OW14779   3.337   0.066   9.526  0.5605  0.2333  0.1182
 1049SOL    HW114780   3.288   0.124   9.468 -0.6064 -0.8142  0.0454
 1049SOL    HW214781   3.271   0.005   9.559  0.2870 -0.3238 -1.4525
 1050SOL     OW14782   0.408   3.847  16.538 -0.4334 -0.3097 -0.0256
 1050SOL    HW114783   0.322   3.806  16.540 -0.0748 -0.9170  2.4248
 1050SOL    HW214784   0.471   3.775  16.540  0.4076  0.4137 -0.4164
 1051SOL     OW14785   3.314   1.832   8.765  0.1136 -0.0845 -0.2850
 1051SOL    HW114786   3.378   1.860   8.831 -2.7503 -0.3022  2.6000
 1051SOL    HW214787   3.237   1.847   8.820 -0.5113 -3.7563 -0.1279
 1052SOL     OW14788   0.971   3.226   6.688  0.4181  1.1674 -0.0008
 1052SOL    HW114789   0.907   3.155   6.682  1.4483  0.2188  0.3697
 1052SOL    HW214790   1.010   3.198   6.605  0.4121 -1.6418  0.9578
 1053SOL     OW14791   0.542   3.203   6.745 -0.3996  0.3265  0.4465
 1053SOL    HW114792   0.541   3.295   6.720  1.1359  0.1424 -0.2875
 1053SOL    HW214793   0.523   3.227   6.836  0.9834  1.8304  0.3285
 1054SOL     OW14794   3.349   3.983   7.979  0.6677  0.0952 -0.3193
 1054SOL    HW114795   3.287   3.973   7.907 -0.9377  0.6623  0.9904
 1054SOL    HW214796   3.429   4.004   7.930 -0.1501  2.0058 -0.8218
 1055SOL     OW14797   4.113   1.472   6.490  0.3428  0.0800  0.1949
 1055SOL    HW114798   4.051   1.522   6.437 -1.2489 -4.6036 -2.3921
 1055SOL    HW214799   4.105   1.380   6.465 -3.2826 -0.1028  2.0037
 1056SOL     OW14800   3.071   3.958   9.591 -0.4085  0.3659 -0.3662
 1056SOL    HW114801   3.124   4.025   9.547  2.5874 -1.2895  0.7262
 1056SOL    HW214802   3.135   3.898   9.629 -0.0893  0.2178 -1.1402
 1057SOL     OW14803   0.555   1.641   7.276  0.4308  0.0411 -0.0484
 1057SOL    HW114804   0.490   1.572   7.259 -1.3642  0.9743  2.9593
 1057SOL    HW214805   0.616   1.637   7.202  1.2251 -0.5705  0.6390
 1058SOL     OW14806   2.032   3.771   5.314 -0.0172 -0.0478 -0.3744
 1058SOL    HW114807   2.099   3.731   5.258  3.1324  2.2148  1.7735
 1058SOL    HW214808   1.949   3.758   5.268  0.4307  0.4640 -1.3286
 1059SOL     OW14809   3.162   2.226  14.738  0.1223  0.0601 -0.2448
 1059SOL    HW114810   3.187   2.212  14.829  1.6482 -2.1945 -1.0058
 1059SOL    HW214811   3.078   2.269  14.753 -0.4050 -0.8308 -0.6397
 1060SOL     OW14812   3.242   1.945   1.986  0.1117 -0.1959  0.3941
 1060SOL    HW114813   3.314   1.991   2.028  0.5813  0.8715 -1.5951
 1060SOL    HW214814   3.290   1.902   1.915 -3.6698 -1.6994 -1.2716
 1061SOL     OW14815   4.544   3.769   6.743 -0.6825 -0.1821  0.0302
 1061SOL    HW114816   4.460   3.814   6.753 -0.5741 -0.0244  0.2457
 1061SOL    HW214817   4.592   3.852   6.751 -1.6910  0.6006 -1.8472
 1062SOL     OW14818   2.645   1.632  16.285 -0.1423 -0.2182  0.1237
 1062SOL    HW114819   2.674   1.558  16.338 -1.2156  0.9622  2.3442
 1062SOL    HW214820   2.550   1.642  16.282  0.0465  1.6735  1.1907
 1063SOL     OW14821   1.729   2.742  11.822  0.5476  0.0827 -0.1503
 1063SOL    HW114822   1.707   2.656  11.857  3.7964 -0.8340 -0.3748
 1063SOL    HW214823   1.702   2.739  11.730 -1.3957 -0.0832  0.4179
 1064SOL     OW14824   4.114   2.913   6.126  0.0622 -0.1427 -0.3259
 1064SOL    HW114825   4.088   2.892   6.036  2.6474 -1.4866 -0.7460
 1064SOL    HW214826   4.157   2.998   6.123 -0.8635  0.3560  0.6087
 1065SOL     OW14827   0.543   2.865   2.977 -0.5840 -0.7546  0.4452
 1065SOL    HW114828   0.452   2.835   2.979 -0.8763 -0.0178 -1.1748
 1065SOL    HW214829   0.530   2.932   2.910 -0.7121 -0.1937  1.0321
 1066SOL     OW14830   3.163   4.036   4.653  0.0978  0.0255 -0.0402
 1066SOL    HW114831   3.195   4.017   4.565  0.7342 -0.7937  0.3692
 1066SOL    HW214832   3.111   3.960   4.680 -1.1515  1.4961  1.7342
 1067SOL     OW14833   2.789   3.580   2.747 -0.1082 -0.0707  0.0747
 1067SOL    HW114834   2.695   3.589   2.733  0.2686  1.0502 -1.7833
 1067SOL    HW214835   2.824   3.585   2.657 -0.5191 -0.3833 -0.0997
 1068SOL     OW14836   3.799   3.525   8.189  0.3308 -0.0787 -0.0910
 1068SOL    HW114837   3.849   3.521   8.270 -0.0573  0.7527  0.1952
 1068SOL    HW214838   3.709   3.546   8.214  0.6315  0.4714  0.5280
 1069SOL     OW14839   1.659   0.650   8.583  0.5425 -0.0515  0.2369
 1069SOL    HW114840   1.727   0.679   8.521  0.2677 -0.8110 -0.4263
 1069SOL    HW214841   1.614   0.591   8.522 -0.9592  0.6329  0.7046
 1070SOL     OW14842   1.175   3.814  10.363 -0.0633  0.4783 -0.3071
 1070SOL    HW114843   1.251   3.790  10.417  0.3574 -2.4438 -2.2270
 1070SOL    HW214844   1.174   3.730  10.318  1.3721  0.7624 -0.8659
 1071SOL     OW14845   4.535   0.333   3.306 -0.3899 -0.1386  0.0777
 1071SOL    HW114846   4.598   0.301   3.370 -1.6833 -0.1827  1.3073
 1071SOL    HW214847   4.478   0.390   3.357  0.4683  0.9655 -0.1770
 1072SOL     OW14848   0.155   2.513   2.301  0.2082  0.2993  0.3423
 1072SOL    HW114849   0.102   2.433   2.311 -1.6603  1.5769  0.5721
 1072SOL    HW214850   0.179   2.530   2.391 -0.9448 -1.3980  0.9823
 1073SOL     OW14851   0.144   3.419   9.935  0.5408  0.2354 -0.5338
 1073SOL    HW114852   0.167   3.425  10.027 -1.1445 -1.0731 -0.0240
 1073SOL    HW214853   0.125   3.325   9.933 -0.0995  0.4059 -2.6030
 1074SOL     OW14854   3.818   3.976   2.819 -0.2859  0.0012  0.4316
 1074SOL    HW114855   3.749   3.914   2.793 -0.0591 -1.2899  2.9944
 1074SOL    HW214856   3.843   4.014   2.734  1.6626  0.2511  1.1249
 1075SOL     OW14857   0.587   3.558  10.749  0.2709 -0.6281 -0.1715
 1075SOL    HW114858   0.576   3.473  10.792  2.0926 -1.4202 -1.3001
 1075SOL    HW214859   0.527   3.616  10.798  0.7748  0.2705 -0.6099
 1076SOL     OW14860   0.590   4.583   7.296 -0.0381 -0.1737 -0.0764
 1076SOL    HW114861   0.626   4.501   7.261  0.6123  0.0395  0.1126
 1076SOL    HW214862   0.518   4.599   7.234  0.2323  2.5722  0.3372
 1077SOL     OW14863   0.148   3.747  16.511 -0.0045 -0.5594  0.2200
 1077SOL    HW114864   0.057   3.717  16.514 -0.0502 -0.2739  1.7170
 1077SOL    HW214865   0.171   3.738  16.418  1.6675 -0.1314  0.5991
 1078SOL     OW14866   2.546   4.110  12.854  0.0095  0.9886 -0.3586
 1078SOL    HW114867   2.542   4.159  12.772 -1.8762  1.4108 -0.0082
 1078SOL    HW214868   2.637   4.125  12.880  0.8102 -2.8275 -0.9059
 1079SOL     OW14869   2.149   2.534  15.584  0.6362 -0.5839  0.1219
 1079SOL    HW114870   2.158   2.500  15.674 -0.6612  1.1149  0.8994
 1079SOL    HW214871   2.144   2.448  15.542  1.3633 -0.1519 -0.8244
 1080SOL     OW14872   4.381   4.203  13.666 -0.2972  0.3753  0.0577
 1080SOL    HW114873   4.379   4.130  13.728 -2.0030 -0.1556 -0.6301
 1080SOL    HW214874   4.289   4.198  13.643  0.1123 -0.8226 -1.2909
 1081SOL     OW14875   4.199   0.631   8.364  0.4830  0.3223 -0.2522
 1081SOL    HW114876   4.274   0.662   8.415  1.2089 -0.3996 -0.8821
 1081SOL    HW214877   4.154   0.563   8.414  1.1164 -0.9069 -1.3370
 1082SOL     OW14878   1.509   4.477   8.635 -0.4360  0.3210 -0.3032
 1082SOL    HW114879   1.554   4.560   8.652 -1.0454  0.8597 -1.3213
 1082SOL    HW214880   1.444   4.485   8.705 -0.3383  1.0772 -0.3043
 1083SOL     OW14881   4.032   4.081   7.078  0.3588  0.6669 -0.0862
 1083SOL    HW114882   3.968   4.089   7.007 -0.3623 -0.7790  0.4079
 1083SOL    HW214883   3.989   4.037   7.152 -0.0902  1.7432  0.3005
 1084SOL     OW14884   2.806   0.420  15.973  0.2076  0.3373 -0.1204
 1084SOL    HW114885   2.724   0.468  15.981 -0.9026 -1.3259 -1.6253
 1084SOL    HW214886   2.861   0.471  15.913 -0.6823  0.4225 -0.8778
 1085SOL     OW14887   1.537   3.011  13.743  0.1570  0.0387 -0.5461
 1085SOL    HW114888   1.594   2.985  13.671  2.4409  2.3858  0.4344
 1085SOL    HW214889   1.603   3.045  13.804  3.1572 -1.9983 -2.6695
 1086SOL     OW14890   0.308   2.217  11.166  0.4189 -0.4533  0.3843
 1086SOL    HW114891   0.400   2.242  11.168 -0.2352  1.7371  2.2615
 1086SOL    HW214892   0.298   2.159  11.241 -0.7660  0.1363  0.6828
 1087SOL     OW14893   3.086   3.145  15.021 -0.2733 -0.2898 -0.4584
 1087SOL    HW114894   3.156   3.111  14.965  0.3543  0.2383  0.0035
 1087SOL    HW214895   3.121   3.184  15.101  0.2676 -0.3739 -0.6476
 1088SOL     OW14896   4.511   0.561   8.461 -0.1139 -0.0816  0.1194
 1088SOL    HW114897   4.486   0.653   8.473 -0.8236 -0.3330  0.5375
 1088SOL    HW214898   4.450   0.521   8.523  1.0053  2.7274  3.0875
 1089SOL     OW14899   3.399   2.507   6.086  0.0423  0.0540  0.4507
 1089SOL    HW114900   3.441   2.590   6.106  1.2183  0.0778 -2.0841
 1089SOL    HW214901   3.318   2.514   6.138 -0.1424 -0.3735  0.2224
 1090SOL     OW14902   3.569   1.212   3.464  0.6103  0.2765 -0.0237
 1090SOL    HW114903   3.536   1.289   3.416  1.5523  1.8605  1.8580
 1090SOL    HW214904   3.656   1.244   3.487  0.8630  1.2089 -2.3185
 1091SOL     OW14905   0.495   0.743   6.412 -0.2154  0.1564  0.3400
 1091SOL    HW114906   0.442   0.668   6.383 -1.0777  0.8626  0.0786
 1091SOL    HW214907   0.428   0.809   6.392  1.8626  1.8202 -1.0731
 1092SOL     OW14908   0.540   4.649   9.223 -0.3641 -0.3986 -0.2175
 1092SOL    HW114909   0.507   4.560   9.218 -0.9558 -0.2603  1.1281
 1092SOL    HW214910   0.605   4.663   9.155  1.3602 -1.2277  1.2551
 1093SOL     OW14911   2.163   4.564   9.454 -0.1432 -0.4170  1.0151
 1093SOL    HW114912   2.108   4.518   9.517 -0.9429 -0.4214  0.3110
 1093SOL    HW214913   2.145   4.528   9.367  1.7770  0.1646  0.3769
 1094SOL     OW14914   1.945   4.330   8.530 -0.4066  0.6420 -0.1066
 1094SOL    HW114915   1.882   4.294   8.593 -0.0083 -0.3942 -0.3033
 1094SOL    HW214916   1.894   4.359   8.454 -1.0615  2.2640  0.9402
 1095SOL     OW14917   0.328   0.595  13.477 -0.6294  0.2984  0.5701
 1095SOL    HW114918   0.324   0.499  13.478  0.2237  0.2439 -0.6390
 1095SOL    HW214919   0.312   0.614  13.569  2.8623  1.0772  1.0143
 1096SOL     OW14920   2.290   0.929   4.104 -0.5113 -0.2713 -0.3090
 1096SOL    HW114921   2.339   0.890   4.031 -0.2695  1.0263 -0.8442
 1096SOL    HW214922   2.323   1.019   4.104 -2.9906  0.6299  0.3694
 1097SOL     OW14923   0.463   1.404   8.140 -0.6735 -0.0085  0.0585
 1097SOL    HW114924   0.480   1.498   8.139  0.4080 -0.2202 -1.7249
 1097SOL    HW214925   0.372   1.400   8.110 -0.6311  0.5428 -0.1528
 1098SOL     OW14926   2.910   3.288   2.450  0.4263 -0.3199 -0.2673
 1098SOL    HW114927   2.903   3.265   2.543 -0.0051  0.2542 -0.1636
 1098SOL    HW214928   2.819   3.303   2.426  0.6054  0.8472 -0.1896
 1099SOL     OW14929   0.558   1.873   6.268  0.0145 -0.0587 -0.0661
 1099SOL    HW114930   0.636   1.817   6.273 -0.1394 -0.3385 -0.7039
 1099SOL    HW214931   0.586   1.938   6.204  0.6034 -1.2568 -1.0232
 1100SOL     OW14932   0.192   1.358   3.395 -0.3124 -0.5768  0.6239
 1100SOL    HW114933   0.190   1.262   3.404 -0.0741 -0.8687 -2.3874
 1100SOL    HW214934   0.113   1.382   3.444  0.2877  0.6800  0.9720
 1101SOL     OW14935   3.403   4.023   8.442 -0.6222 -0.4316 -0.0883
 1101SOL    HW114936   3.426   3.934   8.415 -0.7026 -1.1810  2.3235
 1101SOL    HW214937   3.314   4.037   8.409 -1.5183 -1.9660  1.6189
 1102SOL     OW14938   0.256   0.496   3.158  0.1122  0.4034  0.2778
 1102SOL    HW114939   0.247   0.427   3.224 -1.9918 -1.4629 -1.9478
 1102SOL    HW214940   0.191   0.466   3.094  0.0372  0.4023  0.3538
 1103SOL     OW14941   3.018   1.449   7.048 -0.5314  0.2052 -0.0095
 1103SOL    HW114942   3.042   1.405   6.967 -1.8067  2.1022 -1.4037
 1103SOL    HW214943   2.923   1.453   7.033 -0.5409 -2.3364 -0.6803
 1104SOL     OW14944   2.889   1.278   1.134 -0.1540  0.1422  0.5254
 1104SOL    HW114945   2.925   1.198   1.096 -0.4681  0.1429  0.2241
 1104SOL    HW214946   2.965   1.323   1.169 -0.0586  0.4363 -0.0516
 1105SOL     OW14947   1.100   3.124   1.675  0.1271  0.2316  0.2418
 1105SOL    HW114948   1.107   3.044   1.726  1.1456 -0.1218 -0.4481
 1105SOL    HW214949   1.195   3.132   1.660  0.3808 -0.2546  1.6634
 1106SOL     OW14950   3.287   2.036   0.975  0.9785  0.9528  0.4487
 1106SOL    HW114951   3.231   2.058   1.050 -3.0503 -2.0515 -1.6851
 1106SOL    HW214952   3.223   2.030   0.905  0.4133 -3.2145  1.3439
 1107SOL     OW14953   3.412   0.236  14.880 -0.4701 -0.0869  0.1603
 1107SOL    HW114954   3.463   0.171  14.832  0.6523  1.3232 -0.5744
 1107SOL    HW214955   3.409   0.311  14.821  0.8368 -0.5554 -0.4906
 1108SOL     OW14956   2.707   2.352   9.836 -0.1242 -0.2367  0.2765
 1108SOL    HW114957   2.701   2.385   9.746  1.2125  1.5511  0.8582
 1108SOL    HW214958   2.615   2.356   9.862 -0.1083  2.3692 -0.0659
 1109SOL     OW14959   4.301   2.899   8.698 -0.2733  0.0257  0.2520
 1109SOL    HW114960   4.368   2.877   8.633  0.4625  0.5449  0.8413
 1109SOL    HW214961   4.247   2.821   8.699 -1.8024  1.0639 -0.6658
 1110SOL     OW14962   3.375   2.262   5.993  0.3710  0.0354  0.6654
 1110SOL    HW114963   3.405   2.351   6.014 -0.9862  0.8644 -0.9317
 1110SOL    HW214964   3.288   2.299   5.978  0.3027 -1.2462 -1.9982
 1111SOL     OW14965   2.797   3.823  10.330 -0.2989 -0.2665 -0.1583
 1111SOL    HW114966   2.809   3.853  10.420 -0.5472  0.2933 -0.3123
 1111SOL    HW214967   2.734   3.751  10.326 -0.6100 -0.0829  1.2406
 1112SOL     OW14968   2.515   1.537   0.429 -0.1371  0.1851  0.5268
 1112SOL    HW114969   2.582   1.534   0.497  0.7849  0.7579 -0.3468
 1112SOL    HW214970   2.469   1.615   0.461 -0.2505  0.0288  0.7457
 1113SOL     OW14971   2.383   0.313   4.329  0.1391 -0.9077  0.2091
 1113SOL    HW114972   2.404   0.388   4.385  3.6178 -1.6342 -0.1227
 1113SOL    HW214973   2.439   0.336   4.256 -0.2041 -0.2800  0.1383
 1114SOL     OW14974   2.096   2.542  10.247 -0.6679 -0.2951  0.3517
 1114SOL    HW114975   2.131   2.493  10.321  0.7160 -0.3857 -0.3582
 1114SOL    HW214976   2.068   2.619  10.295  2.2359  0.3500  1.0076
 1115SOL     OW14977   3.586   0.274   0.415  0.9601  0.1477 -0.4542
 1115SOL    HW114978   3.494   0.296   0.400  1.0114  1.0914  0.6167
 1115SOL    HW214979   3.610   0.316   0.498  1.8383 -3.6036  1.2054
 1116SOL     OW14980   4.619   0.321  11.660  0.0017 -0.5211 -0.5450
 1116SOL    HW114981   4.676   0.262  11.612  1.5448 -1.0915  1.9584
 1116SOL    HW214982   4.546   0.336  11.600 -1.4389 -2.1988  0.8159
 1117SOL     OW14983   2.756   4.225   1.586  0.1179  0.7257  0.4579
 1117SOL    HW114984   2.720   4.175   1.658  1.1547 -0.8378 -0.1225
 1117SOL    HW214985   2.767   4.160   1.516  1.1350 -0.4768  1.7444
 1118SOL     OW14986   3.185   3.972   2.837  0.3516 -0.0536  0.4248
 1118SOL    HW114987   3.207   3.897   2.892  0.2440 -0.1509  0.3335
 1118SOL    HW214988   3.126   4.030   2.885  0.1831 -0.8330  1.1501
 1119SOL     OW14989   1.889   3.697   8.545 -0.2179 -0.2375 -0.2093
 1119SOL    HW114990   1.877   3.643   8.467 -0.8564  1.2189 -1.1314
 1119SOL    HW214991   1.826   3.768   8.527  1.7620  1.3665 -0.7667
 1120SOL     OW14992   0.136   2.886   1.535  0.1712 -1.0066  0.1311
 1120SOL    HW114993   0.205   2.906   1.598 -0.5503  0.9056  0.3183
 1120SOL    HW214994   0.097   2.972   1.517  1.2576 -0.0172  2.3812
 1121SOL     OW14995   0.810   1.222   5.925  0.4963 -0.5391  0.5449
 1121SOL    HW114996   0.808   1.137   5.880  2.4828  0.5706 -1.6465
 1121SOL    HW214997   0.734   1.261   5.881 -0.0230  0.2381  2.1364
 1122SOL     OW14998   1.949   3.941   3.035 -0.0687 -0.2198 -0.1076
 1122SOL    HW114999   2.007   3.946   2.959  0.5232 -0.1712  0.3467
 1122SOL    HW215000   1.875   3.996   3.007 -0.4573 -1.2276 -1.0421
 1123SOL     OW15001   0.990   1.081   4.434  0.3320 -0.3394 -0.6640
 1123SOL    HW115002   1.075   1.041   4.455 -0.4413 -1.2966  0.6538
 1123SOL    HW215003   1.003   1.120   4.347 -0.8544  0.5669 -0.4290
 1124SOL     OW15004   4.311   1.949   4.999 -0.2191  0.2463  0.6655
 1124SOL    HW115005   4.357   1.899   4.932 -3.7870 -3.0018  0.6791
 1124SOL    HW215006   4.381   1.956   5.064 -0.3952 -0.5059  0.9396
 1125SOL     OW15007   2.544   0.818  10.016 -0.1019 -0.5058 -0.4499
 1125SOL    HW115008   2.589   0.885  10.067 -3.8440  1.1276  0.7132
 1125SOL    HW215009   2.542   0.872   9.938  1.0035  0.5185  0.2472
 1126SOL     OW15010   1.003   1.499   6.726  0.5291  0.5348 -0.4109
 1126SOL    HW115011   1.098   1.507   6.726  0.4794  1.1614  0.3050
 1126SOL    HW215012   0.977   1.588   6.752 -0.6111  0.5379 -1.5484
 1127SOL     OW15013   0.012   3.064  16.086 -0.1160  0.1459 -0.3824
 1127SOL    HW115014   4.680   3.005  16.113  0.6512  0.1415  1.6098
 1127SOL    HW215015   0.078   2.994  16.086  0.3319  0.5658 -0.2023
 1128SOL     OW15016   0.182   2.795  10.071 -0.2812  0.0229  0.0398
 1128SOL    HW115017   0.128   2.862  10.031 -0.0797  0.1101 -0.0884
 1128SOL    HW215018   0.239   2.765   9.999 -2.3965  0.6578 -1.8958
 1129SOL     OW15019   4.673   1.086   2.594 -0.7553 -0.7749 -0.3872
 1129SOL    HW115020   0.030   1.088   2.609 -1.0144 -0.9554  1.2700
 1129SOL    HW215021   4.674   1.128   2.508 -1.4909 -1.9199 -0.9666
 1130SOL     OW15022   1.221   2.806   8.758 -0.5559  0.2725 -0.0686
 1130SOL    HW115023   1.297   2.776   8.809 -1.0276 -0.0219  0.4564
 1130SOL    HW215024   1.266   2.793   8.674 -1.1454  1.4176 -0.5635
 1131SOL     OW15025   1.528   1.022   9.602 -0.5202 -0.3244 -0.6110
 1131SOL    HW115026   1.538   0.969   9.523  1.1016 -0.0836 -0.5684
 1131SOL    HW215027   1.514   0.953   9.667  2.4466  0.4319  0.8549
 1132SOL     OW15028   0.042   3.120   3.147 -0.4234  0.2807 -0.4707
 1132SOL    HW115029   4.729   3.200   3.161  1.5895  1.2500  1.2968
 1132SOL    HW215030   0.123   3.134   3.196 -1.8965  0.0501  2.0335
 1133SOL     OW15031   3.606   2.279   8.479 -0.1133 -0.2476  0.1170
 1133SOL    HW115032   3.668   2.343   8.515  0.4860 -0.0519 -1.2631
 1133SOL    HW215033   3.623   2.205   8.537  1.6055 -1.2828 -1.7191
 1134SOL     OW15034   3.375   2.144   2.690 -0.6700  0.5792  0.3153
 1134SOL    HW115035   3.307   2.187   2.637  0.2714  2.3120  0.5256
 1134SOL    HW215036   3.429   2.213   2.729 -0.2261  1.7618 -2.4183
 1135SOL     OW15037   2.113   1.194  12.525 -0.5566  0.3116  0.4580
 1135SOL    HW115038   2.174   1.255  12.483  1.6340 -1.7213  0.7344
 1135SOL    HW215039   2.037   1.252  12.529 -1.7723 -1.2617 -0.0970
 1136SOL     OW15040   1.922   2.203  13.553 -0.6351 -0.1864  0.1578
 1136SOL    HW115041   1.833   2.193  13.522 -1.1761 -0.2433  1.7059
 1136SOL    HW215042   1.913   2.156  13.636  0.8459 -0.5950  0.0975
 1137SOL     OW15043   3.839   0.711   2.789  0.2001 -0.1205 -0.1029
 1137SOL    HW115044   3.828   0.805   2.776 -1.8390 -0.0193  2.2467
 1137SOL    HW215045   3.778   0.702   2.862  2.8168 -0.7845  2.0198
 1138SOL     OW15046   3.465   3.369  11.470 -0.5698 -0.3356  0.5999
 1138SOL    HW115047   3.517   3.443  11.439 -2.0415  0.0625 -0.8731
 1138SOL    HW215048   3.400   3.364  11.400 -0.2032 -1.3070  0.3257
 1139SOL     OW15049   0.051   0.271  17.635  0.3409 -1.1012 -0.3153
 1139SOL    HW115050   4.738   0.190  17.629 -1.9448  0.4088 -0.9985
 1139SOL    HW215051   0.009   0.318  17.563  1.4321 -1.6601 -1.3175
 1140SOL     OW15052   2.877   0.559   9.294 -0.3175  0.3251 -0.3212
 1140SOL    HW115053   2.861   0.601   9.379  0.8481 -0.4296  0.2776
 1140SOL    HW215054   2.944   0.497   9.322 -1.1899  0.8616  2.9666
 1141SOL     OW15055   2.274   4.555   3.810 -0.1158  0.1599 -0.1237
 1141SOL    HW115056   2.367   4.575   3.803  0.4434 -2.0913  0.9111
 1141SOL    HW215057   2.277   4.475   3.863 -0.2280  0.9821  1.1266
 1142SOL     OW15058   3.149   2.008  14.572 -0.1667 -0.3425 -0.0284
 1142SOL    HW115059   3.083   2.045  14.513 -0.7820 -0.1717  0.7754
 1142SOL    HW215060   3.152   2.075  14.640  0.9977  0.8624 -1.2693
 1143SOL     OW15061   1.255   3.338   4.698 -0.6838 -0.2363 -0.2853
 1143SOL    HW115062   1.248   3.359   4.605 -0.5777 -1.1481 -0.5038
 1143SOL    HW215063   1.332   3.280   4.706 -1.8218 -1.3872  2.4922
 1144SOL     OW15064   2.178   3.771  14.134  0.0589 -0.1586  0.3695
 1144SOL    HW115065   2.258   3.807  14.171  1.5855 -0.6439 -2.4202
 1144SOL    HW215066   2.210   3.734  14.052 -1.3109 -2.7938  1.0298
 1145SOL     OW15067   2.331   1.920   6.944  0.1390  0.1404 -0.1802
 1145SOL    HW115068   2.324   2.014   6.956  0.4883  0.2059 -0.5084
 1145SOL    HW215069   2.354   1.914   6.851  1.1071 -4.2567  0.3360
 1146SOL     OW15070   1.938   4.469   7.454  0.2042  0.3437  0.2104
 1146SOL    HW115071   2.018   4.519   7.472 -0.3665  1.5950 -0.7441
 1146SOL    HW215072   1.949   4.442   7.363  1.5579  5.6753 -1.2249
 1147SOL     OW15073   4.179   4.102   8.572 -0.2409  0.0256  0.0467
 1147SOL    HW115074   4.109   4.074   8.632 -0.4382  0.4451  0.0085
 1147SOL    HW215075   4.128   4.150   8.506  1.0038  0.2188 -0.7603
 1148SOL     OW15076   2.741   3.749   9.099  0.0999  0.3209 -0.1497
 1148SOL    HW115077   2.724   3.842   9.085  0.7379  0.4020 -0.4121
 1148SOL    HW215078   2.744   3.728   9.006 -2.9414  1.2528 -0.4430
 1149SOL     OW15079   1.883   1.852   7.490  0.7139 -0.0481 -0.1517
 1149SOL    HW115080   1.960   1.905   7.471  0.6307 -0.0273 -0.4252
 1149SOL    HW215081   1.886   1.840   7.585  2.1567 -0.2172 -0.2285
 1150SOL     OW15082   1.703   2.843   6.656 -0.5232 -0.2810  0.0195
 1150SOL    HW115083   1.752   2.812   6.732  0.5183 -0.2716 -0.6505
 1150SOL    HW215084   1.614   2.815   6.680  0.6594 -2.5810  1.7211
 1151SOL     OW15085   2.051   4.117   0.425 -0.1925 -0.1077 -0.0303
 1151SOL    HW115086   2.138   4.106   0.465 -0.8940 -1.3605  1.1865
 1151SOL    HW215087   2.078   4.078   0.342 -4.2632  0.1885 -1.4785
 1152SOL     OW15088   3.365   1.489   2.330  0.1012 -0.1468 -0.3493
 1152SOL    HW115089   3.356   1.547   2.255  3.6583  1.3054  0.3620
 1152SOL    HW215090   3.460   1.481   2.330  0.2338  1.3527  1.2110
 1153SOL     OW15091   3.615   4.054   7.880 -0.4862 -0.3687 -0.0668
 1153SOL    HW115092   3.665   4.029   7.803  0.8552  0.7193  0.4421
 1153SOL    HW215093   3.673   4.125   7.908 -1.1346 -0.2222  0.9299
 1154SOL     OW15094   4.052   1.195  11.891  0.6865 -0.5354 -0.0515
 1154SOL    HW115095   3.964   1.206  11.928 -0.1178  0.8666 -2.3054
 1154SOL    HW215096   4.054   1.101  11.906 -0.2556 -0.3652  1.1597
 1155SOL     OW15097   2.671   3.091   6.928 -0.0525  0.3132  0.4142
 1155SOL    HW115098   2.617   3.148   6.983 -2.2132  0.3018 -1.7142
 1155SOL    HW215099   2.762   3.111   6.953  0.0933 -1.8683  1.5884
 1156SOL     OW15100   2.090   4.489  17.137 -0.4765  0.3591  0.2845
 1156SOL    HW115101   2.122   4.574  17.107  2.0047 -0.6271  0.1668
 1156SOL    HW215102   2.055   4.508  17.224 -3.2871  2.2323 -1.2727
 1157SOL     OW15103   3.093   4.282   7.865  0.1607 -0.2672 -0.0675
 1157SOL    HW115104   3.159   4.300   7.932  0.6634  0.4245 -0.7474
 1157SOL    HW215105   3.112   4.351   7.802 -0.2196  1.4222  1.6890
 1158SOL     OW15106   4.122   4.300   7.925  0.0513  0.0824  0.1557
 1158SOL    HW115107   4.162   4.369   7.979  2.1714 -1.2588  0.2777
 1158SOL    HW215108   4.185   4.230   7.940  0.4071  0.3845  0.0845
 1159SOL     OW15109   3.549   4.681   6.486  0.0409 -0.4155 -0.2295
 1159SOL    HW115110   3.467   4.719   6.456 -1.0508 -0.9087  2.1563
 1159SOL    HW215111   3.596   0.023   6.510 -1.6879  0.5425 -0.0176
 1160SOL     OW15112   2.783   1.591  15.284 -0.0596 -0.4031  0.1542
 1160SOL    HW115113   2.818   1.620  15.368  1.0430 -0.1003 -0.4008
 1160SOL    HW215114   2.855   1.603  15.221 -1.1713  1.3255 -0.8039
 1161SOL     OW15115   0.769   4.662   7.483  0.4237  0.4656  0.5692
 1161SOL    HW115116   0.720   4.622   7.554  1.3612 -0.3397  0.7756
 1161SOL    HW215117   0.706   4.665   7.411 -0.5858  0.4215  1.4668
 1162SOL     OW15118   3.860   0.605   1.930  0.3066  0.0904 -0.3855
 1162SOL    HW115119   3.880   0.694   1.902 -0.4629 -0.0742 -1.4653
 1162SOL    HW215120   3.921   0.592   2.003  0.1734 -1.8104 -0.6034
 1163SOL     OW15121   3.024   2.059   7.828  0.6830 -0.5029  0.7111
 1163SOL    HW115122   3.022   2.021   7.916  1.5429 -2.1872 -0.0042
 1163SOL    HW215123   2.951   2.016   7.783  1.4939 -1.3229  0.1718
 1164SOL     OW15124   2.783   1.472   6.594 -0.0175 -0.3588 -0.1972
 1164SOL    HW115125   2.692   1.500   6.595 -0.6248 -2.2644 -1.1037
 1164SOL    HW215126   2.819   1.543   6.648  0.2350 -0.6516  0.0237
 1165SOL     OW15127   1.426   4.288   9.037 -0.2599 -0.0095  0.0094
 1165SOL    HW115128   1.480   4.209   9.040  2.2862  1.7568  0.0138
 1165SOL    HW215129   1.347   4.258   8.992 -0.8024 -0.0696  0.9846
 1166SOL     OW15130   1.101   0.217   9.901  0.3122  0.1625  0.3136
 1166SOL    HW115131   1.069   0.285   9.961 -2.1056 -0.8270  0.1565
 1166SOL    HW215132   1.193   0.207   9.924  0.2400 -0.9133  0.1682
 1167SOL     OW15133   4.357   1.785   1.124  0.2472  0.1440 -0.5803
 1167SOL    HW115134   4.284   1.722   1.116  1.1440 -0.7242 -1.9802
 1167SOL    HW215135   4.431   1.725   1.128  0.5195  0.5667  0.6410
 1168SOL     OW15136   3.794   3.655   1.730 -0.0764 -0.0150 -0.0678
 1168SOL    HW115137   3.709   3.616   1.751 -0.2862 -0.8351 -2.3951
 1168SOL    HW215138   3.853   3.604   1.785  2.3224  0.8818 -1.7786
 1169SOL     OW15139   0.342   0.032   7.572  0.0416  0.1490  0.2962
 1169SOL    HW115140   0.308   0.001   7.656 -3.3978  0.1309 -1.0813
 1169SOL    HW215141   0.299   0.117   7.565 -1.1128 -0.4378  0.2064
 1170SOL     OW15142   4.243   2.429  13.585  0.6027 -0.1103  0.2432
 1170SOL    HW115143   4.267   2.336  13.588  0.4172 -0.1598  0.1980
 1170SOL    HW215144   4.232   2.447  13.492 -1.3718 -0.2009  0.4461
 1171SOL     OW15145   1.029   1.483   9.363 -0.3393 -0.2223 -0.6163
 1171SOL    HW115146   0.984   1.566   9.349  2.0730  1.1514 -0.3063
 1171SOL    HW215147   1.025   1.479   9.458 -2.0912  0.1092 -0.6766
 1172SOL     OW15148   0.214   3.979   4.977 -0.0836  0.8076  0.3708
 1172SOL    HW115149   0.136   4.012   5.021 -0.2121  0.3624  0.4788
 1172SOL    HW215150   0.253   4.057   4.939  2.9995 -0.7878  0.2781
 1173SOL     OW15151   1.273   0.697  16.948 -0.0576 -0.0983  0.1204
 1173SOL    HW115152   1.323   0.621  16.979  0.3015 -0.2799 -0.8781
 1173SOL    HW215153   1.348   0.752  16.927 -1.3859  1.6715  0.0216
 1174SOL     OW15154   1.688   1.099   8.690 -0.2157 -0.4842  0.2303
 1174SOL    HW115155   1.751   1.065   8.626 -1.5053  3.9363 -3.3761
 1174SOL    HW215156   1.603   1.058   8.669 -1.5076  2.4715 -0.2461
 1175SOL     OW15157   3.614   2.216   5.706  0.0031  0.6878  0.1892
 1175SOL    HW115158   3.652   2.203   5.619  0.7283 -0.2749  0.6437
 1175SOL    HW215159   3.579   2.305   5.703  1.5435  1.3397  1.6268
 1176SOL     OW15160   2.828   3.865   7.760 -0.0036 -0.3070  0.2807
 1176SOL    HW115161   2.870   3.949   7.773  2.1862 -1.2923 -0.5057
 1176SOL    HW215162   2.870   3.846   7.676  0.7798  2.7079  0.0210
 1177SOL     OW15163   2.007   0.958   5.399  0.1854 -0.1670 -0.1207
 1177SOL    HW115164   2.085   1.012   5.391 -0.1774  0.4779  0.7346
 1177SOL    HW215165   2.011   0.951   5.495 -3.2133  2.4895  0.2171
 1178SOL     OW15166   0.750   1.695   5.340  0.3311 -0.1549  0.0683
 1178SOL    HW115167   0.824   1.717   5.283 -0.6688  1.2962 -0.6568
 1178SOL    HW215168   0.692   1.767   5.314  1.6299  0.8724  0.0069
 1179SOL     OW15169   2.020   0.875   6.973 -0.3507  0.1028  0.2413
 1179SOL    HW115170   1.962   0.952   6.973  0.2901  0.5900  0.0873
 1179SOL    HW215171   2.014   0.846   7.063  0.7366  1.0133  0.6186
 1180SOL     OW15172   3.668   3.913   6.382  0.6709 -0.4265  0.0856
 1180SOL    HW115173   3.667   3.875   6.470  0.5486  0.1929  0.3505
 1180SOL    HW215174   3.636   4.000   6.406  0.4843 -0.0639 -1.4687
 1181SOL     OW15175   2.926   0.651  17.321  0.0948  1.1633 -0.2875
 1181SOL    HW115176   2.986   0.581  17.297  0.4921  1.8056 -1.1801
 1181SOL    HW215177   2.874   0.604  17.385 -0.2119  0.4823 -1.0335
 1182SOL     OW15178   2.282   1.393  12.373 -1.2527  0.1525  0.0444
 1182SOL    HW115179   2.276   1.488  12.367 -1.0391  0.2612  1.6433
 1182SOL    HW215180   2.365   1.376  12.419 -2.4395  0.7817  2.4047
 1183SOL     OW15181   1.740   4.397   3.550  0.1447  0.0343 -0.4872
 1183SOL    HW115182   1.758   4.403   3.644 -0.5585  1.4762 -0.4459
 1183SOL    HW215183   1.812   4.346   3.514  0.6746  1.2877 -1.1939
 1184SOL     OW15184   0.852   1.305   2.340  0.1075 -0.0941 -0.4859
 1184SOL    HW115185   0.818   1.359   2.410  0.0358 -0.8906  0.0982
 1184SOL    HW215186   0.865   1.221   2.385  0.7594 -0.8960 -2.1358
 1185SOL     OW15187   3.893   1.661  15.972  0.2171  1.2145 -0.4984
 1185SOL    HW115188   3.890   1.570  15.999 -0.6237  1.1059 -0.9661
 1185SOL    HW215189   3.835   1.659  15.895  0.8256 -1.4172 -0.8737
 1186SOL     OW15190   4.128   3.565  11.625  0.2238  0.2513 -0.3559
 1186SOL    HW115191   4.053   3.598  11.674 -0.2512  1.2861 -1.7591
 1186SOL    HW215192   4.080   3.546  11.544 -0.6793  0.0775  0.2193
 1187SOL     OW15193   2.282   1.988   0.871  0.0734 -0.2388 -0.1930
 1187SOL    HW115194   2.367   2.027   0.848  0.4303 -0.2877  1.0438
 1187SOL    HW215195   2.261   1.947   0.787 -1.8941  0.6501 -0.1300
 1188SOL     OW15196   2.363   4.515  13.437 -0.2516 -0.3767 -0.6437
 1188SOL    HW115197   2.354   4.492  13.530  0.7557 -2.2396 -0.9831
 1188SOL    HW215198   2.376   4.609  13.435  3.8618 -0.9400 -1.9493
 1189SOL     OW15199   2.126   0.690   4.505 -0.4621  0.0402  0.1620
 1189SOL    HW115200   2.118   0.739   4.587  0.0128  0.9570 -0.3281
 1189SOL    HW215201   2.085   0.611   4.539 -1.1742  0.6759  0.7858
 1190SOL     OW15202   3.808   3.305   2.803 -0.0600  0.0850 -0.2598
 1190SOL    HW115203   3.886   3.312   2.860 -0.2223  0.5774 -0.1024
 1190SOL    HW215204   3.832   3.381   2.751  0.2914  0.1277 -0.0397
 1191SOL     OW15205   3.353   0.785   3.663  0.1066  0.2885 -0.3296
 1191SOL    HW115206   3.395   0.868   3.642 -0.4987  0.3524 -1.3038
 1191SOL    HW215207   3.377   0.787   3.756  0.7565  1.0519 -0.5185
 1192SOL     OW15208   4.679   3.388   7.542  0.0505 -0.0548 -0.6175
 1192SOL    HW115209   4.649   3.388   7.634  0.3944  0.4355 -0.5025
 1192SOL    HW215210   4.676   3.480   7.515 -1.0052  0.0860 -0.0554
 1193SOL     OW15211   0.495   2.121   8.471 -0.2927 -0.2067  0.5588
 1193SOL    HW115212   0.578   2.138   8.515  0.1844  0.0919 -0.4554
 1193SOL    HW215213   0.437   2.193   8.496 -2.5428 -1.5307 -0.8346
 1194SOL     OW15214   4.535   1.408  16.735  0.1711 -0.1220  0.2049
 1194SOL    HW115215   4.628   1.427  16.720  0.4211 -0.8600  0.8700
 1194SOL    HW215216   4.491   1.483  16.775  0.8059  1.2154 -1.5884
 1195SOL     OW15217   0.955   4.490   3.317  0.2901  0.0094 -0.1719
 1195SOL    HW115218   0.888   4.514   3.381 -0.3136 -0.0051 -0.7949
 1195SOL    HW215219   0.978   4.401   3.342  1.0919  1.0357  2.7581
 1196SOL     OW15220   2.711   4.331   7.889  0.6696  0.0255  0.6982
 1196SOL    HW115221   2.770   4.382   7.945 -0.1563  0.2208  1.3863
 1196SOL    HW215222   2.685   4.265   7.953 -0.0274  0.0929  0.4866
 1197SOL     OW15223   2.111   0.408  12.589  0.1049 -1.0845 -0.1715
 1197SOL    HW115224   2.148   0.461  12.660 -0.6706 -0.0481 -0.5291
 1197SOL    HW215225   2.097   0.331  12.644  0.7126  0.0761  1.6092
 1198SOL     OW15226   1.113   4.317   2.332  0.0407 -0.2783 -0.1661
 1198SOL    HW115227   1.168   4.315   2.411 -1.3862  0.3301  0.8458
 1198SOL    HW215228   1.087   4.408   2.340  1.4086  0.0244  0.7999
 1199SOL     OW15229   1.350   0.305   4.104  0.3610 -0.1450 -0.2430
 1199SOL    HW115230   1.412   0.256   4.051  0.1078 -0.7120 -0.0134
 1199SOL    HW215231   1.268   0.281   4.060  2.1280 -1.6416 -2.6890
 1200SOL     OW15232   4.421   4.636   2.996  0.0363 -0.3528  1.0146
 1200SOL    HW115233   4.360   4.634   2.923 -2.3141 -0.2952  2.9885
 1200SOL    HW215234   4.399   4.555   3.041 -0.7983 -0.8143 -0.2191
 1201SOL     OW15235   0.998   3.414  17.498  0.0477  0.3465  0.5906
 1201SOL    HW115236   0.935   3.350  17.532 -0.4078  1.1716  1.2878
 1201SOL    HW215237   0.961   3.425  17.410 -0.5538  0.4243  0.8494
 1202SOL     OW15238   4.047   4.531   1.355 -0.0929 -0.0605 -0.3405
 1202SOL    HW115239   4.041   4.449   1.305 -0.4406 -0.4685  0.3655
 1202SOL    HW215240   3.984   4.520   1.426 -0.5692  0.8647 -0.6284
 1203SOL     OW15241   0.416   3.298   5.682  0.1944 -0.1476 -0.3430
 1203SOL    HW115242   0.328   3.321   5.650  0.7478  1.3488 -0.7948
 1203SOL    HW215243   0.428   3.208   5.651 -3.1006 -1.0770  1.1091
 1204SOL     OW15244   2.089   4.664   7.850 -0.1250  0.1528 -0.4455
 1204SOL    HW115245   2.144   0.005   7.848 -0.9344  0.7382  0.1244
 1204SOL    HW215246   2.016   4.698   7.901 -1.5334  1.7114 -3.4980
 1205SOL     OW15247   0.805   2.339   7.499 -0.2126  0.4113  0.1528
 1205SOL    HW115248   0.753   2.419   7.497 -1.1241 -0.2663 -2.9424
 1205SOL    HW215249   0.893   2.368   7.476 -0.5232  1.6681  0.5413
 1206SOL     OW15250   0.404   1.980   6.523  0.1211 -0.5491  0.4356
 1206SOL    HW115251   0.417   1.899   6.572  3.2332 -2.0020 -2.8004
 1206SOL    HW215252   0.461   1.965   6.448 -0.2805  0.7361 -0.1327
 1207SOL     OW15253   2.800   3.540  10.430  0.5887  0.1100 -0.1666
 1207SOL    HW115254   2.851   3.549  10.349  1.8088 -0.3916  0.5535
 1207SOL    HW215255   2.843   3.607  10.483  0.2715  1.9388 -2.2026
 1208SOL     OW15256   1.354   2.747   1.995  0.1662 -0.3460  0.8221
 1208SOL    HW115257   1.339   2.739   1.901 -0.9084  0.9518  0.8860
 1208SOL    HW215258   1.371   2.655   2.012 -0.7276 -0.9606 -1.6608
 1209SOL     OW15259   1.850   0.157   9.594  0.1714 -0.5439 -0.4905
 1209SOL    HW115260   1.921   0.202   9.549 -0.5345  1.0659  0.0283
 1209SOL    HW215261   1.785   0.176   9.527  0.3874 -0.9056 -0.8064
 1210SOL     OW15262   4.646   0.655  17.515 -0.5739  0.5535  0.0626
 1210SOL    HW115263   4.579   0.703  17.467 -2.0390 -0.2826  1.2647
 1210SOL    HW215264   4.680   0.587  17.457 -1.1144  0.3390 -0.0024
 1211SOL     OW15265   4.215   4.465   5.528  0.0276 -0.1991  0.4200
 1211SOL    HW115266   4.235   4.396   5.591 -0.8665  0.7192  1.7163
 1211SOL    HW215267   4.300   4.463   5.483  0.3592  2.1664  0.8835
 1212SOL     OW15268   0.952   4.596   4.357  0.9615 -0.1109 -0.0880
 1212SOL    HW115269   0.894   4.624   4.429 -2.1689  1.4555 -3.1995
 1212SOL    HW215270   1.025   4.654   4.381 -0.4253  0.7216  2.1452
 1213SOL     OW15271   0.491   3.668  12.441  0.1583  0.3170  0.2279
 1213SOL    HW115272   0.418   3.726  12.420 -0.1545 -0.3396 -0.5215
 1213SOL    HW215273   0.537   3.713  12.512 -1.3967  1.3157  0.6264
 1214SOL     OW15274   1.533   0.263   4.621 -0.1976 -0.2490 -0.0220
 1214SOL    HW115275   1.536   0.201   4.548  1.8928 -1.5662  1.1834
 1214SOL    HW215276   1.622   0.253   4.655  0.2832  0.0536 -1.2221
 1215SOL     OW15277   3.184   4.184  14.943  0.3492  0.0060  0.0155
 1215SOL    HW115278   3.186   4.280  14.946 -0.8811 -0.0328  1.8659
 1215SOL    HW215279   3.155   4.166  14.853  1.4957  3.5077 -1.0603
 1216SOL     OW15280   3.146   3.432   2.674  0.0347 -0.8967 -0.5467
 1216SOL    HW115281   3.075   3.450   2.735 -0.9208 -2.9468 -1.0782
 1216SOL    HW215282   3.102   3.455   2.593 -0.5176  1.7723  0.4996
 1217SOL     OW15283   2.460   1.485   7.987 -0.0976 -0.1173 -0.0928
 1217SOL    HW115284   2.395   1.421   7.959  0.8276 -1.6222  1.1582
 1217SOL    HW215285   2.445   1.553   7.922 -2.1586  0.6279  1.1658
 1218SOL     OW15286   3.958   0.536  16.776  0.7266 -0.0275  0.3678
 1218SOL    HW115287   4.043   0.533  16.732  0.2329  1.3314 -0.6689
 1218SOL    HW215288   3.973   0.616  16.826  2.6116  0.9762 -1.8096
 1219SOL     OW15289   1.285   1.026   7.175  0.6359 -0.0148  0.1600
 1219SOL    HW115290   1.281   1.048   7.268  2.9568  0.6027  0.1199
 1219SOL    HW215291   1.197   1.047   7.144  0.6510  0.6284  0.5457
 1220SOL     OW15292   1.812   3.080   4.982  0.1982  0.0333  0.3599
 1220SOL    HW115293   1.814   3.102   4.889 -0.6654  1.5921  0.7060
 1220SOL    HW215294   1.891   3.127   5.010 -0.3425  0.2694  1.4820
 1221SOL     OW15295   2.606   4.270   5.361 -0.2062 -0.2196 -0.8295
 1221SOL    HW115296   2.694   4.306   5.373  0.3782 -1.0606 -2.4714
 1221SOL    HW215297   2.557   4.330   5.416  0.1663 -0.5598 -0.1283
 1222SOL     OW15298   2.005   1.164  16.999  0.1841 -0.3256  0.2369
 1222SOL    HW115299   1.978   1.147  17.089 -1.7009 -1.0641 -0.4648
 1222SOL    HW215300   1.974   1.255  16.997 -0.5955 -0.5644  2.2347
 1223SOL     OW15301   4.107   1.838   3.323 -0.2999  0.4580  0.3991
 1223SOL    HW115302   4.028   1.886   3.300  0.3347  1.4729  0.3482
 1223SOL    HW215303   4.136   1.892   3.396  0.0897 -0.3200  0.8317
 1224SOL     OW15304   2.228   3.665  15.644  0.1798  0.2457  0.4394
 1224SOL    HW115305   2.226   3.656  15.549  3.2679 -1.6128  0.5197
 1224SOL    HW215306   2.308   3.620  15.671  0.3595  0.5423  0.3972
 1225SOL     OW15307   1.461   1.480   4.450  0.0609 -0.0120  0.2740
 1225SOL    HW115308   1.511   1.467   4.530 -1.7925  1.2341  1.6002
 1225SOL    HW215309   1.522   1.525   4.391 -2.0077  1.5385 -0.6784
 1226SOL     OW15310   3.631   1.815  10.506  0.3608 -0.4977 -0.6909
 1226SOL    HW115311   3.595   1.755  10.572  1.0843 -0.8768 -0.6425
 1226SOL    HW215312   3.604   1.898  10.547  0.0432 -1.8314  1.8176
 1227SOL     OW15313   0.738   2.338  16.275  0.0115  0.5077 -0.7755
 1227SOL    HW115314   0.762   2.431  16.276  0.9505  0.2579 -0.1760
 1227SOL    HW215315   0.810   2.305  16.221  0.4075  0.4864 -0.2311
 1228SOL     OW15316   0.068   1.202   4.693  0.0863  0.0973 -0.0264
 1228SOL    HW115317   4.710   1.198   4.699  0.1086  1.8456  1.4035
 1228SOL    HW215318   0.087   1.211   4.786  1.5569 -1.0912 -0.2317
 1229SOL     OW15319   2.137   3.179   2.948  0.4012  0.2625  0.1006
 1229SOL    HW115320   2.110   3.268   2.972  1.0109  0.1087  1.3513
 1229SOL    HW215321   2.179   3.188   2.862  2.1024  2.9937  1.2421
 1230SOL     OW15322   0.756   1.201   7.104 -0.7857 -0.0632  0.0876
 1230SOL    HW115323   0.665   1.231   7.098  0.1358  2.3804 -1.8395
 1230SOL    HW215324   0.802   1.280   7.074  0.8186 -2.0338 -2.6087
 1231SOL     OW15325   1.950   2.353   4.684 -0.4191 -0.0335  0.4228
 1231SOL    HW115326   1.968   2.284   4.747 -2.9346 -1.8628 -0.8584
 1231SOL    HW215327   1.865   2.319   4.657 -0.7596  1.9908 -1.0619
 1232SOL     OW15328   3.712   2.743   3.270 -0.3178 -0.1994  0.1202
 1232SOL    HW115329   3.740   2.779   3.355 -1.1184 -1.2838  0.8402
 1232SOL    HW215330   3.675   2.819   3.224  0.4844 -0.1600 -0.4563
 1233SOL     OW15331   4.442   1.790  12.202  0.0024  0.0496 -0.3423
 1233SOL    HW115332   4.468   1.825  12.116 -1.4791  0.6933 -0.5254
 1233SOL    HW215333   4.356   1.755  12.181  0.3818 -0.2827 -1.3530
 1234SOL     OW15334   4.611   0.799   3.856 -0.2572 -0.0779 -0.1717
 1234SOL    HW115335   4.527   0.843   3.839 -0.2374 -0.0733 -0.2552
 1234SOL    HW215336   4.671   0.859   3.812  2.2359 -1.9500  0.7395
 1235SOL     OW15337   0.135   2.193  12.871  0.1089  0.6513 -0.3656
 1235SOL    HW115338   0.220   2.218  12.907  0.3315  0.2205 -0.5910
 1235SOL    HW215339   0.161   2.148  12.791  0.6680 -2.4309  1.5635
 1236SOL     OW15340   3.933   2.355   9.006 -0.3048 -0.4399  0.3863
 1236SOL    HW115341   3.926   2.289   9.075  0.2138 -2.4927 -1.5338
 1236SOL    HW215342   3.842   2.347   8.978  0.2471 -2.1284 -0.8974
 1237SOL     OW15343   4.029   1.651   8.581 -0.7836 -0.2033  0.4668
 1237SOL    HW115344   3.934   1.651   8.593 -0.9765  0.3343 -1.0231
 1237SOL    HW215345   4.041   1.701   8.501  0.3154  0.1590  0.8708
 1238SOL     OW15346   0.516   0.641   1.296  0.3200 -0.2594  0.6052
 1238SOL    HW115347   0.445   0.594   1.252 -0.7588  1.3999  0.5859
 1238SOL    HW215348   0.490   0.729   1.269  0.0213 -0.8229 -0.9495
 1239SOL     OW15349   3.361   0.120  14.559  0.4305  0.6482 -0.2319
 1239SOL    HW115350   3.342   0.037  14.516  0.9791  0.6066 -0.3869
 1239SOL    HW215351   3.456   0.114  14.550  0.5868  2.1656  0.3426
 1240SOL     OW15352   3.420   4.241   3.509 -0.1199 -0.1367  0.0846
 1240SOL    HW115353   3.433   4.334   3.488  0.2530 -0.2139 -0.0174
 1240SOL    HW215354   3.507   4.207   3.488  1.0592  3.0174 -0.1849
 1241SOL     OW15355   2.267   0.271   0.019  0.2151  0.5494  0.4339
 1241SOL    HW115356   2.235   0.347   0.067 -0.7630  0.9741 -0.8809
 1241SOL    HW215357   2.206   0.201   0.043  0.1130 -0.5505 -2.9507
 1242SOL     OW15358   1.524   0.465   9.474 -0.7896  0.2001  0.7741
 1242SOL    HW115359   1.451   0.493   9.419  0.1324 -0.9649 -1.0491
 1242SOL    HW215360   1.534   0.533   9.540  0.1467  0.5942  0.2237
 1243SOL     OW15361   1.278   0.273   7.480 -0.0324 -0.3960  0.3832
 1243SOL    HW115362   1.278   0.190   7.433 -1.8814 -0.7372  0.9934
 1243SOL    HW215363   1.238   0.232   7.557 -1.0239  0.2083  0.1909
 1244SOL     OW15364   3.201   2.350   4.035  0.2103 -0.3876 -0.6804
 1244SOL    HW115365   3.215   2.443   4.017  0.0070  0.1797  2.1122
 1244SOL    HW215366   3.231   2.316   3.950 -0.4580 -0.7849 -0.7519
 1245SOL     OW15367   2.628   4.619  15.563 -0.2246  0.2991 -0.3169
 1245SOL    HW115368   2.692   4.684  15.595  2.2156 -1.4225 -1.6916
 1245SOL    HW215369   2.642   4.553  15.631  0.7822 -0.4259 -1.2263
 1246SOL     OW15370   4.346   4.509   7.689 -0.3692  0.0725  0.0417
 1246SOL    HW115371   4.426   4.556   7.667  0.0304 -1.8485 -2.6242
 1246SOL    HW215372   4.286   4.584   7.681 -0.2657  0.2713  1.1611
 1247SOL     OW15373   4.452   2.617  13.597 -0.2924  0.0610 -0.3301
 1247SOL    HW115374   4.395   2.693  13.608 -1.5847 -0.7488 -1.5115
 1247SOL    HW215375   4.381   2.554  13.589 -1.6220  1.7104 -1.5599
 1248SOL     OW15376   2.083   2.567   4.797  0.2621  0.7216 -0.4530
 1248SOL    HW115377   2.064   2.493   4.740 -1.0125 -0.0768  1.0268
 1248SOL    HW215378   1.996   2.584   4.832  0.4139  0.3026  0.1340
 1249SOL     OW15379   4.322   1.283  13.570 -0.1916 -0.2593 -0.1643
 1249SOL    HW115380   4.357   1.260  13.656  2.5871 -0.7264 -1.3841
 1249SOL    HW215381   4.281   1.199  13.550 -1.2782  0.7318 -2.1517
 1250SOL     OW15382   3.144   0.170   9.360 -0.0277 -0.6833 -0.2048
 1250SOL    HW115383   3.135   0.258   9.396  0.9156 -0.3640 -0.7457
 1250SOL    HW215384   3.111   0.187   9.271  1.5748  0.4538 -0.5783
 1251SOL     OW15385   0.525   4.660   2.846  0.2531 -0.1696 -0.0615
 1251SOL    HW115386   0.586   4.710   2.900 -0.1864  2.5408 -2.0530
 1251SOL    HW215387   0.463   4.638   2.915  1.2700 -1.0755  0.5646
 1252SOL     OW15388   2.779   0.540   4.760 -0.0772  0.0478 -0.3063
 1252SOL    HW115389   2.775   0.529   4.855  1.0020  0.8747 -0.1647
 1252SOL    HW215390   2.687   0.558   4.743 -0.4763 -1.0993  0.6368
 1253SOL     OW15391   1.373   0.072   5.165  0.8876 -0.0064  0.0183
 1253SOL    HW115392   1.340   0.016   5.095 -1.4164 -1.0300  1.9125
 1253SOL    HW215393   1.446   0.017   5.191  1.0446  0.4902  0.6432
 1254SOL     OW15394   3.915   0.367   6.069 -0.0070  0.2269  0.5575
 1254SOL    HW115395   3.867   0.383   5.988  1.2286  1.6864  0.1274
 1254SOL    HW215396   3.879   0.425   6.136 -1.8430 -0.8798  0.5509
 1255SOL     OW15397   2.539   4.402  15.981  0.2851  0.6802 -0.2038
 1255SOL    HW115398   2.607   4.433  16.041 -1.1952  1.9311  0.8153
 1255SOL    HW215399   2.468   4.460  16.007  1.2556  1.2318  1.2312
 1256SOL     OW15400   1.821   1.753   2.127 -0.3719  0.2096  0.6956
 1256SOL    HW115401   1.858   1.697   2.059  1.2276  1.3344  0.6489
 1256SOL    HW215402   1.728   1.733   2.137 -1.3515  4.2377 -0.5139
 1257SOL     OW15403   1.472   0.705   0.724 -0.1058  0.0393 -0.3990
 1257SOL    HW115404   1.450   0.729   0.814  2.0128 -0.7859  0.3601
 1257SOL    HW215405   1.388   0.668   0.699 -0.0871  0.1627 -0.6439
 1258SOL     OW15406   4.164   2.543   7.741  0.1115  0.2866  0.5475
 1258SOL    HW115407   4.182   2.617   7.800  0.2852  2.4274 -2.2280
 1258SOL    HW215408   4.134   2.587   7.662  1.2741  1.7191  0.9104
 1259SOL     OW15409   1.496   1.766   5.849 -0.0110 -0.2258 -0.5523
 1259SOL    HW115410   1.412   1.763   5.894  0.6744 -1.0141  0.6876
 1259SOL    HW215411   1.529   1.853   5.872 -1.3705 -0.5829  2.7028
 1260SOL     OW15412   3.506   2.520  10.978  0.0244 -0.3137  0.2489
 1260SOL    HW115413   3.518   2.456  11.048 -2.0943 -0.7650  0.1779
 1260SOL    HW215414   3.444   2.582  11.016  0.7697 -0.2680  1.3883
 1261SOL     OW15415   1.836   3.620   5.212 -0.6057  0.1273  0.4590
 1261SOL    HW115416   1.816   3.558   5.142 -1.7177 -1.1218  1.8882
 1261SOL    HW215417   1.748   3.636   5.247 -0.6950  0.8676 -0.1131
 1262SOL     OW15418   0.451   3.228   8.239  0.1166  0.0257  0.1249
 1262SOL    HW115419   0.535   3.227   8.192 -1.1027  1.5919 -2.0794
 1262SOL    HW215420   0.473   3.282   8.314  1.1724 -1.0988  0.6364
 1263SOL     OW15421   2.768   3.880   2.262 -0.1484  0.5432  0.1809
 1263SOL    HW115422   2.690   3.903   2.312 -0.1362 -1.0514  0.9397
 1263SOL    HW215423   2.833   3.910   2.325  0.4535 -3.7537  1.6120
 1264SOL     OW15424   3.510   0.492   2.802 -0.0949  0.2848  0.1458
 1264SOL    HW115425   3.553   0.407   2.812 -0.4296  0.0736 -0.2128
 1264SOL    HW215426   3.480   0.504   2.892 -0.8863  2.0552 -0.3601
 1265SOL     OW15427   4.591   3.883   4.591 -0.0752 -0.1710  0.1942
 1265SOL    HW115428   4.599   3.856   4.683 -0.3221  2.8098  1.1038
 1265SOL    HW215429   4.565   3.975   4.602 -1.4350 -0.7296  1.7391
 1266SOL     OW15430   3.830   1.162   8.705 -0.0097 -0.2499 -0.2710
 1266SOL    HW115431   3.747   1.114   8.698 -0.3746  0.1579  1.2604
 1266SOL    HW215432   3.893   1.092   8.725 -0.4498 -0.6344 -0.2121
 1267SOL     OW15433   1.616   4.358   6.518  0.3835 -0.3616  0.9569
 1267SOL    HW115434   1.618   4.309   6.600 -2.6682  0.5216  1.5494
 1267SOL    HW215435   1.707   4.388   6.514 -0.5448  2.4849  1.0289
 1268SOL     OW15436   1.123   4.011   3.650  0.5104  0.3159  0.1721
 1268SOL    HW115437   1.087   4.089   3.694  3.4532  1.1154  1.1567
 1268SOL    HW215438   1.209   4.008   3.692  0.4442  1.2301  0.3730
 1269SOL     OW15439   0.357   0.883  12.176  0.3514 -0.0873  0.1610
 1269SOL    HW115440   0.348   0.955  12.239  1.3571  1.5097 -1.5064
 1269SOL    HW215441   0.266   0.873  12.149  0.0107  1.5382  0.6900
 1270SOL     OW15442   3.977   1.439   6.887  0.4195  0.2199  0.0671
 1270SOL    HW115443   3.972   1.511   6.823  0.9875 -1.0873 -1.4488
 1270SOL    HW215444   3.988   1.481   6.972 -1.4974  0.4884  0.1928
 1271SOL     OW15445   4.077   3.013   8.896 -0.3285  0.0523  0.4740
 1271SOL    HW115446   4.142   2.959   8.942  0.1917 -0.3636 -0.7470
 1271SOL    HW215447   4.061   3.085   8.957 -0.2132 -0.2570  0.8636
 1272SOL     OW15448   4.340   4.223   3.511  0.8999 -0.3928 -0.2582
 1272SOL    HW115449   4.287   4.259   3.582 -1.4642  0.2737 -2.3677
 1272SOL    HW215450   4.339   4.130   3.533 -0.1633 -0.3336 -0.0579
 1273SOL     OW15451   0.864   0.725  10.225 -0.2395 -0.2819  0.6243
 1273SOL    HW115452   0.887   0.646  10.274 -2.2647  0.0444  2.0991
 1273SOL    HW215453   0.864   0.782  10.302 -1.5747  0.4895  0.0434
 1274SOL     OW15454   3.084   3.012   7.262 -0.4089 -0.0862 -0.3678
 1274SOL    HW115455   3.151   3.007   7.331  0.2109  1.1576 -0.8709
 1274SOL    HW215456   3.007   2.998   7.318 -0.7678  0.2846 -0.7718
 1275SOL     OW15457   0.529   3.442   7.229  0.1197  0.2551  0.0259
 1275SOL    HW115458   0.476   3.437   7.308 -0.0474  1.0706 -0.0365
 1275SOL    HW215459   0.517   3.535   7.213  0.4341  0.5995  1.8581
 1276SOL     OW15460   0.604   2.008   8.090 -0.2264  0.1399 -0.4094
 1276SOL    HW115461   0.545   2.083   8.093 -2.9555 -2.0655  0.5789
 1276SOL    HW215462   0.636   2.019   8.000  0.7565 -0.7966 -0.1738
 1277SOL     OW15463   1.762   2.248   4.012  0.0152  0.2711  0.3226
 1277SOL    HW115464   1.696   2.315   3.997 -0.3030 -0.0906  0.1113
 1277SOL    HW215465   1.812   2.282   4.087  1.1734 -1.3441  0.2871
 1278SOL     OW15466   0.990   3.117   7.210 -0.2178  0.5776  0.6192
 1278SOL    HW115467   0.920   3.107   7.274 -2.0484 -0.3444 -1.5220
 1278SOL    HW215468   0.937   3.134   7.132 -1.1982 -1.4082  0.8472
 1279SOL     OW15469   4.236   0.926   3.012  0.3431 -0.8255 -0.3160
 1279SOL    HW115470   4.223   0.832   2.997 -1.1607 -0.4799 -1.2348
 1279SOL    HW215471   4.297   0.950   2.942  1.0787  0.4248  0.7704
 1280SOL     OW15472   0.429   1.046  12.445 -0.7643  0.0086 -0.1263
 1280SOL    HW115473   0.472   0.961  12.447  0.3578  0.6314  1.9964
 1280SOL    HW215474   0.370   1.043  12.520  1.5833 -1.6483  1.6375
 1281SOL     OW15475   2.014   4.143  10.084 -0.1249 -0.3282  0.2023
 1281SOL    HW115476   2.083   4.208  10.088 -1.8171  1.6042 -2.5005
 1281SOL    HW215477   1.985   4.155   9.994  1.6382  0.0188 -0.3118
 1282SOL     OW15478   1.704   0.381   2.825  0.1855  0.4853  0.3776
 1282SOL    HW115479   1.616   0.349   2.845 -0.4532  1.2362 -1.2620
 1282SOL    HW215480   1.730   0.329   2.750  2.5712 -2.0396  2.9453
 1283SOL     OW15481   0.441   1.416  15.539  0.1390 -0.2839  0.3351
 1283SOL    HW115482   0.529   1.453  15.537 -0.1589  0.4994  1.4245
 1283SOL    HW215483   0.382   1.490  15.522 -0.5572 -0.3925  2.2330
 1284SOL     OW15484   1.538   0.313   8.820  0.2250 -0.0092  0.2223
 1284SOL    HW115485   1.478   0.347   8.754  0.5296 -1.0440 -0.5793
 1284SOL    HW215486   1.468   0.281   8.877  1.9651 -1.6063  1.4368
 1285SOL     OW15487   0.521   2.323   8.132  0.0555 -0.2033 -0.4399
 1285SOL    HW115488   0.522   2.414   8.103 -1.4057  0.2735  0.9980
 1285SOL    HW215489   0.593   2.323   8.194 -0.0944 -0.0407 -0.2648
 1286SOL     OW15490   2.420   1.514   5.729 -0.3684 -0.0557  0.0643
 1286SOL    HW115491   2.423   1.524   5.634  1.8190  0.4576  0.1872
 1286SOL    HW215492   2.509   1.482   5.743 -1.6682 -2.5231  2.5704
 1287SOL     OW15493   1.791   4.222  11.651  0.0040  0.4775  0.1094
 1287SOL    HW115494   1.834   4.152  11.603 -1.3322 -0.3971  0.1891
 1287SOL    HW215495   1.846   4.223  11.729  1.4449 -0.0815 -0.8987
 1288SOL     OW15496   2.448   4.618   7.595 -0.1286 -0.0168  0.0454
 1288SOL    HW115497   2.435   4.575   7.680  0.1795  1.4287  0.8305
 1288SOL    HW215498   2.494   4.697   7.626 -1.0115  0.3391  0.4598
 1289SOL     OW15499   4.413   0.197   9.301  0.5922 -0.2939  0.5248
 1289SOL    HW115500   4.349   0.146   9.348  0.5718  1.0975  2.0057
 1289SOL    HW215501   4.382   0.193   9.210  1.0903 -0.6542  0.3730
 1290SOL     OW15502   1.225   2.709   3.081 -0.1296  0.5484  0.3544
 1290SOL    HW115503   1.254   2.620   3.103 -1.3382  0.0003 -0.2629
 1290SOL    HW215504   1.214   2.747   3.168  0.1055 -2.2068  1.5883
 1291SOL     OW15505   0.572   1.421   4.147 -0.0727 -0.2436  0.0085
 1291SOL    HW115506   0.491   1.465   4.171 -0.7243 -0.3195 -2.0482
 1291SOL    HW215507   0.617   1.483   4.089  0.4978 -2.2121 -1.6747
 1292SOL     OW15508   1.863   0.585   2.846 -0.0370  0.0095 -0.6886
 1292SOL    HW115509   1.824   0.498   2.857 -0.8175  0.3224 -1.0163
 1292SOL    HW215510   1.900   0.611   2.930  0.7944 -1.2468 -0.6665
 1293SOL     OW15511   2.219   3.466   8.713 -0.3617 -0.2393 -0.4281
 1293SOL    HW115512   2.239   3.556   8.737 -1.0529 -0.4343  0.8483
 1293SOL    HW215513   2.143   3.443   8.766 -0.1279 -0.4050 -0.1672
 1294SOL     OW15514   3.409   1.731   1.883 -0.1724 -0.0054 -0.6750
 1294SOL    HW115515   3.406   1.707   1.791 -1.4171 -1.6482 -0.2004
 1294SOL    HW215516   3.453   1.655   1.921  0.6151  1.3584  1.1654
 1295SOL     OW15517   0.760   1.888   7.403 -0.4505 -0.3296  0.4007
 1295SOL    HW115518   0.798   1.822   7.345 -0.0072 -1.6660  2.2403
 1295SOL    HW215519   0.740   1.835   7.479 -0.9609 -1.1631 -0.3121
 1296SOL     OW15520   3.429   1.068   5.036  0.0417  0.1202 -0.5178
 1296SOL    HW115521   3.386   1.005   5.095 -1.1262  2.3054  0.9414
 1296SOL    HW215522   3.515   1.058   5.076  0.4784  0.6779 -1.3143
 1297SOL     OW15523   2.870   0.928   5.960 -0.4697 -0.3454 -0.7883
 1297SOL    HW115524   2.911   0.972   5.885 -1.7659  1.8152 -0.2303
 1297SOL    HW215525   2.873   0.836   5.934 -1.8842 -0.5458 -0.2306
 1298SOL     OW15526   0.003   4.326   4.805 -0.3434  0.2383  0.0972
 1298SOL    HW115527   0.069   4.360   4.865 -2.1776  1.2477  1.5610
 1298SOL    HW215528   0.053   4.255   4.764 -0.0152  1.4226 -1.5431
 1299SOL     OW15529   0.875   1.463  12.552  0.0753 -0.1228  0.3027
 1299SOL    HW115530   0.800   1.422  12.596 -1.2309  0.4635 -1.3962
 1299SOL    HW215531   0.905   1.523  12.620  0.1000  0.1737  0.0242
 1300SOL     OW15532   2.142   1.945  17.222  0.6480 -0.2864 -0.5577
 1300SOL    HW115533   2.228   1.936  17.265 -0.7166 -1.4710  1.9704
 1300SOL    HW215534   2.173   1.965  17.134  0.8227  1.3305 -0.1280
 1301SOL     OW15535   1.611   0.366   5.321  0.0650  0.2544 -0.3706
 1301SOL    HW115536   1.643   0.280   5.294  1.7376  0.9597 -0.6660
 1301SOL    HW215537   1.531   0.342   5.368  0.4053  0.8503  0.5011
 1302SOL     OW15538   4.209   2.487   4.176 -0.2468  0.1227  0.3157
 1302SOL    HW115539   4.140   2.530   4.127 -1.6816 -0.6725  1.6316
 1302SOL    HW215540   4.246   2.431   4.108  0.0170 -1.3379  1.6498
 1303SOL     OW15541   2.328   4.071   2.284  0.4838  0.0313  0.0732
 1303SOL    HW115542   2.327   3.982   2.321 -0.9340  0.3535  0.8352
 1303SOL    HW215543   2.243   4.103   2.314  0.7564  1.1690 -0.3663
 1304SOL     OW15544   4.216   3.347  13.965 -0.1472  0.7055 -0.0408
 1304SOL    HW115545   4.253   3.262  13.940  1.2593  1.1874  0.3825
 1304SOL    HW215546   4.215   3.347  14.061 -1.1078 -0.0000 -0.0502
 1305SOL     OW15547   1.815   4.707   0.892 -0.0577  0.4563 -0.5023
 1305SOL    HW115548   1.840   4.653   0.967  0.2872  2.4679  0.8395
 1305SOL    HW215549   1.719   4.710   0.897  0.0458 -1.4059  2.4426
 1306SOL     OW15550   2.334   2.077   3.405 -0.2087 -0.1599  0.3445
 1306SOL    HW115551   2.427   2.059   3.389 -0.5883 -2.0496  0.3139
 1306SOL    HW215552   2.310   2.078   3.313  1.2659  0.1489 -0.0419
 1307SOL     OW15553   0.471   2.370   8.854 -0.2829 -0.8111 -0.1001
 1307SOL    HW115554   0.507   2.410   8.933  0.4289 -0.9208 -0.3662
 1307SOL    HW215555   0.414   2.300   8.886 -1.4159 -0.2749 -0.9651
 1308SOL     OW15556   4.483   0.780  17.325  0.3102  0.1223 -0.2378
 1308SOL    HW115557   4.389   0.763  17.335  0.2751 -1.1992 -2.8190
 1308SOL    HW215558   4.494   0.875  17.331  0.8260  0.1575 -1.7308
 1309SOL     OW15559   4.309   2.693   9.606  0.4639 -0.0885  0.2823
 1309SOL    HW115560   4.387   2.650   9.571 -1.6381 -1.5253 -2.6822
 1309SOL    HW215561   4.245   2.639   9.560  1.7081  0.9812 -2.6890
 1310SOL     OW15562   1.499   1.957   5.593  0.4719  0.1301  0.0630
 1310SOL    HW115563   1.576   1.908   5.564  0.6261  0.9131 -0.8453
 1310SOL    HW215564   1.460   1.983   5.510 -0.1663  0.1107  0.3564
 1311SOL     OW15565   2.791   3.980   6.636  0.1384  0.4631  0.0383
 1311SOL    HW115566   2.813   3.895   6.599 -2.0388  0.3343 -1.0051
 1311SOL    HW215567   2.848   4.026   6.574 -0.3525  2.3697  1.0031
 1312SOL     OW15568   1.123   0.904   6.159 -0.4572 -0.4351 -0.1102
 1312SOL    HW115569   1.216   0.887   6.177 -1.1689 -1.1411  2.8972
 1312SOL    HW215570   1.125   0.999   6.147 -1.9871 -0.2962  0.7760
 1313SOL     OW15571   2.332   0.187   6.033  0.1923  0.0418 -0.1219
 1313SOL    HW115572   2.350   0.103   5.991 -1.2736 -0.2012 -0.2859
 1313SOL    HW215573   2.244   0.208   5.999  0.6177  2.3647  0.2525
 1314SOL     OW15574   0.920   1.601   3.877  0.0486 -0.0153  0.0532
 1314SOL    HW115575   1.006   1.559   3.884 -0.7544 -1.5470  0.8289
 1314SOL    HW215576   0.943   1.681   3.924  0.1576  0.6370 -1.1055
 1315SOL     OW15577   2.514   4.004   5.292 -0.3367 -0.1126  0.5579
 1315SOL    HW115578   2.437   3.988   5.238 -0.6805  0.5320  0.8624
 1315SOL    HW215579   2.510   4.098   5.307  0.8971 -0.3558  2.3706
 1316SOL     OW15580   2.127   4.395   7.940 -0.5595 -0.1616  0.8664
 1316SOL    HW115581   2.101   4.477   7.898  0.3655 -0.3459 -0.0563
 1316SOL    HW215582   2.186   4.430   8.006 -1.4204  0.8424  1.1011
 1317SOL     OW15583   4.548   0.113   0.511  0.2711  0.0175  0.1956
 1317SOL    HW115584   4.578   0.022   0.510  0.5603  0.1194 -0.6693
 1317SOL    HW215585   4.522   0.138   0.422 -0.6234  4.6043  1.7683
 1318SOL     OW15586   1.845   0.107  17.438  0.6729  0.1231  0.2338
 1318SOL    HW115587   1.892   0.146  17.511  3.9345  0.5276 -2.0896
 1318SOL    HW215588   1.917   0.102  17.376 -0.0403  1.0974 -0.6760
 1319SOL     OW15589   2.246   1.057   3.247 -0.0688 -0.2608  0.5107
 1319SOL    HW115590   2.322   1.115   3.246  1.3254 -2.0614 -0.0014
 1319SOL    HW215591   2.177   1.113   3.212  0.1728 -0.8820 -0.9501
 1320SOL     OW15592   3.125   4.636  12.289 -0.5133 -0.2718 -0.6677
 1320SOL    HW115593   3.066   4.562  12.274  1.0019 -1.4067 -1.0796
 1320SOL    HW215594   3.095   4.668  12.374 -3.0581 -1.9521 -0.9336
 1321SOL     OW15595   4.593   1.162  12.800  0.1780  0.6803  0.2221
 1321SOL    HW115596   4.568   1.091  12.741 -0.5697  1.4285 -0.3652
 1321SOL    HW215597   4.677   1.122  12.824  0.1895 -0.9790 -2.5545
 1322SOL     OW15598   2.312   2.743   4.791 -0.0245 -0.3153 -0.2466
 1322SOL    HW115599   2.308   2.710   4.880  0.7665  0.7539  0.1954
 1322SOL    HW215600   2.248   2.690   4.743 -0.4738 -0.4146  0.4747
 1323SOL     OW15601   4.704   3.661   7.806  0.1443 -0.1327  0.4168
 1323SOL    HW115602   4.684   3.569   7.823 -0.5971 -0.1873 -0.7921
 1323SOL    HW215603   4.715   3.686   7.898  0.8074 -1.3567  0.6746
 1324SOL     OW15604   3.453   3.968   5.407  0.0980  0.2103 -0.5436
 1324SOL    HW115605   3.362   3.978   5.433  0.3611 -0.8530  0.7775
 1324SOL    HW215606   3.460   3.877   5.377 -2.3659  1.0049 -3.5389
 1325SOL     OW15607   0.484   4.307   1.318  0.3001 -0.6097 -0.1349
 1325SOL    HW115608   0.501   4.363   1.242 -2.5412 -0.3214 -0.5440
 1325SOL    HW215609   0.568   4.318   1.362  0.6565 -3.1318 -0.1744
 1326SOL     OW15610   4.664   2.803   6.042 -0.0806 -0.8246 -0.9264
 1326SOL    HW115611   4.701   2.891   6.054 -1.0020 -0.3468 -1.5179
 1326SOL    HW215612   4.580   2.814   6.086 -0.4881 -3.5756 -1.0570
 1327SOL     OW15613   1.592   1.959   3.031  0.3128  0.3537  0.3207
 1327SOL    HW115614   1.512   1.911   3.009 -0.1497  1.6906 -0.9076
 1327SOL    HW215615   1.654   1.943   2.960 -0.6102 -2.0205  0.0422
 1328SOL     OW15616   2.510   0.742   5.613 -0.4106 -0.0951  0.1011
 1328SOL    HW115617   2.513   0.836   5.598 -1.6361  0.1726  1.5826
 1328SOL    HW215618   2.494   0.730   5.707  1.8839  2.5266  0.8038
 1329SOL     OW15619   1.213   2.386  13.722  0.0632  0.5046  0.0777
 1329SOL    HW115620   1.121   2.405  13.737 -0.4546 -1.5536 -0.4658
 1329SOL    HW215621   1.211   2.294  13.747  0.6432  0.7373  0.9616
 1330SOL     OW15622   4.014   0.570   9.095 -0.2020 -0.1904 -0.2725
 1330SOL    HW115623   4.079   0.573   9.165 -0.6948 -1.9909  0.2432
 1330SOL    HW215624   4.038   0.492   9.046  3.2675  0.5968  0.1679
 1331SOL     OW15625   3.196   2.153   5.414  0.3157  0.1268 -0.1441
 1331SOL    HW115626   3.117   2.117   5.454  0.7201 -1.3007 -0.6387
 1331SOL    HW215627   3.153   2.174   5.331 -0.6287  1.5676  0.7107
 1332SOL     OW15628   1.847   1.265   6.691  0.5581 -0.4105 -0.3756
 1332SOL    HW115629   1.884   1.343   6.732 -1.3637 -0.5741  1.6036
 1332SOL    HW215630   1.769   1.254   6.744  1.3967  0.8998  1.1202
 1333SOL     OW15631   1.557   1.868  10.820  0.5049 -0.1263 -0.5047
 1333SOL    HW115632   1.635   1.904  10.780  1.8812 -0.2614  2.0746
 1333SOL    HW215633   1.505   1.934  10.865  1.8839  1.4129 -1.1845
 1334SOL     OW15634   0.937   1.567   4.484  0.3327  0.2226 -0.3174
 1334SOL    HW115635   0.893   1.484   4.503  2.4517 -1.3488 -2.3938
 1334SOL    HW215636   0.888   1.625   4.542 -0.8956 -0.2490 -0.8920
 1335SOL     OW15637   4.261   1.259   7.824 -0.5852 -0.0596  0.4349
 1335SOL    HW115638   4.182   1.241   7.874 -2.3414  0.4235 -2.1365
 1335SOL    HW215639   4.239   1.257   7.730 -0.2311  0.4725  0.3404
 1336SOL     OW15640   4.571   1.673  16.881 -0.0953  0.0115  0.3688
 1336SOL    HW115641   4.522   1.610  16.934 -1.0679  1.9001  1.7370
 1336SOL    HW215642   4.509   1.746  16.877 -0.0296  0.0814  0.6343
 1337SOL     OW15643   2.362   1.621   5.972  0.0440 -0.0115  0.2007
 1337SOL    HW115644   2.394   1.577   5.894 -1.0668  0.4293 -0.5041
 1337SOL    HW215645   2.267   1.620   5.961 -0.1380 -0.3046  1.7224
 1338SOL     OW15646   2.078   1.074   6.739  0.5773 -0.0650 -0.1974
 1338SOL    HW115647   1.985   1.093   6.753  0.8361  1.0332  0.0986
 1338SOL    HW215648   2.089   1.110   6.651 -0.6963 -0.2696 -0.4481
 1339SOL     OW15649   1.783   2.111   8.080 -0.8412 -0.5672 -0.0871
 1339SOL    HW115650   1.735   2.192   8.096  2.2736  1.2347  0.1080
 1339SOL    HW215651   1.751   2.055   8.150 -0.1877 -0.8645 -0.0252
 1340SOL     OW15652   0.825   0.265   6.709 -0.7001 -0.3165 -0.2048
 1340SOL    HW115653   0.781   0.218   6.779  0.5430 -1.3455 -0.1259
 1340SOL    HW215654   0.755   0.329   6.697 -0.0682 -0.0295 -2.5111
 1341SOL     OW15655   3.496   0.113   6.192 -0.2343 -0.0893 -0.5161
 1341SOL    HW115656   3.517   0.070   6.109  2.2277  1.0379 -0.4677
 1341SOL    HW215657   3.583   0.109   6.232 -1.0800 -1.1474  1.2425
 1342SOL     OW15658   0.823   1.761   1.935 -0.9207  0.0978  0.0339
 1342SOL    HW115659   0.778   1.844   1.952  0.3065  0.7081  0.3499
 1342SOL    HW215660   0.747   1.713   1.903  1.2592 -0.8949 -3.5584
 1343SOL     OW15661   0.495   1.753   2.306 -0.7100 -0.3833  0.4078
 1343SOL    HW115662   0.481   1.767   2.212  0.7459 -1.2325  0.0673
 1343SOL    HW215663   0.496   1.839   2.347  0.7441 -0.3579  0.2941
 1344SOL     OW15664   0.835   0.538   0.288 -0.0447 -0.5315 -0.0416
 1344SOL    HW115665   0.765   0.589   0.248  2.2168  1.9341 -0.9109
 1344SOL    HW215666   0.911   0.597   0.288  0.7018 -1.4998  1.0975
 1345SOL     OW15667   4.134   2.157   2.702 -0.1236 -0.0745  0.1393
 1345SOL    HW115668   4.142   2.177   2.795  1.9885  2.0576 -0.4870
 1345SOL    HW215669   4.148   2.062   2.699 -1.5974 -0.2858  0.2009
 1346SOL     OW15670   0.415   4.172  17.422  0.4504 -0.2607 -0.2060
 1346SOL    HW115671   0.490   4.231  17.413  1.3749 -1.4188  0.0292
 1346SOL    HW215672   0.371   4.173  17.337 -1.1170  2.3348  0.6260
 1347SOL     OW15673   1.605   0.866   2.310 -0.3256  0.1014  0.9234
 1347SOL    HW115674   1.568   0.793   2.260 -0.4682  0.7544  0.0718
 1347SOL    HW215675   1.523   0.907   2.340 -0.3310  2.3393 -2.2038
 1348SOL     OW15676   2.022   2.019   1.584 -0.1568  0.0611 -0.4427
 1348SOL    HW115677   2.103   2.014   1.636  0.8289 -0.5462 -2.0279
 1348SOL    HW215678   2.051   2.058   1.502 -1.3698  0.4610 -0.6775
 1349SOL     OW15679   2.012   3.949   4.730 -0.3343 -0.4699  0.2971
 1349SOL    HW115680   1.937   3.994   4.692  0.7040 -0.0230 -1.2188
 1349SOL    HW215681   1.969   3.873   4.769 -2.6064  0.8535  0.3988
 1350SOL     OW15682   0.496   0.548   5.734  0.1110 -0.1561 -0.2070
 1350SOL    HW115683   0.548   0.469   5.747 -1.0425 -1.1301 -1.5809
 1350SOL    HW215684   0.554   0.604   5.682  0.8615  0.6791  1.5227
 1351SOL     OW15685   4.608   3.960   5.135 -0.6270  0.2717 -0.2135
 1351SOL    HW115686   4.665   3.996   5.203 -1.0494  1.6030 -0.5691
 1351SOL    HW215687   4.598   4.038   5.081 -1.1042  0.5590  0.2986
 1352SOL     OW15688   4.436   3.425  15.299 -0.5458  0.1608  0.0806
 1352SOL    HW115689   4.506   3.401  15.359  0.0736 -1.7504 -1.4015
 1352SOL    HW215690   4.352   3.399  15.336 -0.4523  1.1341  0.9438
 1353SOL     OW15691   1.267   3.296   2.948 -0.7084  0.1140  0.4873
 1353SOL    HW115692   1.335   3.356   2.918 -0.4065 -0.4888 -0.0316
 1353SOL    HW215693   1.226   3.358   3.009 -0.2758 -0.9821  1.9041
 1354SOL     OW15694   2.673   2.408   9.144  0.5451  0.0473 -0.0919
 1354SOL    HW115695   2.759   2.394   9.183  1.8642  2.4306 -2.1353
 1354SOL    HW215696   2.668   2.504   9.144 -1.8482 -0.0883  0.5791
 1355SOL     OW15697   2.755   2.622   3.982  0.2731 -0.1407 -0.1056
 1355SOL    HW115698   2.682   2.671   3.945 -1.9043 -0.2610  4.0695
 1355SOL    HW215699   2.780   2.685   4.050 -0.5162 -1.3987  1.3232
 1356SOL     OW15700   1.163   0.589   4.615  0.5703 -0.3734 -0.2030
 1356SOL    HW115701   1.253   0.605   4.585  1.3700 -2.2158  1.2121
 1356SOL    HW215702   1.153   0.495   4.599 -0.0804 -0.6825  2.0649
 1357SOL     OW15703   0.750   3.276  17.530 -0.1947 -0.2843 -0.1229
 1357SOL    HW115704   0.752   3.180  17.528  1.3005 -0.2580  0.3111
 1357SOL    HW215705   0.745   3.288  17.435 -1.4375  1.4994  0.1701
 1358SOL     OW15706   0.482   0.484   8.906  0.9606 -0.0400  0.4864
 1358SOL    HW115707   0.406   0.489   8.848  0.9893 -0.3834  0.4226
 1358SOL    HW215708   0.446   0.509   8.991  1.3398  1.6909  0.1393
 1359SOL     OW15709   0.322   3.624   9.013 -0.4193  0.0699 -0.1425
 1359SOL    HW115710   0.389   3.559   9.033 -0.1339  0.1518 -0.8198
 1359SOL    HW215711   0.359   3.705   9.046 -2.8007  0.6219  1.1803
 1360SOL     OW15712   2.281   4.720  16.550  0.4969  0.0087 -0.1437
 1360SOL    HW115713   2.246   4.679  16.472  2.1207 -2.0631  0.2205
 1360SOL    HW215714   2.371   4.693  16.535  0.2291  0.0873 -1.8894
 1361SOL     OW15715   2.729   2.532   3.644 -0.6693  0.4308  0.1740
 1361SOL    HW115716   2.748   2.552   3.735 -2.0930  1.2733  0.2806
 1361SOL    HW215717   2.772   2.446   3.647 -3.0556 -0.7478  0.2659
 1362SOL     OW15718   2.817   2.703   7.641 -0.3800 -0.4235  0.6344
 1362SOL    HW115719   2.724   2.704   7.666 -0.2067  0.8680  1.2550
 1362SOL    HW215720   2.853   2.747   7.718  1.9245 -4.3088  1.7705
 1363SOL     OW15721   0.297   0.141   1.389  0.3591 -0.2811 -0.0104
 1363SOL    HW115722   0.246   0.210   1.432  0.1073  0.4795 -1.5242
 1363SOL    HW215723   0.383   0.153   1.429 -0.3108 -3.0862  2.2529
 1364SOL     OW15724   3.422   4.351   0.404  0.7505  0.0844  0.3269
 1364SOL    HW115725   3.371   4.428   0.377 -1.5369 -2.7234 -3.3397
 1364SOL    HW215726   3.423   4.365   0.498 -1.5785  2.4083  0.0095
 1365SOL     OW15727   3.598   4.022  17.641  0.0791  0.4232 -0.3688
 1365SOL    HW115728   3.670   4.080  17.668 -0.4186 -0.5575  2.9797
 1365SOL    HW215729   3.561   3.995  17.725 -0.0440 -2.1682 -1.2408
 1366SOL     OW15730   1.785   4.548   4.852  0.0672 -0.2485 -0.1938
 1366SOL    HW115731   1.862   4.517   4.804  1.0886  0.4245  0.9978
 1366SOL    HW215732   1.722   4.477   4.840 -0.8155  1.0027 -2.8671
 1367SOL     OW15733   2.252   0.159  14.576  0.1908  0.2575 -0.6649
 1367SOL    HW115734   2.299   0.229  14.621 -1.3686 -0.7056  2.4596
 1367SOL    HW215735   2.161   0.183  14.594 -0.3671 -1.1898 -1.4744
 1368SOL     OW15736   3.749   4.136  16.904 -0.3924 -0.4694 -0.8746
 1368SOL    HW115737   3.689   4.112  16.974  1.5221 -0.1240  0.8757
 1368SOL    HW215738   3.712   4.084  16.832 -1.4199 -2.7174  1.2881
 1369SOL     OW15739   0.367   0.522   6.301 -0.4333  0.0879  0.3275
 1369SOL    HW115740   0.402   0.440   6.266  1.1984  1.3521 -0.9997
 1369SOL    HW215741   0.298   0.545   6.240  0.0685 -0.2096 -0.3487
 1370SOL     OW15742   1.759   2.805   8.941  0.2148  0.4557 -0.0398
 1370SOL    HW115743   1.762   2.722   8.893 -4.1132 -0.6237  1.5831
 1370SOL    HW215744   1.755   2.855   8.860  2.0729 -1.7526 -1.5113
 1371SOL     OW15745   1.631   0.659   3.916  0.4983  0.2080 -1.0549
 1371SOL    HW115746   1.572   0.734   3.927  1.8911  0.6806  3.1225
 1371SOL    HW215747   1.597   0.631   3.830 -1.7060 -0.1449 -0.0804
 1372SOL     OW15748   1.435   3.667   2.532 -0.5501  0.2952 -0.6568
 1372SOL    HW115749   1.498   3.615   2.483  1.7936  2.6440 -0.1203
 1372SOL    HW215750   1.361   3.608   2.516 -2.0035  2.1498 -0.7388
 1373SOL     OW15751   1.985   1.973   2.001 -0.4526 -0.2748 -0.2732
 1373SOL    HW115752   1.956   1.929   2.081 -0.8652 -0.2055 -0.3796
 1373SOL    HW215753   2.038   1.903   1.965  1.0044  0.7764 -0.1633
 1374SOL     OW15754   3.833   0.025  15.260 -0.3857  0.1590 -0.1560
 1374SOL    HW115755   3.871   4.713  15.188 -1.1103  0.5438 -0.8004
 1374SOL    HW215756   3.746   0.035  15.221  0.8588 -2.2568 -3.5243
 1375SOL     OW15757   3.169   0.576   9.828  0.3992  0.4702  0.3497
 1375SOL    HW115758   3.229   0.630   9.777  1.1439  0.6878  1.4606
 1375SOL    HW215759   3.238   0.516   9.856  0.5409  0.2317 -0.5054
 1376SOL     OW15760   0.939   1.554   1.305  0.8767 -0.3006 -0.6808
 1376SOL    HW115761   1.016   1.591   1.264 -0.3983  0.9587 -1.9246
 1376SOL    HW215762   0.872   1.612   1.270  0.1350 -0.9034 -0.2659
 1377SOL     OW15763   0.269   0.310   7.085  0.4886  0.0577 -0.3906
 1377SOL    HW115764   0.314   0.390   7.057 -1.1416  1.2409  0.3363
 1377SOL    HW215765   0.237   0.330   7.173 -0.0523  1.7644 -0.9730
 1378SOL     OW15766   1.744   1.839   4.594  0.0488  0.2812 -0.1890
 1378SOL    HW115767   1.819   1.898   4.593  1.0005 -0.9155 -0.2459
 1378SOL    HW215768   1.666   1.894   4.596  0.1368  0.3514  0.8727
 1379SOL     OW15769   3.618   0.012  14.849 -0.2842  0.4596 -0.4943
 1379SOL    HW115770   3.614   0.029  14.943 -1.3472 -2.5780  0.0210
 1379SOL    HW215771   3.655   4.662  14.853 -0.5047  0.4235  0.7249
 1380SOL     OW15772   3.428   4.253   7.005 -0.1494  0.1903 -0.6944
 1380SOL    HW115773   3.465   4.334   7.041  0.7104 -0.2875 -0.5105
 1380SOL    HW215774   3.343   4.252   7.049 -0.8289  1.1326 -1.9848
 1381SOL     OW15775   4.123   1.212   6.384  0.0089 -0.2796  0.5261
 1381SOL    HW115776   4.095   1.126   6.354 -0.4643  0.4218 -1.0276
 1381SOL    HW215777   4.161   1.243   6.301 -2.5438 -2.5337 -1.4798
 1382SOL     OW15778   4.275   3.543   2.001  0.1355 -0.3757  0.4095
 1382SOL    HW115779   4.287   3.583   2.087 -1.8472  1.8568 -0.3696
 1382SOL    HW215780   4.359   3.502   1.980  0.4605  0.8206 -0.6355
 1383SOL     OW15781   0.679   2.021   7.817 -0.1763 -0.2619  0.9899
 1383SOL    HW115782   0.682   2.054   7.727 -1.0457  0.3649  1.1921
 1383SOL    HW215783   0.774   2.016   7.830 -0.3886  0.3729  2.8596
 1384SOL     OW15784   3.243   4.598   2.382 -0.2612 -0.2244 -0.3709
 1384SOL    HW115785   3.328   4.564   2.410  0.7562  2.1979 -0.5613
 1384SOL    HW215786   3.186   4.581   2.457  0.5753  1.0369  0.5443
 1385SOL     OW15787   3.515   0.100   5.900  0.5381  0.4293 -0.3556
 1385SOL    HW115788   3.610   0.100   5.889  0.4919  0.4842 -0.7557
 1385SOL    HW215789   3.498   0.191   5.878 -1.5764 -0.0929 -0.8738
 1386SOL     OW15790   2.935   4.548   4.096  0.0657 -0.1021 -0.0745
 1386SOL    HW115791   2.969   4.607   4.028 -1.2141 -1.3832 -1.8221
 1386SOL    HW215792   2.844   4.538   4.069  0.5905 -0.2939 -1.7562
 1387SOL     OW15793   3.182   3.356   7.983  0.3811 -0.1048  0.2405
 1387SOL    HW115794   3.157   3.265   7.997 -1.7559  0.7435  1.9432
 1387SOL    HW215795   3.239   3.352   7.907  0.7748  0.9441  0.4781
 1388SOL     OW15796   0.645   0.893  14.943 -0.0007 -0.2789 -1.0770
 1388SOL    HW115797   0.633   0.799  14.929 -1.1037 -0.5978  1.9841
 1388SOL    HW215798   0.724   0.903  14.890 -1.6303 -2.1176 -3.8882
 1389SOL     OW15799   4.518   3.016  10.188 -0.0390  0.3974 -0.2470
 1389SOL    HW115800   4.592   2.961  10.164  0.2545  0.2660  0.9644
 1389SOL    HW215801   4.509   2.989  10.280 -0.0528 -1.0685 -0.6827
 1390SOL     OW15802   2.358   4.019  15.801 -0.2436 -0.1033  0.0932
 1390SOL    HW115803   2.268   4.049  15.793  0.4413  1.9655  0.0399
 1390SOL    HW215804   2.379   3.990  15.712  1.4020  3.1084 -0.5813
 1391SOL     OW15805   1.546   0.802   6.921 -0.0833  0.5408  0.0729
 1391SOL    HW115806   1.620   0.829   6.866 -0.5616 -0.1900 -0.9346
 1391SOL    HW215807   1.479   0.812   6.853 -1.3176 -1.5120  1.0034
 1392SOL     OW15808   1.949   3.771   3.289  0.2427  0.4893  0.3897
 1392SOL    HW115809   1.869   3.725   3.312 -0.8922  2.9099  1.2609
 1392SOL    HW215810   1.920   3.843   3.233  0.8899 -1.0567 -1.9059
 1393SOL     OW15811   2.641   2.911   6.548  0.3726 -0.3001 -0.0967
 1393SOL    HW115812   2.712   2.927   6.609  0.0694  1.5382 -0.2277
 1393SOL    HW215813   2.569   2.903   6.610 -0.9892  0.6796 -1.5271
 1394SOL     OW15814   1.579   0.002   6.077 -0.5676  0.3716 -0.2987
 1394SOL    HW115815   1.571   4.646   6.094  0.4626 -0.0936 -2.3972
 1394SOL    HW215816   1.544   0.017   5.989  0.8315 -0.0046 -0.9201
 1395SOL     OW15817   1.466   2.648   3.582  0.4839 -0.4329 -0.4529
 1395SOL    HW115818   1.437   2.600   3.660  0.3986 -1.0569 -0.8660
 1395SOL    HW215819   1.451   2.741   3.601 -0.3515 -0.7854  0.6195
 1396SOL     OW15820   0.404   4.227   8.957  0.1257 -0.2765 -0.1067
 1396SOL    HW115821   0.373   4.139   8.937 -0.7651  0.2131 -0.9081
 1396SOL    HW215822   0.411   4.280   8.877  0.9241  0.4571  0.4491
 1397SOL     OW15823   1.958   4.035   5.600 -0.4827  0.7667  0.0179
 1397SOL    HW115824   1.968   4.083   5.518 -0.1221  0.4391 -0.1292
 1397SOL    HW215825   1.874   3.991   5.590  0.3937 -1.2747  1.5491
 1398SOL     OW15826   4.599   1.268   4.421 -0.0294  0.1455 -0.2220
 1398SOL    HW115827   4.509   1.236   4.429 -0.1267  0.6175  0.5916
 1398SOL    HW215828   4.631   1.228   4.502  1.9553  2.7370  0.2763
 1399SOL     OW15829   3.413   3.978   9.527  0.0060 -1.0214  0.0534
 1399SOL    HW115830   3.341   4.041   9.539 -1.7373 -2.7838 -1.1609
 1399SOL    HW215831   3.410   3.987   9.432 -0.1783  1.2186  0.2622
 1400SOL     OW15832   2.646   0.660  17.009 -0.2501  0.0272  0.5381
 1400SOL    HW115833   2.556   0.688  16.996 -1.3506 -3.9811 -0.4893
 1400SOL    HW215834   2.682   0.698  16.929 -1.7663  1.2802  0.4551
 1401SOL     OW15835   1.456   1.775   0.284  0.3421  0.4246  0.2316
 1401SOL    HW115836   1.550   1.759   0.281  0.5702  2.1131 -1.9648
 1401SOL    HW215837   1.420   1.721   0.213  1.3049 -0.5173  0.4595
 1402SOL     OW15838   1.498   1.635   2.516  0.1978  0.0105  0.3075
 1402SOL    HW115839   1.459   1.619   2.603 -0.7663 -1.4816 -0.4059
 1402SOL    HW215840   1.582   1.598   2.544 -0.3090  0.2066  2.0967
 1403SOL     OW15841   0.376   1.154   7.384  0.8109  0.3628  0.0091
 1403SOL    HW115842   0.429   1.161   7.304  0.6573 -1.0805 -0.2177
 1403SOL    HW215843   0.435   1.169   7.458  1.2307 -2.7803  0.3410
 1404SOL     OW15844   4.068   3.853  11.173  0.1296  0.2457  0.4054
 1404SOL    HW115845   3.998   3.811  11.223 -0.2894  2.2737  1.5340
 1404SOL    HW215846   4.019   3.920  11.126 -1.7524 -1.2028  0.2863
 1405SOL     OW15847   3.333   2.690  12.429  0.0124 -0.3686  0.7983
 1405SOL    HW115848   3.382   2.763  12.466  1.9832 -1.0688 -0.4065
 1405SOL    HW215849   3.280   2.739  12.366  2.4441  0.3332 -0.6927
 1406SOL     OW15850   0.700   1.098   9.613 -0.0850  0.3951 -0.7928
 1406SOL    HW115851   0.756   1.088   9.536  2.1033  0.4219  0.8062
 1406SOL    HW215852   0.744   1.040   9.676  0.0317  1.9863  0.5875
 1407SOL     OW15853   3.966   3.208   5.235 -0.0007  0.1350  0.0366
 1407SOL    HW115854   3.941   3.211   5.328  2.0912 -0.5585  0.6341
 1407SOL    HW215855   3.952   3.114   5.224 -0.8834 -0.2409  4.1559
 1408SOL     OW15856   3.499   3.146   7.679  0.4099 -0.3384  0.2278
 1408SOL    HW115857   3.526   3.056   7.700  2.5003  0.1253 -0.4397
 1408SOL    HW215858   3.583   3.190   7.665 -0.9468  1.8727 -1.0092
 1409SOL     OW15859   2.012   1.227   6.478 -0.2008 -0.2547  0.6910
 1409SOL    HW115860   1.968   1.247   6.561  1.8370  1.4887  1.3625
 1409SOL    HW215861   2.094   1.276   6.487 -0.3532  0.0464  0.4373
 1410SOL     OW15862   3.260   3.931   0.742  0.2089 -0.1494 -0.8427
 1410SOL    HW115863   3.189   3.872   0.768 -0.5406  1.3053  0.3593
 1410SOL    HW215864   3.211   3.981   0.677 -1.0491  1.4195  1.3129
 1411SOL     OW15865   2.667   0.857   5.381  0.2619 -0.3427  0.3571
 1411SOL    HW115866   2.666   0.923   5.312 -0.6928  0.1801  0.8776
 1411SOL    HW215867   2.580   0.877   5.415 -0.1203 -0.4565 -0.5406
 1412SOL     OW15868   1.612   1.076   8.123  0.0159 -0.1988  0.0545
 1412SOL    HW115869   1.607   1.013   8.195 -1.0826  0.2398  0.3618
 1412SOL    HW215870   1.530   1.062   8.075  0.2989  2.5369 -1.2666
 1413SOL     OW15871   4.474   0.199  12.129  0.1117 -0.5869 -0.4749
 1413SOL    HW115872   4.470   0.157  12.044 -0.1261  1.9707 -1.7143
 1413SOL    HW215873   4.504   0.120  12.176 -2.7359 -1.9439 -0.9715
 1414SOL     OW15874   1.644   3.879   4.924  0.0410  0.4657  0.3379
 1414SOL    HW115875   1.656   3.784   4.920 -0.8241  0.2620  2.3935
 1414SOL    HW215876   1.685   3.909   4.843 -0.6956 -0.6663 -0.4650
 1415SOL     OW15877   3.745   2.854  16.786 -0.5820 -0.2534  0.3996
 1415SOL    HW115878   3.706   2.796  16.720  2.0341  0.9190 -2.1631
 1415SOL    HW215879   3.838   2.833  16.780 -0.2745  0.7741  1.5909
 1416SOL     OW15880   0.094   1.889   7.894  0.9616  0.3759 -0.4606
 1416SOL    HW115881   0.096   1.826   7.822 -0.8401  0.5919 -0.6931
 1416SOL    HW215882   0.113   1.839   7.974  1.0444  0.6317 -0.3211
 1417SOL     OW15883   0.152   2.065   6.491 -0.4105 -1.1604  0.5222
 1417SOL    HW115884   0.230   2.009   6.491 -0.5491 -1.3593 -1.0641
 1417SOL    HW215885   0.123   2.078   6.581  1.5050 -0.6468  1.0516
 1418SOL     OW15886   1.194   2.290   2.711  0.2924 -0.2342  0.0861
 1418SOL    HW115887   1.114   2.319   2.756 -0.1737  0.1091 -0.9618
 1418SOL    HW215888   1.172   2.205   2.675  0.5265  0.1727 -1.0059
 1419SOL     OW15889   0.647   2.601   8.429  0.1373  0.9349 -0.0094
 1419SOL    HW115890   0.727   2.561   8.394  1.0654  2.2453  0.6078
 1419SOL    HW215891   0.654   2.584   8.523 -0.4567 -0.3951 -0.2038
 1420SOL     OW15892   0.801   3.780   0.117  0.0688 -0.1644  0.1605
 1420SOL    HW115893   0.734   3.723   0.154  0.2495 -2.6679 -3.3332
 1420SOL    HW215894   0.844   3.736   0.044 -0.4179 -0.9740  0.3668
 1421SOL     OW15895   0.107   0.974   2.338 -0.6535  0.0535 -0.2815
 1421SOL    HW115896   0.137   0.887   2.310  1.3867  0.5003  0.5159
 1421SOL    HW215897   0.038   0.987   2.274 -0.5254 -1.4695 -0.7415
 1422SOL     OW15898   0.148   4.517   1.169 -0.0761  0.1276 -0.1268
 1422SOL    HW115899   0.123   4.575   1.242  1.5927  0.5460  0.1225
 1422SOL    HW215900   0.083   4.449   1.182 -0.0432  0.2950  0.9784
 1423SOL     OW15901   4.526   2.389   6.570 -0.1295  0.3499 -0.4265
 1423SOL    HW115902   4.617   2.380   6.598 -1.2483 -2.1527  2.3595
 1423SOL    HW215903   4.533   2.386   6.475 -0.1889 -1.4060 -0.3803
 1424SOL     OW15904   2.822   4.711   8.694 -0.2071  0.0487 -0.5546
 1424SOL    HW115905   2.832   4.617   8.704 -0.3135  0.0861 -0.1182
 1424SOL    HW215906   2.782   4.723   8.780 -1.6685  2.0052 -1.5145
 1425SOL     OW15907   0.945   2.671  15.116 -0.4978  0.2717  0.6969
 1425SOL    HW115908   0.893   2.749  15.094  0.0342  0.4692  0.1050
 1425SOL    HW215909   1.019   2.691  15.058  0.5258 -3.3746  0.7910
 1426SOL     OW15910   1.177   0.901   4.962 -0.1109 -0.3538 -0.3396
 1426SOL    HW115911   1.208   0.810   4.963 -0.9427 -0.6413 -0.4840
 1426SOL    HW215912   1.216   0.936   5.042  0.8878 -1.3114 -0.4084
 1427SOL     OW15913   2.400   0.221   7.502 -0.7138 -0.6607  0.5646
 1427SOL    HW115914   2.311   0.216   7.467 -0.3937 -1.5052 -0.1247
 1427SOL    HW215915   2.444   0.202   7.419 -0.5169  1.8908  0.0833
 1428SOL     OW15916   4.731   0.404  17.398  0.1968 -0.2155 -0.4371
 1428SOL    HW115917   4.646   0.406  17.355  0.2232 -0.4929 -0.5014
 1428SOL    HW215918   0.055   0.386  17.326 -0.8956  2.8462 -2.1229
 1429SOL     OW15919   0.695   2.599   7.445 -0.5957  0.5933  0.0251
 1429SOL    HW115920   0.708   2.626   7.354  0.2858 -1.0738 -0.3429
 1429SOL    HW215921   0.620   2.542   7.433 -1.1902  1.4777 -0.4539
 1430SOL     OW15922   3.551   0.161   1.209 -0.5609  0.2117 -0.6182
 1430SOL    HW115923   3.642   0.139   1.231 -1.0150 -0.6905  0.3722
 1430SOL    HW215924   3.536   0.161   1.115  0.4068 -2.3985 -0.7795
 1431SOL     OW15925   4.474   0.672   7.780  0.2752  0.2989 -0.1400
 1431SOL    HW115926   4.519   0.753   7.802  0.4363  0.2357 -0.2350
 1431SOL    HW215927   4.544   0.616   7.746  0.1514 -1.2939  2.2165
 1432SOL     OW15928   1.849   0.577   1.722  0.1744 -0.5568 -0.9519
 1432SOL    HW115929   1.805   0.658   1.747  0.6603 -0.7842  0.6573
 1432SOL    HW215930   1.925   0.607   1.672  1.9889  0.6760  2.5202
 1433SOL     OW15931   1.335   2.246  13.176  0.1023 -0.5635  0.2006
 1433SOL    HW115932   1.323   2.152  13.169 -2.9454 -0.1960  0.7600
 1433SOL    HW215933   1.294   2.287  13.100 -0.4619  0.8600  1.2701
 1434SOL     OW15934   1.539   1.330   3.437  0.4264  0.0798  0.1163
 1434SOL    HW115935   1.616   1.297   3.391 -0.2429  0.1114 -1.0282
 1434SOL    HW215936   1.560   1.307   3.528 -1.0516  1.6052  0.8505
 1435SOL     OW15937   1.462   0.813   4.315 -0.2065  0.5140  0.4934
 1435SOL    HW115938   1.450   0.825   4.409  2.9536  0.9160  0.8472
 1435SOL    HW215939   1.445   0.719   4.310  1.2456  0.3257 -0.8646
 1436SOL     OW15940   0.583   0.108   8.208  0.3630 -0.0989  0.5869
 1436SOL    HW115941   0.677   0.096   8.203  0.6101  2.6597 -1.5091
 1436SOL    HW215942   0.560   0.089   8.299 -1.1684 -0.3883  0.1573
 1437SOL     OW15943   0.840   3.611  12.006  0.3958  0.0151  0.4569
 1437SOL    HW115944   0.811   3.538  11.952  1.2029 -0.4166  0.6155
 1437SOL    HW215945   0.877   3.671  11.941 -0.0328  0.2773  0.4522
 1438SOL     OW15946   0.380   0.833  17.482 -0.0947 -0.1502 -0.4798
 1438SOL    HW115947   0.363   0.844  17.389 -0.9839 -0.6334 -0.3685
 1438SOL    HW215948   0.313   0.768  17.500 -1.2928  0.9998 -0.8180
 1439SOL     OW15949   2.691   3.989  13.220  0.0625  0.1491  0.4542
 1439SOL    HW115950   2.717   4.081  13.223  0.8249 -0.1270  2.3760
 1439SOL    HW215951   2.774   3.943  13.233 -0.8476 -1.9185 -1.1122
 1440SOL     OW15952   2.081   0.574   3.956 -0.4162 -0.2117  1.0741
 1440SOL    HW115953   2.062   0.494   4.004  0.2694 -1.2831 -0.4429
 1440SOL    HW215954   2.176   0.580   3.973  0.3797  0.2321 -3.5320
 1441SOL     OW15955   2.468   0.145  12.885 -0.2485  0.1129  0.3704
 1441SOL    HW115956   2.460   0.208  12.813 -1.5545  0.5886  0.9087
 1441SOL    HW215957   2.439   0.064  12.844 -3.2849  0.9836  0.7835
 1442SOL     OW15958   1.366   3.759   7.951  0.1233 -0.0971 -0.5151
 1442SOL    HW115959   1.406   3.824   8.007  1.3657 -2.2532  1.1030
 1442SOL    HW215960   1.278   3.792   7.933 -0.1738 -1.0172 -0.7779
 1443SOL     OW15961   0.188   2.050   9.730 -0.8680  0.0324  0.1506
 1443SOL    HW115962   0.276   2.028   9.761 -1.1761 -0.5690  0.5902
 1443SOL    HW215963   0.203   2.080   9.640  0.9861 -0.0521  0.4409
 1444SOL     OW15964   3.243   0.307   2.161 -0.1098 -0.6214  0.0402
 1444SOL    HW115965   3.196   0.232   2.198 -1.3801 -0.6078 -1.5374
 1444SOL    HW215966   3.335   0.285   2.170 -0.2041  0.4598  3.8440
 1445SOL     OW15967   3.776   2.408   4.217  0.4231  0.3490  0.3468
 1445SOL    HW115968   3.834   2.458   4.273  1.3118 -0.8203  0.4707
 1445SOL    HW215969   3.786   2.458   4.137  2.3681 -1.1654 -0.3637
 1446SOL     OW15970   2.369   0.347   5.244 -0.0044  0.3856  0.2487
 1446SOL    HW115971   2.286   0.392   5.228  0.7587  1.8679  0.4672
 1446SOL    HW215972   2.404   0.399   5.317 -0.8860  1.0361  0.2136
 1447SOL     OW15973   3.916   0.515   6.427  0.0427  0.3956 -0.5179
 1447SOL    HW115974   3.994   0.469   6.396 -0.3713 -1.1604  0.7490
 1447SOL    HW215975   3.940   0.528   6.519 -2.0361  0.6714 -0.0096
 1448SOL     OW15976   3.072   2.669   3.000 -0.3486  0.3423 -0.3710
 1448SOL    HW115977   3.081   2.643   3.091 -0.2749  1.1834 -0.1384
 1448SOL    HW215978   3.055   2.763   3.005  0.0221  0.2047  3.1252
 1449SOL     OW15979   0.133   2.494   7.434  0.0462 -0.2946 -0.2963
 1449SOL    HW115980   0.047   2.471   7.468  0.0148  0.2412 -0.0260
 1449SOL    HW215981   0.147   2.582   7.469  1.9452  0.0963 -2.0565
 1450SOL     OW15982   1.459   1.503   3.063  0.2325  0.1013  0.3152
 1450SOL    HW115983   1.544   1.466   3.083 -0.2637 -1.3943 -0.3627
 1450SOL    HW215984   1.468   1.506   2.967 -1.7161  1.7648  0.1736
 1451SOL     OW15985   3.070   3.132   4.498 -0.7670 -0.2927 -0.1189
 1451SOL    HW115986   3.063   3.053   4.444  1.3776 -0.5677  0.0349
 1451SOL    HW215987   3.037   3.095   4.580  0.1511 -0.5253  0.1389
 1452SOL     OW15988   3.518   0.913   5.984  0.6987 -0.2486 -0.0101
 1452SOL    HW115989   3.424   0.900   6.002  0.2133  1.6831 -1.2006
 1452SOL    HW215990   3.543   0.848   5.918 -0.7007  0.3217 -1.1192
 1453SOL     OW15991   3.697   0.607   3.319  0.2943 -1.0417  0.4996
 1453SOL    HW115992   3.650   0.524   3.322 -0.2467 -0.7516  0.0852
 1453SOL    HW215993   3.618   0.660   3.332  0.3880 -0.6868 -0.3278
 1454SOL     OW15994   4.094   0.397   4.790  0.5201  0.5933  0.4097
 1454SOL    HW115995   4.112   0.487   4.763  2.7990  0.2243  0.7228
 1454SOL    HW215996   4.040   0.369   4.715 -0.2553  3.0385  0.0805
 1455SOL     OW15997   1.105   2.408   2.396 -0.3098  0.1814 -0.2497
 1455SOL    HW115998   1.101   2.411   2.300  2.1315 -0.9729 -0.3876
 1455SOL    HW215999   1.042   2.474   2.425  1.4594  1.3747  0.8859
 1456SOL     OW16000   2.128   0.184   4.493 -0.5914 -0.1425  0.0664
 1456SOL    HW116001   2.055   0.156   4.438  1.4739 -1.0069 -2.2319
 1456SOL    HW216002   2.131   0.275   4.463 -1.5786  0.6228  2.2669
 1457SOL     OW16003   0.360   0.042   5.793  0.0792 -0.6411 -0.1988
 1457SOL    HW116004   0.295   0.047   5.864  0.4483 -1.5358  0.2081
 1457SOL    HW216005   0.354   4.688   5.768  0.1156 -0.7843  0.3063
 1458SOL     OW16006   1.474   3.658   0.702  0.5397  0.0944  0.4888
 1458SOL    HW116007   1.411   3.608   0.754  2.3130 -1.8443  0.7459
 1458SOL    HW216008   1.420   3.729   0.666 -0.1033  0.0754  1.4324
 1459SOL     OW16009   0.757   4.593   6.414 -0.3382 -0.2721 -0.5239
 1459SOL    HW116010   0.817   4.520   6.432 -0.0645  0.4008  1.3207
 1459SOL    HW216011   0.704   4.572   6.491 -1.1378 -1.0692 -1.2872
 1460SOL     OW16012   0.211   1.765   1.121 -0.0586  0.0604 -0.0622
 1460SOL    HW116013   0.257   1.787   1.040  0.1740  0.4393  0.1746
 1460SOL    HW216014   0.277   1.784   1.187  0.7011  0.9091 -1.0770
 1461SOL     OW16015   2.160   1.141   2.935 -0.1855 -0.0424 -0.0660
 1461SOL    HW116016   2.255   1.130   2.943 -0.0250  0.6634 -0.9999
 1461SOL    HW216017   2.163   1.218   2.878 -0.0041  0.6372  0.8395
 1462SOL     OW16018   1.306   4.698  17.432  0.0734  0.1125  0.4406
 1462SOL    HW116019   1.368   0.021  17.473  0.3445 -0.6138  1.0995
 1462SOL    HW216020   1.351   4.678  17.349 -0.8353 -1.2857  0.2821
 1463SOL     OW16021   1.784   1.596   7.397 -0.2184  0.0159 -0.1416
 1463SOL    HW116022   1.817   1.683   7.417  0.9940 -0.7830  1.2622
 1463SOL    HW216023   1.742   1.612   7.312 -1.6741  1.4826  0.8735
 1464SOL     OW16024   2.717   4.339   0.432 -0.5345  0.5086  0.3992
 1464SOL    HW116025   2.653   4.363   0.499 -0.9031 -0.4689  0.4108
 1464SOL    HW216026   2.680   4.369   0.349  1.4107  0.6921 -0.3928
 1465SOL     OW16027   4.149   2.486   9.547  0.3832 -0.0430  0.0132
 1465SOL    HW116028   4.068   2.436   9.532  1.0201 -1.1433  0.2512
 1465SOL    HW216029   4.155   2.473   9.641  0.3413 -0.2517 -0.0136
 1466SOL     OW16030   3.269   0.319   3.387 -0.5161  0.1661  0.3405
 1466SOL    HW116031   3.176   0.317   3.406 -1.2087 -2.2006 -3.0986
 1466SOL    HW216032   3.291   0.403   3.426  3.0193  0.4252 -2.1229
 1467SOL     OW16033   2.617   4.584  12.643 -0.4464 -0.0199 -0.1698
 1467SOL    HW116034   2.608   4.678  12.656 -0.5675 -0.0534 -0.0162
 1467SOL    HW216035   2.606   4.574  12.548  2.1027  3.2628 -0.8217
 1468SOL     OW16036   2.133   0.083   6.764 -0.3431 -0.3699 -0.7029
 1468SOL    HW116037   2.112   0.176   6.772 -1.5677 -0.7121  0.1346
 1468SOL    HW216038   2.229   0.082   6.766 -0.3452  0.4721 -0.2949
 1469SOL     OW16039   3.353   4.113   2.391  0.0571  0.0359 -0.5834
 1469SOL    HW116040   3.424   4.166   2.426 -0.7111  0.7820 -0.1380
 1469SOL    HW216041   3.269   4.138   2.431 -0.2707  0.1544 -1.3561
 1470SOL     OW16042   3.482   2.167  17.237  0.1941  0.1627  0.9160
 1470SOL    HW116043   3.398   2.137  17.272  0.9037 -1.0983  1.5320
 1470SOL    HW216044   3.540   2.093  17.255 -0.3099 -1.0636 -2.6671
 1471SOL     OW16045   2.843   1.221  12.931 -0.1294  0.0852  0.9575
 1471SOL    HW116046   2.882   1.306  12.951 -0.4680  0.7549 -1.2796
 1471SOL    HW216047   2.880   1.174  13.006  0.5994  1.6219  1.5507
 1472SOL     OW16048   1.551   2.283  11.761 -0.3138 -0.1168  0.0044
 1472SOL    HW116049   1.459   2.284  11.788 -0.6354 -0.6289 -1.1023
 1472SOL    HW216050   1.563   2.294  11.667  0.6353  1.2245  0.2775
 1473SOL     OW16051   2.583   4.379  16.361 -0.3147 -0.5801 -0.0452
 1473SOL    HW116052   2.603   4.309  16.299 -1.3880  0.2616 -1.3459
 1473SOL    HW216053   2.498   4.362  16.402  0.6669 -0.6545  1.9727
 1474SOL     OW16054   4.096   0.921   4.552 -0.1159 -0.6043  0.3375
 1474SOL    HW116055   4.101   0.991   4.618  2.6945 -1.1782  0.7014
 1474SOL    HW216056   4.187   0.922   4.522 -0.1422  0.0365  0.2835
 1475SOL     OW16057   2.857   3.601   9.563 -0.2297  0.5956 -0.2237
 1475SOL    HW116058   2.832   3.596   9.470  0.9790  1.5815 -0.6081
 1475SOL    HW216059   2.782   3.647   9.600 -0.1320  0.1732  0.4930
 1476SOL     OW16060   3.079   1.627   3.064  0.2873 -0.6790 -0.0062
 1476SOL    HW116061   3.120   1.712   3.077  0.0595 -0.6601  0.5716
 1476SOL    HW216062   3.122   1.586   2.989 -0.8100  1.3748 -1.7685
 1477SOL     OW16063   3.200   2.322   3.759  0.4146 -0.5883 -0.4474
 1477SOL    HW116064   3.166   2.334   3.671  0.6304 -1.1949 -0.6127
 1477SOL    HW216065   3.257   2.247   3.742 -0.9974 -1.3432 -1.8149
 1478SOL     OW16066   3.608   0.487   5.218  0.3397  0.1230 -0.0782
 1478SOL    HW116067   3.574   0.480   5.129  0.5018 -0.8320 -0.0669
 1478SOL    HW216068   3.689   0.438   5.212  0.5569  0.2831  1.5143
 1479SOL     OW16069   4.207   3.222   2.630 -0.1022 -0.1548  0.4280
 1479SOL    HW116070   4.240   3.294   2.577 -0.5659 -0.9264 -0.9164
 1479SOL    HW216071   4.135   3.261   2.679 -0.3616 -0.8955  0.6391
 1480SOL     OW16072   3.873   3.840   5.433 -0.1341  0.6037  0.1107
 1480SOL    HW116073   3.912   3.927   5.444 -3.1903  2.1220 -1.1272
 1480SOL    HW216074   3.872   3.810   5.343 -1.9582 -0.5451  0.5177
 1481SOL     OW16075   3.323   2.731   9.151 -0.0401  0.6454  0.1069
 1481SOL    HW116076   3.246   2.767   9.106  0.1076  1.1295  0.2453
 1481SOL    HW216077   3.317   2.788   9.227 -0.6260  1.5627 -0.6233
 1482SOL     OW16078   3.426   1.776   8.045  0.1206  0.2524 -0.0438
 1482SOL    HW116079   3.351   1.750   7.990  0.2103 -1.1632  0.5082
 1482SOL    HW216080   3.500   1.732   8.003  0.8828  2.2574 -0.8058
 1483SOL     OW16081   3.915   3.730   5.185 -0.2408  0.2971  0.8086
 1483SOL    HW116082   3.871   3.685   5.113 -1.5392  1.3084  0.9777
 1483SOL    HW216083   4.005   3.702   5.166 -0.8481 -0.3775 -1.1271
 1484SOL     OW16084   3.649   2.869   9.688 -0.2710 -0.2824 -0.3198
 1484SOL    HW116085   3.714   2.815   9.644 -0.2193  0.3099 -0.9591
 1484SOL    HW216086   3.699   2.876   9.769 -3.0421  0.8427  1.3032
 1485SOL     OW16087   2.212   4.523   2.021 -0.2330 -0.3908 -0.0684
 1485SOL    HW116088   2.242   4.439   1.986  1.2585  0.6519 -1.3060
 1485SOL    HW216089   2.118   4.510   2.009 -0.4157  1.4857 -0.6587
 1486SOL     OW16090   1.552   0.667   6.234  0.2465 -0.3091  0.7447
 1486SOL    HW116091   1.627   0.613   6.208 -1.0483 -1.0760 -1.3625
 1486SOL    HW216092   1.498   0.595   6.267 -1.1121  0.3831  0.0302
 1487SOL     OW16093   0.765   1.629   3.640  0.5122  0.6931  0.1807
 1487SOL    HW116094   0.838   1.624   3.701 -0.0379  0.9044  0.8647
 1487SOL    HW216095   0.737   1.720   3.652 -0.7417  0.2837  0.4317
 1488SOL     OW16096   4.730   2.472   5.428 -0.6047 -0.0919  0.4281
 1488SOL    HW116097   0.031   2.470   5.515  0.1008  0.6825  0.1341
 1488SOL    HW216098   4.695   2.561   5.430 -2.1702 -0.6963 -0.1555
 1489SOL     OW16099   4.581   1.182   9.464 -0.0210 -1.0461 -0.2057
 1489SOL    HW116100   4.592   1.135   9.381 -2.4740  0.2752 -1.3029
 1489SOL    HW216101   4.659   1.236   9.472  0.3479 -1.2988 -2.2379
 1490SOL     OW16102   2.014   0.438  14.789  0.0016  0.0736 -0.9911
 1490SOL    HW116103   2.073   0.392  14.729 -0.0810 -1.9753  0.4920
 1490SOL    HW216104   1.956   0.367  14.816  0.9505  0.3041  1.6566
 1491SOL     OW16105   0.510   0.902   2.865  0.1352  0.4642  0.3370
 1491SOL    HW116106   0.581   0.950   2.907  0.7095  1.8425 -2.2079
 1491SOL    HW216107   0.483   0.837   2.929  1.1154 -0.1102  0.1548
 1492SOL     OW16108   1.325   4.418   7.632  0.2184  0.2593  0.1897
 1492SOL    HW116109   1.264   4.492   7.633 -0.4035 -0.2681  2.5507
 1492SOL    HW216110   1.262   4.367   7.683 -0.9177 -0.3430 -1.8276
 1493SOL     OW16111   2.500   4.673   5.921 -0.7680 -0.1234 -0.7652
 1493SOL    HW116112   2.473   4.613   5.990  1.6932  0.1276  0.3824
 1493SOL    HW216113   2.578   4.712   5.960 -1.3781 -0.7000  1.0371
 1494SOL     OW16114   2.780   0.670   3.891 -0.6760 -0.3285 -0.4952
 1494SOL    HW116115   2.845   0.603   3.914  1.6965  1.8506 -0.8894
 1494SOL    HW216116   2.841   0.744   3.884  0.2130 -1.0208 -0.2155
 1495SOL     OW16117   2.469   4.307  12.672 -0.0043  0.0815 -0.5948
 1495SOL    HW116118   2.451   4.353  12.589 -0.7547  0.3095 -0.2973
 1495SOL    HW216119   2.465   4.378  12.736  0.8422 -1.0998  0.7629
 1496SOL     OW16120   2.992   2.699   2.326 -0.7789  0.1520 -0.3478
 1496SOL    HW116121   3.041   2.743   2.395  1.2174  0.0651 -1.7312
 1496SOL    HW216122   2.934   2.764   2.286  1.0440 -0.1062 -3.4032
 1497SOL     OW16123   0.688   2.716   4.026  0.0213  0.7731 -0.1656
 1497SOL    HW116124   0.714   2.770   3.951 -1.7987  2.2225  0.2476
 1497SOL    HW216125   0.597   2.745   4.036 -0.2048  0.2438 -0.6316
 1498SOL     OW16126   3.528   1.644   0.824 -1.2010  0.0547  0.3487
 1498SOL    HW116127   3.501   1.696   0.899  0.3796  0.8530  0.3562
 1498SOL    HW216128   3.507   1.713   0.761 -1.1865 -0.9944 -0.8082
 1499SOL     OW16129   1.547   2.571   8.617 -0.3148  0.2991  0.5952
 1499SOL    HW116130   1.474   2.593   8.675 -0.0195  0.1159  1.0361
 1499SOL    HW216131   1.555   2.658   8.579 -0.1570 -0.2420 -0.6244
 1500SOL     OW16132   2.006   1.991   3.582  0.0262  0.3513  0.4392
 1500SOL    HW116133   1.995   2.003   3.677  2.0469 -2.5030  1.0415
 1500SOL    HW216134   2.016   2.079   3.545  0.7857  0.6099  1.2527
 1501SOL     OW16135   1.367   0.297   8.143 -0.0488  0.7343 -0.0270
 1501SOL    HW116136   1.360   0.277   8.237 -0.2469  2.4613  0.3280
 1501SOL    HW216137   1.364   0.393   8.140  0.9844  0.8351  2.1591
 1502SOL     OW16138   3.469   0.424   6.850  0.0949 -0.0619 -0.4277
 1502SOL    HW116139   3.513   0.509   6.857 -0.6234  0.3017 -0.3293
 1502SOL    HW216140   3.383   0.448   6.817  0.0193  1.4222  0.8637
 1503SOL     OW16141   3.439   2.046   2.162  0.3464  0.5384 -0.0575
 1503SOL    HW116142   3.528   2.014   2.174  0.3352  0.7280  0.5547
 1503SOL    HW216143   3.456   2.140   2.173 -0.3025  0.5160  1.1679
 1504SOL     OW16144   2.492   4.428   7.091  0.3956  0.5574  0.3275
 1504SOL    HW116145   2.583   4.452   7.112  0.8268 -1.2717  0.5547
 1504SOL    HW216146   2.481   4.486   7.016  2.2394  0.7935  0.2359
 1505SOL     OW16147   1.595   3.530   2.299 -0.5960  0.3559 -0.0379
 1505SOL    HW116148   1.559   3.497   2.217 -1.1666  0.3745  0.2029
 1505SOL    HW216149   1.690   3.528   2.298 -0.6445 -2.4393  0.3408
 1506SOL     OW16150   1.939   2.356   6.874 -0.4038 -0.6226 -0.0292
 1506SOL    HW116151   2.032   2.378   6.885 -0.9370  2.2224 -1.2168
 1506SOL    HW216152   1.948   2.297   6.799 -0.5059 -1.0437  0.2949
 1507SOL     OW16153   3.819   2.216   2.624  0.0487  0.3243 -0.0091
 1507SOL    HW116154   3.867   2.200   2.543 -2.1244  1.7504 -1.5744
 1507SOL    HW216155   3.890   2.231   2.686 -0.4893  2.1818  0.1672
 1508SOL     OW16156   2.381   2.015  13.407  0.5359  0.1893  0.5179
 1508SOL    HW116157   2.295   2.056  13.413  0.5837  0.0940  1.8799
 1508SOL    HW216158   2.378   2.017  13.312 -0.2165 -0.2087  0.5373
 1509SOL     OW16159   2.610   3.278   2.343 -0.0474 -0.4583  0.3862
 1509SOL    HW116160   2.590   3.371   2.331  0.9326 -0.6325 -2.5310
 1509SOL    HW216161   2.598   3.273   2.438 -1.7794  0.5086  0.2348
 1510SOL     OW16162   3.059   1.011   2.387  0.8456  0.0039  0.3628
 1510SOL    HW116163   3.050   1.004   2.482 -0.6709  0.5664  0.2730
 1510SOL    HW216164   3.003   0.936   2.368  1.2459  0.1073 -1.2327
 1511SOL     OW16165   4.343   4.531  12.822 -0.5048 -0.6719 -0.4039
 1511SOL    HW116166   4.324   4.613  12.777 -2.3882  0.0572  1.7153
 1511SOL    HW216167   4.410   4.491  12.767 -0.1327 -0.6223  0.0118
 1512SOL     OW16168   3.807   2.923   4.865  0.5076  0.0527  0.3912
 1512SOL    HW116169   3.743   2.993   4.856  1.2321  0.7482  0.7359
 1512SOL    HW216170   3.741   2.857   4.840 -0.2859  0.6421  0.9116
 1513SOL     OW16171   0.285   3.622   6.339  0.4844  0.1707  0.0866
 1513SOL    HW116172   0.356   3.560   6.323  0.2036 -0.1860  0.2083
 1513SOL    HW216173   0.323   3.681   6.403 -1.2934  1.9809 -0.5268
 1514SOL     OW16174   3.950   1.971   6.871  0.1542 -0.3897  0.0940
 1514SOL    HW116175   3.929   1.931   6.955  0.2956 -0.4902  0.0819
 1514SOL    HW216176   4.014   2.037   6.900  0.6275 -0.4753 -0.7385
 1515SOL     OW16177   3.939   2.347   7.231 -0.1478 -0.0913 -0.1224
 1515SOL    HW116178   3.994   2.392   7.295 -0.3404 -1.3954  0.9381
 1515SOL    HW216179   3.965   2.392   7.150 -1.9609  0.4992 -0.3914
 1516SOL     OW16180   1.946   2.024   3.950  0.1507  0.6182 -0.0754
 1516SOL    HW116181   1.870   2.083   3.958 -0.5290 -0.3772  0.8589
 1516SOL    HW216182   1.905   1.946   3.988 -0.6427  0.9663 -0.2056
 1517SOL     OW16183   3.431   3.284   5.476 -0.2321  0.3579  0.0151
 1517SOL    HW116184   3.347   3.294   5.430  0.5668  0.0931 -1.4956
 1517SOL    HW216185   3.400   3.300   5.566 -2.3459  0.1447 -0.6593
 1518SOL     OW16186   4.308   3.199   6.412 -0.1462  0.0240  0.5107
 1518SOL    HW116187   4.373   3.147   6.459 -0.2714  0.6596  1.3902
 1518SOL    HW216188   4.236   3.203   6.475  0.2459 -1.2999  1.0344
 1519SOL     OW16189   2.243   0.400   3.632 -0.5253  0.1471 -0.0315
 1519SOL    HW116190   2.213   0.348   3.558 -0.7755 -0.3765  0.4382
 1519SOL    HW216191   2.175   0.467   3.633 -0.3883  0.2929 -0.6482
 1520SOL     OW16192   0.314   0.352  15.102  0.3942  0.6138  0.4642
 1520SOL    HW116193   0.268   0.369  15.185 -0.3063 -1.2621  0.4473
 1520SOL    HW216194   0.404   0.373  15.124 -0.4240  2.0422  2.4811
 1521SOL     OW16195   3.193   0.548  15.144  0.0758  0.0358  0.2457
 1521SOL    HW116196   3.200   0.476  15.207 -0.7112 -0.8061 -0.6420
 1521SOL    HW216197   3.282   0.575  15.122 -0.9576  1.9961 -1.5183
 1522SOL     OW16198   3.880   4.627   6.876 -0.2709  0.3502 -0.3225
 1522SOL    HW116199   3.796   4.657   6.912  0.6362  0.8455  1.3641
 1522SOL    HW216200   3.940   4.661   6.942 -1.5116  1.7274  0.0952
 1523SOL     OW16201   3.304   0.881   2.235 -0.2591  0.2110  0.1190
 1523SOL    HW116202   3.209   0.894   2.241 -0.1175  0.2539  2.2597
 1523SOL    HW216203   3.329   0.836   2.315 -1.8134 -1.7845 -0.4849
 1524SOL     OW16204   4.666   4.608   5.105  0.2005 -0.5995  0.1100
 1524SOL    HW116205   4.664   4.658   5.187 -0.7685 -0.2421 -0.1311
 1524SOL    HW216206   4.626   4.526   5.133 -2.0958 -0.8508 -4.0370
 1525SOL     OW16207   2.858   1.214  10.090 -0.2963 -0.0699 -0.0577
 1525SOL    HW116208   2.942   1.214  10.138  0.7443  0.1687 -1.8825
 1525SOL    HW216209   2.879   1.286  10.031 -0.3695  0.1234  0.1517
 1526SOL     OW16210   2.459   2.716  16.580  0.2224 -0.1647 -0.4238
 1526SOL    HW116211   2.463   2.636  16.633  0.3140 -0.3745 -0.7478
 1526SOL    HW216212   2.520   2.700  16.508  2.1167  0.5961  1.0437
 1527SOL     OW16213   2.400   0.797   3.887  0.3816 -0.3597  0.0471
 1527SOL    HW116214   2.436   0.779   3.801  1.9265  1.8289  0.2160
 1527SOL    HW216215   2.391   0.713   3.931 -0.5539 -1.1400 -1.6355
 1528SOL     OW16216   3.773   3.711   2.147 -0.0392 -0.3993 -0.2770
 1528SOL    HW116217   3.728   3.627   2.153  0.3045 -0.7548 -2.9625
 1528SOL    HW216218   3.719   3.755   2.082  1.5618 -2.4651 -2.9528
 1529SOL     OW16219   0.959   1.673  12.800  0.5037 -0.1211 -0.1129
 1529SOL    HW116220   1.031   1.706  12.854  0.6391 -2.5753  1.2033
 1529SOL    HW216221   0.944   1.584  12.832  1.2429  0.3099  1.4325
 1530SOL     OW16222   0.025   1.793   5.633 -0.6639  0.2923 -0.6809
 1530SOL    HW116223   0.030   1.878   5.589 -1.3377  0.5065 -0.3489
 1530SOL    HW216224   4.690   1.815   5.692 -1.8836 -1.1162 -1.6412
 1531SOL     OW16225   0.537   1.649   8.832  0.4469  0.1220  0.7233
 1531SOL    HW116226   0.444   1.667   8.850  0.0442 -0.7326 -0.4317
 1531SOL    HW216227   0.530   1.571   8.776 -1.1115  0.7095  0.0998
 1532SOL     OW16228   2.603   0.927   8.443  0.0956  0.5194  0.5876
 1532SOL    HW116229   2.624   0.969   8.359  1.3916 -1.5880 -0.1362
 1532SOL    HW216230   2.683   0.876   8.456 -2.1512 -2.3429  3.0828
 1533SOL     OW16231   1.024   0.473   4.884 -0.6756 -0.2561  0.0321
 1533SOL    HW116232   1.018   0.412   4.957 -2.5907 -0.4398 -0.2686
 1533SOL    HW216233   1.074   0.548   4.914  0.1307 -0.7520 -0.0697
 1534SOL     OW16234   2.305   3.996   7.879 -0.2560 -0.2623 -0.5986
 1534SOL    HW116235   2.282   3.903   7.879  1.8441 -0.7709 -1.1213
 1534SOL    HW216236   2.263   4.030   7.959  4.5461 -1.0335  2.2567
 1535SOL     OW16237   0.317   4.253   7.467  0.5607  0.3244 -0.3518
 1535SOL    HW116238   0.339   4.340   7.501  0.9378 -0.2257  0.8152
 1535SOL    HW216239   0.223   4.249   7.485  0.7753 -1.5565  0.3950
 1536SOL     OW16240   4.264   1.705   7.933 -0.1607 -0.0301  0.5699
 1536SOL    HW116241   4.277   1.611   7.951 -2.3674 -0.4500 -0.0242
 1536SOL    HW216242   4.248   1.701   7.839  2.9573 -1.1229  0.0630
 1537SOL     OW16243   4.009   1.595   3.389  0.0564  0.5592  0.1726
 1537SOL    HW116244   4.043   1.680   3.363  1.6734  0.0507  0.6104
 1537SOL    HW216245   3.933   1.595   3.331  0.7619 -1.3043 -0.7681
 1538SOL     OW16246   2.277   0.866   6.891 -0.1059  0.1582  0.2708
 1538SOL    HW116247   2.185   0.882   6.910 -0.6678 -0.2127 -2.1297
 1538SOL    HW216248   2.281   0.902   6.802 -0.4618  0.4873  0.3861
 1539SOL     OW16249   3.212   0.053   4.712 -0.0857  0.0927  0.3588
 1539SOL    HW116250   3.301   0.043   4.746  0.8939  0.4227 -2.1082
 1539SOL    HW216251   3.180   0.127   4.762  1.7886  0.5669  0.8396
 1540SOL     OW16252   0.747   3.055   6.618 -0.2823 -0.1178 -0.1706
 1540SOL    HW116253   0.737   3.069   6.524 -1.1502  1.2378  0.1178
 1540SOL    HW216254   0.684   3.118   6.651 -0.3511  0.7139 -1.9035
 1541SOL     OW16255   4.452   3.141   7.092 -0.1324 -0.1499  0.8957
 1541SOL    HW116256   4.383   3.107   7.150 -2.0212  0.8286 -0.7948
 1541SOL    HW216257   4.411   3.178   7.014 -1.6875 -1.2449  1.1859
 1542SOL     OW16258   4.686   1.386   5.467  0.0777  0.2001 -0.6722
 1542SOL    HW116259   4.599   1.346   5.464  1.4799 -2.6993 -2.5731
 1542SOL    HW216260   4.660   1.475   5.442 -1.7039  0.1970  1.1419
 1543SOL     OW16261   0.948   3.595   0.555  0.1350  0.0497 -0.3934
 1543SOL    HW116262   0.895   3.630   0.482  2.1604  3.6995 -0.1469
 1543SOL    HW216263   1.033   3.625   0.522 -0.0397  1.4145  0.3862
 1544SOL     OW16264   0.512   3.447   5.002 -0.0156  0.1903  0.1016
 1544SOL    HW116265   0.530   3.532   5.041  0.6694  0.5874 -1.0569
 1544SOL    HW216266   0.433   3.459   4.949 -0.2228 -1.9453 -0.1009
 1545SOL     OW16267   1.362   2.779   7.573  0.2510 -0.2478  0.4659
 1545SOL    HW116268   1.354   2.762   7.480  3.7636  0.7901 -0.0279
 1545SOL    HW216269   1.414   2.859   7.576  0.0623 -0.1496  1.2821
 1546SOL     OW16270   2.410   1.853   5.485  0.5232 -0.2429 -0.1887
 1546SOL    HW116271   2.372   1.791   5.423  1.3178 -0.0903 -0.8222
 1546SOL    HW216272   2.484   1.803   5.521  0.9981  2.8918  3.2147
 1547SOL     OW16273   2.276   2.205   6.309 -0.1963  0.6316  0.7034
 1547SOL    HW116274   2.184   2.182   6.294  0.1756 -1.2105  1.2098
 1547SOL    HW216275   2.262   2.297   6.329 -1.7970  0.5393  0.0037
 1548SOL     OW16276   0.373   0.607  10.556  0.0896 -0.2811  0.3259
 1548SOL    HW116277   0.365   0.673  10.488 -1.0685  0.1860  0.9222
 1548SOL    HW216278   0.375   0.658  10.637  0.4904 -1.2297  0.9189
 1549SOL     OW16279   2.203   1.408   2.837 -0.0021 -0.0824  0.0479
 1549SOL    HW116280   2.275   1.383   2.895  0.7154 -0.6004 -1.0694
 1549SOL    HW216281   2.236   1.496   2.820  0.4679 -0.4879 -1.2076
 1550SOL     OW16282   0.496   4.005   9.316  0.5166  0.2229  0.2207
 1550SOL    HW116283   0.492   4.094   9.351  2.9164 -0.3058  1.8406
 1550SOL    HW216284   0.415   3.961   9.340  0.5692  0.6702  1.1930
 1551SOL     OW16285   0.354   1.822   7.451 -0.0327 -0.0913 -0.3489
 1551SOL    HW116286   0.398   1.742   7.423  0.5936  1.0219 -2.5862
 1551SOL    HW216287   0.379   1.842   7.541 -1.6424  0.9643 -0.1244
 1552SOL     OW16288   3.363   2.506   6.376  0.0473  0.6012  0.0440
 1552SOL    HW116289   3.315   2.511   6.458 -0.0498 -0.1815  0.0391
 1552SOL    HW216290   3.349   2.413   6.360  0.7805  0.9283 -2.5291
 1553SOL     OW16291   2.784   0.346   7.540 -0.3735  0.1549 -0.2223
 1553SOL    HW116292   2.872   0.373   7.515  0.9441 -4.1970 -0.3605
 1553SOL    HW216293   2.752   0.396   7.466  1.5485  2.5086  0.5238
 1554SOL     OW16294   4.344   0.963   3.267  0.4973  0.1617 -0.3818
 1554SOL    HW116295   4.274   0.921   3.317  1.7735 -1.2433  0.2465
 1554SOL    HW216296   4.301   0.974   3.183  0.7534 -0.5984 -0.6179
 1555SOL     OW16297   4.243   0.558   2.293  0.1393  0.8509  0.0280
 1555SOL    HW116298   4.269   0.495   2.360  0.5155  0.5729 -0.3762
 1555SOL    HW216299   4.312   0.549   2.227  0.6907 -1.1507  0.8690
 1556SOL     OW16300   0.617   3.900   1.492  0.3806 -0.9677  0.2377
 1556SOL    HW116301   0.541   3.852   1.523  1.3548 -1.9163  1.1669
 1556SOL    HW216302   0.631   3.968   1.558 -0.2404  1.1601 -1.8117
 1557SOL     OW16303   3.086   4.477   6.200  0.0898 -0.2850 -0.2297
 1557SOL    HW116304   3.022   4.460   6.269  1.4619  0.1987  1.1579
 1557SOL    HW216305   3.054   4.563   6.173  2.1881  0.9780  1.2835
 1558SOL     OW16306   2.286   2.472  16.129 -0.3403 -0.1274  0.2067
 1558SOL    HW116307   2.364   2.457  16.183 -0.2265 -0.3335 -0.0165
 1558SOL    HW216308   2.321   2.538  16.069 -3.2107  0.2311 -1.0553
 1559SOL     OW16309   1.105   4.649  17.179 -0.0945 -0.6004  0.0709
 1559SOL    HW116310   1.070   4.709  17.112  0.6100  1.0618  1.1986
 1559SOL    HW216311   1.200   4.655  17.174 -0.0182 -2.8955 -1.0327
 1560SOL     OW16312   0.929   2.862   6.639  0.1633  0.1201  0.5609
 1560SOL    HW116313   0.863   2.932   6.637  0.7312  0.6530  0.7260
 1560SOL    HW216314   0.883   2.793   6.591  0.6733 -0.1775  0.5017
 1561SOL     OW16315   4.211   2.216   5.541  0.1391 -0.0370  0.4818
 1561SOL    HW116316   4.214   2.290   5.602 -1.6847  0.4495 -0.0093
 1561SOL    HW216317   4.137   2.168   5.579 -0.8226  0.0897 -1.2153
 1562SOL     OW16318   3.948   4.640   8.383  0.3275 -0.4171  0.1641
 1562SOL    HW116319   3.856   4.666   8.379  0.0099 -1.5740 -0.0163
 1562SOL    HW216320   3.955   4.554   8.343 -0.8335  0.0342 -0.9961
 1563SOL     OW16321   1.641   4.575  12.950  0.3562 -0.2607 -0.2474
 1563SOL    HW116322   1.724   4.529  12.963 -0.0164 -1.2235 -1.3152
 1563SOL    HW216323   1.617   4.628  13.026 -0.5799 -1.7754  0.4983
 1564SOL     OW16324   3.093   1.870  15.435 -0.0550 -0.3515  0.2053
 1564SOL    HW116325   3.042   1.794  15.461  1.6602 -1.6983 -0.3701
 1564SOL    HW216326   3.097   1.862  15.340  2.5960  0.7821  0.2212
 1565SOL     OW16327   1.987   1.522   5.542 -0.8092  0.4833 -0.8391
 1565SOL    HW116328   2.039   1.461   5.594  0.9060  0.7417 -2.2448
 1565SOL    HW216329   2.039   1.516   5.462 -0.8595  0.5268 -0.8755
 1566SOL     OW16330   1.559   3.347  11.005 -0.4956  0.0342 -0.1755
 1566SOL    HW116331   1.601   3.327  11.089  2.4236 -0.4406 -1.7448
 1566SOL    HW216332   1.588   3.436  10.985  2.2164 -1.7195 -3.9891
 1567SOL     OW16333   1.357   3.121   1.008 -0.3457 -0.2750 -0.1868
 1567SOL    HW116334   1.383   3.063   0.937  1.2516 -0.1458  0.2906
 1567SOL    HW216335   1.430   3.117   1.070 -2.4569 -1.5527  2.2066
 1568SOL     OW16336   2.218   2.768  17.429  0.3037  0.6178 -0.1143
 1568SOL    HW116337   2.287   2.702  17.423  0.3107  0.6498 -0.3703
 1568SOL    HW216338   2.178   2.770  17.343 -0.2104  0.5659  0.1211
 1569SOL     OW16339   0.730   2.532   5.006  0.3847 -0.2121 -0.3462
 1569SOL    HW116340   0.751   2.541   5.099 -1.4156  1.7096 -0.1248
 1569SOL    HW216341   0.766   2.444   4.990 -1.2617 -0.7800 -0.8918
 1570SOL     OW16342   2.439   0.526   5.446  0.4260  0.1239  0.1676
 1570SOL    HW116343   2.480   0.608   5.475  0.1789  1.1792 -2.3999
 1570SOL    HW216344   2.350   0.535   5.480  0.9772  1.5574  1.2268
 1571SOL     OW16345   4.526   3.449   2.002  0.5888  0.0636  0.1380
 1571SOL    HW116346   4.578   3.435   1.922 -0.2709  2.4130 -0.8029
 1571SOL    HW216347   4.581   3.506   2.056  1.4895  0.6567 -1.3984
 1572SOL     OW16348   2.765   0.972   7.779 -0.0656  0.5455 -0.5010
 1572SOL    HW116349   2.801   1.007   7.698  0.4451 -1.0437 -0.9597
 1572SOL    HW216350   2.837   0.991   7.839  0.5701 -2.3916 -0.3418
 1573SOL     OW16351   1.674   3.070   7.217  0.4642  0.7583  0.4587
 1573SOL    HW116352   1.748   3.016   7.247  0.2316 -0.7548 -1.6871
 1573SOL    HW216353   1.636   3.018   7.146  0.4313  2.1716 -0.5523
 1574SOL     OW16354   2.932   0.601  11.441  0.3235 -0.3559  0.4907
 1574SOL    HW116355   2.881   0.564  11.369  0.8326  1.0098 -0.5521
 1574SOL    HW216356   2.870   0.586  11.513 -2.0811  1.7916 -1.1517
 1575SOL     OW16357   1.388   0.923   6.214 -0.3021  0.6967 -0.1239
 1575SOL    HW116358   1.435   0.840   6.225 -0.5201  0.2012 -2.9317
 1575SOL    HW216359   1.444   0.970   6.153  0.5843 -0.7325 -0.4136
 1576SOL     OW16360   2.740   1.397  10.611 -0.4172 -0.1203 -0.0714
 1576SOL    HW116361   2.814   1.397  10.551  0.2737  3.5657  0.7777
 1576SOL    HW216362   2.780   1.412  10.696  0.9724  0.7344 -0.8850
 1577SOL     OW16363   1.826   0.155   8.673 -0.5851  0.0027  1.0314
 1577SOL    HW116364   1.916   0.122   8.663 -0.6714 -0.1986  0.9193
 1577SOL    HW216365   1.822   0.230   8.614 -1.2993 -0.1737  0.8552
 1578SOL     OW16366   1.326   0.757   7.891  0.1999  0.1838  0.8206
 1578SOL    HW116367   1.245   0.708   7.882  0.2296  0.8168 -2.9567
 1578SOL    HW216368   1.384   0.732   7.819 -1.3901  0.9050 -0.7217
 1579SOL     OW16369   2.961   1.979  12.585  0.1794 -0.2016  0.1160
 1579SOL    HW116370   3.056   1.985  12.574 -0.0080 -0.1226 -1.4768
 1579SOL    HW216371   2.941   2.065  12.547 -0.2653 -0.2028  0.3460
 1580SOL     OW16372   3.403   4.608  12.149 -0.0205  0.0851 -0.1289
 1580SOL    HW116373   3.330   4.598  12.210  2.4775  3.0863  3.3296
 1580SOL    HW216374   3.417   4.702  12.162  0.9647 -0.4179  2.5178
 1581SOL     OW16375   4.465   2.842   8.497 -0.0310 -0.0621 -0.0568
 1581SOL    HW116376   4.556   2.859   8.522 -0.1891  2.2336 -1.0509
 1581SOL    HW216377   4.467   2.813   8.405 -2.0922 -2.7443  0.7393
 1582SOL     OW16378   4.261   3.127   2.959 -0.6382 -0.2665 -0.0088
 1582SOL    HW116379   4.299   3.044   2.989  0.0982 -0.0849 -0.4331
 1582SOL    HW216380   4.343   3.160   2.922 -0.6732 -0.3477 -0.1604
 1583SOL     OW16381   0.587   1.122  17.175 -0.1731  0.3623 -0.0275
 1583SOL    HW116382   0.587   1.218  17.177 -2.1033  0.3747 -0.2912
 1583SOL    HW216383   0.494   1.100  17.171  0.3766 -2.2038  1.4924
 1584SOL     OW16384   1.489   3.134  11.818 -0.1472 -0.0829 -0.1257
 1584SOL    HW116385   1.505   3.218  11.776  0.6654  0.1648  0.6746
 1584SOL    HW216386   1.544   3.130  11.897 -0.6645 -0.2355  0.2280
 1585SOL     OW16387   3.070   3.869   5.093  0.2674 -0.0045  0.6293
 1585SOL    HW116388   3.136   3.937   5.103  1.6963 -1.4778  1.2861
 1585SOL    HW216389   2.996   3.900   5.040 -1.8358 -2.9503  1.8417
 1586SOL     OW16390   0.829   2.463   6.442  0.1189 -0.0265 -0.1372
 1586SOL    HW116391   0.861   2.373   6.437 -1.6352 -0.7143  0.9408
 1586SOL    HW216392   0.874   2.493   6.363  0.7026  2.4228  1.1148
 1587SOL     OW16393   2.003   0.215  14.597 -0.0217  0.9022  0.4671
 1587SOL    HW116394   1.954   0.279  14.546  1.3388  0.5792 -1.2368
 1587SOL    HW216395   1.968   0.134  14.560  0.1150  0.0882  2.0843
 1588SOL     OW16396   0.876   4.529   6.126 -0.4486  0.2095 -0.4401
 1588SOL    HW116397   0.846   4.485   6.206 -1.3470 -2.2564 -2.1604
 1588SOL    HW216398   0.969   4.546   6.143 -0.3202 -0.9082 -0.0174
 1589SOL     OW16399   3.826   2.078  16.122  0.0774 -0.0289  0.0963
 1589SOL    HW116400   3.914   2.059  16.155  0.3945 -1.2950 -1.4778
 1589SOL    HW216401   3.840   2.171  16.107  0.4053 -0.2688 -1.1116
 1590SOL     OW16402   2.678   3.979   1.494 -0.1243  0.9845  0.2499
 1590SOL    HW116403   2.669   3.981   1.589 -2.1634  0.7496  0.0552
 1590SOL    HW216404   2.662   3.886   1.478  0.1236  1.0385 -0.3250
 1591SOL     OW16405   0.069   4.014  10.124 -0.0052  0.1003 -0.3423
 1591SOL    HW116406   0.121   3.938  10.153  1.0029  1.0038  0.2237
 1591SOL    HW216407   0.023   3.974  10.051  2.9501 -0.4213 -1.9148
 1592SOL     OW16408   0.563   0.898   2.599  0.3011 -0.0274  0.1610
 1592SOL    HW116409   0.616   0.977   2.611 -0.1116  0.2175  0.4024
 1592SOL    HW216410   0.526   0.880   2.686 -1.1378  0.6807 -0.2944
 1593SOL     OW16411   2.517   2.189   1.497 -0.5181  0.1655  0.0242
 1593SOL    HW116412   2.510   2.168   1.590  0.2986  0.4453  0.1527
 1593SOL    HW216413   2.429   2.217   1.473 -1.4377 -1.8221  1.1029
 1594SOL     OW16414   2.783   0.805   7.470 -0.2854 -0.2300 -0.1712
 1594SOL    HW116415   2.750   0.859   7.398 -3.8076 -0.4693  1.2583
 1594SOL    HW216416   2.823   0.872   7.525  1.9323 -1.4339 -0.2946
 1595SOL     OW16417   1.242   0.184   9.293  0.2897 -0.1973  0.3900
 1595SOL    HW116418   1.159   0.153   9.329  0.8982 -1.9661  0.2511
 1595SOL    HW216419   1.294   0.189   9.374 -2.2085  1.2369  1.8992
 1596SOL     OW16420   1.196   4.035   2.175  0.1666  0.7032  0.5313
 1596SOL    HW116421   1.232   3.989   2.099  3.6785  0.6418  2.2550
 1596SOL    HW216422   1.177   4.122   2.138  1.0538 -0.7943 -3.4051
 1597SOL     OW16423   4.210   4.197   5.652  0.0962 -0.2383  0.2087
 1597SOL    HW116424   4.205   4.170   5.560  0.2287  1.9736 -0.4496
 1597SOL    HW216425   4.303   4.182   5.671  0.5338 -2.3199 -3.6689
 1598SOL     OW16426   4.158   2.432   5.720  0.2460  0.2539 -0.4976
 1598SOL    HW116427   4.155   2.386   5.804  4.5911 -0.9200 -0.9781
 1598SOL    HW216428   4.101   2.504   5.747  0.5168  0.8415 -1.4945
 1599SOL     OW16429   2.943   1.881   9.838 -0.5050  0.4429  0.4275
 1599SOL    HW116430   3.014   1.897   9.900  2.2410  0.3705 -2.6405
 1599SOL    HW216431   2.903   1.805   9.879 -2.8814  1.0275 -0.7983
 1600SOL     OW16432   0.037   3.996   8.559 -0.1454 -0.6589  0.1584
 1600SOL    HW116433   0.058   4.067   8.620 -1.2046 -0.7307  0.6137
 1600SOL    HW216434   0.112   4.000   8.500 -0.3067 -0.0506 -0.0068
 1601SOL     OW16435   2.474   2.003   5.092 -0.3049  0.6406  0.8273
 1601SOL    HW116436   2.536   1.931   5.084  0.0967  0.9174  1.4691
 1601SOL    HW216437   2.516   2.041   5.170  2.6971  0.7397 -0.8284
 1602SOL     OW16438   3.762   4.008   3.825 -0.4696  0.7215  0.1086
 1602SOL    HW116439   3.781   3.974   3.737  0.0760  1.8263 -0.1957
 1602SOL    HW216440   3.683   4.059   3.805 -2.3018 -1.8257  0.8602
 1603SOL     OW16441   3.514   1.163  11.447  0.1532  0.6393  0.2388
 1603SOL    HW116442   3.447   1.176  11.379 -1.7366  0.3277  2.0314
 1603SOL    HW216443   3.582   1.119  11.396 -0.7576  1.1354 -1.4054
 1604SOL     OW16444   3.265   1.953   8.356  0.0837  0.1266 -0.0640
 1604SOL    HW116445   3.232   1.867   8.381  0.1407  0.8093  2.3991
 1604SOL    HW216446   3.216   2.005   8.419 -0.4824  0.1479 -0.5211
 1605SOL     OW16447   0.690   1.448   8.529 -0.6002  0.1474  0.1357
 1605SOL    HW116448   0.708   1.504   8.454  2.1120 -0.6931  0.1522
 1605SOL    HW216449   0.776   1.429   8.567 -0.7934 -0.2659  0.3602
 1606SOL     OW16450   0.756   4.287   8.147 -1.0079  0.4721  0.0896
 1606SOL    HW116451   0.673   4.306   8.190 -1.4814 -4.5491  1.4672
 1606SOL    HW216452   0.731   4.270   8.057  0.5529  0.5871 -0.3675
 1607SOL     OW16453   2.731   0.329  13.155 -0.0304 -0.2414 -0.0291
 1607SOL    HW116454   2.798   0.267  13.125  1.0003  2.4442 -3.2732
 1607SOL    HW216455   2.769   0.372  13.232 -0.0852 -0.1363 -0.0605
 1608SOL     OW16456   4.209   1.413   3.962  0.5565 -0.1430  0.4006
 1608SOL    HW116457   4.236   1.333   3.917  1.7186  1.7867 -2.3189
 1608SOL    HW216458   4.289   1.435   4.009  1.2485 -0.4173 -0.6408
 1609SOL     OW16459   4.254   2.710   1.223  0.1471 -0.2130  0.3059
 1609SOL    HW116460   4.234   2.738   1.312  0.6808  0.0236  0.3543
 1609SOL    HW216461   4.199   2.765   1.167  0.9370 -0.7562 -1.0119
 1610SOL     OW16462   3.120   2.186   6.775 -0.1582  0.1961 -0.6016
 1610SOL    HW116463   3.209   2.152   6.768 -0.2899 -0.1268 -0.6892
 1610SOL    HW216464   3.127   2.222   6.864 -2.0112 -1.0466  0.0509
 1611SOL     OW16465   1.810   1.940  10.777 -0.4364 -0.5848 -0.4713
 1611SOL    HW116466   1.860   1.867  10.739  0.0286 -0.7567  0.4769
 1611SOL    HW216467   1.834   1.931  10.869  3.8624  0.5743 -1.4967
 1612SOL     OW16468   4.407   3.569   2.931  0.2120 -0.6185 -0.3885
 1612SOL    HW116469   4.336   3.574   2.995  3.4375  0.7674  3.0775
 1612SOL    HW216470   4.427   3.659   2.906  0.9032 -0.3759  1.0618
 1613SOL     OW16471   0.113   0.872  11.473  0.1068  0.5384 -0.2426
 1613SOL    HW116472   0.041   0.863  11.410 -0.3922 -0.3691  0.4573
 1613SOL    HW216473   0.104   0.795  11.528 -2.7637  2.2245  1.6650
 1614SOL     OW16474   0.802   1.090   8.587  0.0473  0.6835  0.0133
 1614SOL    HW116475   0.767   1.176   8.612 -1.6027  0.3292 -1.0773
 1614SOL    HW216476   0.752   1.024   8.634  0.0030  0.4169 -0.4051
 1615SOL     OW16477   2.456   2.107   1.874  0.4147  0.2046 -0.0926
 1615SOL    HW116478   2.453   2.013   1.889 -1.2051 -0.0948 -2.3209
 1615SOL    HW216479   2.454   2.141   1.964  1.7544 -2.4578  0.9226
 1616SOL     OW16480   4.057   1.418   8.891 -0.4345 -0.0559 -0.5723
 1616SOL    HW116481   4.121   1.355   8.924 -1.2950 -0.4854  0.2738
 1616SOL    HW216482   4.038   1.374   8.808 -0.8796 -2.1240  0.6258
 1617SOL     OW16483   2.695   3.582   4.296 -0.7487  0.4344  0.5733
 1617SOL    HW116484   2.622   3.539   4.341 -0.2520 -0.3476  0.6496
 1617SOL    HW216485   2.667   3.582   4.205 -1.0625 -0.1113  0.6706
 1618SOL     OW16486   3.007   1.024   7.931 -0.0874  0.0238 -0.0951
 1618SOL    HW116487   3.090   1.049   7.890 -1.6358 -0.3277 -3.4033
 1618SOL    HW216488   2.985   1.114   7.957 -2.2124 -0.0645 -1.6383
 1619SOL     OW16489   0.259   4.460   3.677  0.5256 -0.2298 -0.2105
 1619SOL    HW116490   0.262   4.412   3.594 -0.7129 -0.4858 -0.1070
 1619SOL    HW216491   0.176   4.437   3.718  0.0569  0.3882 -0.8071
 1620SOL     OW16492   0.833   3.517  10.573 -0.2219 -0.1387 -0.0045
 1620SOL    HW116493   0.785   3.598  10.557  0.9788  0.0192 -2.9430
 1620SOL    HW216494   0.799   3.503  10.661 -1.0767 -1.3447 -0.5117
 1621SOL     OW16495   2.348   1.461   8.561  0.2079 -0.8169  0.4972
 1621SOL    HW116496   2.365   1.396   8.630 -1.6134 -1.4750  0.3303
 1621SOL    HW216497   2.326   1.407   8.485  1.3906 -0.6172  0.0059
 1622SOL     OW16498   2.769   2.803   5.419 -0.0708  0.5026 -0.0884
 1622SOL    HW116499   2.705   2.797   5.348  0.5479 -2.8777 -0.3524
 1622SOL    HW216500   2.812   2.721   5.395  0.0829  0.9331 -1.3327
 1623SOL     OW16501   0.748   1.340   9.357 -0.3556  0.5365 -0.6281
 1623SOL    HW116502   0.697   1.358   9.277 -2.1283 -3.4912 -0.4238
 1623SOL    HW216503   0.802   1.418   9.368  1.8326 -1.0508 -0.3078
 1624SOL     OW16504   0.231   0.215   8.228  0.1646 -0.1646 -0.1041
 1624SOL    HW116505   0.272   0.133   8.201 -2.4395 -1.9731  1.3461
 1624SOL    HW216506   0.217   0.206   8.322 -0.2617 -1.2609 -0.2684
 1625SOL     OW16507   2.157   2.168   5.319 -0.7135 -0.1674 -0.2378
 1625SOL    HW116508   2.091   2.111   5.358  0.7910 -0.6823  1.5481
 1625SOL    HW216509   2.102   2.246   5.308 -0.4360  0.3899  2.2702
 1626SOL     OW16510   3.484   1.782  17.634  0.2695  0.0942  0.3292
 1626SOL    HW116511   3.456   1.811  17.547 -2.0158 -0.1507  0.9701
 1626SOL    HW216512   3.522   1.694  17.624 -1.9526 -0.9290  0.8504
 1627SOL     OW16513   3.464   2.622   4.412 -0.2526 -0.2671  0.5478
 1627SOL    HW116514   3.469   2.554   4.480  1.2276  0.6870  1.4155
 1627SOL    HW216515   3.513   2.570   4.348 -0.2354 -0.8082  1.0001
 1628SOL     OW16516   2.017   0.402   4.329 -0.3383 -0.6141  0.0276
 1628SOL    HW116517   1.942   0.441   4.375 -0.4032 -0.7309  0.0194
 1628SOL    HW216518   2.048   0.481   4.284  0.8517 -0.3531  1.3344
 1629SOL     OW16519   2.892   3.143  14.421 -0.5663 -0.2947 -0.1830
 1629SOL    HW116520   2.912   3.219  14.476  1.7981 -1.5257  0.6844
 1629SOL    HW216521   2.812   3.124  14.470 -0.6562  2.3073  0.7008
 1630SOL     OW16522   0.607   4.097   6.783  0.0007 -0.2622  0.4625
 1630SOL    HW116523   0.515   4.087   6.804 -0.0402 -1.6696 -0.4003
 1630SOL    HW216524   0.643   4.166   6.838  0.3001  0.0191 -0.0837
 1631SOL     OW16525   2.758   2.997  10.714  0.0746 -0.7155  0.2514
 1631SOL    HW116526   2.835   2.998  10.658  0.1024 -1.1906  0.2798
 1631SOL    HW216527   2.790   2.990  10.804 -0.9278 -0.5107  0.6325
 1632SOL     OW16528   2.971   3.527  13.874  0.2408 -0.5041 -0.3981
 1632SOL    HW116529   2.963   3.617  13.845  1.6923 -0.9749 -2.2266
 1632SOL    HW216530   3.002   3.546  13.962 -0.1685  0.6330 -0.5059
 1633SOL     OW16531   4.197   2.649   6.661 -0.3449 -0.0881 -0.2734
 1633SOL    HW116532   4.234   2.737   6.657 -0.1044 -0.2563 -1.6410
 1633SOL    HW216533   4.218   2.602   6.742  1.6353  0.1193 -0.6576
 1634SOL     OW16534   2.223   1.567   6.787 -0.1374 -0.1231 -0.2082
 1634SOL    HW116535   2.309   1.575   6.829  0.1655  1.9041 -1.2127
 1634SOL    HW216536   2.204   1.475   6.807 -0.9913 -0.4221 -2.3788
 1635SOL     OW16537   3.673   0.933   9.046  0.3563 -0.2606 -0.2756
 1635SOL    HW116538   3.589   0.929   9.000  0.8722 -0.5915 -1.2044
 1635SOL    HW216539   3.698   1.024   9.033 -2.0314  0.2999 -0.8093
 1636SOL     OW16540   0.330   2.195   1.713 -0.1663 -0.2593 -0.4073
 1636SOL    HW116541   0.301   2.246   1.636 -0.0285 -0.7088 -0.7540
 1636SOL    HW216542   0.343   2.275   1.765  3.3002 -0.4558 -0.9939
 1637SOL     OW16543   4.133   4.145  13.556  0.1086 -0.3805 -0.2976
 1637SOL    HW116544   4.052   4.193  13.573 -1.0240 -2.1708 -0.6263
 1637SOL    HW216545   4.118   4.112  13.467  3.2234 -1.6018 -0.3606
 1638SOL     OW16546   4.029   3.289  14.489  0.4531 -0.3301 -0.5981
 1638SOL    HW116547   4.062   3.342  14.562 -0.4930  0.6781 -0.9110
 1638SOL    HW216548   4.072   3.206  14.510  1.0687  0.5079  1.5346
 1639SOL     OW16549   2.529   0.722   3.654  0.7174  0.5241  0.0309
 1639SOL    HW116550   2.480   0.691   3.578  1.1397  0.8552 -0.3753
 1639SOL    HW216551   2.583   0.648   3.680 -0.7942 -0.8978 -0.9350
 1640SOL     OW16552   2.494   3.686   5.357 -0.3023 -0.0734 -0.4998
 1640SOL    HW116553   2.530   3.728   5.279 -1.3867  0.4190 -0.7329
 1640SOL    HW216554   2.470   3.760   5.412  0.5839  0.2387 -0.5318
 1641SOL     OW16555   0.829   2.942   0.417 -0.5620  0.1627  0.0059
 1641SOL    HW116556   0.907   2.995   0.433 -1.7210  1.4648  1.3146
 1641SOL    HW216557   0.773   2.964   0.492  0.1533  2.2511 -0.0723
 1642SOL     OW16558   2.263   3.749   8.842  0.1699  0.2975  0.5167
 1642SOL    HW116559   2.345   3.713   8.808  0.3115 -0.2623  1.4370
 1642SOL    HW216560   2.281   3.835   8.879 -0.7392  0.7985 -0.2032
 1643SOL     OW16561   1.230   2.817   4.083  0.2931  0.4605 -0.4813
 1643SOL    HW116562   1.175   2.891   4.058 -0.9133  0.0945  1.0789
 1643SOL    HW216563   1.166   2.750   4.107  0.5535  0.4927  0.3128
 1644SOL     OW16564   2.094   0.971   1.994 -0.4185 -0.1188 -0.5145
 1644SOL    HW116565   2.090   0.896   1.935 -1.6478 -0.4071 -0.0732
 1644SOL    HW216566   2.017   1.014   1.956 -1.5330 -1.7021 -0.0079
 1645SOL     OW16567   4.572   2.935   3.604 -0.5653 -0.1765  0.1069
 1645SOL    HW116568   4.497   2.954   3.662 -0.1500 -1.7778  1.1808
 1645SOL    HW216569   4.652   2.927   3.656  0.3165 -1.0943 -1.3952
 1646SOL     OW16570   4.687   0.588   0.037  0.7534  0.0218  0.2059
 1646SOL    HW116571   4.658   0.601  17.696 -0.7374 -0.9052  0.5662
 1646SOL    HW216572   4.602   0.567   0.075  0.5454 -2.2957 -1.5900
 1647SOL     OW16573   2.230   3.673   5.134  0.0369  0.4314 -0.0127
 1647SOL    HW116574   2.295   3.741   5.117  1.5690 -1.7190 -2.6163
 1647SOL    HW216575   2.208   3.663   5.042  0.7086 -1.9586  0.1070
 1648SOL     OW16576   3.012   0.314  17.483  0.2359  0.3890  0.4460
 1648SOL    HW116577   2.967   0.310  17.399  0.2940  0.1001  0.4279
 1648SOL    HW216578   2.975   0.395  17.517  0.6876 -0.1789  2.3183
 1649SOL     OW16579   3.270   3.599   9.250  0.1035 -0.2471 -0.0461
 1649SOL    HW116580   3.289   3.611   9.343 -0.5372  1.8969 -0.2055
 1649SOL    HW216581   3.183   3.639   9.239 -0.5585 -1.6871 -0.1677
 1650SOL     OW16582   0.083   0.804  15.793 -0.3264 -0.1575 -0.1190
 1650SOL    HW116583   0.125   0.863  15.730  1.1076 -0.7656  0.2569
 1650SOL    HW216584   0.027   0.874  15.826  0.4050  0.7033 -0.6834
 1651SOL     OW16585   0.246   4.467   6.774  0.4115  0.2888  0.3784
 1651SOL    HW116586   0.329   4.507   6.797  0.5903  0.9003 -1.3681
 1651SOL    HW216587   0.187   4.535   6.806 -0.2672  0.1390 -0.5622
 1652SOL     OW16588   2.421   3.534   3.784 -0.2076 -0.2074  0.2882
 1652SOL    HW116589   2.464   3.518   3.700 -1.7323  1.2554 -0.7797
 1652SOL    HW216590   2.443   3.627   3.788  0.9647 -0.4319 -1.0051
 1653SOL     OW16591   3.064   3.389  12.087 -0.1612 -0.4103  0.5639
 1653SOL    HW116592   3.043   3.457  12.151  0.3863 -0.8382  1.1906
 1653SOL    HW216593   2.979   3.366  12.049  0.1674  0.8734 -0.9836
 1654SOL     OW16594   3.728   1.848   3.993  0.6350  0.2677 -0.2954
 1654SOL    HW116595   3.775   1.788   3.936 -2.1683 -1.2276 -1.0146
 1654SOL    HW216596   3.709   1.918   3.930  2.2319  1.8421  0.9713
 1655SOL     OW16597   1.634   2.188   8.699 -0.1125  0.0650 -0.4451
 1655SOL    HW116598   1.665   2.135   8.772  2.5850  0.5873 -1.2041
 1655SOL    HW216599   1.586   2.121   8.651 -0.0881 -0.7586  0.6952
 1656SOL     OW16600   4.398   2.910   3.045  0.2558  0.3257 -0.3787
 1656SOL    HW116601   4.486   2.880   3.069  0.4720  0.7714 -0.6199
 1656SOL    HW216602   4.354   2.826   3.029 -0.8704  1.0443 -1.0068
 1657SOL     OW16603   4.212   1.211  14.830  0.0317 -0.2926  0.2543
 1657SOL    HW116604   4.192   1.240  14.741  1.2479 -0.2603 -0.0008
 1657SOL    HW216605   4.144   1.254  14.883 -0.1708 -0.7642  0.3765
 1658SOL     OW16606   4.478   1.709   8.653  0.1528 -0.6173  0.3702
 1658SOL    HW116607   4.476   1.745   8.564 -2.0308 -1.1910  0.1744
 1658SOL    HW216608   4.398   1.738   8.697 -0.6005 -0.0304 -1.3738
 1659SOL     OW16609   2.212   3.438   6.953  0.3858  0.1367  0.0013
 1659SOL    HW116610   2.143   3.504   6.947  1.2321  0.9392 -0.8078
 1659SOL    HW216611   2.284   3.490   6.987 -2.0118  2.5289  1.4037
 1660SOL     OW16612   1.259   2.912  10.517 -0.0922 -0.1642  0.0976
 1660SOL    HW116613   1.208   2.939  10.441  0.3338  2.6360  0.7891
 1660SOL    HW216614   1.185   2.911  10.578 -0.3771  0.2955 -0.2473
 1661SOL     OW16615   3.452   1.078   5.469 -0.9740  0.2268  1.1019
 1661SOL    HW116616   3.390   1.128   5.415  0.5772  2.0563  1.0047
 1661SOL    HW216617   3.420   0.991   5.446  3.1898 -0.8326 -0.7978
 1662SOL     OW16618   2.914   0.810   2.324  0.2793  0.4919  0.1344
 1662SOL    HW116619   2.863   0.745   2.374 -1.8517  0.5389 -1.9709
 1662SOL    HW216620   2.911   0.770   2.237 -0.5917 -0.4437  0.5805
 1663SOL     OW16621   0.054   1.856  13.792 -0.4850 -0.0774  0.3200
 1663SOL    HW116622   4.705   1.840  13.756  0.3241 -1.0839 -1.1945
 1663SOL    HW216623   0.029   1.903  13.872 -0.8123  0.7298 -0.2630
 1664SOL     OW16624   3.280   1.105   2.760  0.1734 -0.2467 -0.4394
 1664SOL    HW116625   3.369   1.080   2.734  0.8431  1.8508 -0.2104
 1664SOL    HW216626   3.237   1.043   2.702  0.8650 -0.8739 -0.2864
 1665SOL     OW16627   4.322   4.378  12.494  0.4241 -0.1013 -0.0014
 1665SOL    HW116628   4.385   4.323  12.540  0.4077  1.2740  1.6855
 1665SOL    HW216629   4.381   4.414  12.428 -1.6868 -0.6150 -2.1583
 1666SOL     OW16630   4.033   2.582   6.423  0.6833  0.8052  0.2340
 1666SOL    HW116631   3.941   2.592   6.447  0.0227  0.1258 -1.9576
 1666SOL    HW216632   4.058   2.633   6.500 -1.3334  1.1803  0.6341
 1667SOL     OW16633   3.866   3.112   7.449 -0.0150 -0.7739 -0.2323
 1667SOL    HW116634   3.828   3.152   7.528  1.5049 -0.2879  0.2648
 1667SOL    HW216635   3.867   3.191   7.395  1.5924 -1.1263 -0.7042
 1668SOL     OW16636   1.120   2.329   9.133 -0.3729 -0.4997 -0.2884
 1668SOL    HW116637   1.206   2.335   9.174 -0.6723  0.7519  0.1561
 1668SOL    HW216638   1.061   2.320   9.208  0.3093 -0.9956  0.1864
 1669SOL     OW16639   3.797   0.355   7.264  0.3202  0.2748 -0.0303
 1669SOL    HW116640   3.851   0.349   7.184 -0.6796 -1.0800 -0.6175
 1669SOL    HW216641   3.713   0.382   7.229  0.1750  1.5301  1.3441
 1670SOL     OW16642   1.652   0.112   8.228  0.0264  0.5456  0.2323
 1670SOL    HW116643   1.633   0.098   8.321 -1.9595 -1.3702 -0.4626
 1670SOL    HW216644   1.565   0.108   8.190 -0.3908 -1.0610  1.3453
 1671SOL     OW16645   2.770   4.684  10.053 -0.4572  0.3054  0.1678
 1671SOL    HW116646   2.742   4.720   9.969 -0.2874  2.6451  1.1231
 1671SOL    HW216647   2.698   4.625  10.075 -0.7977  0.4119 -0.6632
 1672SOL     OW16648   0.920   2.171   1.002  0.4552  0.1004  0.1066
 1672SOL    HW116649   0.957   2.112   0.937  0.2526 -2.1314  2.0444
 1672SOL    HW216650   0.994   2.184   1.062 -1.2415  2.5533  1.6907
 1673SOL     OW16651   2.625   0.536   8.132 -0.1772 -0.1808  0.3339
 1673SOL    HW116652   2.668   0.597   8.071  3.4354 -0.0948  3.0044
 1673SOL    HW216653   2.705   0.492   8.161  0.1830 -1.4822 -2.5919
 1674SOL     OW16654   1.443   4.160   9.570  0.3232 -0.3886  0.0383
 1674SOL    HW116655   1.488   4.079   9.594  2.4026  1.3873  2.0221
 1674SOL    HW216656   1.509   4.228   9.579 -0.1212 -0.0599  0.7859
 1675SOL     OW16657   3.751   4.622   3.524  0.2940 -0.4375  0.3257
 1675SOL    HW116658   3.835   4.633   3.479  2.1561 -3.1719  3.1409
 1675SOL    HW216659   3.753   4.537   3.568  1.3358 -0.9317 -0.6628
 1676SOL     OW16660   4.111   1.461  15.407  0.1348  0.0493  0.6742
 1676SOL    HW116661   4.150   1.518  15.341  0.0623 -0.0401  0.5525
 1676SOL    HW216662   4.162   1.382  15.386 -1.5399  0.0575 -3.5631
 1677SOL     OW16663   2.682   0.826   8.861 -0.0067  0.2362 -0.3462
 1677SOL    HW116664   2.658   0.825   8.953 -0.6007 -1.5444 -0.5252
 1677SOL    HW216665   2.713   0.913   8.834 -1.9706 -0.1381 -3.7295
 1678SOL     OW16666   1.555   4.588  13.979  0.0743 -0.2386  0.0708
 1678SOL    HW116667   1.594   4.665  13.938  3.2011 -1.4649  0.7271
 1678SOL    HW216668   1.599   4.582  14.064  0.8030 -1.4250 -0.3930
 1679SOL     OW16669   0.467   4.378   8.046  0.3783 -0.5642 -0.0745
 1679SOL    HW116670   0.402   4.309   8.034 -0.9648  0.8726 -1.0586
 1679SOL    HW216671   0.472   4.382   8.142 -1.7826 -1.9507  0.0982
 1680SOL     OW16672   1.979   1.835   6.429  0.2220 -0.4635  0.1985
 1680SOL    HW116673   1.955   1.820   6.338 -1.9932  0.8851  0.5565
 1680SOL    HW216674   2.030   1.914   6.412  1.2321 -1.4360 -1.2676
 1681SOL     OW16675   1.058   0.790   5.914  0.2301  0.4444  0.3364
 1681SOL    HW116676   1.092   0.845   5.985  1.2456  0.6798 -0.3269
 1681SOL    HW216677   1.083   0.713   5.964  1.6488  0.1382 -0.8406
 1682SOL     OW16678   1.006   2.687   7.228 -0.0499  0.4945  0.0892
 1682SOL    HW116679   0.934   2.746   7.249 -0.6015 -0.0124 -0.3689
 1682SOL    HW216680   0.995   2.619   7.295 -1.4114  0.3768 -0.2580
 1683SOL     OW16681   3.750   4.553   4.102 -0.0338  0.3826  1.4418
 1683SOL    HW116682   3.772   4.514   4.018  0.2545  1.2854  1.0974
 1683SOL    HW216683   3.697   4.485   4.144 -1.4732  0.4641 -0.2858
 1684SOL     OW16684   1.858   2.934   0.151  0.6138 -0.0601  0.4103
 1684SOL    HW116685   1.794   2.893   0.210 -0.1244  1.9035  0.9857
 1684SOL    HW216686   1.889   2.858   0.102  2.6369  1.3692 -0.5373
 1685SOL     OW16687   2.113   2.970   6.198  0.2505 -0.1088 -0.9025
 1685SOL    HW116688   2.072   3.033   6.257  0.1498 -1.5297  0.5419
 1685SOL    HW216689   2.040   2.919   6.163 -0.6735  0.7779 -0.2699
 1686SOL     OW16690   2.953   4.036   8.135 -0.4008  0.2546 -0.7812
 1686SOL    HW116691   2.859   4.033   8.151 -0.3220 -0.5792 -0.5109
 1686SOL    HW216692   2.977   4.129   8.132  2.6186 -0.4537  0.7314
 1687SOL     OW16693   0.231   0.643  13.724  0.5371 -0.0602 -0.3918
 1687SOL    HW116694   0.166   0.657  13.794  0.2149 -4.2381  0.1353
 1687SOL    HW216695   0.201   0.552  13.721  1.8239 -0.4850 -0.2408
 1688SOL     OW16696   2.261   2.572   5.056  0.0940  0.3939 -0.0673
 1688SOL    HW116697   2.183   2.601   5.103  0.7715  0.9003  0.7489
 1688SOL    HW216698   2.229   2.487   5.026 -1.1334  1.1673 -0.9688
 1689SOL     OW16699   0.424   4.598   8.677 -0.2697  0.1726  0.1551
 1689SOL    HW116700   0.489   4.633   8.738 -1.4891 -1.4984  2.3818
 1689SOL    HW216701   0.353   4.654   8.710  0.0261  2.1831 -2.5620
 1690SOL     OW16702   4.504   1.127   6.621 -0.2102  0.2596  0.2416
 1690SOL    HW116703   4.565   1.099   6.689  0.0749  0.9359  0.2628
 1690SOL    HW216704   4.510   1.047   6.570 -1.2330  0.7930 -0.7075
 1691SOL     OW16705   2.263   2.582   5.396 -0.1428  0.0871 -0.8254
 1691SOL    HW116706   2.233   2.640   5.465 -1.1691 -0.1388 -1.0882
 1691SOL    HW216707   2.198   2.592   5.327  0.5790  2.5733 -1.1539
 1692SOL     OW16708   3.408   1.626  12.580 -0.1878  0.1412  0.0309
 1692SOL    HW116709   3.422   1.583  12.664 -1.8755 -0.9687 -0.2620
 1692SOL    HW216710   3.390   1.552  12.522 -0.0950  1.1496 -1.2853
 1693SOL     OW16711   4.698   1.588   4.571  0.0957  0.2064  0.2382
 1693SOL    HW116712   4.655   1.541   4.642  0.1750 -0.2014  0.0136
 1693SOL    HW216713   4.622   1.607   4.516  1.0357  0.5621 -0.9541
 1694SOL     OW16714   0.101   1.093  14.572 -0.2886 -0.3433  0.5513
 1694SOL    HW116715   0.159   1.048  14.511  0.0395 -0.0429  0.6377
 1694SOL    HW216716   0.059   1.156  14.513 -1.4863 -0.2425  1.5016
 1695SOL     OW16717   3.586   1.774   9.177  0.0724 -0.3073 -0.3008
 1695SOL    HW116718   3.647   1.829   9.227  0.2872  0.1236 -1.0417
 1695SOL    HW216719   3.642   1.697   9.167 -0.1643 -0.2097 -2.2912
 1696SOL     OW16720   0.912   1.008   6.984 -0.0813  0.6489 -0.0576
 1696SOL    HW116721   0.838   0.972   6.935 -0.0717  1.2006 -0.4784
 1696SOL    HW216722   0.876   1.078   7.039 -1.7403 -0.2057 -0.0478
 1697SOL     OW16723   1.444   1.344   7.583  0.5704 -0.4599 -0.0238
 1697SOL    HW116724   1.493   1.328   7.502 -1.7060 -0.5924 -1.3770
 1697SOL    HW216725   1.435   1.439   7.579 -0.6789 -0.5594  0.3838
 1698SOL     OW16726   2.605   4.001   5.024  0.0464 -0.2466 -0.6800
 1698SOL    HW116727   2.569   4.000   5.112  0.7452  2.0001 -0.3819
 1698SOL    HW216728   2.687   4.048   5.042  0.2258 -1.5824  2.0137
 1699SOL     OW16729   2.894   0.508   1.703  0.1723 -0.3794  0.2822
 1699SOL    HW116730   2.967   0.569   1.711  0.7293 -1.2029  1.3812
 1699SOL    HW216731   2.928   0.430   1.658 -1.6867  0.3081 -2.2970
 1700SOL     OW16732   0.179   4.207   3.034 -0.0033  0.2351 -0.3477
 1700SOL    HW116733   0.190   4.164   3.119 -0.3663  0.4837 -0.1742
 1700SOL    HW216734   0.147   4.137   2.978 -1.1292  0.5126 -0.0588
 1701SOL     OW16735   0.199   3.955   2.081  0.4079 -0.0104  0.4646
 1701SOL    HW116736   0.259   3.955   2.006  0.0298  1.2367  0.1531
 1701SOL    HW216737   0.146   3.878   2.058 -0.6351  0.2464  2.0256
 1702SOL     OW16738   3.335   1.149   6.239  0.2620 -0.4271 -0.4485
 1702SOL    HW116739   3.357   1.056   6.246 -0.1735 -0.6472 -1.8675
 1702SOL    HW216740   3.424   1.182   6.223  0.4698  0.2778  2.3024
 1703SOL     OW16741   0.956   2.611   0.094  0.3262  0.0090 -0.0871
 1703SOL    HW116742   0.911   2.648   0.170 -0.3967 -0.6127 -0.2077
 1703SOL    HW216743   0.907   2.531   0.076  0.7835  0.2655 -2.5359
 1704SOL     OW16744   0.520   1.531   0.105  0.1342 -0.7114  0.1845
 1704SOL    HW116745   0.570   1.572   0.176  1.4550  0.1543 -1.2471
 1704SOL    HW216746   0.591   1.497   0.050  1.9446 -0.3270  2.2825
 1705SOL     OW16747   0.718   3.339   4.266 -0.2201  0.0352  0.4676
 1705SOL    HW116748   0.660   3.390   4.323  0.5497 -1.0429  2.2205
 1705SOL    HW216749   0.667   3.260   4.244 -0.5231  0.4075 -0.1641
 1706SOL     OW16750   1.716   4.158   7.011  0.2729 -0.7024  0.1128
 1706SOL    HW116751   1.626   4.165   7.043  0.0166  0.9930 -0.9783
 1706SOL    HW216752   1.745   4.102   7.083  1.9243 -0.7074 -0.5659
 1707SOL     OW16753   0.942   3.445   4.144  0.3343 -0.5571 -0.0419
 1707SOL    HW116754   0.920   3.536   4.164 -0.2074 -0.3330 -1.6521
 1707SOL    HW216755   0.867   3.408   4.189  0.0148 -0.7194 -0.7047
 1708SOL     OW16756   2.632   2.772   2.466 -0.3414 -0.3220 -0.1795
 1708SOL    HW116757   2.689   2.768   2.389  0.4653  3.3543  0.2121
 1708SOL    HW216758   2.680   2.706   2.516  1.1914  0.9668  0.0669
 1709SOL     OW16759   2.896   2.273   7.067  0.0840  0.7548 -0.1959
 1709SOL    HW116760   2.977   2.304   7.028  0.6916 -2.2896 -1.3237
 1709SOL    HW216761   2.863   2.343   7.123  0.9346  0.9895  0.0162
 1710SOL     OW16762   2.082   3.248  10.649  0.0229  0.1554 -0.0683
 1710SOL    HW116763   2.161   3.250  10.594 -0.4328  2.1673 -0.6476
 1710SOL    HW216764   2.052   3.339  10.645  0.3150  0.1935 -1.5051
 1711SOL     OW16765   3.168   1.060  12.063  0.4256 -0.4923 -0.5632
 1711SOL    HW116766   3.142   1.120  12.133  0.7629 -0.3640 -0.5461
 1711SOL    HW216767   3.084   1.048  12.020 -1.1152  1.6912  1.8546
 1712SOL     OW16768   1.077   2.168   2.154 -0.1139 -0.3036 -0.2337
 1712SOL    HW116769   1.164   2.143   2.123  0.2448 -0.5356  0.9717
 1712SOL    HW216770   1.068   2.263   2.147 -1.0948 -0.3640  0.2087
 1713SOL     OW16771   1.864   4.186   9.852 -0.1011 -0.2647  0.4081
 1713SOL    HW116772   1.807   4.208   9.779 -1.9184 -1.9773  1.3083
 1713SOL    HW216773   1.941   4.150   9.807  0.2640  0.1713  0.6820
 1714SOL     OW16774   1.164   1.239  14.043  0.1224  0.5482  0.0754
 1714SOL    HW116775   1.209   1.232  14.127 -0.3970 -2.1836  0.1414
 1714SOL    HW216776   1.075   1.251  14.076  0.6572  1.6201  1.1008
 1715SOL     OW16777   0.499   3.598   7.839  0.4633 -0.4279 -0.0718
 1715SOL    HW116778   0.409   3.568   7.828  0.3141 -0.8077  2.2825
 1715SOL    HW216779   0.517   3.619   7.747  1.3041  0.7155  0.3530
 1716SOL     OW16780   3.364   1.780   5.984 -0.0363  0.1711  0.1204
 1716SOL    HW116781   3.397   1.839   5.916 -0.8683  0.9317  0.3842
 1716SOL    HW216782   3.275   1.809   6.003  0.6426  0.0408  3.6557
 1717SOL     OW16783   3.335   1.548   8.249  0.3054 -0.0924  0.2443
 1717SOL    HW116784   3.422   1.582   8.270 -0.1238  0.9226  0.3750
 1717SOL    HW216785   3.309   1.610   8.181 -0.6235 -0.1933  0.5200
 1718SOL     OW16786   0.754   1.037   4.543 -0.5220 -0.4968 -0.5497
 1718SOL    HW116787   0.839   1.037   4.499  0.0063  3.9410  0.4909
 1718SOL    HW216788   0.776   1.074   4.629 -0.2566 -0.6487 -0.5538
 1719SOL     OW16789   3.487   4.651   9.819  0.4173 -0.2197  0.3289
 1719SOL    HW116790   3.402   4.696   9.815  0.6235  0.1861  0.5690
 1719SOL    HW216791   3.473   4.621   9.909  0.9684  0.6712  0.7132
 1720SOL     OW16792   0.694   0.119   1.848 -0.1289 -0.3155 -0.6177
 1720SOL    HW116793   0.746   0.102   1.769  0.7119 -0.3193 -0.0632
 1720SOL    HW216794   0.609   0.143   1.813 -1.7487 -3.1380  1.3889
 1721SOL     OW16795   2.868   2.656   6.751 -0.7645  0.2197 -0.0136
 1721SOL    HW116796   2.847   2.608   6.831  0.6109 -1.2184 -0.5089
 1721SOL    HW216797   2.962   2.641   6.741 -0.5542  1.7745 -0.2618
 1722SOL     OW16798   1.770   1.917   8.280  0.9079  0.3556 -0.0639
 1722SOL    HW116799   1.715   1.838   8.281 -0.5053  1.3492 -0.0695
 1722SOL    HW216800   1.781   1.912   8.375  0.5426  1.1888  0.0209
 1723SOL     OW16801   0.244   3.369  16.291  0.1303  0.0656 -0.2235
 1723SOL    HW116802   0.212   3.369  16.200 -2.5129 -0.5614  0.7107
 1723SOL    HW216803   0.262   3.462  16.297  1.0768 -0.2807  2.1332
 1724SOL     OW16804   3.272   4.614   0.630  0.1660  0.2142  0.3549
 1724SOL    HW116805   3.299   4.538   0.680  0.6783  0.6738  0.7781
 1724SOL    HW216806   3.314   4.591   0.548  1.1709 -0.1310  0.9659
 1725SOL     OW16807   1.479   4.703   1.440 -0.4792 -0.0077 -0.2411
 1725SOL    HW116808   1.531   4.641   1.389  1.2355  0.3491  1.0370
 1725SOL    HW216809   1.540   0.037   1.456  0.6114 -1.1294  0.6619
 1726SOL     OW16810   0.911   0.646   6.711  0.3125  0.0145 -0.0930
 1726SOL    HW116811   0.874   0.670   6.626  1.2980 -0.5270 -0.6833
 1726SOL    HW216812   0.974   0.717   6.727 -0.8304  1.1775 -0.7746
 1727SOL     OW16813   3.756   0.929   4.746 -0.1533 -0.1606  0.1061
 1727SOL    HW116814   3.773   0.878   4.825 -1.4918  0.8743  1.0521
 1727SOL    HW216815   3.806   1.007   4.771  1.6722 -1.4930  0.6059
 1728SOL     OW16816   0.689   2.262   2.940 -0.5366 -0.3613 -0.2084
 1728SOL    HW116817   0.603   2.230   2.968 -0.8620 -0.5074 -1.3786
 1728SOL    HW216818   0.659   2.339   2.891 -1.3712  0.1181  1.0553
 1729SOL     OW16819   2.769   2.259   5.661 -0.7595  0.1553 -0.6406
 1729SOL    HW116820   2.741   2.336   5.612  1.5566 -0.0169 -2.2100
 1729SOL    HW216821   2.685   2.220   5.688  0.3364 -1.0787  1.0231
 1730SOL     OW16822   1.899   0.801   4.919 -0.2731  0.7668  0.5213
 1730SOL    HW116823   1.870   0.809   5.010  2.3150  3.8682  1.0826
 1730SOL    HW216824   1.843   0.864   4.875 -0.9952 -1.0935 -1.2406
 1731SOL     OW16825   2.531   0.805   4.547 -0.3494  0.2929 -0.4730
 1731SOL    HW116826   2.441   0.818   4.518 -0.6833 -0.1842  0.3591
 1731SOL    HW216827   2.526   0.771   4.636  1.4834 -1.0344 -0.8780
 1732SOL     OW16828   3.606   0.884   2.319  0.7145 -0.0191 -0.3857
 1732SOL    HW116829   3.545   0.827   2.366 -1.7286  3.1932  0.3685
 1732SOL    HW216830   3.577   0.962   2.366  1.9462  0.1962  0.0098
 1733SOL     OW16831   4.664   4.036   6.811  0.4883  0.0295  0.6663
 1733SOL    HW116832   0.005   4.064   6.857  1.4915 -1.3496 -0.1936
 1733SOL    HW216833   4.637   4.110   6.756 -0.2725  0.2167  1.2968
 1734SOL     OW16834   2.064   1.028  16.791  0.3760  0.3315  0.1797
 1734SOL    HW116835   2.038   1.073  16.871 -0.0541 -0.4806  0.4860
 1734SOL    HW216836   1.987   1.039  16.736 -0.2569  2.5362  1.4745
 1735SOL     OW16837   1.322   1.380  17.361 -0.1493 -0.0315  0.3018
 1735SOL    HW116838   1.366   1.306  17.403  1.1658  0.4167 -0.2867
 1735SOL    HW216839   1.260   1.329  17.309 -0.1840  0.4320 -0.1199
 1736SOL     OW16840   0.554   4.215   1.039  0.4345 -0.1310  0.9435
 1736SOL    HW116841   0.542   4.307   1.062  1.2593 -0.1697  1.5292
 1736SOL    HW216842   0.467   4.199   1.003  0.2078  0.9663  1.0075
 1737SOL     OW16843   0.525   4.066   3.023 -0.0030  0.7841 -0.4134
 1737SOL    HW116844   0.448   4.025   2.984 -1.3560  0.0101  3.1104
 1737SOL    HW216845   0.548   4.129   2.954  3.3778 -1.9436 -1.7771
 1738SOL     OW16846   0.972   0.023  17.652 -0.7666 -0.2343  0.3498
 1738SOL    HW116847   1.007   0.091  17.595 -1.0185  0.2124  0.7223
 1738SOL    HW216848   0.986   0.073  17.733  2.2595 -1.8855  0.8143
 1739SOL     OW16849   1.873   1.727   5.920  0.3885 -0.1594  0.0335
 1739SOL    HW116850   1.883   1.732   5.825  1.4952  0.5330  0.1880
 1739SOL    HW216851   1.806   1.794   5.931  0.4575 -0.2068  0.7009
 1740SOL     OW16852   1.270   4.038   7.112 -0.1848 -0.2190 -0.5045
 1740SOL    HW116853   1.250   3.956   7.067 -1.4140  0.2695 -0.8465
 1740SOL    HW216854   1.197   4.048   7.173 -1.2007  0.2052 -1.7827
 1741SOL     OW16855   1.158   2.841   2.578  0.2891  0.3033 -0.0123
 1741SOL    HW116856   1.208   2.794   2.511  2.6215  1.7081  0.7633
 1741SOL    HW216857   1.230   2.857   2.638 -1.4479 -4.5541  3.3395
 1742SOL     OW16858   3.676   1.072  17.502 -0.3489 -0.0544  0.6308
 1742SOL    HW116859   3.609   1.012  17.536 -1.1109  1.7938  2.4124
 1742SOL    HW216860   3.743   1.062  17.570  2.5339  2.3245 -1.8720
 1743SOL     OW16861   0.255   0.855  17.252 -0.1240  0.4714 -0.2382
 1743SOL    HW116862   0.194   0.917  17.291 -0.2304  1.2771 -1.7063
 1743SOL    HW216863   0.264   0.885  17.162 -0.1834 -1.1306 -0.7782
 1744SOL     OW16864   4.320   2.210   6.261  0.2586  0.3199 -0.4464
 1744SOL    HW116865   4.264   2.168   6.327 -1.0146  2.6165 -0.0827
 1744SOL    HW216866   4.344   2.138   6.203  0.7477 -0.3890  0.6173
 1745SOL     OW16867   4.488   4.053   8.387  0.3774 -0.7789  0.2078
 1745SOL    HW116868   4.557   4.103   8.342  1.4081 -1.9888  0.4254
 1745SOL    HW216869   4.404   4.093   8.367  1.3539  2.9061  3.6314
 1746SOL     OW16870   1.861   2.527   5.855  0.0564  0.3606 -0.0426
 1746SOL    HW116871   1.800   2.508   5.784 -0.7525 -1.4763  1.1227
 1746SOL    HW216872   1.936   2.569   5.813  0.3418 -0.8398 -0.7339
 1747SOL     OW16873   1.743   3.072  13.925  0.6132 -0.6901  0.1399
 1747SOL    HW116874   1.822   3.054  13.874  1.6952 -0.6570  1.8231
 1747SOL    HW216875   1.750   3.163  13.954  1.1577 -0.3436 -1.0573
 1748SOL     OW16876   0.447   2.593  16.033  0.5076 -0.0203  0.2767
 1748SOL    HW116877   0.506   2.656  15.993 -0.6864  0.8546 -0.0917
 1748SOL    HW216878   0.472   2.598  16.125 -1.2700  0.6749  0.7356
 1749SOL     OW16879   2.218   2.921  14.218  0.2916 -0.4896 -0.0761
 1749SOL    HW116880   2.304   2.912  14.258 -0.3446  0.4831  1.5215
 1749SOL    HW216881   2.176   2.915  14.304  0.7852 -0.7776  0.1429
 1750SOL     OW16882   4.087   2.309   6.787 -0.1959 -0.0760 -0.2751
 1750SOL    HW116883   4.145   2.326   6.713 -0.5391 -0.2151 -0.5761
 1750SOL    HW216884   4.139   2.360   6.848  1.3413 -2.7466  0.6640
 1751SOL     OW16885   1.318   1.842   4.800 -0.1944  0.2651  0.2122
 1751SOL    HW116886   1.242   1.876   4.847 -1.3042  0.4683 -1.7468
 1751SOL    HW216887   1.268   1.790   4.739  1.3622 -0.6681 -0.2650
 1752SOL     OW16888   0.518   2.621  13.258  0.3290  0.8493 -0.0506
 1752SOL    HW116889   0.441   2.606  13.313 -1.0618  1.3533 -1.8871
 1752SOL    HW216890   0.584   2.591  13.321  2.7658  0.6233 -2.6941
 1753SOL     OW16891   2.006   3.470   7.597  0.1649  0.4461 -0.0815
 1753SOL    HW116892   2.005   3.383   7.557 -2.1753 -0.1876  1.3189
 1753SOL    HW216893   1.934   3.457   7.660  0.2624 -0.2133 -0.0983
 1754SOL     OW16894   3.025   3.367   5.868  0.1870 -0.3550 -0.7575
 1754SOL    HW116895   2.939   3.405   5.888  0.7917  0.8494 -0.4741
 1754SOL    HW216896   2.998   3.279   5.840 -0.2004 -0.9353  1.4066
 1755SOL     OW16897   2.224   1.914   0.630 -0.4321  0.3539 -0.0687
 1755SOL    HW116898   2.308   1.884   0.595 -0.3168 -1.1061  1.4292
 1755SOL    HW216899   2.209   1.995   0.582 -0.3964  1.6248  2.0518
 1756SOL     OW16900   2.531   2.522  12.832  0.5854  0.0350 -0.3664
 1756SOL    HW116901   2.539   2.577  12.911 -1.4429 -0.8693  0.4679
 1756SOL    HW216902   2.483   2.583  12.776  2.2062  0.4929 -1.2702
 1757SOL     OW16903   2.755   4.522   9.663  0.2887 -0.1480  0.1385
 1757SOL    HW116904   2.740   4.540   9.570  0.0278  0.2015  0.2492
 1757SOL    HW216905   2.776   4.606   9.702  3.1655  0.8234 -3.5916
 1758SOL     OW16906   2.468   2.916   9.818  0.0507 -0.2442  0.1988
 1758SOL    HW116907   2.461   2.822   9.835  0.3023 -0.4462 -0.7527
 1758SOL    HW216908   2.536   2.940   9.881  0.4140  0.1981 -0.3555
 1759SOL     OW16909   0.626   3.863   5.336  0.4472 -0.7177 -0.6165
 1759SOL    HW116910   0.558   3.822   5.282  1.1653  0.4741 -2.4459
 1759SOL    HW216911   0.643   3.938   5.279 -1.0639  1.2020  1.4680
 1760SOL     OW16912   1.838   3.550   8.308  0.4264 -0.1590 -0.1500
 1760SOL    HW116913   1.866   3.461   8.328 -2.3542 -1.2299 -1.1416
 1760SOL    HW216914   1.844   3.544   8.212 -1.1987  0.0605 -0.2595
 1761SOL     OW16915   1.121   0.871  14.693  0.0489 -0.0316 -0.1488
 1761SOL    HW116916   1.128   0.815  14.615 -2.3646 -1.6878  0.8125
 1761SOL    HW216917   1.213   0.897  14.699 -0.1206  0.8070 -1.1125
 1762SOL     OW16918   0.009   2.594   2.713 -0.4214  0.5640 -0.1890
 1762SOL    HW116919   4.735   2.678   2.759 -0.7457 -0.4888  1.6383
 1762SOL    HW216920   4.680   2.586   2.644  1.9133 -1.2406 -2.2618
 1763SOL     OW16921   3.346   1.533  11.329 -0.4382  0.6651  0.0936
 1763SOL    HW116922   3.297   1.462  11.369  1.3958  0.6144  2.2120
 1763SOL    HW216923   3.381   1.582  11.403 -2.0566  1.3034  0.4249
 1764SOL     OW16924   3.685   4.354  12.761  0.1943  0.2449 -0.1708
 1764SOL    HW116925   3.634   4.275  12.773  1.6716 -0.7786 -0.5992
 1764SOL    HW216926   3.774   4.319  12.763  0.5940  1.2477 -0.1323
 1765SOL     OW16927   4.250   0.438  10.841  0.1077  0.2895 -0.0684
 1765SOL    HW116928   4.342   0.444  10.866 -0.1922 -0.3880  1.1743
 1765SOL    HW216929   4.244   0.511  10.779 -0.7808  0.2985  0.0337
 1766SOL     OW16930   1.989   2.885   2.375  0.2266  0.1309  0.2355
 1766SOL    HW116931   1.989   2.811   2.314 -0.6048 -0.2713  0.7252
 1766SOL    HW216932   2.006   2.955   2.313  1.3006 -0.2544  0.0890
 1767SOL     OW16933   2.130   4.656   7.196  0.2233 -0.5636 -0.1021
 1767SOL    HW116934   2.095   4.580   7.149  0.0688 -0.2114 -0.5631
 1767SOL    HW216935   2.202   4.686   7.141 -0.8805 -2.3851 -2.5946
 1768SOL     OW16936   3.309   0.347   0.426 -1.0377  0.2224  0.4981
 1768SOL    HW116937   3.245   0.342   0.355 -1.1100  0.0090  0.5800
 1768SOL    HW216938   3.273   0.268   0.466 -1.1568 -1.2627 -2.5599
 1769SOL     OW16939   2.670   1.022  10.159  0.2879  0.0732 -0.5868
 1769SOL    HW116940   2.726   1.089  10.118 -0.2391  0.7246 -0.2348
 1769SOL    HW216941   2.663   1.066  10.244  3.2524 -0.7215  0.0744
 1770SOL     OW16942   0.450   3.245  11.814  0.2553  0.2034  0.4838
 1770SOL    HW116943   0.490   3.173  11.767 -0.4723 -0.5392  0.9995
 1770SOL    HW216944   0.360   3.214  11.814  0.2538  0.2032  0.7101
 1771SOL     OW16945   1.091   1.907   1.776 -0.0075  0.0686  0.5833
 1771SOL    HW116946   1.158   1.883   1.840  1.7850 -0.0897 -1.3918
 1771SOL    HW216947   1.147   1.908   1.699 -0.7435 -1.8658  0.0090
 1772SOL     OW16948   2.021   0.536   5.703  0.3088 -0.0709 -0.0027
 1772SOL    HW116949   1.984   0.585   5.777 -0.4482 -3.5347  1.9098
 1772SOL    HW216950   1.940   0.523   5.653  0.5162 -1.7542  0.0997
 1773SOL     OW16951   2.445   2.191   8.898 -0.2044  0.0548 -0.2360
 1773SOL    HW116952   2.524   2.236   8.867 -0.8848  0.7191 -1.0014
 1773SOL    HW216953   2.484   2.170   8.983 -2.0070  0.1499  0.5978
 1774SOL     OW16954   1.595   0.186  14.706  0.0110 -0.4214  0.0544
 1774SOL    HW116955   1.570   0.225  14.790 -3.1340 -0.5424 -0.8078
 1774SOL    HW216956   1.664   0.245  14.676  0.7272 -0.0423  2.5163
 1775SOL     OW16957   1.058   1.501   7.292  0.0232  0.4549 -0.4178
 1775SOL    HW116958   1.147   1.489   7.325  0.0969  2.5170  0.1659
 1775SOL    HW216959   1.056   1.444   7.216 -0.6565 -0.9357  0.6472
 1776SOL     OW16960   0.539   3.406   6.437  0.1622  0.0617 -0.2306
 1776SOL    HW116961   0.566   3.443   6.521 -0.5986  3.8253 -1.6175
 1776SOL    HW216962   0.569   3.475   6.378  0.4724  0.9780  0.9918
 1777SOL     OW16963   4.192   0.242  11.022 -0.3926  0.0700  0.2161
 1777SOL    HW116964   4.231   0.163  10.985 -0.5481 -0.4872  1.2266
 1777SOL    HW216965   4.220   0.306  10.957  0.2257  0.6025  1.0002
 1778SOL     OW16966   2.371   3.365   3.546 -0.3512  0.3636  0.2549
 1778SOL    HW116967   2.333   3.288   3.588 -0.5774  0.3331 -0.0102
 1778SOL    HW216968   2.438   3.324   3.491 -1.1340 -0.2930 -0.2004
 1779SOL     OW16969   4.543   2.333   8.976  0.0932 -0.5198  0.5036
 1779SOL    HW116970   4.455   2.358   9.002 -0.5699  0.4372 -2.7125
 1779SOL    HW216971   4.547   2.245   9.015 -0.0387  0.7517  3.3666
 1780SOL     OW16972   2.509   3.624   9.947 -0.0067 -0.0980  0.4214
 1780SOL    HW116973   2.499   3.578  10.030 -0.2849  0.0242  0.4546
 1780SOL    HW216974   2.444   3.692   9.963  2.1721  1.6303  2.0089
 1781SOL     OW16975   3.467   3.128   9.623 -0.1974 -0.7387 -0.1891
 1781SOL    HW116976   3.515   3.049   9.650 -0.6121 -0.3704  1.6390
 1781SOL    HW216977   3.376   3.102   9.633 -0.1466 -0.5360  0.8592
 1782SOL     OW16978   0.968   3.838   8.140 -0.3500 -0.3977 -0.4365
 1782SOL    HW116979   0.893   3.891   8.114 -0.9767 -1.0577  0.0322
 1782SOL    HW216980   0.932   3.779   8.206  0.3021 -0.7443 -0.3847
 1783SOL     OW16981   3.394   2.443  12.410  0.7160  0.2657 -0.0502
 1783SOL    HW116982   3.329   2.413  12.346 -0.7706  1.7203  0.7975
 1783SOL    HW216983   3.377   2.537  12.405  0.2861  0.1923  0.0116
 1784SOL     OW16984   2.889   2.307   9.277 -0.5818  0.0689 -0.4861
 1784SOL    HW116985   2.908   2.359   9.355  0.5454  0.6869 -1.1711
 1784SOL    HW216986   2.878   2.217   9.309  1.6831  0.9866  2.7673
 1785SOL     OW16987   1.339   0.018  11.702 -0.3772 -0.0380 -0.0504
 1785SOL    HW116988   1.357   0.061  11.618  0.0593  1.9978  1.0913
 1785SOL    HW216989   1.427   4.736  11.732 -0.3409 -3.6126 -2.5323
 1786SOL     OW16990   2.529   4.402   2.807 -0.3054  0.6243  0.2678
 1786SOL    HW116991   2.444   4.445   2.816 -0.9305 -0.4077 -0.6409
 1786SOL    HW216992   2.566   4.404   2.896  1.9491  0.2750 -0.6513
 1787SOL     OW16993   4.522   4.581   6.482 -0.1161 -0.1132 -0.0936
 1787SOL    HW116994   4.589   4.579   6.550  1.0537 -1.2384 -1.2767
 1787SOL    HW216995   4.577   4.565   6.406 -1.0740 -2.4057 -0.2968
 1788SOL     OW16996   3.082   2.501  10.232 -0.4975  0.5062  0.5111
 1788SOL    HW116997   3.166   2.517  10.188 -1.3005 -1.8941 -1.8675
 1788SOL    HW216998   3.028   2.566  10.188  0.4087  1.5948  0.9878
 1789SOL     OW16999   2.949   0.555  13.337 -0.4269  0.0196 -0.0102
 1789SOL    HW117000   2.985   0.624  13.393  1.4820 -1.2562  0.3344
 1789SOL    HW217001   2.929   0.609  13.260 -0.5709  0.2412  0.1823
 1790SOL     OW17002   1.688   1.123   6.361  0.0589 -0.2870 -0.2290
 1790SOL    HW117003   1.656   1.111   6.450 -1.0738 -1.7544 -0.8415
 1790SOL    HW217004   1.699   1.218   6.367  1.7100 -0.4709 -0.3002
 1791SOL     OW17005   1.269   2.317   8.888  0.1273 -0.0945  0.3656
 1791SOL    HW117006   1.200   2.338   8.952  0.1561 -1.9601  1.0202
 1791SOL    HW217007   1.228   2.245   8.840  0.9771  0.0618 -0.5767
 1792SOL     OW17008   1.111   4.539   9.286  0.5170  0.7927 -0.0817
 1792SOL    HW117009   1.062   4.563   9.364  0.2639  0.4291 -0.1261
 1792SOL    HW217010   1.113   4.443   9.288  1.7549  0.8111 -0.6891
 1793SOL     OW17011   2.676   1.771   5.891 -0.2453  0.3619  0.1894
 1793SOL    HW117012   2.581   1.780   5.895 -0.3053  0.7616 -2.0447
 1793SOL    HW217013   2.682   1.678   5.870  0.3808  0.7438 -1.3593
 1794SOL     OW17014   0.845   3.136   3.417  0.3428 -0.1397 -0.8132
 1794SOL    HW117015   0.857   3.152   3.324  2.2759 -2.4246 -0.9490
 1794SOL    HW217016   0.865   3.042   3.421  1.9928  0.2789  1.0359
 1795SOL     OW17017   3.282   0.951   9.545  0.0808 -0.5711 -0.1726
 1795SOL    HW117018   3.357   1.000   9.579 -0.4657 -0.3211  0.6736
 1795SOL    HW217019   3.288   0.968   9.451 -0.5129  0.1442 -0.0855
 1796SOL     OW17020   2.750   3.870  13.527 -0.1858 -0.3053 -0.1641
 1796SOL    HW117021   2.801   3.851  13.448  3.8524 -1.5649  2.7053
 1796SOL    HW217022   2.685   3.800  13.524 -0.8277  0.2749  0.0904
 1797SOL     OW17023   1.379   2.221   1.256 -0.1114 -0.0026  0.3402
 1797SOL    HW117024   1.421   2.201   1.340 -0.4386  0.6505  0.6536
 1797SOL    HW217025   1.421   2.155   1.201  0.0679  0.7554 -0.4097
 1798SOL     OW17026   0.105   3.977  17.026 -0.8615 -0.5391 -0.7973
 1798SOL    HW117027   0.027   3.976  16.970 -0.8349  1.8611 -0.8731
 1798SOL    HW217028   0.117   4.071  17.038 -0.0305 -1.0515  2.2770
 1799SOL     OW17029   2.485   3.595  11.565 -0.1318 -0.5604 -0.5598
 1799SOL    HW117030   2.548   3.544  11.514  1.0450  0.1557  0.1571
 1799SOL    HW217031   2.439   3.521  11.604  0.4820 -0.2144  0.8074
 1800SOL     OW17032   2.519   1.529   6.529 -0.0048 -0.0916  0.0767
 1800SOL    HW117033   2.480   1.467   6.591  0.2639  1.1117  1.4402
 1800SOL    HW217034   2.444   1.584   6.507 -0.4007 -0.3901  0.6845
 1801SOL     OW17035   0.989   2.307   2.916  0.0766 -0.2634  0.6621
 1801SOL    HW117036   0.895   2.293   2.907  0.3555 -1.6573 -0.1754
 1801SOL    HW217037   1.013   2.233   2.971 -0.0550  1.3427  2.8412
 1802SOL     OW17038   1.119   1.252   0.664 -0.1939  0.2131 -0.0510
 1802SOL    HW117039   1.048   1.188   0.660 -1.2839  1.4708 -0.7405
 1802SOL    HW217040   1.179   1.192   0.710 -1.8501 -0.5106  1.1612
 1803SOL     OW17041   3.342   2.446   1.978 -0.1608 -0.3387  0.4228
 1803SOL    HW117042   3.274   2.502   2.016 -0.3659 -0.0334 -0.3854
 1803SOL    HW217043   3.382   2.396   2.049  0.7787  0.6291  0.5795
 1804SOL     OW17044   1.661   3.649   2.970  0.1621 -0.0125  0.0874
 1804SOL    HW117045   1.686   3.649   3.063 -3.0625 -0.9350  0.9255
 1804SOL    HW217046   1.706   3.569   2.943 -1.4664 -0.8353 -0.1593
 1805SOL     OW17047   2.698   2.373   5.983  0.2202 -0.2630  0.4552
 1805SOL    HW117048   2.686   2.454   5.934  1.1840  0.1033  0.8385
 1805SOL    HW217049   2.781   2.387   6.029 -0.5995  0.2251  1.7900
 1806SOL     OW17050   2.395   4.408   4.460 -0.0205 -0.2418 -0.8924
 1806SOL    HW117051   2.428   4.318   4.463 -0.7767 -0.5090 -0.7515
 1806SOL    HW217052   2.447   4.431   4.537  0.2291 -0.5652 -0.9616
 1807SOL     OW17053   0.586   0.991   0.250  0.2001 -0.1276  0.7193
 1807SOL    HW117054   0.640   1.014   0.174  0.7960 -2.3892  0.4502
 1807SOL    HW217055   0.520   1.060   0.241  0.9420  0.6086  0.8696
 1808SOL     OW17056   1.549   4.458  16.265  0.3145  0.2853  0.1436
 1808SOL    HW117057   1.496   4.436  16.342 -0.2102  2.3907  0.3791
 1808SOL    HW217058   1.541   4.371  16.226  1.3429 -1.2966  3.4404
 1809SOL     OW17059   3.129   1.701  12.437  0.0526 -0.1051  0.2068
 1809SOL    HW117060   3.220   1.695  12.409 -0.5685 -2.4117 -1.2343
 1809SOL    HW217061   3.129   1.796  12.455  2.7093  0.2944 -1.8910
 1810SOL     OW17062   3.255   0.150   5.165 -0.2127 -0.2235  0.1652
 1810SOL    HW117063   3.303   0.079   5.208 -0.0297 -0.4575 -0.4238
 1810SOL    HW217064   3.211   0.106   5.093 -0.7365 -1.8749  1.4981
 1811SOL     OW17065   4.674   0.244   0.721 -0.3489  0.4490 -0.0694
 1811SOL    HW117066   4.618   0.213   0.650  0.0928  0.0695 -0.2520
 1811SOL    HW217067   0.024   0.213   0.699 -0.6802 -2.1196  2.2532
 1812SOL     OW17068   0.768   3.174   7.347 -0.2550 -0.1370 -0.3568
 1812SOL    HW117069   0.764   3.219   7.431  2.2760  1.2841 -0.9988
 1812SOL    HW217070   0.690   3.120   7.360 -0.9392  0.6710 -1.1025
 1813SOL     OW17071   1.907   1.470  11.376  0.1659 -0.1251  0.1483
 1813SOL    HW117072   2.000   1.454  11.389  0.7413  1.7043 -1.8417
 1813SOL    HW217073   1.872   1.397  11.324  1.1499  0.6295 -1.5526
 1814SOL     OW17074   2.531   3.510  10.481  0.4342 -0.0949  0.5811
 1814SOL    HW117075   2.615   3.470  10.459 -0.1512 -0.9908 -0.0528
 1814SOL    HW217076   2.564   3.599  10.494  0.6380 -0.0897  0.0323
 1815SOL     OW17077   2.244   2.562   4.513  0.0162 -0.1245 -0.0010
 1815SOL    HW117078   2.317   2.532   4.459  0.4364  0.0876  0.4610
 1815SOL    HW217079   2.243   2.657   4.503 -0.4985 -0.2483 -1.1706
 1816SOL     OW17080   3.893   4.678   5.043 -0.5666  0.6196 -0.1196
 1816SOL    HW117081   3.962   4.668   5.108 -1.4081  0.5885  0.7721
 1816SOL    HW217082   3.947   4.654   4.967 -1.2168  0.1284 -0.4292
 1817SOL     OW17083   4.642   1.952   5.358  0.2385  0.1443 -0.2700
 1817SOL    HW117084   4.572   1.985   5.414  0.4990  1.4781 -0.7290
 1817SOL    HW217085   4.639   2.002   5.276  0.4440  0.3692 -0.1381
 1818SOL     OW17086   0.192   3.795   6.686 -0.0098 -0.1102 -0.1373
 1818SOL    HW117087   0.198   3.842   6.769 -3.7374 -0.5284  0.3511
 1818SOL    HW217088   0.179   3.701   6.700 -0.2013  0.0633  0.8201
 1819SOL     OW17089   0.877   0.852   2.384 -0.2249 -0.6171  0.0009
 1819SOL    HW117090   0.970   0.829   2.389 -0.2620 -0.5675  1.0272
 1819SOL    HW217091   0.873   0.948   2.383  0.6604 -0.5851 -0.1293
 1820SOL     OW17092   3.057   3.196   5.067 -0.1777 -0.7347  0.0236
 1820SOL    HW117093   2.974   3.227   5.104 -0.9197 -2.9983  0.2444
 1820SOL    HW217094   3.041   3.104   5.044  0.5187 -1.3999  2.1840
 1821SOL     OW17095   1.025   2.332   5.461 -0.5786 -0.4839 -0.6930
 1821SOL    HW117096   1.039   2.250   5.509 -0.4648  0.4873  0.9610
 1821SOL    HW217097   1.109   2.337   5.415 -0.7103  0.8939 -0.7669
 1822SOL     OW17098   3.963   0.947   8.804 -0.5564  0.0897 -0.2109
 1822SOL    HW117099   4.024   0.894   8.754 -1.0671 -0.2484 -0.4778
 1822SOL    HW217100   3.883   0.897   8.786 -0.5133 -0.3265  0.7104
 1823SOL     OW17101   4.174   1.571   1.066 -0.4749 -0.3471 -0.0167
 1823SOL    HW117102   4.155   1.478   1.054 -0.2758 -0.4759  0.6498
 1823SOL    HW217103   4.150   1.618   0.987 -1.7026 -0.8130  0.0914
 1824SOL     OW17104   0.059   2.118   2.261 -0.2625 -0.2550 -1.3780
 1824SOL    HW117105   0.037   2.033   2.223 -1.6778 -0.6572  0.3793
 1824SOL    HW217106   0.075   2.081   2.347  0.8796  0.6764 -1.1902
 1825SOL     OW17107   0.538   3.521   2.811 -0.2489 -0.3823  0.6424
 1825SOL    HW117108   0.570   3.518   2.721  2.2128 -0.1368  1.5250
 1825SOL    HW217109   0.613   3.562   2.853  1.1867  0.1590 -2.4018
 1826SOL     OW17110   2.646   2.939   8.463  0.3710  0.0026 -0.2270
 1826SOL    HW117111   2.690   2.869   8.414 -1.5737 -0.5855 -1.1240
 1826SOL    HW217112   2.626   2.999   8.392 -3.3712  0.3856  1.1845
 1827SOL     OW17113   3.923   1.898   6.623  0.0317  0.6139 -0.4085
 1827SOL    HW117114   3.947   1.948   6.700 -0.2183  0.2057 -0.0616
 1827SOL    HW217115   3.964   1.814   6.645 -0.0059  0.0402 -2.4745
 1828SOL     OW17116   0.777   4.592  11.111  1.0933 -0.2051 -0.1815
 1828SOL    HW117117   0.695   4.558  11.147  1.3043 -2.3882 -1.7296
 1828SOL    HW217118   0.748   4.622  11.025  0.1674  2.0674  0.9283
 1829SOL     OW17119   0.041   0.649   1.963  0.2750  0.0935  0.8313
 1829SOL    HW117120   0.135   0.651   1.984  0.6416 -1.0775 -0.7236
 1829SOL    HW217121   0.028   0.560   1.932  1.6114 -0.6209  2.2636
 1830SOL     OW17122   2.678   4.032   3.742 -0.2070  0.7304  0.3187
 1830SOL    HW117123   2.710   4.064   3.826 -1.2260  1.9901  0.2346
 1830SOL    HW217124   2.596   3.991   3.769  0.0155 -0.6849 -1.1548
 1831SOL     OW17125   2.582   4.345   5.923  0.2487  0.0725  0.5545
 1831SOL    HW117126   2.527   4.422   5.936  1.1931  0.8479 -0.0629
 1831SOL    HW217127   2.656   4.396   5.891 -1.0859  1.2452 -0.6078
 1832SOL     OW17128   0.059   4.622  16.801 -0.5063  0.1249  0.4257
 1832SOL    HW117129   0.131   4.573  16.841 -2.9219 -3.1103  0.8398
 1832SOL    HW217130   0.086   4.633  16.710  1.1584  0.3763  0.9412
 1833SOL     OW17131   2.335   0.882  14.800  0.4815 -0.1993 -0.0455
 1833SOL    HW117132   2.261   0.929  14.761  1.2427  0.7391 -0.3364
 1833SOL    HW217133   2.378   0.948  14.853  1.5489  0.6026 -1.8947
 1834SOL     OW17134   0.401   4.129   4.306  0.3814  0.3160 -0.4724
 1834SOL    HW117135   0.357   4.059   4.258  1.3957 -1.0645  0.6055
 1834SOL    HW217136   0.333   4.194   4.289 -0.1823 -0.4897 -1.3132
 1835SOL     OW17137   3.613   3.212   8.733  0.7420  0.6803 -0.5083
 1835SOL    HW117138   3.528   3.219   8.776  1.5377  1.0381  1.0068
 1835SOL    HW217139   3.626   3.118   8.741  0.8250  0.8470  1.2630
 1836SOL     OW17140   1.263   1.867  10.295 -0.0682 -0.0702  0.1264
 1836SOL    HW117141   1.299   1.852  10.208 -1.1675 -2.0982  0.0031
 1836SOL    HW217142   1.190   1.805  10.294  0.3922 -0.5649 -3.1976
 1837SOL     OW17143   4.651   1.446   4.803  0.3912  0.6191  0.3961
 1837SOL    HW117144   4.617   1.408   4.884  0.8373 -1.7971 -0.5738
 1837SOL    HW217145   4.615   1.382   4.742 -0.5532  3.4175 -1.9844
 1838SOL     OW17146   4.294   3.934   8.020  0.1272  0.8497  0.1734
 1838SOL    HW117147   4.358   3.899   7.958  1.2330  1.8336  0.7612
 1838SOL    HW217148   4.307   3.866   8.087  3.4957  0.1749 -1.1824
 1839SOL     OW17149   3.721   3.396   3.141  0.0466  0.4242  0.1180
 1839SOL    HW117150   3.656   3.393   3.212  2.5808 -2.4028  2.3158
 1839SOL    HW217151   3.694   3.312   3.105 -1.3000  0.3009  1.3804
 1840SOL     OW17152   3.624   4.027  15.341  0.2579 -0.5493  0.0489
 1840SOL    HW117153   3.536   4.024  15.302  1.3135 -1.6809 -2.2944
 1840SOL    HW217154   3.604   4.045  15.432  2.2161  2.7920 -0.2011
 1841SOL     OW17155   0.955   1.069   6.625 -0.4212  0.7752  0.5548
 1841SOL    HW117156   0.990   0.980   6.631 -2.5720 -0.0503  1.0177
 1841SOL    HW217157   0.874   1.055   6.675 -0.1129 -0.1091  0.8064
 1842SOL     OW17158   3.979   1.943  12.178  0.2879  0.4690 -0.2456
 1842SOL    HW117159   3.922   2.008  12.219 -1.6172 -0.8654 -0.7659
 1842SOL    HW217160   4.039   1.940  12.253 -0.7266  1.9687  0.6229
 1843SOL     OW17161   4.734   4.238   4.163  0.0210  0.1296 -0.4764
 1843SOL    HW117162   0.089   4.252   4.182  0.4682 -1.6229 -1.4041
 1843SOL    HW217163   4.722   4.281   4.079  0.0136  1.7501  0.3666
 1844SOL     OW17164   1.005   0.763   7.046 -0.2286  0.0866  0.1531
 1844SOL    HW117165   0.916   0.731   7.055 -0.3059  0.8932  2.3641
 1844SOL    HW217166   0.985   0.854   7.025  0.5038  0.3375  0.5485
 1845SOL     OW17167   3.592   0.197   3.146  0.1435  0.4566 -0.1886
 1845SOL    HW117168   3.579   0.103   3.142 -1.0400  0.6480 -0.9048
 1845SOL    HW217169   3.589   0.223   3.054 -0.8281 -0.3468 -0.3854
 1846SOL     OW17170   1.351   3.878   0.559  0.5197  0.0727  0.3336
 1846SOL    HW117171   1.437   3.884   0.518  0.3909 -3.4805 -0.4692
 1846SOL    HW217172   1.316   3.966   0.571  2.6032  1.2557 -2.4630
 1847SOL     OW17173   2.197   4.220  14.137  0.1069  0.5739  0.1551
 1847SOL    HW117174   2.134   4.265  14.194 -1.9317 -0.7018 -1.0588
 1847SOL    HW217175   2.247   4.159  14.190  1.4853  0.2032 -1.5655
 1848SOL     OW17176   0.325   0.615  12.319 -0.0139  0.3923  0.1490
 1848SOL    HW117177   0.256   0.674  12.350 -0.8882  0.8317 -2.5664
 1848SOL    HW217178   0.349   0.667  12.242 -0.3368  1.1497  0.5622
 1849SOL     OW17179   3.377   2.964   6.198 -0.0097 -0.4419 -0.0906
 1849SOL    HW117180   3.365   2.987   6.290  0.1811 -0.7862  0.0178
 1849SOL    HW217181   3.424   3.043   6.173 -0.7166 -0.4841 -1.5288
 1850SOL     OW17182   3.299   4.442   4.272 -0.3955  0.1064  0.3134
 1850SOL    HW117183   3.358   4.513   4.246 -0.0987 -0.0466  0.5729
 1850SOL    HW217184   3.337   4.425   4.358  0.0146  0.2956  0.1679
 1851SOL     OW17185   0.047   1.796   3.382  0.1289  0.1483 -0.0034
 1851SOL    HW117186   0.122   1.751   3.343  0.3040  1.7651 -1.5087
 1851SOL    HW217187   0.084   1.812   3.470 -0.3757  1.5797 -0.0564
 1852SOL     OW17188   4.419   3.443   1.587  0.0455 -0.2589 -0.4889
 1852SOL    HW117189   4.345   3.503   1.592  1.7159  1.8004 -0.5631
 1852SOL    HW217190   4.374   3.365   1.553 -0.0321  0.0928 -1.1984
 1853SOL     OW17191   1.185   0.858   4.479  0.0022 -0.3733  0.7947
 1853SOL    HW117192   1.215   0.858   4.388 -0.8866  0.1491  0.4971
 1853SOL    HW217193   1.120   0.789   4.484  0.7585 -0.8937  3.2808
 1854SOL     OW17194   3.341   3.351   7.759 -0.8491  1.0220 -0.6899
 1854SOL    HW117195   3.416   3.292   7.760 -1.1392  0.6544 -0.4456
 1854SOL    HW217196   3.371   3.412   7.691  1.7356  0.0060 -0.4343
 1855SOL     OW17197   2.352   2.309   6.684  0.1345  0.5629  0.4587
 1855SOL    HW117198   2.435   2.357   6.692  0.2099  1.0996 -3.1568
 1855SOL    HW217199   2.322   2.357   6.607 -1.7846 -0.3089  0.6752
 1856SOL     OW17200   0.706   1.107   2.673 -0.0171 -0.3281  0.5897
 1856SOL    HW117201   0.728   1.194   2.640 -0.9691 -1.0293 -1.9215
 1856SOL    HW217202   0.697   1.122   2.767 -0.3902  1.1458  0.3236
 1857SOL     OW17203   3.452   1.406   1.521  0.1517 -0.4427 -0.7728
 1857SOL    HW117204   3.422   1.494   1.546 -0.3837 -1.0997  0.8639
 1857SOL    HW217205   3.503   1.442   1.448 -1.3963 -0.9468 -2.0980
 1858SOL     OW17206   3.745   4.273   1.594 -0.1429 -0.0344 -0.0923
 1858SOL    HW117207   3.800   4.199   1.619 -0.7480 -0.3110  0.4183
 1858SOL    HW217208   3.679   4.276   1.663 -1.1113 -0.8935 -0.9807
 1859SOL     OW17209   1.557   1.347  13.613  1.0342 -0.2199  0.1104
 1859SOL    HW117210   1.551   1.367  13.706 -0.1549 -1.4282  0.3010
 1859SOL    HW217211   1.472   1.306  13.593  0.2498  2.1099 -1.2857
 1860SOL     OW17212   1.867   2.273  10.796  0.0629  0.0790  0.3705
 1860SOL    HW117213   1.781   2.237  10.773  1.1799 -1.3433 -1.5814
 1860SOL    HW217214   1.903   2.303  10.712  1.1638  3.1064  1.9418
 1861SOL     OW17215   0.357   4.303   4.611  0.3687  0.0554 -0.4243
 1861SOL    HW117216   0.342   4.317   4.704  0.1930 -1.2965 -0.2493
 1861SOL    HW217217   0.409   4.225   4.593 -0.6960 -0.2261 -2.2847
 1862SOL     OW17218   3.492   3.663   2.687 -0.2645  0.5301 -0.1584
 1862SOL    HW117219   3.474   3.698   2.600 -0.6617 -0.5983 -0.5289
 1862SOL    HW217220   3.523   3.575   2.666  0.8974  0.7030  0.8347
 1863SOL     OW17221   2.531   1.269   5.556 -0.0275 -0.4275 -0.2613
 1863SOL    HW117222   2.448   1.310   5.580  1.1479  0.2881  2.6945
 1863SOL    HW217223   2.576   1.271   5.641  0.0252  0.1908 -0.3034
 1864SOL     OW17224   2.479   1.010   5.547  0.4704 -0.1744 -0.2780
 1864SOL    HW117225   2.514   1.099   5.537 -1.7328  0.8880  1.5322
 1864SOL    HW217226   2.386   1.029   5.534  0.6535  2.0357  1.5925
 1865SOL     OW17227   0.407   1.399   7.625 -0.3941 -0.1134  0.1810
 1865SOL    HW117228   0.421   1.432   7.713 -0.4415 -0.8695  0.4770
 1865SOL    HW217229   0.480   1.337   7.618 -0.4899 -0.0481 -1.6424
 1866SOL     OW17230   0.224   2.883   2.226 -0.1902  0.0271  0.0598
 1866SOL    HW117231   0.216   2.953   2.162  0.7780 -1.6147 -1.8454
 1866SOL    HW217232   0.193   2.813   2.169  0.3439  0.1986 -0.4406
 1867SOL     OW17233   0.144   1.123   0.276 -0.6458 -0.1996  0.0435
 1867SOL    HW117234   0.182   1.086   0.196  0.0491  0.8488 -0.1137
 1867SOL    HW217235   0.057   1.083   0.281 -0.7251  0.0118  0.3088
 1868SOL     OW17236   3.442   1.157   4.298  0.2734  0.0844 -0.1737
 1868SOL    HW117237   3.382   1.098   4.345  1.7306 -1.7125 -0.5580
 1868SOL    HW217238   3.520   1.164   4.353  0.6263  0.7078 -0.7689
 1869SOL     OW17239   0.275   4.335   4.160 -0.2212 -0.2570 -0.2229
 1869SOL    HW117240   0.325   4.381   4.093 -0.5872 -0.3400 -0.5543
 1869SOL    HW217241   0.261   4.416   4.208  2.3569  1.0321 -1.6472
 1870SOL     OW17242   1.505   0.768   9.751  0.0665 -0.0193 -0.2739
 1870SOL    HW117243   1.583   0.747   9.700  0.7698  0.0827  0.7694
 1870SOL    HW217244   1.494   0.690   9.806  0.1779  0.2712  0.1608
 1871SOL     OW17245   1.448   2.168   5.779  0.0528  0.0665  0.5764
 1871SOL    HW117246   1.500   2.244   5.751  0.8882 -0.2352  1.3278
 1871SOL    HW217247   1.477   2.105   5.713  0.9151  1.4606 -0.3939
 1872SOL     OW17248   3.037   2.581   3.781 -0.7717  0.4342  0.1996
 1872SOL    HW117249   3.021   2.486   3.779  0.1590  0.2646  1.0593
 1872SOL    HW217250   3.130   2.572   3.760 -0.6125  0.9159  0.7242
 1873SOL     OW17251   3.372   0.699   9.104 -0.2595 -0.3863  0.0456
 1873SOL    HW117252   3.281   0.669   9.102  0.4892 -2.6219 -0.1215
 1873SOL    HW217253   3.380   0.717   9.010 -0.3083  0.5447  0.2157
 1874SOL     OW17254   2.922   1.503   5.660  0.1118 -0.1568  0.4832
 1874SOL    HW117255   2.972   1.560   5.718 -0.0991  2.9496 -2.3885
 1874SOL    HW217256   2.924   1.424   5.715  0.7182  0.5636  1.4951
 1875SOL     OW17257   0.304   3.239   1.445  0.3863  0.0117  0.2829
 1875SOL    HW117258   0.341   3.324   1.422  1.1391 -0.7717 -1.4122
 1875SOL    HW217259   0.253   3.208   1.371  0.3264  1.1169 -0.1206
 1876SOL     OW17260   2.791   1.406   4.043  0.0721 -0.1635 -0.1328
 1876SOL    HW117261   2.831   1.320   4.054 -0.3219 -0.3204  0.0548
 1876SOL    HW217262   2.760   1.413   3.953  1.2939 -0.8999 -0.6184
 1877SOL     OW17263   2.336   4.035  13.053 -0.1986 -0.1811  0.0033
 1877SOL    HW117264   2.405   4.057  12.989 -1.1714 -1.2865 -1.4361
 1877SOL    HW217265   2.352   3.942  13.070  0.7053  0.0663  0.5163
 1878SOL     OW17266   4.613   4.224   1.508  0.3634 -0.6453  0.4336
 1878SOL    HW117267   4.592   4.181   1.425  2.6028 -0.5759 -0.1709
 1878SOL    HW217268   4.685   4.283   1.484 -0.4022  0.3770  0.6150
 1879SOL     OW17269   1.279   1.750   1.606 -0.1545 -0.1631 -0.5924
 1879SOL    HW117270   1.305   1.802   1.530  1.0450 -0.1450 -0.1692
 1879SOL    HW217271   1.224   1.681   1.568  0.2371 -0.0357 -1.3792
 1880SOL     OW17272   1.277   4.693   0.545  0.0880  0.6786  0.0397
 1880SOL    HW117273   1.218   0.021   0.583 -0.7149  0.0234 -0.0668
 1880SOL    HW217274   1.285   4.643   0.626 -2.8752  3.2996  1.9709
 1881SOL     OW17275   3.150   3.929   5.991  0.1384 -0.3132 -0.1240
 1881SOL    HW117276   3.089   3.977   5.935  0.9850  0.8060 -0.0942
 1881SOL    HW217277   3.138   3.840   5.958  0.0643 -0.3467 -0.0051
 1882SOL     OW17278   0.821   4.120  17.266  0.0930 -0.5045 -0.4792
 1882SOL    HW117279   0.891   4.171  17.307  0.2769 -2.1365  1.2594
 1882SOL    HW217280   0.802   4.059  17.338 -1.7306  1.1617  0.4448
 1883SOL     OW17281   1.532   1.981   2.453 -0.1297  0.1116 -0.0552
 1883SOL    HW117282   1.572   1.930   2.523 -1.7959 -2.4812 -0.9943
 1883SOL    HW217283   1.445   1.942   2.444 -0.2687  0.9389 -2.2914
 1884SOL     OW17284   3.598   0.586   9.941  0.3788 -0.5252  0.0387
 1884SOL    HW117285   3.580   0.508   9.889  1.6004 -0.9627  0.2717
 1884SOL    HW217286   3.687   0.555   9.958  1.3868  1.8001 -1.0395
 1885SOL     OW17287   0.090   3.320   6.450 -0.3215  0.0679  0.0497
 1885SOL    HW117288   0.038   3.318   6.530 -0.5955  0.2303 -0.1223
 1885SOL    HW217289   0.155   3.389   6.462  1.6410 -2.1838  2.2154
 1886SOL     OW17290   1.338   0.582   0.337 -0.5309 -0.5314 -0.2772
 1886SOL    HW117291   1.352   0.580   0.242 -3.3044 -0.9310 -0.6996
 1886SOL    HW217292   1.312   0.674   0.348 -0.9971 -0.9376  1.9424
 1887SOL     OW17293   3.127   1.723   1.709  0.1561 -0.4350 -0.1450
 1887SOL    HW117294   3.138   1.665   1.785  1.5314  1.8759  1.3943
 1887SOL    HW217295   3.037   1.698   1.685 -0.8808  0.3571  2.7942
 1888SOL     OW17296   2.142   2.832   2.661 -0.5388  0.3501  0.7760
 1888SOL    HW117297   2.089   2.848   2.582  1.3408  1.4856 -0.2389
 1888SOL    HW217298   2.192   2.913   2.661  0.0761 -0.0238 -0.3409
 1889SOL     OW17299   1.058   4.166   0.092 -0.7756  0.0733 -0.4345
 1889SOL    HW117300   1.091   4.126   0.011 -0.4594 -0.8798  0.1579
 1889SOL    HW217301   0.969   4.129   0.093  0.0196 -1.8251  1.0428
 1890SOL     OW17302   0.299   2.847   7.406 -0.1866  0.1523  0.0141
 1890SOL    HW117303   0.244   2.845   7.329 -0.5518  1.6193  0.2316
 1890SOL    HW217304   0.383   2.836   7.361  0.4306 -0.5644  1.3140
 1891SOL     OW17305   1.047   0.533   8.090 -0.2720  0.6431 -0.0274
 1891SOL    HW117306   0.959   0.538   8.053  0.2052 -0.7448 -1.3413
 1891SOL    HW217307   1.055   0.624   8.119  0.5646  0.5855 -0.0872
 1892SOL     OW17308   2.078   1.914  13.642 -0.0875  0.6137  0.4465
 1892SOL    HW117309   2.050   1.927  13.552 -0.7047  0.4466  0.6170
 1892SOL    HW217310   2.161   1.874  13.618 -0.1164  1.2994 -0.7877
 1893SOL     OW17311   0.964   1.087   7.364 -0.1765  0.1195 -0.0990
 1893SOL    HW117312   0.972   1.111   7.272  3.8715 -1.1945 -0.1119
 1893SOL    HW217313   0.932   1.172   7.395 -0.6319 -0.0218 -0.1787
 1894SOL     OW17314   0.913   3.680  17.644  0.4648  0.2751 -0.3236
 1894SOL    HW117315   0.937   3.589  17.623  0.1211  0.3924 -1.2153
 1894SOL    HW217316   0.962   3.719  17.570  1.4793 -0.6215 -0.1336
 1895SOL     OW17317   3.495   1.519   8.675 -0.1508 -0.0660  0.1176
 1895SOL    HW117318   3.410   1.542   8.636  1.1208  0.5555 -2.2853
 1895SOL    HW217319   3.478   1.477   8.760  1.5593 -0.3335  0.3328
 1896SOL     OW17320   3.241   1.378   3.012 -0.0159  0.6332  0.7774
 1896SOL    HW117321   3.150   1.348   3.006 -0.4426  2.0133  0.2409
 1896SOL    HW217322   3.281   1.323   2.945 -1.6093  0.9767 -0.4533
 1897SOL     OW17323   4.237   4.336   6.145 -0.0878 -0.0365 -0.6332
 1897SOL    HW117324   4.280   4.357   6.227 -0.3186 -0.1705 -0.4760
 1897SOL    HW217325   4.191   4.419   6.136  0.4369  0.2042 -1.1108
 1898SOL     OW17326   4.109   3.683   1.410 -0.5277  0.3032 -0.4787
 1898SOL    HW117327   4.163   3.660   1.334 -0.8207  0.0741 -0.6204
 1898SOL    HW217328   4.156   3.754   1.452  0.1544 -0.9095  0.8296
 1899SOL     OW17329   2.426   1.317   2.953 -0.0987 -0.4668  0.7215
 1899SOL    HW117330   2.481   1.395   2.950  1.2143 -1.3580  1.6652
 1899SOL    HW217331   2.485   1.254   2.913  1.0607 -0.3249  2.1910
 1900SOL     OW17332   3.100   3.497   9.599 -0.2532 -0.1234  0.3200
 1900SOL    HW117333   3.059   3.427   9.548 -1.6543  0.9538 -0.0231
 1900SOL    HW217334   3.024   3.553   9.615 -1.3874 -1.7317  0.6011
 1901SOL     OW17335   3.069   0.397   7.513  0.4181 -0.1922 -0.2826
 1901SOL    HW117336   3.085   0.478   7.563  1.5071  0.0619 -1.0510
 1901SOL    HW217337   3.141   0.339   7.540  0.3771  0.4094  1.1558
 1902SOL     OW17338   0.411   3.951  10.063  0.3825 -0.4820  0.1493
 1902SOL    HW117339   0.349   3.882  10.088 -1.9103  1.0510 -1.2868
 1902SOL    HW217340   0.353   4.028  10.068  1.0422 -0.0247  0.6874
 1903SOL     OW17341   2.020   3.677  10.245  0.1428 -0.0390 -0.1606
 1903SOL    HW117342   1.975   3.638  10.170 -0.3327 -1.1990  0.7252
 1903SOL    HW217343   1.959   3.740  10.282  0.1555 -0.5440  0.7109
 1904SOL     OW17344   3.362   2.053   9.915 -0.6169 -0.0714  0.0410
 1904SOL    HW117345   3.386   2.070   9.824 -0.0072  2.7136  0.7210
 1904SOL    HW217346   3.438   2.085   9.963 -1.3298 -1.5124  2.1173
 1905SOL     OW17347   1.454   0.672  17.380  0.1278  0.2534 -0.0470
 1905SOL    HW117348   1.403   0.602  17.339 -2.0127  2.7212 -1.5648
 1905SOL    HW217349   1.406   0.749  17.352 -1.3075 -0.4612  0.4582
 1906SOL     OW17350   0.009   3.849   9.895  0.3995  0.0474  0.2379
 1906SOL    HW117351   4.689   3.894   9.833  0.9086  0.7949  0.3049
 1906SOL    HW217352   0.035   3.769   9.849  0.3252 -0.3126  0.8211
 1907SOL     OW17353   3.756   1.990   8.410 -0.3716  0.2209 -0.0793
 1907SOL    HW117354   3.744   1.907   8.363  0.3709  0.2885 -0.3934
 1907SOL    HW217355   3.671   1.996   8.453 -0.8056  0.5847 -0.9861
 1908SOL     OW17356   2.025   3.999   6.216  0.0999  0.0004 -0.1411
 1908SOL    HW117357   2.040   4.094   6.212 -0.2072  0.0255 -0.8289
 1908SOL    HW217358   1.945   3.977   6.168 -1.5375 -0.3928  2.8083
 1909SOL     OW17359   2.560   0.429   4.142  0.0992  0.2093 -0.2692
 1909SOL    HW117360   2.616   0.364   4.184  0.0290 -0.5672 -1.3692
 1909SOL    HW217361   2.616   0.500   4.172  0.5483 -0.9041  1.5368
 1910SOL     OW17362   3.650   0.428   9.726  0.5871  0.3208 -0.2369
 1910SOL    HW117363   3.669   0.464   9.639  0.6107 -0.5596 -0.5932
 1910SOL    HW217364   3.612   0.343   9.704  1.0851  0.1332 -0.3719
 1911SOL     OW17365   2.435   3.188   4.519  0.1681 -0.5231 -0.1681
 1911SOL    HW117366   2.374   3.245   4.565 -0.5838 -2.1260  0.8435
 1911SOL    HW217367   2.415   3.100   4.552 -0.2848 -0.1710  0.4896
 1912SOL     OW17368   3.159   3.269  15.275  0.2625  0.3633 -0.2639
 1912SOL    HW117369   3.176   3.250  15.367  0.0096 -1.2061 -0.5445
 1912SOL    HW217370   3.249   3.279  15.244  0.4151  0.2411  0.1372
 1913SOL     OW17371   3.587   2.451   8.085  0.1297  0.0273  0.0992
 1913SOL    HW117372   3.543   2.457   8.170  0.1043 -1.6665  0.1966
 1913SOL    HW217373   3.606   2.357   8.087 -0.8578 -0.2342 -2.3251
 1914SOL     OW17374   0.547   2.464   2.792 -0.4918  0.4499 -0.4812
 1914SOL    HW117375   0.593   2.547   2.799  1.9524 -0.6569 -3.1689
 1914SOL    HW217376   0.462   2.499   2.817 -1.1008 -1.3652 -0.0134
 1915SOL     OW17377   2.134   0.802   3.787 -0.3050 -0.3158 -0.6219
 1915SOL    HW117378   2.203   0.801   3.853 -0.7341 -1.1023 -0.1786
 1915SOL    HW217379   2.074   0.732   3.812 -2.3398  0.8207 -2.3042
 1916SOL     OW17380   1.968   3.556   8.031  0.5187 -0.1072 -0.6413
 1916SOL    HW117381   2.054   3.521   8.009  0.4210  0.5560 -2.0996
 1916SOL    HW217382   1.908   3.484   8.009  0.0403  1.1170 -3.3700
 1917SOL     OW17383   2.784   3.452  11.252  0.1419 -0.0401 -0.0889
 1917SOL    HW117384   2.761   3.538  11.217 -1.2359  0.2860  1.6501
 1917SOL    HW217385   2.741   3.434  11.335 -0.0469  0.6379 -0.0398
 1918SOL     OW17386   2.292   3.723   0.975  0.1575  0.1926  0.0937
 1918SOL    HW117387   2.280   3.785   1.047 -0.4999  1.5796 -1.1967
 1918SOL    HW217388   2.231   3.656   1.003  0.4408 -0.6385 -1.2774
 1919SOL     OW17389   1.100   1.883   2.196  0.2794  0.4437  0.0884
 1919SOL    HW117390   1.081   1.976   2.204 -1.8832  0.1035 -0.9772
 1919SOL    HW217391   1.158   1.867   2.121  1.0452 -1.7519  1.1293
 1920SOL     OW17392   4.413   0.589  10.202  0.4801  0.5793 -0.2933
 1920SOL    HW117393   4.337   0.592  10.144 -0.1571 -0.9609  0.4886
 1920SOL    HW217394   4.401   0.513  10.259 -0.0307  0.9363  0.0701
 1921SOL     OW17395   2.847   4.636  15.787 -0.2658 -0.2140  0.1315
 1921SOL    HW117396   2.879   4.550  15.816 -1.4996 -1.0650 -1.0582
 1921SOL    HW217397   2.792   4.663  15.860  0.5323  0.1598  0.6026
 1922SOL     OW17398   4.446   2.855   6.181 -0.3261  0.2709  0.0724
 1922SOL    HW117399   4.398   2.861   6.264 -2.1057 -2.0385 -0.7950
 1922SOL    HW217400   4.472   2.944   6.158  0.0601 -0.6432 -3.0043
 1923SOL     OW17401   1.009   4.213   3.367  0.1716 -0.1027 -0.1269
 1923SOL    HW117402   0.968   4.135   3.406  0.4811  0.2683  0.9473
 1923SOL    HW217403   1.030   4.173   3.283 -0.7164  0.1108 -0.4523
 1924SOL     OW17404   0.741   1.737  12.430 -0.1621  0.1361  0.3559
 1924SOL    HW117405   0.815   1.765  12.485  0.6412 -3.8743  1.3344
 1924SOL    HW217406   0.679   1.804  12.458 -0.9182 -0.6889  0.6393
 1925SOL     OW17407   4.710   4.611   0.504  0.2244 -0.4016  0.1137
 1925SOL    HW117408   4.692   4.517   0.510 -0.7035 -0.3791 -2.5349
 1925SOL    HW217409   0.059   4.614   0.545 -0.2075 -0.5310  1.0374
 1926SOL     OW17410   3.387   1.147  11.923  0.1137  0.1786  0.0047
 1926SOL    HW117411   3.316   1.127  11.984  0.5529 -2.3771 -0.3224
 1926SOL    HW217412   3.388   1.243  11.922 -1.1167  0.1873 -0.0277
 1927SOL     OW17413   4.203   3.272   5.149  0.4124  0.5469  0.0395
 1927SOL    HW117414   4.241   3.290   5.235 -0.8979  1.3410  0.4448
 1927SOL    HW217415   4.113   3.247   5.168  0.2092 -0.7295 -2.6046
 1928SOL     OW17416   1.896   4.382   6.629  0.2520 -0.5540 -0.2113
 1928SOL    HW117417   1.864   4.355   6.715  1.3373 -1.6450 -0.1448
 1928SOL    HW217418   1.901   4.477   6.642  2.4927 -0.5497 -1.0813
 1929SOL     OW17419   1.977   2.734   5.668  0.4400  0.4998 -0.3691
 1929SOL    HW117420   2.066   2.738   5.632  1.1543 -0.2102  1.3391
 1929SOL    HW217421   1.989   2.781   5.751  3.2722 -0.3514 -0.3056
 1930SOL     OW17422   0.898   0.421   0.683  0.7050 -0.4534 -0.1614
 1930SOL    HW117423   0.819   0.474   0.680  1.0934  0.0664 -1.3217
 1930SOL    HW217424   0.952   0.477   0.738 -0.4859  0.7671 -0.2583
 1931SOL     OW17425   3.284   1.299   1.908  0.2974  0.2000 -0.3791
 1931SOL    HW117426   3.271   1.306   2.003  1.4579 -1.5715 -0.0907
 1931SOL    HW217427   3.239   1.380   1.882 -1.6131 -1.1819 -1.2814
 1932SOL     OW17428   2.711   4.069   9.625 -0.1225 -0.7163 -0.8094
 1932SOL    HW117429   2.734   4.011   9.698 -1.7358  1.3394  1.3382
 1932SOL    HW217430   2.704   4.149   9.676  0.6622 -1.2279  0.1157
 1933SOL     OW17431   4.473   0.939   7.937 -0.4950  0.5150 -0.1689
 1933SOL    HW117432   4.378   0.948   7.939 -0.4785  0.5856  0.1705
 1933SOL    HW217433   4.495   1.011   7.996  2.9966  1.5318 -2.6264
 1934SOL     OW17434   3.833   3.416  14.721 -0.0778 -0.2029  0.2344
 1934SOL    HW117435   3.901   3.452  14.664 -0.4081 -2.4623 -1.6116
 1934SOL    HW217436   3.784   3.497  14.733 -0.8089 -0.7736  1.1245
 1935SOL     OW17437   4.557   0.957   8.525  0.2581 -0.1374  0.2979
 1935SOL    HW117438   4.463   0.946   8.509 -0.0868 -1.1071  3.0309
 1935SOL    HW217439   4.552   0.990   8.615  0.5119  0.0154  0.2560
 1936SOL     OW17440   1.316   3.921   8.905 -0.2872  0.7952 -0.0823
 1936SOL    HW117441   1.361   3.854   8.854  1.7206  1.7241  0.4619
 1936SOL    HW217442   1.394   3.963   8.940  1.2371 -2.0765 -0.1115
 1937SOL     OW17443   1.163   0.697   5.660 -0.5974  0.3814  0.0014
 1937SOL    HW117444   1.102   0.767   5.681  0.3494  1.4419 -0.8012
 1937SOL    HW217445   1.235   0.724   5.718 -2.7019  0.1155  2.6968
 1938SOL     OW17446   2.008   1.536  16.345  0.0977  0.5849  0.7059
 1938SOL    HW117447   1.949   1.590  16.398 -1.2652  0.8187 -1.0721
 1938SOL    HW217448   2.091   1.548  16.391  1.2075 -0.7516 -0.9464
 1939SOL     OW17449   1.989   0.519   1.983 -1.2160 -0.3299 -0.0400
 1939SOL    HW117450   1.925   0.522   2.054 -1.6233 -1.0548 -0.3835
 1939SOL    HW217451   2.073   0.525   2.029 -0.1220  0.8795 -2.1792
 1940SOL     OW17452   4.412   0.706   5.910  0.3409  0.1371  0.5267
 1940SOL    HW117453   4.489   0.751   5.876  0.2100 -0.8565 -1.1079
 1940SOL    HW217454   4.350   0.778   5.902  0.0733 -0.0834  0.6070
 1941SOL     OW17455   2.209   3.166   7.427  0.2153 -0.5281 -0.0478
 1941SOL    HW117456   2.124   3.210   7.419  1.1627  1.6068  1.9534
 1941SOL    HW217457   2.185   3.103   7.496 -0.2103 -1.0144 -0.6344
 1942SOL     OW17458   2.231   4.271   1.860  0.8447 -0.6482 -0.0672
 1942SOL    HW117459   2.302   4.215   1.892  0.7203 -0.0585  1.2206
 1942SOL    HW217460   2.159   4.208   1.868 -1.1156  1.5764 -0.3610
 1943SOL     OW17461   3.135   2.033   4.850 -0.2864  0.0430  0.1363
 1943SOL    HW117462   3.052   1.990   4.831 -0.3165 -0.4535  1.4271
 1943SOL    HW217463   3.090   2.113   4.875  1.6012  0.7632  1.2849
 1944SOL     OW17464   3.630   1.001   3.790 -0.2393 -0.0706  0.1959
 1944SOL    HW117465   3.676   1.055   3.854 -1.3468  0.5089  0.4962
 1944SOL    HW217466   3.691   0.927   3.786  0.6563  0.7365 -1.1452
 1945SOL     OW17467   3.388   3.055  15.891 -0.0646  0.0834  0.6214
 1945SOL    HW117468   3.342   2.977  15.922  0.1712 -0.0671  0.5852
 1945SOL    HW217469   3.325   3.077  15.821  0.0880 -0.8703  0.1918
 1946SOL     OW17470   1.332   1.596   7.643 -0.0426  0.1395  0.3695
 1946SOL    HW117471   1.314   1.690   7.640  1.7735  0.3980 -2.2602
 1946SOL    HW217472   1.382   1.584   7.724  1.9330  0.7405 -0.7743
 1947SOL     OW17473   0.325   4.551   2.640 -0.3000  0.4614 -0.0375
 1947SOL    HW117474   0.416   4.548   2.667  0.9102  1.8536 -3.9216
 1947SOL    HW217475   0.296   4.466   2.673 -0.0880  0.3689 -0.0894
 1948SOL     OW17476   1.962   0.487   9.138 -0.1409 -0.1127  0.6508
 1948SOL    HW117477   1.890   0.487   9.075  1.4929 -0.7459 -1.1913
 1948SOL    HW217478   1.923   0.523   9.218 -0.1231 -0.8043  0.9770
 1949SOL     OW17479   1.804   2.012   2.354  0.1765  0.2841 -0.5824
 1949SOL    HW117480   1.715   1.982   2.372 -0.4693  1.2591 -2.1345
 1949SOL    HW217481   1.860   1.934   2.351 -0.7849 -0.4133 -0.3450
 1950SOL     OW17482   1.366   3.965   3.103 -0.8209 -0.5750 -0.9653
 1950SOL    HW117483   1.457   3.989   3.086 -1.3028  1.2566 -1.0250
 1950SOL    HW217484   1.358   3.878   3.064 -1.0046 -1.0333  0.0868
 1951SOL     OW17485   0.480   2.330   6.938  0.0234 -0.2840  0.1284
 1951SOL    HW117486   0.389   2.319   6.962  0.1216 -0.5487  0.3740
 1951SOL    HW217487   0.519   2.345   7.025  1.4147 -0.3231 -0.4897
 1952SOL     OW17488   4.501   1.744   7.277  0.7598 -0.0160  0.2577
 1952SOL    HW117489   4.467   1.675   7.333  2.1044  0.5006  1.7148
 1952SOL    HW217490   4.495   1.816   7.340 -0.7979 -1.2996  1.5368
 1953SOL     OW17491   1.418   4.191   1.596  0.0097 -0.4259  0.1802
 1953SOL    HW117492   1.410   4.153   1.509 -2.1938  3.0970 -1.1458
 1953SOL    HW217493   1.350   4.256   1.579 -2.0011 -2.3652  0.8627
 1954SOL     OW17494   0.953   3.761   3.139  0.4001 -0.0749  0.3611
 1954SOL    HW117495   0.879   3.822   3.134  0.0759 -0.5120 -0.2377
 1954SOL    HW217496   0.987   3.763   3.049 -0.7864 -1.7605 -0.1408
 1955SOL     OW17497   3.526   3.108   9.185  0.1754 -0.0715  0.1169
 1955SOL    HW117498   3.494   3.189   9.147  0.1156  0.8972  2.2631
 1955SOL    HW217499   3.591   3.147   9.244  0.1497  0.3562 -0.1420
 1956SOL     OW17500   4.101   0.667   4.692  0.0662 -0.1378 -0.7297
 1956SOL    HW117501   4.007   0.661   4.706  0.0379  0.9791 -0.4859
 1956SOL    HW217502   4.109   0.749   4.643  0.1226  0.2509 -0.0637
 1957SOL     OW17503   2.798   3.766   4.926 -0.6403  0.5782  0.4167
 1957SOL    HW117504   2.785   3.673   4.940 -2.6104  1.3234  3.4670
 1957SOL    HW217505   2.708   3.796   4.939 -1.7116 -2.3456 -0.3441
 1958SOL     OW17506   0.613   1.156   4.223  0.6211 -0.0792  0.4292
 1958SOL    HW117507   0.698   1.143   4.182  1.4816 -0.0643  2.2265
 1958SOL    HW217508   0.587   1.240   4.186  0.0741  0.0536  1.1139
 1959SOL     OW17509   4.227   3.984   7.328 -0.3848 -0.2258 -0.3002
 1959SOL    HW117510   4.163   3.939   7.383 -0.9283  0.6142 -0.2356
 1959SOL    HW217511   4.272   3.906   7.297 -2.2617 -1.5357  0.2827
 1960SOL     OW17512   2.591   4.683   1.903  0.0784 -0.1865  0.6964
 1960SOL    HW117513   2.552   4.601   1.874  1.5362 -0.9521  0.9105
 1960SOL    HW217514   2.576   4.685   1.998 -1.4901  1.5327  0.4180
 1961SOL     OW17515   4.711   0.731   1.722 -0.4616  0.1360 -0.0975
 1961SOL    HW117516   0.005   0.712   1.810 -0.9406  0.6253  0.1901
 1961SOL    HW217517   4.664   0.649   1.708 -2.3816  1.1594  0.2949
 1962SOL     OW17518   2.789   3.071   1.507 -0.2059 -0.3143 -0.1495
 1962SOL    HW117519   2.859   3.050   1.570 -1.3968  0.4306  1.4225
 1962SOL    HW217520   2.734   2.994   1.494  0.1147 -0.4877 -0.4798
 1963SOL     OW17521   2.112   2.596   3.759  0.3172  0.2902 -0.2569
 1963SOL    HW117522   2.192   2.572   3.713 -0.0345 -1.7705  0.1872
 1963SOL    HW217523   2.064   2.514   3.747  0.6443  0.2068 -0.9729
 1964SOL     OW17524   3.347   1.358  12.688 -0.0582 -0.2731 -0.3084
 1964SOL    HW117525   3.282   1.349  12.619 -0.6267  0.9730  0.0566
 1964SOL    HW217526   3.424   1.305  12.666 -0.9653 -1.3981 -0.7523
 1965SOL     OW17527   2.533   0.170   0.707  0.2725 -0.3561 -0.1757
 1965SOL    HW117528   2.441   0.182   0.732  0.5651 -0.0136  0.7188
 1965SOL    HW217529   2.581   0.181   0.788  1.0543  0.8254 -0.7996
 1966SOL     OW17530   1.525   4.453   6.073 -0.1364 -0.1800  0.4848
 1966SOL    HW117531   1.593   4.415   6.018 -0.0644 -0.7863  1.0014
 1966SOL    HW217532   1.453   4.410   6.027  0.4447 -0.1130 -0.5002
 1967SOL     OW17533   2.241   0.864  17.633  0.0581  0.5553 -1.2741
 1967SOL    HW117534   2.311   0.897  17.578 -1.1455  0.5737 -2.8122
 1967SOL    HW217535   2.180   0.937  17.643 -0.2018  0.3207 -1.1331
 1968SOL     OW17536   4.324   2.687   2.915  0.0686 -0.4240 -0.0800
 1968SOL    HW117537   4.229   2.689   2.925  0.1108 -0.6980  0.3983
 1968SOL    HW217538   4.339   2.604   2.871  0.9191 -0.9012  1.1175
 1969SOL     OW17539   0.944   1.461   8.695  0.4984 -0.1406 -0.5338
 1969SOL    HW117540   0.953   1.537   8.638 -2.8819  1.4190  1.0344
 1969SOL    HW217541   0.978   1.501   8.776  1.2767 -1.0388 -0.4147
 1970SOL     OW17542   2.045   3.317   8.863  0.2462  0.1578 -0.1353
 1970SOL    HW117543   2.019   3.346   8.951 -3.1928  0.4957 -1.2728
 1970SOL    HW217544   2.053   3.225   8.885 -2.1152  0.3519  1.5542
 1971SOL     OW17545   2.153   3.569   6.169 -0.0301 -0.0302 -0.3017
 1971SOL    HW117546   2.176   3.659   6.193 -0.9065 -0.8454  3.5909
 1971SOL    HW217547   2.068   3.559   6.213  0.8363  2.5350  1.9617
 1972SOL     OW17548   0.363   4.191   1.941  0.0298  0.5686  0.4032
 1972SOL    HW117549   0.349   4.232   2.027 -1.1441  1.0851 -0.0352
 1972SOL    HW217550   0.452   4.155   1.944  0.0283  0.7096  2.1297
 1973SOL     OW17551   0.420   4.506   1.524  0.2200 -0.2026 -0.0225
 1973SOL    HW117552   0.345   4.559   1.497 -0.9386 -1.0120  1.6299
 1973SOL    HW217553   0.436   4.449   1.449  0.8223 -0.1656  0.0765
 1974SOL     OW17554   0.700   4.719  16.871 -0.2311 -0.2838  0.3084
 1974SOL    HW117555   0.626   0.019  16.825 -0.5991 -0.5126  0.7161
 1974SOL    HW217556   0.660   4.647  16.920  0.0549 -1.4499 -1.1567
 1975SOL     OW17557   3.010   0.029   3.127  0.0814 -0.8458 -0.3283
 1975SOL    HW117558   2.971   4.685   3.157 -1.7119  1.3478  3.3447
 1975SOL    HW217559   2.933   0.086   3.128 -0.2071 -1.2452  0.3932
 1976SOL     OW17560   2.251   0.439   2.858  0.3051 -0.2408  0.4441
 1976SOL    HW117561   2.174   0.451   2.801  0.3957  0.8640  0.5542
 1976SOL    HW217562   2.317   0.389   2.810 -0.5246 -2.4355  1.6402
 1977SOL     OW17563   3.089   1.160  13.921 -0.1294 -0.7246  0.8780
 1977SOL    HW117564   3.008   1.193  13.883 -1.0712 -2.7613  1.1434
 1977SOL    HW217565   3.156   1.218  13.884 -0.2276 -1.0376  0.2235
 1978SOL     OW17566   0.333   3.127  16.298  0.3309 -0.3262  0.8927
 1978SOL    HW117567   0.392   3.116  16.223  1.6173 -0.0157  1.8624
 1978SOL    HW217568   0.297   3.216  16.296  2.4290  0.5093  1.1179
 1979SOL     OW17569   4.406   3.838  13.980  0.8823 -0.2603  0.4693
 1979SOL    HW117570   4.450   3.760  13.945 -1.1969 -0.9992 -0.4656
 1979SOL    HW217571   4.324   3.799  14.009  1.1038 -0.6636  0.5630
 1980SOL     OW17572   3.887   4.135  10.514 -0.1668 -0.7527  0.3060
 1980SOL    HW117573   3.805   4.180  10.492  0.3134  1.1972  2.5837
 1980SOL    HW217574   3.957   4.200  10.507  0.6462 -1.5272  1.2454
 1981SOL     OW17575   4.681   1.649   5.417  0.0778 -0.2731 -0.1309
 1981SOL    HW117576   4.658   1.740   5.401  2.7092  0.9188  2.7597
 1981SOL    HW217577   4.722   1.666   5.502 -1.5376 -0.8934  0.7748
 1982SOL     OW17578   0.655   0.774   3.836  0.0154  0.2390 -0.1575
 1982SOL    HW117579   0.677   0.868   3.838 -1.9031  0.6499  2.5121
 1982SOL    HW217580   0.579   0.761   3.892 -0.9453  0.2944 -1.4478
 1983SOL     OW17581   0.615   3.529  15.018  0.3347  0.7636  0.1959
 1983SOL    HW117582   0.639   3.590  15.088 -2.1893  0.1199  1.6221
 1983SOL    HW217583   0.686   3.546  14.956  0.8978  1.5405  1.0447
 1984SOL     OW17584   3.433   2.463  12.089  0.0765  0.1982  0.5173
 1984SOL    HW117585   3.358   2.439  12.144  0.1331  2.0334  1.3932
 1984SOL    HW217586   3.407   2.418  12.009 -2.0295  0.2810  1.1625
 1985SOL     OW17587   3.609   4.336   4.971  0.0036  0.2963 -0.2727
 1985SOL    HW117588   3.693   4.291   4.978 -0.2333 -0.0918  0.0776
 1985SOL    HW217589   3.559   4.298   5.043  0.2854  0.0242 -0.2207
 1986SOL     OW17590   3.857   2.698   5.748  0.7504 -0.0176  0.4714
 1986SOL    HW117591   3.769   2.718   5.781  0.6319 -1.2916  0.9307
 1986SOL    HW217592   3.905   2.685   5.830  0.5460 -0.6269  0.4929
 1987SOL     OW17593   2.605   3.125   0.995 -0.1033 -0.2386 -0.6719
 1987SOL    HW117594   2.659   3.136   0.916  1.6074 -1.1173  0.3758
 1987SOL    HW217595   2.518   3.114   0.959 -0.9392  2.7364  0.4444
 1988SOL     OW17596   0.998   1.004   8.431 -0.4727  0.2469  0.1448
 1988SOL    HW117597   0.923   1.033   8.484  0.0857  0.7876  0.6474
 1988SOL    HW217598   0.984   1.059   8.354  0.6372 -1.8406 -1.5531
 1989SOL     OW17599   2.364   2.579  13.682 -0.7331  0.5624 -0.0161
 1989SOL    HW117600   2.453   2.545  13.690 -1.4527 -1.1331  0.6533
 1989SOL    HW217601   2.338   2.532  13.603 -1.3377 -2.5016  2.0094
 1990SOL     OW17602   1.125   1.166   2.889 -0.2346  0.1474 -0.0625
 1990SOL    HW117603   1.210   1.123   2.890 -0.2051  0.2165  1.1073
 1990SOL    HW217604   1.121   1.210   2.974  0.3458 -1.7105  0.9179
 1991SOL     OW17605   0.147   0.016   4.028  0.1198  0.4102  0.4224
 1991SOL    HW117606   0.104   0.101   4.019  3.4394  1.9820 -0.8296
 1991SOL    HW217607   0.103   4.711   3.954  0.2807  3.4250 -1.4416
 1992SOL     OW17608   2.666   3.920   7.962  0.7226 -0.1245 -0.5279
 1992SOL    HW117609   2.732   3.876   7.909 -0.9946 -1.8522 -1.2096
 1992SOL    HW217610   2.691   3.877   8.044 -2.0270 -0.1497  0.2772
 1993SOL     OW17611   3.057   2.336   8.783  0.2491  0.4415  0.0515
 1993SOL    HW117612   3.027   2.353   8.872 -0.2421 -2.3778  0.4002
 1993SOL    HW217613   3.148   2.310   8.798  1.5774  3.1242 -3.3111
 1994SOL     OW17614   4.479   1.267   8.325 -0.1998 -0.0596  0.3522
 1994SOL    HW117615   4.537   1.249   8.398 -0.6325 -0.2783  0.6413
 1994SOL    HW217616   4.416   1.331   8.360 -0.1751 -0.9670  2.0491
 1995SOL     OW17617   0.947   2.882   1.981 -0.4932 -0.1432  0.6556
 1995SOL    HW117618   1.034   2.920   1.972  0.6771 -3.1582 -0.7620
 1995SOL    HW217619   0.902   2.950   2.030  2.7650  1.2824  1.6304
 1996SOL     OW17620   4.624   0.111   5.948  0.2919  0.1507  0.2381
 1996SOL    HW117621   4.631   0.036   5.889 -1.5725 -1.1485  1.6416
 1996SOL    HW217622   4.657   0.078   6.031 -0.2945  1.7486  1.1155
 1997SOL     OW17623   2.538   0.993   1.542 -0.0534 -0.0202  0.2757
 1997SOL    HW117624   2.578   1.023   1.623  0.6038  2.5186 -0.9869
 1997SOL    HW217625   2.606   0.955   1.486 -0.5828 -1.6057  0.6968
 1998SOL     OW17626   2.771   3.725  17.073 -0.2466  0.2168 -0.0441
 1998SOL    HW117627   2.781   3.819  17.066  1.4346  0.2007  2.0591
 1998SOL    HW217628   2.683   3.716  17.109 -1.0613 -1.2328 -2.3912
 1999SOL     OW17629   1.922   4.032   5.912 -0.3932  0.8411  0.2140
 1999SOL    HW117630   1.948   4.057   5.823 -1.7987 -0.1368 -0.4710
 1999SOL    HW217631   1.826   4.035   5.913 -0.3564  1.5201  2.1909
 2000SOL     OW17632   4.066   4.619   7.387 -0.6147 -0.3183  0.0651
 2000SOL    HW117633   4.079   4.682   7.316  0.2698  0.9485  1.3535
 2000SOL    HW217634   4.062   4.537   7.339  1.5015  0.1073 -0.8110
 2001SOL     OW17635   0.313   0.989  12.695  0.1982 -0.3545 -0.3830
 2001SOL    HW117636   0.366   1.031  12.762  0.7805 -1.3518 -0.2123
 2001SOL    HW217637   0.259   1.067  12.682 -0.0138 -0.0633  2.2168
 2002SOL     OW17638   4.163   4.469   1.003  0.1359 -0.3798 -0.2427
 2002SOL    HW117639   4.244   4.419   1.018 -0.5622 -0.8612  1.7715
 2002SOL    HW217640   4.103   4.412   1.051 -2.5334  0.2751 -2.8072
 2003SOL     OW17641   3.180   2.844   5.483 -0.5484  0.1826 -0.4546
 2003SOL    HW117642   3.162   2.881   5.569  0.7452  3.5033 -1.6274
 2003SOL    HW217643   3.271   2.869   5.472 -0.1995 -1.1035 -0.4695
 2004SOL     OW17644   0.728   3.513  12.794  0.2642  0.0191  0.2884
 2004SOL    HW117645   0.693   3.545  12.878  0.2699 -1.9532  1.0343
 2004SOL    HW217646   0.694   3.424  12.798 -1.5543  0.7157  0.3915
 2005SOL     OW17647   1.490   3.295   7.909 -0.0019  0.0979 -0.8331
 2005SOL    HW117648   1.500   3.356   7.982  0.6324 -0.1073 -0.7521
 2005SOL    HW217649   1.403   3.310   7.872  1.1893  0.4661 -3.4877
 2006SOL     OW17650   3.410   3.370   9.127 -0.3715 -0.4255 -0.1172
 2006SOL    HW117651   3.351   3.412   9.189  1.0540 -1.2580  1.8134
 2006SOL    HW217652   3.455   3.446   9.091 -2.3532  0.3629 -0.9203
 2007SOL     OW17653   0.619   2.692  17.197 -0.0585  0.0355 -0.7915
 2007SOL    HW117654   0.561   2.694  17.273  0.6209 -2.0067 -0.2292
 2007SOL    HW217655   0.553   2.689  17.128 -0.2957  0.9521 -0.6092
 2008SOL     OW17656   4.394   2.131   3.668 -0.2106 -0.0067  0.3199
 2008SOL    HW117657   4.307   2.165   3.647 -0.0947  0.7721  1.1191
 2008SOL    HW217658   4.368   2.044   3.699 -2.9247  0.5206 -0.4382
 2009SOL     OW17659   3.667   1.658   2.810  0.1127  0.0274 -0.3723
 2009SOL    HW117660   3.602   1.589   2.822 -1.0967  2.0150  4.2561
 2009SOL    HW217661   3.686   1.675   2.902  0.9159 -0.4086 -0.4575
 2010SOL     OW17662   1.122   0.133   0.681  0.3108  0.1112 -0.5272
 2010SOL    HW117663   1.047   0.177   0.722  0.3865 -0.1924 -0.0532
 2010SOL    HW217664   1.191   0.186   0.722  0.4632 -0.3924 -0.1327
 2011SOL     OW17665   4.027   1.936   8.818 -0.0432  1.1740 -0.1526
 2011SOL    HW117666   3.954   1.916   8.877  1.3053 -1.0476  0.7860
 2011SOL    HW217667   4.002   2.024   8.792  1.7522  1.3815 -1.1861
 2012SOL     OW17668   4.532   2.237   1.713  0.1803 -0.5524  0.3731
 2012SOL    HW117669   4.623   2.265   1.723  0.3359 -1.0719  0.3934
 2012SOL    HW217670   4.538   2.155   1.663  0.8399 -0.3940  0.1866
 2013SOL     OW17671   1.825   3.601   5.850 -0.9701  0.3479 -0.4674
 2013SOL    HW117672   1.801   3.638   5.764  1.3519 -1.6838 -1.9768
 2013SOL    HW217673   1.888   3.665   5.882  0.2806 -0.9875 -0.3063
 2014SOL     OW17674   2.329   2.297   5.462  0.3561  0.4588 -0.2505
 2014SOL    HW117675   2.256   2.245   5.430 -0.9542  1.4266  1.1820
 2014SOL    HW217676   2.308   2.376   5.413 -2.9208 -0.2102  0.0994
 2015SOL     OW17677   1.169   1.811  10.934  0.0139  0.3673  0.2659
 2015SOL    HW117678   1.179   1.896  10.978  0.9101 -0.9403  2.5668
 2015SOL    HW217679   1.199   1.842  10.848  1.4978  0.5759  0.8575
 2016SOL     OW17680   1.079   4.547  17.481  0.6404  0.0739 -0.2327
 2016SOL    HW117681   1.058   4.611  17.549  1.3245 -1.2098  1.2096
 2016SOL    HW217682   1.161   4.580  17.445  0.7489 -2.0309 -1.8909
 2017SOL     OW17683   1.899   0.275   3.987 -1.1739 -0.1739  0.2090
 2017SOL    HW117684   1.817   0.325   3.980  0.7454  2.8464 -0.8175
 2017SOL    HW217685   1.866   0.196   3.944 -2.7794  0.9396 -0.6169
 2018SOL     OW17686   4.153   1.029  10.058  0.1628 -0.2389  0.3334
 2018SOL    HW117687   4.199   1.043  10.140 -2.6761 -2.4228  2.2799
 2018SOL    HW217688   4.234   1.025  10.008  0.8850 -0.4142  1.5393
 2019SOL     OW17689   0.580   1.590  17.040 -0.0633 -0.0894  0.1415
 2019SOL    HW117690   0.665   1.556  17.012  1.5166  3.9874  0.0061
 2019SOL    HW217691   0.555   1.643  16.965  1.2036 -0.4349 -0.5287
 2020SOL     OW17692   3.645   3.815   8.039  0.2900  0.2419  0.0852
 2020SOL    HW117693   3.656   3.891   7.982 -1.1467 -0.5941 -1.2967
 2020SOL    HW217694   3.734   3.787   8.060  0.7175  0.0506 -1.9737
 2021SOL     OW17695   2.880   1.637   6.788 -0.3181 -0.1574 -0.2821
 2021SOL    HW117696   2.839   1.721   6.766 -1.0773 -0.9765 -1.9765
 2021SOL    HW217697   2.820   1.609   6.858 -0.6736 -0.3222 -0.6525
 2022SOL     OW17698   1.413   3.227   7.329  0.2515 -0.1996  0.0321
 2022SOL    HW117699   1.438   3.208   7.419  0.0334 -1.4683 -0.1647
 2022SOL    HW217700   1.485   3.191   7.277  0.4224  1.4044 -0.8458
 2023SOL     OW17701   3.605   0.107   1.565 -0.3332 -0.1783 -0.3291
 2023SOL    HW117702   3.695   0.140   1.556 -0.5957  0.1934 -1.6084
 2023SOL    HW217703   3.619   0.030   1.510  0.8305 -0.2275  0.0408
 2024SOL     OW17704   3.941   0.591   3.377  0.6641 -0.0455  0.6061
 2024SOL    HW117705   3.846   0.603   3.368  0.8531  0.1519 -1.1351
 2024SOL    HW217706   3.949   0.516   3.319 -0.1185 -0.2412  0.7544
 2025SOL     OW17707   1.456   0.541   1.898 -0.6075 -0.2594  0.0052
 2025SOL    HW117708   1.369   0.541   1.937 -0.4105 -0.6114  0.4383
 2025SOL    HW217709   1.436   0.557   1.806  0.4581 -0.4967 -0.2674
 2026SOL     OW17710   3.324   4.150   9.120 -0.3375  0.3520 -0.0966
 2026SOL    HW117711   3.316   4.245   9.115 -0.6712  0.4056  1.5897
 2026SOL    HW217712   3.344   4.124   9.030 -0.3970 -1.2878  0.3588
 2027SOL     OW17713   0.165   1.233  12.708  0.8123 -0.0229 -0.0118
 2027SOL    HW117714   0.168   1.240  12.612  2.5081 -2.2725 -0.1384
 2027SOL    HW217715   0.147   1.322  12.736  2.1491 -0.4381  2.1263
 2028SOL     OW17716   0.817   0.230  17.521 -0.5815  0.1122 -0.3525
 2028SOL    HW117717   0.907   0.220  17.489 -0.6899  0.8737 -0.9024
 2028SOL    HW217718   0.836   0.252  17.612  0.1724  0.8252 -0.6874
 2029SOL     OW17719   3.298   0.490  14.720 -0.5451  0.4032 -0.5316
 2029SOL    HW117720   3.362   0.517  14.653 -0.3978  1.4040  0.0224
 2029SOL    HW217721   3.304   0.568  14.774  2.3295 -0.2603  0.1349
 2030SOL     OW17722   1.651   4.092   3.495 -0.1715  0.4782 -0.3410
 2030SOL    HW117723   1.747   4.099   3.489  0.0646 -1.7864  1.2888
 2030SOL    HW217724   1.633   4.007   3.535 -0.3690  0.8103  0.2746
 2031SOL     OW17725   0.579   2.583   7.830  0.1097  0.2729  0.1770
 2031SOL    HW117726   0.525   2.568   7.908  2.4295 -2.0047  1.3599
 2031SOL    HW217727   0.515   2.603   7.762  0.6051 -1.6421 -0.8415
 2032SOL     OW17728   3.602   0.526   3.758  0.6944  0.2386  0.0776
 2032SOL    HW117729   3.609   0.589   3.829 -1.0516  0.8221 -0.2680
 2032SOL    HW217730   3.520   0.477   3.770 -0.1952  1.8753  0.6191
 2033SOL     OW17731   0.633   2.343  16.554  0.4294  0.5393  0.1626
 2033SOL    HW117732   0.635   2.355  16.459 -1.0008 -0.2491  0.0471
 2033SOL    HW217733   0.665   2.430  16.580 -0.4502  0.8444  0.2323
 2034SOL     OW17734   1.052   1.416  11.708 -0.5782 -0.0885  0.2945
 2034SOL    HW117735   0.969   1.374  11.728  0.0530 -0.9005  1.2258
 2034SOL    HW217736   1.099   1.349  11.659  1.1167  2.1566 -1.1520
 2035SOL     OW17737   0.820   2.895   5.563 -0.1288  0.4094  0.2495
 2035SOL    HW117738   0.741   2.844   5.547  1.1939 -1.7369  0.5583
 2035SOL    HW217739   0.799   2.940   5.645  1.4949  1.4112  0.1251
 2036SOL     OW17740   1.859   3.423   2.173  0.4769  0.0985 -0.5805
 2036SOL    HW117741   1.938   3.396   2.126 -0.3068  0.6535 -2.2019
 2036SOL    HW217742   1.816   3.479   2.109  0.8682  0.9338 -0.1073
 2037SOL     OW17743   2.408   2.261   2.125 -0.4924  0.1408 -0.8329
 2037SOL    HW117744   2.321   2.300   2.113  0.0455  1.6002  0.0854
 2037SOL    HW217745   2.390   2.201   2.197 -0.4687 -0.1264 -1.0501
 2038SOL     OW17746   2.279   2.182   3.146 -0.1033 -0.0246 -0.1113
 2038SOL    HW117747   2.199   2.227   3.117  0.3767  0.7011 -0.3131
 2038SOL    HW217748   2.350   2.246   3.151  0.4943 -0.6706 -0.3239
 2039SOL     OW17749   0.821   1.001  11.699 -0.3138  0.0195 -0.3736
 2039SOL    HW117750   0.796   1.092  11.685 -0.7103 -0.3469 -2.0609
 2039SOL    HW217751   0.793   0.971  11.613  0.2506  0.4876 -0.7214
 2040SOL     OW17752   3.159   4.378   4.035 -0.0354  0.0172  0.6161
 2040SOL    HW117753   3.203   4.401   4.116 -0.5042 -0.4022  0.9875
 2040SOL    HW217754   3.087   4.442   4.035 -1.0177 -1.0936  0.4866
 2041SOL     OW17755   1.381   2.509   7.042  0.7755  0.2035  0.2842
 2041SOL    HW117756   1.452   2.572   7.051  2.2960 -1.2423 -1.3985
 2041SOL    HW217757   1.300   2.558   7.029 -1.1277 -3.0865 -0.4364
 2042SOL     OW17758   3.984   2.598   1.749  0.1046 -0.2813 -0.0006
 2042SOL    HW117759   4.067   2.584   1.795 -0.5125 -1.3401  0.7975
 2042SOL    HW217760   3.934   2.605   1.830  2.8620  3.5424  1.3158
 2043SOL     OW17761   0.185   0.324   1.556 -0.2957  0.1304 -0.6122
 2043SOL    HW117762   0.185   0.277   1.640  1.0668 -0.0315 -0.7007
 2043SOL    HW217763   0.166   0.413   1.588 -0.7139 -0.5491  1.0629
 2044SOL     OW17764   1.077   2.224  10.636  0.5878 -0.5275  0.6864
 2044SOL    HW117765   1.131   2.147  10.621  0.4804 -0.5245  0.2955
 2044SOL    HW217766   1.113   2.240  10.723 -1.0135  0.7029  1.1265
 2045SOL     OW17767   1.434   1.766  15.075 -1.0729  0.5221 -0.3294
 2045SOL    HW117768   1.353   1.768  15.024  0.2368 -0.1457 -2.4224
 2045SOL    HW217769   1.462   1.686  15.032 -0.5933  0.2193  0.5452
 2046SOL     OW17770   1.126   4.269   9.308  0.1687  0.5030 -0.2408
 2046SOL    HW117771   1.168   4.188   9.281 -0.6150  0.5655 -1.6453
 2046SOL    HW217772   1.075   4.231   9.380  0.8810 -0.8967 -0.4836
 2047SOL     OW17773   3.155   2.440   7.284  0.1930  0.5851  0.1552
 2047SOL    HW117774   3.115   2.366   7.330  1.0321  0.1066  0.1044
 2047SOL    HW217775   3.113   2.517   7.322  1.9740  1.2778  0.7197
 2048SOL     OW17776   1.873   1.409   2.212  0.1294  0.0806  0.2186
 2048SOL    HW117777   1.842   1.335   2.159  0.0185 -0.1888  0.6587
 2048SOL    HW217778   1.892   1.469   2.141  1.7757 -1.5705 -0.7450
 2049SOL     OW17779   2.409   3.765  14.347 -0.0580 -0.7672 -0.2420
 2049SOL    HW117780   2.465   3.722  14.282  3.1364  2.4224  0.4422
 2049SOL    HW217781   2.442   3.726  14.428 -0.4624  1.3291  0.9296
 2050SOL     OW17782   4.482   3.324   3.960  0.1196  0.1240 -0.1444
 2050SOL    HW117783   4.414   3.380   3.924 -0.9917 -1.0129  0.1875
 2050SOL    HW217784   4.546   3.392   3.981  1.5564 -1.1238 -0.4509
 2051SOL     OW17785   3.104   1.416   7.741 -0.1843 -0.4374  0.1508
 2051SOL    HW117786   3.062   1.433   7.657 -0.3849 -2.2556 -0.1289
 2051SOL    HW217787   3.033   1.387   7.798 -3.4480  0.6092 -3.3646
 2052SOL     OW17788   4.019   2.059   8.487  0.6336  0.0964  1.0070
 2052SOL    HW117789   3.926   2.041   8.472  0.4064  0.5981  1.7581
 2052SOL    HW217790   4.025   2.106   8.570  2.8403 -0.6166  1.2377
 2053SOL     OW17791   0.339   3.591   3.249  0.3911  0.0039 -0.2523
 2053SOL    HW117792   0.366   3.623   3.163 -0.5459  2.4298  0.3293
 2053SOL    HW217793   0.253   3.553   3.230  0.3073  0.7581 -1.3958
 2054SOL     OW17794   2.313   2.011   9.272  0.2435  0.4984 -0.4155
 2054SOL    HW117795   2.315   2.058   9.356 -2.5507 -0.8059  0.3774
 2054SOL    HW217796   2.395   2.025   9.225 -0.6479  1.8821 -1.5471
 2055SOL     OW17797   2.277   2.671   8.123 -0.3501 -0.4743 -0.3408
 2055SOL    HW117798   2.370   2.689   8.135 -0.4044 -0.7811  0.5018
 2055SOL    HW217799   2.291   2.578   8.108  1.1048 -0.5819  1.7466
 2056SOL     OW17800   2.528   1.545   6.179  0.0235  0.6014  1.0500
 2056SOL    HW117801   2.506   1.557   6.087 -1.3805 -0.5601  1.2362
 2056SOL    HW217802   2.560   1.629   6.213 -0.6071  1.3373 -0.1679
 2057SOL     OW17803   1.527   3.529   8.523 -0.3489  0.4663  0.4324
 2057SOL    HW117804   1.471   3.454   8.542 -0.9193  0.8702  0.3280
 2057SOL    HW217805   1.609   3.496   8.562 -1.1567 -0.0682  1.6853
 2058SOL     OW17806   0.480   0.481   1.898  0.2243  0.2779 -0.4637
 2058SOL    HW117807   0.488   0.391   1.867  2.0691  0.6273 -0.9875
 2058SOL    HW217808   0.545   0.512   1.835  0.8247  0.6580  0.3456
 2059SOL     OW17809   1.627   0.395   6.452 -0.3250  0.0068 -0.0391
 2059SOL    HW117810   1.560   0.328   6.456  0.7032 -0.7831  3.2785
 2059SOL    HW217811   1.669   0.387   6.366 -2.2443 -1.4412 -0.8385
 2060SOL     OW17812   3.789   1.599   6.125 -0.5268  0.1159  0.0838
 2060SOL    HW117813   3.694   1.605   6.116 -0.5852 -1.4532 -0.3937
 2060SOL    HW217814   3.808   1.529   6.063  1.0338  0.2182  0.4402
 2061SOL     OW17815   0.106   3.461   3.343 -0.5685  0.0572  0.7242
 2061SOL    HW117816   0.030   3.411   3.374 -0.8808 -0.5315 -1.0404
 2061SOL    HW217817   0.172   3.418   3.397 -0.7171  2.1091  2.5554
 2062SOL     OW17818   0.033   1.584   6.961  0.6128  0.0962 -0.0762
 2062SOL    HW117819   0.076   1.590   7.047  0.2928  0.5257  0.0560
 2062SOL    HW217820   0.113   1.569   6.912  0.5181  2.1700 -0.8734
 2063SOL     OW17821   0.597   0.228   9.558  0.3448 -0.3133  0.0514
 2063SOL    HW117822   0.581   0.272   9.474 -0.7336 -1.3181 -0.2593
 2063SOL    HW217823   0.576   0.136   9.543 -0.5031 -0.1636  0.3633
 2064SOL     OW17824   4.326   2.060   8.641  0.1243  0.0957 -0.0040
 2064SOL    HW117825   4.238   2.023   8.637  0.3038 -0.1778 -1.4874
 2064SOL    HW217826   4.310   2.134   8.699 -0.5823 -1.5229  1.8416
 2065SOL     OW17827   3.865   0.220   2.293 -0.2077  0.2580 -0.3314
 2065SOL    HW117828   3.808   0.158   2.340  0.2208  0.4113  0.3966
 2065SOL    HW217829   3.937   0.210   2.355 -0.6074  0.9029  0.2345
 2066SOL     OW17830   2.695   3.989   8.366  0.2295  0.0725  0.0222
 2066SOL    HW117831   2.782   3.957   8.389  1.1987 -0.2870 -4.1390
 2066SOL    HW217832   2.655   3.916   8.414 -1.5266  2.3462  1.9608
 2067SOL     OW17833   3.848   0.718   7.846 -0.4701 -0.3999  0.1168
 2067SOL    HW117834   3.923   0.725   7.905 -0.8394 -0.2327  0.5736
 2067SOL    HW217835   3.787   0.692   7.916 -2.1415  0.3747 -1.0645
 2068SOL     OW17836   2.141   0.150   3.884 -0.0051 -0.4166 -0.3358
 2068SOL    HW117837   2.138   0.155   3.980 -0.6863 -0.3850 -0.3575
 2068SOL    HW217838   2.055   0.185   3.860 -0.1377 -0.7687 -0.3682
 2069SOL     OW17839   2.359   0.972   7.158  0.0145 -0.1013  0.4019
 2069SOL    HW117840   2.447   0.969   7.121 -0.7240 -0.8223 -1.3046
 2069SOL    HW217841   2.308   0.932   7.087 -0.2104 -1.0618  1.1075
 2070SOL     OW17842   1.209   0.765   9.674 -0.0077  0.2670  0.5069
 2070SOL    HW117843   1.211   0.676   9.709 -2.6840 -0.4508 -1.1689
 2070SOL    HW217844   1.302   0.783   9.665 -0.7232  3.0299 -1.6288
 2071SOL     OW17845   3.086   0.823   7.190 -0.4891 -0.2629  0.1395
 2071SOL    HW117846   3.102   0.813   7.284 -1.2011 -0.9614  0.1850
 2071SOL    HW217847   3.009   0.879   7.194  1.4041  2.5002 -2.0023
 2072SOL     OW17848   1.331   2.976   5.396  0.3857  0.1088  0.4890
 2072SOL    HW117849   1.243   2.979   5.435  0.1247 -0.6476 -0.0434
 2072SOL    HW217850   1.384   3.022   5.461  0.4637  0.5358  0.1237
 2073SOL     OW17851   0.766   4.344   5.046  0.5749  0.2602  0.2190
 2073SOL    HW117852   0.785   4.406   5.116  1.2369 -0.7174  0.9224
 2073SOL    HW217853   0.846   4.353   4.994 -0.5673  1.9658 -1.2064
 2074SOL     OW17854   3.436   1.010   0.219  0.1901  0.3137 -0.4234
 2074SOL    HW117855   3.405   1.086   0.267 -0.6881 -0.7751  0.7252
 2074SOL    HW217856   3.385   0.946   0.269  0.7745 -0.7586 -1.2187
 2075SOL     OW17857   3.634   1.799   5.112 -0.5004 -0.6954  0.2170
 2075SOL    HW117858   3.556   1.800   5.056 -0.5898  4.2892  0.3808
 2075SOL    HW217859   3.601   1.816   5.201 -3.0767 -2.8689 -0.3296
 2076SOL     OW17860   4.700   0.658   6.041 -0.7542 -0.4187  0.5078
 2076SOL    HW117861   0.021   0.584   6.022 -1.4576 -1.1250  1.0552
 2076SOL    HW217862   4.662   0.676   5.955  0.7687  2.7286  0.5369
 2077SOL     OW17863   3.241   4.373   2.767 -0.9724 -0.3070  0.5935
 2077SOL    HW117864   3.325   4.418   2.757 -1.4398  0.2844 -0.6291
 2077SOL    HW217865   3.186   4.439   2.725 -2.2422 -0.5964  1.7818
 2078SOL     OW17866   4.523   4.123   3.054  0.2665 -0.0594  0.6244
 2078SOL    HW117867   4.443   4.112   3.105  0.3352 -1.5459  0.4134
 2078SOL    HW217868   4.537   4.217   3.040 -0.8393  0.0044  0.0188
 2079SOL     OW17869   0.468   3.375   2.222 -0.3861  0.0921  0.1202
 2079SOL    HW117870   0.524   3.327   2.161  0.4024  1.9484 -0.6106
 2079SOL    HW217871   0.454   3.314   2.295  1.6131  1.8000  1.9550
 2080SOL     OW17872   3.141   2.131   1.634  0.0042 -0.2725 -0.5558
 2080SOL    HW117873   3.081   2.181   1.690 -0.0567 -0.1817 -0.6998
 2080SOL    HW217874   3.217   2.154   1.686 -2.0452  0.4183  2.1490
 2081SOL     OW17875   3.853   3.052   7.736 -0.0835 -0.5730 -0.1192
 2081SOL    HW117876   3.805   2.993   7.678 -1.0784  0.9069 -0.7839
 2081SOL    HW217877   3.848   3.007   7.821  1.9445 -1.0774 -0.2586
 2082SOL     OW17878   1.254   0.888  12.382 -0.0095 -0.3182 -0.1254
 2082SOL    HW117879   1.167   0.891  12.420  0.8269  0.5291  1.7453
 2082SOL    HW217880   1.298   0.897  12.467  1.2173 -1.5686 -0.6182
 2083SOL     OW17881   1.711   4.193   4.464  0.6513  0.7590  0.0989
 2083SOL    HW117882   1.634   4.136   4.462  0.6473  0.6974  2.1367
 2083SOL    HW217883   1.753   4.171   4.547  2.0198 -1.3374 -1.1505
 2084SOL     OW17884   4.084   4.651   7.865 -0.2219 -0.0594 -0.7907
 2084SOL    HW117885   4.143   4.710   7.817  0.6105 -0.6890 -0.5279
 2084SOL    HW217886   4.008   4.644   7.806 -0.1408  1.9775 -1.1405
 2085SOL     OW17887   4.130   0.542   6.925  0.0990 -0.3435  0.4162
 2085SOL    HW117888   4.050   0.593   6.939 -1.0839 -2.4790  1.2957
 2085SOL    HW217889   4.183   0.576   6.996 -0.1523  2.6067 -0.8020
 2086SOL     OW17890   3.956   4.300   7.705 -0.0143 -0.4066  0.0138
 2086SOL    HW117891   3.998   4.341   7.781  1.9115  1.0939 -1.8477
 2086SOL    HW217892   3.932   4.373   7.648  0.4803  0.7641  1.2903
 2087SOL     OW17893   1.673   1.388   1.963  0.3396 -0.5210 -0.3567
 2087SOL    HW117894   1.712   1.432   1.888  1.7168  1.2227  1.3662
 2087SOL    HW217895   1.655   1.467   2.016 -0.6828 -1.6530  0.9885
 2088SOL     OW17896   2.235   3.107   0.663 -0.2670  0.2012  0.2732
 2088SOL    HW117897   2.272   3.091   0.577  0.8062 -0.8926  0.9416
 2088SOL    HW217898   2.145   3.078   0.646 -0.3528  1.4413 -1.3547
 2089SOL     OW17899   2.639   2.903   2.822 -0.1922 -0.1783  0.1066
 2089SOL    HW117900   2.626   2.907   2.727  2.8275  0.8999 -0.2536
 2089SOL    HW217901   2.571   2.840   2.846 -0.6080  0.9163  1.8384
 2090SOL     OW17902   0.971   0.508   8.813 -0.8547 -0.2595 -0.2920
 2090SOL    HW117903   0.960   0.600   8.837  1.8750  0.3445 -1.3495
 2090SOL    HW217904   0.977   0.465   8.898  1.7227  0.0991 -0.3018
 2091SOL     OW17905   0.796   2.681   0.313  0.0891 -1.2359 -0.3307
 2091SOL    HW117906   0.778   2.636   0.396 -0.2963 -3.2932 -1.5275
 2091SOL    HW217907   0.807   2.770   0.347 -4.0314 -0.7194 -0.2853
 2092SOL     OW17908   1.640   1.849   7.720  0.4230  0.0937 -0.3276
 2092SOL    HW117909   1.652   1.766   7.766  0.0215 -0.0045 -0.4026
 2092SOL    HW217910   1.706   1.904   7.763 -0.4058 -1.4837  2.9483
 2093SOL     OW17911   3.638   0.036  12.682 -0.2347 -0.4051  0.1003
 2093SOL    HW117912   3.716   0.061  12.730  0.5007  0.3203 -1.4632
 2093SOL    HW217913   3.591   4.704  12.729 -1.5156  1.4789  1.6081
 2094SOL     OW17914   0.146   0.866   2.597  0.6502  0.0118 -0.4829
 2094SOL    HW117915   0.104   0.919   2.529 -1.1611 -0.3380  0.3779
 2094SOL    HW217916   0.207   0.929   2.635 -0.2936  0.3350  0.5094
 2095SOL     OW17917   3.626   0.364   8.487 -0.2742 -1.0526  0.4857
 2095SOL    HW117918   3.580   0.328   8.411 -1.9501 -0.0890  1.0442
 2095SOL    HW217919   3.567   0.434   8.513  1.3303  0.5399 -0.1933
 2096SOL     OW17920   2.828   4.395   8.988  0.5534 -0.3970 -0.3648
 2096SOL    HW117921   2.743   4.410   8.948 -0.4470 -3.0454  0.7447
 2096SOL    HW217922   2.818   4.453   9.063 -1.6309  1.1865 -1.9078
 2097SOL     OW17923   1.201   0.510   9.745  0.2542  0.6608 -0.2428
 2097SOL    HW117924   1.225   0.521   9.837 -2.9175  0.9240  0.5309
 2097SOL    HW217925   1.224   0.418   9.738 -1.8121  0.0814  0.7335
 2098SOL     OW17926   4.069   1.097   9.630  0.4915  0.3417  0.0501
 2098SOL    HW117927   4.080   1.052   9.546  2.3907 -3.7135  2.4844
 2098SOL    HW217928   4.029   1.024   9.679 -2.4283  1.3235 -0.8777
 2099SOL     OW17929   3.732   1.131   9.371  0.0923 -0.2362  0.5926
 2099SOL    HW117930   3.686   1.047   9.378  2.7143 -1.6524  0.8671
 2099SOL    HW217931   3.820   1.103   9.348 -0.6009 -1.0237 -1.0814
 2100SOL     OW17932   2.127   2.936   5.189 -0.2193 -0.0312  0.0937
 2100SOL    HW117933   2.094   2.982   5.112 -3.0453 -0.6257  0.9500
 2100SOL    HW217934   2.079   2.993   5.250 -1.4517  2.3872 -3.1464
 2101SOL     OW17935   3.194   1.231  12.257  0.1480 -0.2452 -0.8177
 2101SOL    HW117936   3.282   1.209  12.286 -0.0830  1.4619  1.2167
 2101SOL    HW217937   3.169   1.296  12.323  2.3834  0.1350 -0.3488
 2102SOL     OW17938   1.867   0.411  14.477  0.3643  0.8940 -0.7939
 2102SOL    HW117939   1.824   0.466  14.542  1.2694 -1.6078  1.8884
 2102SOL    HW217940   1.880   0.477  14.409 -0.0837  1.1606 -0.6217
 2103SOL     OW17941   3.924   2.694  12.098  0.4665 -0.2701 -1.0054
 2103SOL    HW117942   3.838   2.654  12.109  1.4014 -2.4338 -1.6822
 2103SOL    HW217943   3.918   2.756  12.171  0.2232 -0.2452 -1.0454
 2104SOL     OW17944   3.523   1.484   2.956  0.1538  0.7855  0.0666
 2104SOL    HW117945   3.483   1.430   2.888  1.6690 -1.0152  0.6225
 2104SOL    HW217946   3.531   1.422   3.028 -0.8317 -0.3194 -0.7763
 2105SOL     OW17947   4.435   2.928   1.646  0.3535  0.1801  0.0245
 2105SOL    HW117948   4.368   2.890   1.704  0.2302 -1.5746 -1.2784
 2105SOL    HW217949   4.468   3.004   1.695  2.6398 -0.1477 -0.9992
 2106SOL     OW17950   0.432   3.682   3.020 -0.3983 -0.2018 -0.5883
 2106SOL    HW117951   0.457   3.617   2.954  1.2761 -0.2858  0.1320
 2106SOL    HW217952   0.382   3.740   2.964  0.8263  3.4541  2.0860
 2107SOL     OW17953   0.162   1.620   7.179  0.4516  0.3665  0.4103
 2107SOL    HW117954   0.221   1.695   7.172 -0.8718  1.0891 -2.9868
 2107SOL    HW217955   0.222   1.555   7.215 -1.8464 -1.4964  0.8582
 2108SOL     OW17956   2.361   2.576   3.412 -0.6887  0.2115 -0.0979
 2108SOL    HW117957   2.371   2.578   3.507 -1.2635  0.6345 -0.0505
 2108SOL    HW217958   2.435   2.633   3.389  0.5339 -1.8643 -1.2447
 2109SOL     OW17959   4.263   1.325   4.647 -0.8491 -0.3060 -0.1314
 2109SOL    HW117960   4.202   1.377   4.594 -0.6147 -0.8028 -0.8854
 2109SOL    HW217961   4.202   1.257   4.674 -1.3794 -0.0265 -0.6108
 2110SOL     OW17962   4.446   4.140   9.279 -0.5135 -0.7697  0.2079
 2110SOL    HW117963   4.407   4.215   9.233  1.0273  0.9078  1.6757
 2110SOL    HW217964   4.369   4.098   9.317  1.1494 -1.7293  2.4693
 2111SOL     OW17965   3.122   4.325   0.162 -0.2809 -0.3612 -0.3876
 2111SOL    HW117966   3.146   4.407   0.119  0.9244 -0.5022  0.0269
 2111SOL    HW217967   3.051   4.301   0.102  0.2066 -0.5180 -0.9110
 2112SOL     OW17968   3.773   3.513   8.853 -0.9131 -0.6909 -0.0704
 2112SOL    HW117969   3.824   3.480   8.927  1.4623  1.3134 -0.7909
 2112SOL    HW217970   3.790   3.454   8.779 -0.6233 -0.4379 -0.2050
 2113SOL     OW17971   2.448   2.397   8.150  0.2227  0.3536  0.1448
 2113SOL    HW117972   2.444   2.371   8.058  2.2895  0.9591 -0.1380
 2113SOL    HW217973   2.493   2.323   8.192 -0.5449  0.7649  1.6778
 2114SOL     OW17974   4.461   0.057   8.375  0.2240 -0.2794 -0.0765
 2114SOL    HW117975   4.536   4.735   8.379  0.5821  0.0554 -1.6275
 2114SOL    HW217976   4.502   0.139   8.346 -0.4795  0.5645  1.3059
 2115SOL     OW17977   1.069   0.670  17.442  0.0431 -0.5506 -0.0718
 2115SOL    HW117978   1.113   0.732  17.384  0.0269  0.0983  0.6192
 2115SOL    HW217979   0.996   0.645  17.385  0.2949  1.0986 -1.1114
 2116SOL     OW17980   2.744   2.167  17.437 -0.1157  0.0250 -0.8212
 2116SOL    HW117981   2.710   2.098  17.493 -0.0415 -1.1918 -2.2901
 2116SOL    HW217982   2.770   2.225  17.509 -0.9243 -0.0270 -0.4866
 2117SOL     OW17983   4.487   0.882  12.720  0.6691 -0.1540  0.2502
 2117SOL    HW117984   4.479   0.869  12.814  1.8956 -2.1034  0.0842
 2117SOL    HW217985   4.394   0.872  12.703  0.6451 -0.8453  0.7943
 2118SOL     OW17986   1.943   3.851   3.887  0.7085 -0.2062 -0.7749
 2118SOL    HW117987   2.035   3.875   3.898  0.6516 -0.4748  0.2786
 2118SOL    HW217988   1.910   3.940   3.877  0.7355 -0.1252 -0.1307
 2119SOL     OW17989   1.577   2.003   0.167  0.3780 -0.4447 -0.0045
 2119SOL    HW117990   1.535   2.088   0.180  0.4724 -0.2545 -0.9550
 2119SOL    HW217991   1.511   1.942   0.200 -0.0382  0.0100 -0.0039
 2120SOL     OW17992   1.863   1.156   9.966 -0.3490  0.1415 -0.0111
 2120SOL    HW117993   1.792   1.197  10.015 -0.5197  2.3534 -2.1294
 2120SOL    HW217994   1.826   1.141   9.879 -0.5678  1.5403 -0.1501
 2121SOL     OW17995   4.099   0.982   2.190 -0.9035  0.3760 -0.6777
 2121SOL    HW117996   4.037   0.989   2.262  1.6120 -1.1896  1.6607
 2121SOL    HW217997   4.180   0.992   2.240 -0.1785  2.0884 -2.1659
 2122SOL     OW17998   0.830   3.298  16.902 -0.0638  0.2950 -0.6335
 2122SOL    HW117999   0.873   3.296  16.816  0.5105 -1.2815 -0.3266
 2122SOL    HW218000   0.777   3.219  16.894 -0.5617  0.4808  1.0443
 2123SOL     OW18001   3.808   1.890   9.283 -0.0193  0.3839  0.2229
 2123SOL    HW118002   3.822   1.845   9.366  1.1135  0.1706 -0.0769
 2123SOL    HW218003   3.863   1.967   9.301  1.5736 -0.9319  0.9926
 2124SOL     OW18004   1.168   1.878  11.798  0.0785 -0.1069 -0.0757
 2124SOL    HW118005   1.188   1.830  11.878 -0.8502  1.9202  1.3761
 2124SOL    HW218006   1.116   1.808  11.758  0.1538 -1.6836  2.5663
 2125SOL     OW18007   0.903   1.377  10.436 -0.4516  0.0238 -0.0649
 2125SOL    HW118008   0.931   1.420  10.354  0.1721  0.7914  0.5416
 2125SOL    HW218009   0.850   1.446  10.476  1.6672  1.8565 -0.3543
 2126SOL     OW18010   3.076   0.463   2.397 -0.1548  0.0723  0.4876
 2126SOL    HW118011   3.100   0.422   2.314  0.8834 -1.3475  1.4905
 2126SOL    HW218012   3.157   0.482   2.444 -0.6861 -1.3634  2.0018
 2127SOL     OW18013   3.586   0.860  11.500 -0.0407 -0.2057 -0.5398
 2127SOL    HW118014   3.632   0.939  11.471 -3.8069  2.3985  0.6296
 2127SOL    HW218015   3.552   0.894  11.583 -0.1803 -0.8421 -0.3357
 2128SOL     OW18016   2.526   4.151   8.013  0.5192 -0.2923 -0.3233
 2128SOL    HW118017   2.588   4.078   8.013  0.1827 -0.5765 -0.5544
 2128SOL    HW218018   2.449   4.114   7.970 -0.2091 -2.2198  2.5942
 2129SOL     OW18019   2.682   0.987   8.120  0.3816 -0.1668  0.1877
 2129SOL    HW118020   2.650   1.032   8.043  1.6319 -1.4116 -1.0626
 2129SOL    HW218021   2.630   0.907   8.117  1.7916 -1.0071 -2.0998
 2130SOL     OW18022   3.538   4.171  16.603 -0.2633 -0.0195 -0.1313
 2130SOL    HW118023   3.630   4.145  16.613 -0.3788  0.2975  1.8824
 2130SOL    HW218024   3.519   4.097  16.545  0.0156  1.3304 -1.9126
 2131SOL     OW18025   3.671   4.111  15.808  0.0544  0.0153 -0.0172
 2131SOL    HW118026   3.660   4.055  15.884  0.7013 -3.4112 -2.4770
 2131SOL    HW218027   3.739   4.170  15.841  1.6144 -0.7188 -1.9428
 2132SOL     OW18028   2.637   3.711  12.185  0.1550 -0.2981  0.4956
 2132SOL    HW118029   2.575   3.767  12.230 -0.5442 -1.0885  0.4996
 2132SOL    HW218030   2.652   3.759  12.103 -0.6294  0.5872  0.8837
 2133SOL     OW18031   2.411   2.950   6.379  0.3314  0.6715  0.4700
 2133SOL    HW118032   2.363   2.991   6.451  0.8889 -1.4619  2.0589
 2133SOL    HW218033   2.487   2.924   6.430 -0.1414 -0.3115  0.6788
 2134SOL     OW18034   3.714   0.513   6.237  0.1855 -0.2440  0.4346
 2134SOL    HW118035   3.658   0.534   6.311 -0.0323 -1.4797  0.6269
 2134SOL    HW218036   3.790   0.482   6.287  0.4222 -0.7095 -0.2041
 2135SOL     OW18037   3.379   3.233   4.649 -0.0064  0.4027  0.1090
 2135SOL    HW118038   3.307   3.280   4.690  1.6564  1.7975  1.4303
 2135SOL    HW218039   3.339   3.147   4.638  2.4425 -0.4696 -2.0128
 2136SOL     OW18040   4.254   2.708   1.710  0.0741 -0.4561 -0.2002
 2136SOL    HW118041   4.279   2.615   1.708  3.6474  0.4682  0.0275
 2136SOL    HW218042   4.246   2.710   1.615 -0.3556 -0.1879 -0.1569
 2137SOL     OW18043   0.521   3.270   7.013  0.3024  0.0917 -0.0182
 2137SOL    HW118044   0.451   3.211   7.040  0.2706  1.0485  1.9850
 2137SOL    HW218045   0.521   3.328   7.089  1.7847 -1.2450  1.0167
 2138SOL     OW18046   0.567   4.131   8.547  0.1469  0.1075 -0.2343
 2138SOL    HW118047   0.661   4.115   8.548  0.5172  2.3365 -0.3589
 2138SOL    HW218048   0.547   4.046   8.588 -0.2035  0.3461  0.0915
 2139SOL     OW18049   2.048   3.424  13.255  0.3992 -0.6470  0.2250
 2139SOL    HW118050   2.002   3.485  13.313  3.1848  1.2105  0.4690
 2139SOL    HW218051   2.072   3.485  13.185 -0.1093 -1.2765 -0.5056
 2140SOL     OW18052   2.835   4.052   8.745 -0.0868 -0.2154 -0.1159
 2140SOL    HW118053   2.877   3.996   8.680  1.6793 -0.4200  1.2300
 2140SOL    HW218054   2.748   4.068   8.708 -0.8288 -1.0813  1.2428
 2141SOL     OW18055   3.754   3.758   7.041  0.5941  0.4056  0.3724
 2141SOL    HW118056   3.806   3.839   7.048  0.9553  0.5332 -3.5987
 2141SOL    HW218057   3.821   3.696   7.015  0.9366  0.8313  0.2365
 2142SOL     OW18058   3.312   0.210   7.575 -0.3696  0.5066  0.1586
 2142SOL    HW118059   3.272   0.152   7.640 -0.5080  0.7845  0.3201
 2142SOL    HW218060   3.391   0.241   7.619  0.2062 -0.8157  0.0829
 2143SOL     OW18061   4.715   0.788   3.445  0.0827 -0.2883  0.0085
 2143SOL    HW118062   0.060   0.832   3.464  0.7911 -1.7106  0.1683
 2143SOL    HW218063   4.735   0.717   3.385  0.5267 -1.8745  2.0290
 2144SOL     OW18064   2.366   4.324   8.484 -0.0267  0.6672  0.0587
 2144SOL    HW118065   2.350   4.244   8.434  0.4314  0.3998  0.3334
 2144SOL    HW218066   2.294   4.314   8.545 -0.1896  1.8876  0.0666
 2145SOL     OW18067   1.234   3.668  17.635 -0.2011  0.1300 -0.5225
 2145SOL    HW118068   1.326   3.692  17.624 -0.4390  1.5234  0.5288
 2145SOL    HW218069   1.188   3.726  17.575 -1.0291  1.3749  1.2908
 2146SOL     OW18070   0.880   3.768   9.492  0.3670 -1.0744  0.2904
 2146SOL    HW118071   0.805   3.803   9.540  0.3740 -2.1207  1.0480
 2146SOL    HW218072   0.906   3.693   9.545  1.7139 -1.2924 -0.6899
 2147SOL     OW18073   0.780   3.867   8.660 -0.4359  1.1112 -0.5184
 2147SOL    HW118074   0.716   3.830   8.720  0.6295  0.9502  0.5334
 2147SOL    HW218075   0.856   3.883   8.717 -0.1875 -0.5671 -0.3835
 2148SOL     OW18076   0.818   2.726   6.249  0.1321 -0.2186 -0.8626
 2148SOL    HW118077   0.844   2.661   6.184 -1.1806  0.0201 -1.6139
 2148SOL    HW218078   0.787   2.799   6.195  2.1057  0.8005 -0.6175
 2149SOL     OW18079   3.839   0.965   2.676  0.3519 -0.3324 -0.3890
 2149SOL    HW118080   3.911   1.027   2.688  0.6915 -0.8261  0.1733
 2149SOL    HW218081   3.829   0.972   2.581 -0.6199 -1.3382 -0.3510
 2150SOL     OW18082   3.661   0.372  11.548 -0.0666  0.0424  0.0377
 2150SOL    HW118083   3.574   0.362  11.509  0.4499  0.2560 -1.1470
 2150SOL    HW218084   3.654   0.334  11.636  0.8281 -1.5208 -0.5662
 2151SOL     OW18085   4.246   2.913   9.510  0.2067 -0.5198 -0.6735
 2151SOL    HW118086   4.251   2.872   9.424 -0.3626  0.3529 -1.1224
 2151SOL    HW218087   4.262   2.831   9.556  1.1182  0.7880  1.3468
 2152SOL     OW18088   0.390   3.584  10.103  0.4467  0.4386 -0.0013
 2152SOL    HW118089   0.390   3.488  10.096  0.1018  0.3409  1.4162
 2152SOL    HW218090   0.483   3.604  10.095  0.6467 -0.6455 -0.4955
 2153SOL     OW18091   4.538   2.386   6.309 -0.3252  0.1752 -0.3418
 2153SOL    HW118092   4.485   2.465   6.308  0.3575  0.6398 -0.0893
 2153SOL    HW218093   4.483   2.325   6.259 -0.8761  0.7779 -0.4563
 2154SOL     OW18094   4.390   3.944   5.444 -0.3027 -0.2336 -0.3510
 2154SOL    HW118095   4.301   3.971   5.424 -0.2452  0.8085  0.8425
 2154SOL    HW218096   4.380   3.916   5.534  1.7526 -1.3102 -0.4419
 2155SOL     OW18097   4.671   0.008   1.571  0.0810 -0.0563 -0.0876
 2155SOL    HW118098   4.699   4.679   1.633  1.0901 -0.3702 -0.8811
 2155SOL    HW218099   4.580   0.021   1.601  0.7465 -1.4636  2.5337
 2156SOL     OW18100   4.094   1.892   2.256 -0.1520 -0.0631 -0.3047
 2156SOL    HW118101   4.175   1.853   2.223  0.0011 -0.3041  0.3501
 2156SOL    HW218102   4.085   1.846   2.340 -0.0083  1.4115  0.5168
 2157SOL     OW18103   1.429   2.949   0.763  0.3878 -0.1861  0.5761
 2157SOL    HW118104   1.460   2.939   0.673 -1.8960 -1.7413 -0.0373
 2157SOL    HW218105   1.335   2.960   0.749 -0.0556 -1.3294  2.7001
 2158SOL     OW18106   2.641   3.362   3.121 -0.5484  0.3451  0.3306
 2158SOL    HW118107   2.683   3.445   3.145 -2.7112  1.4685  0.2752
 2158SOL    HW218108   2.621   3.319   3.204 -0.3234  2.1258  1.3186
 2159SOL     OW18109   2.514   1.448   3.609 -0.1450  0.3922  0.5308
 2159SOL    HW118110   2.435   1.436   3.556  0.6164 -1.5327 -0.1422
 2159SOL    HW218111   2.565   1.370   3.591  2.7899  1.8514  2.5729
 2160SOL     OW18112   0.717   4.083   5.177  0.2520  0.1134 -0.3331
 2160SOL    HW118113   0.789   4.030   5.144  2.7588  2.6940  0.9652
 2160SOL    HW218114   0.737   4.172   5.146 -2.9626  0.6324 -0.9143
 2161SOL     OW18115   1.714   2.322   3.713  0.1211 -0.1436 -0.2095
 2161SOL    HW118116   1.725   2.269   3.792 -3.1645 -1.5165 -0.6955
 2161SOL    HW218117   1.631   2.292   3.677  2.5299 -3.5372 -2.9681
 2162SOL     OW18118   1.357   2.810  13.983  0.2641  0.2433 -0.3013
 2162SOL    HW118119   1.444   2.837  14.013  0.4153  0.3364 -0.8116
 2162SOL    HW218120   1.386   2.802  13.892  1.2618  0.4494 -0.0035
 2163SOL     OW18121   4.106   3.836   1.030 -0.0715  0.0975 -0.4727
 2163SOL    HW118122   4.153   3.759   1.064 -0.3234  0.7884  1.4473
 2163SOL    HW218123   4.028   3.833   1.085  0.1819  2.0148 -0.0109
 2164SOL     OW18124   3.716   2.053   2.309  0.1473  0.5779  0.1295
 2164SOL    HW118125   3.774   2.130   2.314 -0.3586  0.9900 -0.2681
 2164SOL    HW218126   3.698   2.045   2.402  0.1861 -1.5485 -0.0611
 2165SOL     OW18127   2.687   0.389  12.861 -0.1085  0.4393 -0.5130
 2165SOL    HW118128   2.655   0.369  12.949  0.2435 -1.7214 -0.8836
 2165SOL    HW218129   2.648   0.321  12.806 -0.7518  0.9719 -0.7179
 2166SOL     OW18130   1.808   0.120  14.014 -0.4652  0.0356 -0.1591
 2166SOL    HW118131   1.824   0.161  14.099 -2.0230  1.5036 -0.5668
 2166SOL    HW218132   1.729   0.165  13.982 -0.9787 -1.0357 -0.3923
 2167SOL     OW18133   3.323   2.575   2.507  0.0634 -0.1196 -0.6405
 2167SOL    HW118134   3.295   2.607   2.592 -1.0737 -0.4468 -0.8865
 2167SOL    HW218135   3.330   2.656   2.456  0.1879  0.8258  0.8805
 2168SOL     OW18136   3.819   3.195   4.408 -0.1469  0.2403 -0.7360
 2168SOL    HW118137   3.896   3.161   4.455 -0.3267 -0.0214 -0.6326
 2168SOL    HW218138   3.849   3.195   4.317  1.2376 -0.1536 -0.2792
 2169SOL     OW18139   1.559   4.383   4.832  0.0681  0.3516  1.0067
 2169SOL    HW118140   1.516   4.302   4.805  2.4237 -0.9135  1.1141
 2169SOL    HW218141   1.496   4.451   4.808 -1.9070 -1.9668 -0.3587
 2170SOL     OW18142   1.679   2.711   9.186 -0.3105 -0.3081  0.1781
 2170SOL    HW118143   1.655   2.795   9.226 -2.3379 -0.5626 -0.5236
 2170SOL    HW218144   1.703   2.742   9.098  0.4198 -1.0326  0.1189
 2171SOL     OW18145   0.861   2.032   3.831 -0.5949 -0.0021  0.0551
 2171SOL    HW118146   0.929   2.013   3.895 -0.0042  0.5196 -0.4251
 2171SOL    HW218147   0.906   2.066   3.754  0.7960  1.6397  1.6119
 2172SOL     OW18148   2.480   0.099   5.340  0.3548  0.0205 -0.5055
 2172SOL    HW118149   2.526   0.023   5.304  0.9297 -0.0343  0.3372
 2172SOL    HW218150   2.485   0.160   5.267  2.8206 -0.3650 -0.6661
 2173SOL     OW18151   1.559   4.214  10.836 -0.1398  0.2840  0.0991
 2173SOL    HW118152   1.488   4.161  10.798  0.4375 -1.4672  1.4601
 2173SOL    HW218153   1.521   4.298  10.860 -1.6105  0.1589 -1.7918
 2174SOL     OW18154   2.828   3.645  16.713  0.0866 -0.4627 -0.4863
 2174SOL    HW118155   2.803   3.724  16.760 -1.4513 -0.0738 -1.9340
 2174SOL    HW218156   2.841   3.584  16.785 -0.1317 -0.9142 -0.8330
 2175SOL     OW18157   0.009   4.564   1.736 -0.0479 -0.6091  0.8823
 2175SOL    HW118158   0.083   4.503   1.729  1.4022  0.9916  2.3503
 2175SOL    HW218159   4.736   4.571   1.830  1.7291 -0.8587  1.1202
 2176SOL     OW18160   2.701   3.290   8.047  0.2942 -0.0789  0.3564
 2176SOL    HW118161   2.620   3.337   8.070 -0.6128 -1.7716  0.6440
 2176SOL    HW218162   2.760   3.314   8.119 -1.0695  0.3330  1.3450
 2177SOL     OW18163   4.581   1.014   2.234 -0.0911 -0.0640 -0.0767
 2177SOL    HW118164   4.614   1.101   2.213  1.5035 -1.1771 -2.2167
 2177SOL    HW218165   4.636   0.959   2.178 -1.1561  1.2155 -2.3750
 2178SOL     OW18166   0.571   0.336   0.062  0.7334 -0.1047 -0.1642
 2178SOL    HW118167   0.536   0.398   0.126  1.0417  0.6669 -0.7375
 2178SOL    HW218168   0.645   0.304   0.114  0.3000 -1.8381 -0.6122
 2179SOL     OW18169   1.104   3.719   5.598  0.2006  0.1487 -0.4839
 2179SOL    HW118170   1.097   3.631   5.563  1.9514 -0.6647  1.1608
 2179SOL    HW218171   1.028   3.759   5.558 -0.0294 -0.4973 -0.6898
 2180SOL     OW18172   4.338   3.730   8.197  0.4304 -0.0022 -0.0432
 2180SOL    HW118173   4.430   3.721   8.224 -0.0411  0.5808  1.7485
 2180SOL    HW218174   4.297   3.682   8.268 -0.1073 -0.5954 -0.7572
 2181SOL     OW18175   4.464   2.283   2.761 -0.4288 -0.4432  0.5947
 2181SOL    HW118176   4.479   2.301   2.854  1.4210  0.7915  0.0549
 2181SOL    HW218177   4.380   2.328   2.750 -0.2508  0.2411  1.9494
 2182SOL     OW18178   0.208   4.253   1.256 -0.1259 -0.2435 -0.0874
 2182SOL    HW118179   0.185   4.274   1.347 -0.0836  0.8694 -0.3342
 2182SOL    HW218180   0.300   4.278   1.246 -0.8496  1.9678 -1.2553
 2183SOL     OW18181   3.225   0.542   6.425 -0.6679  0.0880 -0.0184
 2183SOL    HW118182   3.219   0.478   6.496 -0.6345 -0.7395 -0.7584
 2183SOL    HW218183   3.256   0.485   6.355  0.5747  3.1680 -1.9285
 2184SOL     OW18184   2.924   3.050   8.539  0.2821 -0.2982  0.1354
 2184SOL    HW118185   2.858   3.119   8.539  1.8799  1.2004 -0.3521
 2184SOL    HW218186   2.963   3.062   8.626 -2.4443  1.8181  1.0495
 2185SOL     OW18187   1.882   1.526   3.984  0.0829 -0.7046  0.2808
 2185SOL    HW118188   1.936   1.523   4.063 -0.5386 -1.6929  0.6636
 2185SOL    HW218189   1.948   1.550   3.919  0.2361  1.9994  1.4583
 2186SOL     OW18190   1.631   2.536   8.094  0.4252  0.1711 -0.2452
 2186SOL    HW118191   1.726   2.531   8.087  0.3522 -1.0815 -0.3393
 2186SOL    HW218192   1.593   2.452   8.067 -1.4917  0.5589  1.2787
 2187SOL     OW18193   4.317   0.426  12.167 -0.3821 -0.5065 -0.3420
 2187SOL    HW118194   4.354   0.339  12.148  0.7713 -0.2921  0.9479
 2187SOL    HW218195   4.381   0.464  12.227 -1.9877  1.6428 -0.0219
 2188SOL     OW18196   2.300   4.081   6.195  0.0664  0.0419  0.2929
 2188SOL    HW118197   2.380   4.054   6.241  0.1103  1.1246  0.8447
 2188SOL    HW218198   2.326   4.091   6.103 -1.5361  1.2475 -0.0113
 2189SOL     OW18199   0.610   0.444  17.344 -0.4779 -0.4396 -0.0400
 2189SOL    HW118200   0.541   0.404  17.397 -1.1490  0.7878  0.0194
 2189SOL    HW218201   0.593   0.414  17.255 -0.9068 -0.8739  0.1893
 2190SOL     OW18202   2.883   4.498   3.128  0.3015 -0.4204 -0.0260
 2190SOL    HW118203   2.901   4.518   3.037  1.5969  1.0686  0.5537
 2190SOL    HW218204   2.792   4.469   3.132 -0.2411  1.4965  1.2224
 2191SOL     OW18205   1.586   2.134   7.775  0.2375  0.3073  0.3218
 2191SOL    HW118206   1.666   2.110   7.822  1.5945 -0.7641 -2.5257
 2191SOL    HW218207   1.629   2.169   7.697  1.6062  0.5868  1.1945
 2192SOL     OW18208   4.700   0.675   9.247  0.2284 -0.1329  0.1766
 2192SOL    HW118209   4.720   0.637   9.161  0.4942 -0.9757  0.6089
 2192SOL    HW218210   0.032   0.634   9.298  1.4976  1.7572 -0.0614
 2193SOL     OW18211   1.934   3.571   3.610  0.1028  0.5549  0.9081
 2193SOL    HW118212   1.998   3.524   3.556 -1.1124  0.0705 -0.1360
 2193SOL    HW218213   1.995   3.600   3.677 -2.0269  1.5052  2.4265
 2194SOL     OW18214   3.542   1.552   4.079  0.1390 -0.1028  0.3981
 2194SOL    HW118215   3.622   1.501   4.088 -0.0560 -0.1035  2.1192
 2194SOL    HW218216   3.564   1.628   4.133  0.5553  0.7537 -0.9692
 2195SOL     OW18217   4.586   1.615   3.067  0.6473  0.1633 -0.1004
 2195SOL    HW118218   4.612   1.591   2.978 -0.0382 -0.6772 -0.0813
 2195SOL    HW218219   4.492   1.601   3.056  0.6603  0.1783 -0.2373
 2196SOL     OW18220   0.689   0.324   2.835 -0.7788 -0.8951 -0.5910
 2196SOL    HW118221   0.736   0.385   2.892 -0.6491 -0.1680 -1.4743
 2196SOL    HW218222   0.600   0.333   2.870 -1.3617 -0.0314 -2.3376
 2197SOL     OW18223   1.526   4.341   8.365 -0.1167  0.1394 -0.3655
 2197SOL    HW118224   1.523   4.359   8.459  0.9237  1.0855 -0.5203
 2197SOL    HW218225   1.463   4.401   8.325 -2.6100 -0.5168  2.5465
 2198SOL     OW18226   4.059   1.647   6.699  0.3741 -0.2379 -0.0191
 2198SOL    HW118227   4.137   1.702   6.700  0.4842 -0.3710 -2.1303
 2198SOL    HW218228   4.077   1.584   6.629  0.7170 -0.8083  0.5872
 2199SOL     OW18229   4.699   2.377   5.961  0.2693  0.6058  0.2687
 2199SOL    HW118230   4.608   2.405   5.968 -0.1156 -1.0807  2.0731
 2199SOL    HW218231   0.000   2.447   6.013 -2.1233  1.0091  1.5115
 2200SOL     OW18232   3.160   1.698   8.385 -0.1333 -0.0463 -0.1014
 2200SOL    HW118233   3.201   1.632   8.328 -2.5395  0.6662 -2.6315
 2200SOL    HW218234   3.164   1.656   8.472 -0.5113 -0.3267 -0.2185
 2201SOL     OW18235   4.070   3.305   2.887  0.0110 -0.1454  0.2685
 2201SOL    HW118236   4.130   3.234   2.912 -1.7542 -0.9124  2.2822
 2201SOL    HW218237   4.111   3.374   2.939  0.0835  0.3217 -0.4117
 2202SOL     OW18238   0.692   4.421   2.239  0.6065 -0.2209 -0.3074
 2202SOL    HW118239   0.619   4.434   2.299  0.6526 -1.7257  0.0878
 2202SOL    HW218240   0.679   4.499   2.184  1.2350 -0.6044 -1.0031
 2203SOL     OW18241   4.551   2.801   4.465 -0.0867 -0.0308 -0.0622
 2203SOL    HW118242   4.545   2.743   4.389  0.7917 -0.1167 -0.0634
 2203SOL    HW218243   4.502   2.879   4.440 -3.5795 -1.3021  2.7162
 2204SOL     OW18244   3.498   3.732   5.740  0.3476  0.5322  0.1493
 2204SOL    HW118245   3.548   3.678   5.680 -1.3681 -0.9344  0.0294
 2204SOL    HW218246   3.564   3.790   5.777  1.1877 -1.0804  1.2083
 2205SOL     OW18247   0.992   1.691  11.691  0.4280 -0.1827  0.1671
 2205SOL    HW118248   1.012   1.599  11.674 -3.1319 -0.8868 -0.1780
 2205SOL    HW218249   0.906   1.690  11.734  0.1898 -0.7947 -0.3285
 2206SOL     OW18250   0.001   2.255   8.377  0.4787  0.8934 -0.3580
 2206SOL    HW118251   4.683   2.221   8.448 -0.9699  2.1862 -0.8869
 2206SOL    HW218252   4.697   2.219   8.298 -0.4571  0.0781  0.5047
 2207SOL     OW18253   2.737   3.999   9.049 -0.6851 -0.0869 -0.0434
 2207SOL    HW118254   2.669   4.061   9.077 -2.6192 -3.0369  1.7768
 2207SOL    HW218255   2.786   4.053   8.986  0.3564 -0.5388  0.3826
 2208SOL     OW18256   1.934   0.686  15.887  0.4872 -0.4855 -0.3303
 2208SOL    HW118257   1.914   0.778  15.867  0.0535 -0.5532 -0.2000
 2208SOL    HW218258   1.973   0.663  15.802  0.3780  2.2088 -1.1081
 2209SOL     OW18259   1.518   4.102   2.602  0.0957  0.5027  0.1768
 2209SOL    HW118260   1.453   4.093   2.532 -1.5034  1.7131  1.5014
 2209SOL    HW218261   1.564   4.179   2.569  2.6255 -2.3189 -2.9747
 2210SOL     OW18262   1.187   1.878   0.072 -0.6753  0.6815 -0.4831
 2210SOL    HW118263   1.175   1.831   0.154  0.8818  1.6561  0.2975
 2210SOL    HW218264   1.223   1.961   0.105  1.3989 -0.5119  0.2233
 2211SOL     OW18265   3.596   1.566  12.795  0.3946  0.1825 -0.3829
 2211SOL    HW118266   3.614   1.593  12.885  1.1982  0.0399 -0.5019
 2211SOL    HW218267   3.683   1.549  12.758  0.3393  0.5719 -0.6853
 2212SOL     OW18268   3.044   4.422   2.171 -0.1692 -0.4117 -0.5128
 2212SOL    HW118269   3.117   4.450   2.116  0.0079  0.8289  0.3502
 2212SOL    HW218270   3.018   4.503   2.214  0.4465  0.2797 -1.4562
 2213SOL     OW18271   2.627   0.013   2.165 -0.8813  0.0803 -0.2299
 2213SOL    HW118272   2.531   0.012   2.165 -0.8800  0.1388  0.1695
 2213SOL    HW218273   2.644   0.103   2.194 -0.0028  0.3148 -1.4574
 2214SOL     OW18274   3.618   0.080  14.549 -0.0290 -0.0633  0.1898
 2214SOL    HW118275   3.644   4.731  14.520  2.6822  0.8345 -0.1051
 2214SOL    HW218276   3.617   0.080  14.645 -0.8131 -0.2707  0.1737
 2215SOL     OW18277   4.656   3.623   1.564 -0.1518  0.0934  0.0539
 2215SOL    HW118278   4.724   3.624   1.632  0.9677  2.5616 -1.1207
 2215SOL    HW218279   4.606   3.544   1.585  0.6640 -1.3564 -3.4858
 2216SOL     OW18280   0.183   0.595   3.691 -0.0937 -0.3928 -1.0239
 2216SOL    HW118281   0.273   0.597   3.658  0.3009 -1.7520 -0.0374
 2216SOL    HW218282   0.139   0.660   3.635 -0.4829  0.4723  0.2973
 2217SOL     OW18283   1.834   2.244   8.550 -0.1632 -0.0083 -0.3520
 2217SOL    HW118284   1.803   2.268   8.462  1.4516 -1.1712 -1.2409
 2217SOL    HW218285   1.750   2.240   8.595 -0.1367 -0.3636 -0.3306
 2218SOL     OW18286   1.747   4.725   2.094 -0.3193 -0.5563 -0.5014
 2218SOL    HW118287   1.714   0.026   2.013  0.3882  0.7922 -0.1521
 2218SOL    HW218288   1.781   0.063   2.142  0.1733 -0.4822 -0.9579
 2219SOL     OW18289   3.655   4.631   4.972  0.0400 -0.2120  0.1528
 2219SOL    HW118290   3.738   4.659   5.012 -0.5358  1.7099 -0.0317
 2219SOL    HW218291   3.644   4.551   5.023  0.6603 -0.1009  0.4580
 2220SOL     OW18292   2.949   0.236  16.120  0.5407 -0.6259 -0.4391
 2220SOL    HW118293   2.892   0.310  16.100  0.5897 -0.0224  1.6746
 2220SOL    HW218294   2.996   0.229  16.037  1.4924  3.0158 -0.1991
 2221SOL     OW18295   4.186   2.515   1.473 -0.0719 -0.0027 -0.2109
 2221SOL    HW118296   4.245   2.455   1.428  2.7472  1.1712  1.8927
 2221SOL    HW218297   4.105   2.494   1.426  0.2641 -2.4691  0.3107
 2222SOL     OW18298   4.534   3.302  14.205 -0.3520 -0.5407 -0.1093
 2222SOL    HW118299   4.575   3.234  14.151  3.4999  2.0734 -0.5291
 2222SOL    HW218300   4.604   3.326  14.266 -1.5973  0.8253  0.7729
 2223SOL     OW18301   0.848   3.479   3.578 -0.0419 -0.3787 -0.8564
 2223SOL    HW118302   0.847   3.555   3.518  1.2956  0.0761 -0.3172
 2223SOL    HW218303   0.766   3.495   3.624  0.9155  0.6157  0.4846
 2224SOL     OW18304   0.636   0.619   7.664 -0.8270  0.2465  0.5051
 2224SOL    HW118305   0.660   0.528   7.647 -1.2735 -0.0017  1.2348
 2224SOL    HW218306   0.692   0.668   7.604  0.4981 -0.3002  1.2957
 2225SOL     OW18307   4.283   2.910   3.792 -0.1678  0.1089 -0.5395
 2225SOL    HW118308   4.312   2.992   3.833  0.7218 -0.0050 -0.9298
 2225SOL    HW218309   4.231   2.952   3.723 -1.0009 -1.4477 -0.8592
 2226SOL     OW18310   1.356   1.886   7.600 -0.4187  0.2308  0.1542
 2226SOL    HW118311   1.356   1.927   7.686  0.6704  0.1336  0.1919
 2226SOL    HW218312   1.404   1.956   7.556 -2.1080  2.3040  1.6068
 2227SOL     OW18313   1.342   0.369   3.489 -0.2173 -0.0935 -0.4174
 2227SOL    HW118314   1.381   0.412   3.413  0.3244  0.7121  0.3199
 2227SOL    HW218315   1.396   0.290   3.488 -0.6470 -0.3934 -0.0720
 2228SOL     OW18316   4.229   3.615  14.411 -0.2215 -0.4414  0.4635
 2228SOL    HW118317   4.309   3.563  14.404  0.6644  0.8559  1.0110
 2228SOL    HW218318   4.270   3.693  14.373 -0.1233 -0.8517 -0.2699
 2229SOL     OW18319   2.273   2.804   7.109  0.2226 -0.2197 -0.3741
 2229SOL    HW118320   2.330   2.781   7.183 -1.9579 -1.3957  0.9507
 2229SOL    HW218321   2.251   2.895   7.129 -3.8274 -1.5973  1.4482
 2230SOL     OW18322   0.935   1.097   2.515 -0.6317  0.0009 -0.4593
 2230SOL    HW118323   0.862   1.071   2.571  1.8962 -2.9055  1.5020
 2230SOL    HW218324   0.975   1.164   2.571 -0.3343 -0.9711  0.4839
 2231SOL     OW18325   3.773   3.775   8.714  0.2059 -0.2719 -0.0231
 2231SOL    HW118326   3.760   3.687   8.749  2.6010 -0.7444 -0.3102
 2231SOL    HW218327   3.784   3.829   8.791  0.3584 -0.8604  0.3717
 2232SOL     OW18328   3.572   1.157  17.275  0.9034 -0.5645 -0.5310
 2232SOL    HW118329   3.636   1.132  17.342  1.5975  0.5988 -0.7554
 2232SOL    HW218330   3.620   1.228  17.232 -0.8049  0.0771 -1.3796
 2233SOL     OW18331   4.369   0.593   3.849  0.4802 -0.5225  0.4002
 2233SOL    HW118332   4.408   0.519   3.804  0.5952  0.1209 -0.5415
 2233SOL    HW218333   4.436   0.660   3.835 -1.4083  1.1356 -0.7090
 2234SOL     OW18334   3.682   2.223   4.386 -0.0680 -0.1136  0.2172
 2234SOL    HW118335   3.772   2.198   4.406  0.4667 -0.6096 -2.8283
 2234SOL    HW218336   3.698   2.293   4.323  1.6012 -0.8543 -0.1766
 2235SOL     OW18337   0.975   0.510   2.082 -0.1450 -0.7001 -0.2749
 2235SOL    HW118338   0.901   0.450   2.090 -0.2466 -0.3960  1.1647
 2235SOL    HW218339   0.928   0.592   2.065  2.3645  0.9423  0.6765
 2236SOL     OW18340   4.279   4.153   2.319  0.2130 -0.3198 -0.1031
 2236SOL    HW118341   4.314   4.233   2.359  1.2998 -0.3263 -1.0619
 2236SOL    HW218342   4.216   4.209   2.273 -0.5959  0.4859  1.9305
 2237SOL     OW18343   3.977   2.496   3.405  0.5295  0.0593  0.2905
 2237SOL    HW118344   4.002   2.499   3.497  3.4654 -0.4402 -0.4821
 2237SOL    HW218345   3.883   2.475   3.410  0.4052  0.6869  0.5296
 2238SOL     OW18346   3.114   3.977   9.187 -0.2703  0.0670 -0.1668
 2238SOL    HW118347   3.197   4.024   9.181 -0.1666 -0.1490 -0.4143
 2238SOL    HW218348   3.082   3.947   9.102 -0.7590 -0.8379  0.3341
 2239SOL     OW18349   1.702   3.247   6.188  0.6535 -0.0381  0.4359
 2239SOL    HW118350   1.784   3.248   6.238  0.6959  0.3559  0.3621
 2239SOL    HW218351   1.638   3.247   6.259 -1.7157 -1.2763 -1.7056
 2240SOL     OW18352   0.826   3.955   7.343 -0.0868 -0.5874 -0.1832
 2240SOL    HW118353   0.799   3.960   7.251 -0.2001  0.0648 -0.1098
 2240SOL    HW218354   0.904   4.010   7.336 -1.0392  0.7461 -0.1799
 2241SOL     OW18355   0.183   0.142   3.574 -0.2060 -0.5850  0.2474
 2241SOL    HW118356   0.254   0.124   3.636  0.8900  1.8870 -0.3150
 2241SOL    HW218357   0.228   0.175   3.496  0.9329 -3.4003 -0.2951
 2242SOL     OW18358   4.693   2.091   4.771 -0.5409 -0.3674  0.3045
 2242SOL    HW118359   4.636   2.073   4.696  0.1744 -0.2062 -0.2813
 2242SOL    HW218360   0.009   2.012   4.775  0.7907  0.6882  2.7845
 2243SOL     OW18361   0.146   0.215   2.093  0.0765  0.4676 -0.2947
 2243SOL    HW118362   0.163   0.126   2.063  0.1592 -0.0353  1.2499
 2243SOL    HW218363   0.155   0.194   2.186  1.6520 -1.3198 -0.8648
 2244SOL     OW18364   1.503   4.229  14.100 -0.7750  0.0352 -0.1557
 2244SOL    HW118365   1.571   4.271  14.152  1.0339  0.7061 -3.0650
 2244SOL    HW218366   1.428   4.233  14.159  3.3566  0.9072  5.1041
 2245SOL     OW18367   1.560   0.950  13.154 -0.4194 -0.2572 -0.0163
 2245SOL    HW118368   1.516   0.874  13.116  0.7365 -0.9744  0.0780
 2245SOL    HW218369   1.601   0.982  13.073  0.3506  0.3125  0.5847
 2246SOL     OW18370   1.935   2.451   5.506  0.0867 -0.4050 -0.0413
 2246SOL    HW118371   1.934   2.373   5.451 -0.6559  0.4847 -1.2931
 2246SOL    HW218372   1.980   2.412   5.581 -0.2401 -2.0142 -0.6793
 2247SOL     OW18373   4.049   4.050  17.738  0.1963  0.3275  0.4313
 2247SOL    HW118374   4.087   4.122  17.689 -0.2290  0.1553 -0.1619
 2247SOL    HW218375   4.078   3.983  17.675 -1.1894 -0.2038  0.3455
 2248SOL     OW18376   4.279   0.201   6.983  0.4406  0.3048  0.3265
 2248SOL    HW118377   4.327   0.284   6.987  0.3080  0.4214 -0.5021
 2248SOL    HW218378   4.253   0.205   6.891  0.9067 -0.3396  0.1715
 2249SOL     OW18379   1.330   1.261   2.563  0.0435 -0.2317 -0.2375
 2249SOL    HW118380   1.423   1.237   2.560  0.1311 -0.3152  3.2921
 2249SOL    HW218381   1.333   1.293   2.473  3.4411 -1.2220 -0.4797
 2250SOL     OW18382   2.584   0.017  13.106  0.5021 -0.3931 -0.3345
 2250SOL    HW118383   2.539   0.082  13.159  0.9770 -0.1413 -0.2394
 2250SOL    HW218384   2.571   0.066  13.025 -1.8714 -0.7125 -0.1287
 2251SOL     OW18385   2.186   1.030  11.441  0.1245 -0.0170 -0.3106
 2251SOL    HW118386   2.272   1.035  11.400 -1.4369 -0.6046 -3.6202
 2251SOL    HW218387   2.189   1.077  11.525 -1.0969  0.4353 -0.5282
 2252SOL     OW18388   1.903   2.740  13.368  0.1543 -0.2765 -0.1644
 2252SOL    HW118389   1.880   2.792  13.445 -1.4007  1.1985 -1.6570
 2252SOL    HW218390   1.906   2.807  13.300 -1.5457  0.4194  0.4498
 2253SOL     OW18391   1.217   2.317   0.916 -0.6549  0.3719  0.1711
 2253SOL    HW118392   1.269   2.384   0.872  1.2677 -1.9435 -1.0768
 2253SOL    HW218393   1.172   2.272   0.846 -1.8621  1.7118  0.0963
 2254SOL     OW18394   2.219   3.043   4.896  0.0571 -0.1959  0.5337
 2254SOL    HW118395   2.285   3.006   4.838 -1.4473 -1.9172 -0.0599
 2254SOL    HW218396   2.275   3.100   4.949  0.6301 -0.3405  0.0876
 2255SOL     OW18397   1.571   1.199   5.665 -0.3426 -0.7070  0.4505
 2255SOL    HW118398   1.496   1.257   5.650  0.8555 -0.5915 -5.1582
 2255SOL    HW218399   1.646   1.257   5.651 -1.1285 -0.1547 -1.4387
 2256SOL     OW18400   2.924   0.781   5.016 -0.8438 -0.0408  0.0088
 2256SOL    HW118401   2.981   0.742   4.950 -0.8522  0.5894 -0.3728
 2256SOL    HW218402   2.845   0.808   4.970 -0.8479  1.3058  0.7813
 2257SOL     OW18403   3.872   3.765  11.323  0.2740 -0.2341 -0.3930
 2257SOL    HW118404   3.841   3.815  11.398  2.4466  1.1714 -0.4691
 2257SOL    HW218405   3.873   3.674  11.355  0.9314  0.3932  1.3598
 2258SOL     OW18406   4.037   3.133   8.571 -0.3317 -0.2775 -0.2442
 2258SOL    HW118407   4.097   3.127   8.496 -0.4742  1.0926 -0.4716
 2258SOL    HW218408   4.049   3.046   8.610  0.7036 -1.0758 -2.3560
 2259SOL     OW18409   0.418   3.489   9.271 -0.2805 -0.1530  0.2526
 2259SOL    HW118410   0.493   3.431   9.288 -0.6843 -0.4939  0.8576
 2259SOL    HW218411   0.443   3.556   9.335 -0.3976 -0.8905  1.0838
 2260SOL     OW18412   1.092   4.115  16.190 -0.1282  0.2657  0.1124
 2260SOL    HW118413   1.146   4.168  16.131  0.3885 -0.8005 -0.3760
 2260SOL    HW218414   1.060   4.049  16.129  0.3163  0.0136  0.1518
 2261SOL     OW18415   2.571   0.655   5.074 -0.0200 -0.2558 -0.0237
 2261SOL    HW118416   2.594   0.724   5.013 -0.6939 -2.1041 -2.3554
 2261SOL    HW218417   2.492   0.694   5.112 -1.0196 -1.5413 -0.7602
 2262SOL     OW18418   4.178   3.090   7.315  0.1286  0.0661 -0.3260
 2262SOL    HW118419   4.135   3.149   7.253  2.0092  0.3842 -1.3202
 2262SOL    HW218420   4.109   3.028   7.341  1.0581 -0.2965  1.2619
 2263SOL     OW18421   0.171   3.719   8.797 -0.2622 -0.0449 -0.0609
 2263SOL    HW118422   0.119   3.775   8.855 -0.8359 -1.3161  0.6675
 2263SOL    HW218423   0.219   3.670   8.864 -1.1664  0.0800  0.6844
 2264SOL     OW18424   2.393   0.678   9.052 -0.1472 -0.0096  0.2455
 2264SOL    HW118425   2.420   0.701   8.964  0.4182 -3.3339 -0.4686
 2264SOL    HW218426   2.327   0.614   9.024  0.6573 -1.2018  1.0476
 2265SOL     OW18427   2.519   0.124  16.353  0.0660 -0.3883 -0.2603
 2265SOL    HW118428   2.612   0.105  16.357  0.1734  0.0149 -0.9781
 2265SOL    HW218429   2.490   0.050  16.299  1.1803 -2.1347  1.5171
 2266SOL     OW18430   1.321   2.429   1.454 -0.5941 -0.4278  0.1750
 2266SOL    HW118431   1.227   2.443   1.459 -0.2336  2.6312 -2.2025
 2266SOL    HW218432   1.337   2.375   1.377 -0.3067  0.5612 -0.4649
 2267SOL     OW18433   1.084   1.248   4.203 -0.6274 -0.5082 -0.3036
 2267SOL    HW118434   1.152   1.181   4.215  1.6155  1.8327  0.0375
 2267SOL    HW218435   1.135   1.328   4.194 -0.3702 -0.7649 -1.1118
 2268SOL     OW18436   4.216   2.434   4.809 -0.0060 -0.0840  0.4898
 2268SOL    HW118437   4.276   2.432   4.735 -0.6967 -0.7782 -0.0487
 2268SOL    HW218438   4.205   2.342   4.833 -0.0264  0.3690  2.2763
 2269SOL     OW18439   3.261   1.566   9.443  0.3138  0.1237  0.1895
 2269SOL    HW118440   3.222   1.582   9.529  1.2651 -1.0305  0.8319
 2269SOL    HW218441   3.301   1.480   9.454 -3.2205 -1.7858 -1.7456
 2270SOL     OW18442   3.130   0.476  17.234 -0.4006 -0.3949  0.0456
 2270SOL    HW118443   3.130   0.383  17.208  0.8990 -0.5098  0.4380
 2270SOL    HW218444   3.213   0.476  17.282  0.4180 -2.5355 -1.3649
 2271SOL     OW18445   3.537   3.014  16.887  0.3229  0.0134  0.3595
 2271SOL    HW118446   3.564   2.988  16.975 -1.0217 -0.8476  0.5286
 2271SOL    HW218447   3.598   2.951  16.848 -0.2681 -2.8089  3.8864
 2272SOL     OW18448   3.791   0.032  14.292 -0.4226  0.2708  0.5447
 2272SOL    HW118449   3.765   4.697  14.236 -2.0795  1.8710 -0.7389
 2272SOL    HW218450   3.794   4.728  14.378 -0.0705  1.6499  1.2117
 2273SOL     OW18451   0.211   3.271  13.034 -0.5021 -0.2416  0.1163
 2273SOL    HW118452   0.145   3.226  13.088  0.9318 -0.3996  1.7301
 2273SOL    HW218453   0.285   3.255  13.092 -0.4359 -0.8341 -0.1326
 2274SOL     OW18454   2.528   3.994   6.323  0.4887  0.3963 -0.2748
 2274SOL    HW118455   2.612   4.001   6.277  0.7761  1.6497  0.4367
 2274SOL    HW218456   2.530   4.071   6.380 -0.1757 -0.1022  0.4150
 2275SOL     OW18457   4.707   1.962   2.468  0.6534 -0.0141  0.2013
 2275SOL    HW118458   4.652   1.897   2.513 -0.6811  1.0744  0.1700
 2275SOL    HW218459   4.664   2.035   2.512 -0.2024 -0.8680  0.7955
 2276SOL     OW18460   0.519   2.013  13.840 -0.0742 -0.2270 -0.3718
 2276SOL    HW118461   0.578   1.946  13.806 -0.6548 -0.2235 -1.3589
 2276SOL    HW218462   0.441   1.994  13.789 -1.2093  3.2347  0.0977
 2277SOL     OW18463   1.728   0.500   8.954  0.4263  0.4984 -0.1966
 2277SOL    HW118464   1.684   0.584   8.942  1.3642  0.9412 -0.5324
 2277SOL    HW218465   1.676   0.452   8.890  0.2166  1.7886 -0.9938
 2278SOL     OW18466   2.335   3.827   9.988  0.5199 -0.8786 -0.1381
 2278SOL    HW118467   2.283   3.779   9.923  0.5703  0.7662 -1.4115
 2278SOL    HW218468   2.357   3.910   9.945 -0.9732 -0.6215 -0.3891
 2279SOL     OW18469   2.779   1.454   6.276 -0.4673 -0.3653 -0.5798
 2279SOL    HW118470   2.685   1.473   6.267 -0.1826  0.7503 -1.1550
 2279SOL    HW218471   2.782   1.456   6.371 -0.5330 -1.2948 -0.5528
 2280SOL     OW18472   3.463   4.538   8.807 -0.5703  0.2243 -0.2345
 2280SOL    HW118473   3.514   4.540   8.725 -1.3801 -0.9179 -0.7706
 2280SOL    HW218474   3.514   4.482   8.865  1.0665  1.0934 -0.8230
 2281SOL     OW18475   1.569   0.285  15.065  0.1408  0.1002  0.2793
 2281SOL    HW118476   1.634   0.348  15.095  0.3077  1.0506 -2.0967
 2281SOL    HW218477   1.525   0.255  15.145  0.2129  1.5486  0.8600
 2282SOL     OW18478   0.024   2.406   2.044 -0.6957 -0.6956 -0.4331
 2282SOL    HW118479   0.050   2.317   2.020 -0.2340 -0.3040 -1.3925
 2282SOL    HW218480   4.702   2.442   1.978 -1.8214 -0.3957  0.7480
 2283SOL     OW18481   3.905   2.947   5.273 -0.4009 -0.1625 -0.3844
 2283SOL    HW118482   3.850   2.926   5.348  1.4934 -1.6592  0.6156
 2283SOL    HW218483   3.906   2.859   5.233  1.5882  0.1294 -1.0085
 2284SOL     OW18484   1.385   2.323   1.823 -0.5578  0.1692  0.0182
 2284SOL    HW118485   1.299   2.351   1.793 -0.5188  1.2421  0.8846
 2284SOL    HW218486   1.406   2.392   1.887  1.2011  1.6808 -2.1844
 2285SOL     OW18487   0.557   3.374   3.247 -0.1080  0.2801  0.4085
 2285SOL    HW118488   0.488   3.436   3.269  0.2883  0.9935 -0.3961
 2285SOL    HW218489   0.640   3.420   3.234 -0.8286  1.7701  1.0804
 2286SOL     OW18490   1.278   1.639   4.572  0.2189  0.0833 -0.2620
 2286SOL    HW118491   1.224   1.689   4.511  0.4669  1.5964  0.7612
 2286SOL    HW218492   1.321   1.572   4.519  1.0613  0.6659 -0.3241
 2287SOL     OW18493   0.786   2.904   7.124 -0.0870  0.0019  0.2448
 2287SOL    HW118494   0.800   2.975   7.061  0.4686 -0.2230  0.1178
 2287SOL    HW218495   0.794   2.823   7.073  1.9538  0.1951  0.2581
 2288SOL     OW18496   4.340   1.758   2.327  0.1493  0.6345 -0.0452
 2288SOL    HW118497   4.308   1.668   2.327  0.0016  0.6867 -1.2188
 2288SOL    HW218498   4.434   1.738   2.332 -0.5906 -2.9586 -0.4078
 2289SOL     OW18499   1.185   3.044   3.591 -0.3761 -0.1059 -0.3700
 2289SOL    HW118500   1.124   2.972   3.573 -0.6357  0.2858 -1.0753
 2289SOL    HW218501   1.131   3.118   3.563  0.6609  1.0936  0.7952
 2290SOL     OW18502   4.248   3.935   9.387 -0.0190 -0.2615 -0.3731
 2290SOL    HW118503   4.286   3.873   9.326 -0.6694  1.1056 -2.1873
 2290SOL    HW218504   4.158   3.909   9.367  0.2100 -1.2568 -0.0854
 2291SOL     OW18505   1.817   3.272   3.493 -0.4939  0.0785  0.3130
 2291SOL    HW118506   1.828   3.338   3.424  3.1772  1.9214  2.6482
 2291SOL    HW218507   1.823   3.189   3.447  1.6768  0.5825 -0.3400
 2292SOL     OW18508   1.448   1.155  17.458  0.3049  0.1340 -0.0766
 2292SOL    HW118509   1.366   1.145  17.506 -0.4171  1.7179 -1.0191
 2292SOL    HW218510   1.503   1.091  17.505  0.0683  1.1350  1.5788
 2293SOL     OW18511   2.178   2.762  10.944 -0.5350 -0.2484 -0.2824
 2293SOL    HW118512   2.153   2.834  10.885  2.5990 -0.9315 -2.4146
 2293SOL    HW218513   2.273   2.765  10.933 -0.2392 -0.1042  2.5295
 2294SOL     OW18514   2.845   2.151   8.687 -0.6531 -0.4441 -0.3731
 2294SOL    HW118515   2.928   2.197   8.690  0.3486 -2.1121 -2.1097
 2294SOL    HW218516   2.799   2.190   8.761 -1.5097  0.8079 -1.5801
 2295SOL     OW18517   0.810   1.079   4.794 -0.2510  0.4316 -0.4031
 2295SOL    HW118518   0.771   1.129   4.866  0.3330  1.4302 -0.7893
 2295SOL    HW218519   0.807   0.989   4.828 -0.0678  0.4965 -0.2142
 2296SOL     OW18520   0.784   2.461   5.514  0.1617 -0.3582 -0.2795
 2296SOL    HW118521   0.858   2.404   5.494  0.2476 -0.4578  0.3435
 2296SOL    HW218522   0.737   2.389   5.557  0.1051 -0.6908 -0.8988
 2297SOL     OW18523   2.110   4.013   2.588  0.5507  0.0198  0.4236
 2297SOL    HW118524   2.178   3.953   2.558 -0.0222  0.2120 -1.2957
 2297SOL    HW218525   2.025   3.971   2.573  1.7364 -1.3553 -2.4876
 2298SOL     OW18526   1.096   4.011   6.396  0.4357  0.1738  0.6755
 2298SOL    HW118527   1.163   4.067   6.357 -0.5129 -0.8075 -2.3522
 2298SOL    HW218528   1.021   4.049   6.350  1.1269  1.0567  0.2784
 2299SOL     OW18529   3.166   0.538   2.004  0.5682 -0.6819 -0.2410
 2299SOL    HW118530   3.202   0.513   2.089  1.9528  3.1835  0.2940
 2299SOL    HW218531   3.206   0.466   1.955 -0.7794 -2.6499  1.5181
 2300SOL     OW18532   0.221   3.092   9.356  0.0367 -0.2072 -0.1702
 2300SOL    HW118533   0.205   3.185   9.374 -1.4097 -0.6526  0.8454
 2300SOL    HW218534   0.172   3.078   9.274 -4.0012  2.0096  1.8372
 2301SOL     OW18535   4.090   1.342   2.576 -0.2573  0.0180  0.4310
 2301SOL    HW118536   4.018   1.394   2.541  0.0057 -0.0519 -0.2129
 2301SOL    HW218537   4.052   1.255   2.570  1.3082 -0.7408  1.4736
 2302SOL     OW18538   0.461   1.619  10.324 -0.2403  0.5211  0.1132
 2302SOL    HW118539   0.385   1.577  10.287 -1.2651  1.1360  1.5065
 2302SOL    HW218540   0.498   1.673  10.254  0.8245  1.8167  1.6417
 2303SOL     OW18541   1.861   1.020   4.090  0.1255 -0.2875  0.4895
 2303SOL    HW118542   1.912   0.945   4.121 -0.2018 -1.1202 -1.0067
 2303SOL    HW218543   1.843   0.985   4.003  2.6292  1.4450 -0.7389
 2304SOL     OW18544   3.199   3.084   3.877  0.3061  0.7006  0.2661
 2304SOL    HW118545   3.255   3.098   3.953 -1.7640  0.0456  1.9305
 2304SOL    HW218546   3.136   3.156   3.885 -0.3137  0.2861 -0.9534
 2305SOL     OW18547   2.222   2.040   7.865  0.9641  0.0264 -0.2877
 2305SOL    HW118548   2.291   2.063   7.802  2.1267 -1.3749  0.4905
 2305SOL    HW218549   2.265   2.020   7.948  2.1550  2.4117 -0.3405
 2306SOL     OW18550   2.951   3.829  13.242  0.0029 -1.0040  0.0840
 2306SOL    HW118551   2.901   3.756  13.280 -0.6142  0.6804  2.4789
 2306SOL    HW218552   3.032   3.783  13.223 -0.4139 -2.2979  1.4090
 2307SOL     OW18553   2.315   4.504   9.901 -0.1621 -0.0174  0.7392
 2307SOL    HW118554   2.279   4.587   9.870  5.1016  1.8118 -0.4873
 2307SOL    HW218555   2.290   4.438   9.837 -1.4541 -0.1644  1.3941
 2308SOL     OW18556   2.507   3.695   4.927  0.0864 -0.0552 -0.4179
 2308SOL    HW118557   2.451   3.632   4.881 -0.8301 -0.5219  1.3117
 2308SOL    HW218558   2.466   3.779   4.906  1.4093  0.1189 -2.2689
 2309SOL     OW18559   0.135   2.345   9.018 -0.2561 -0.0101  0.2792
 2309SOL    HW118560   0.183   2.273   8.977 -1.1959  0.9287 -2.4498
 2309SOL    HW218561   0.063   2.361   8.957 -1.5334 -2.1028  1.2203
 2310SOL     OW18562   0.333   2.250  13.170  0.1085  0.1804 -0.6826
 2310SOL    HW118563   0.331   2.171  13.225 -2.6116  2.1969  2.1457
 2310SOL    HW218564   0.339   2.314  13.241  0.1527 -0.3663 -0.1950
 2311SOL     OW18565   2.219   4.280   5.288  0.1398 -0.3109  0.1613
 2311SOL    HW118566   2.231   4.278   5.383  1.3717 -1.6305 -0.0252
 2311SOL    HW218567   2.159   4.207   5.276  3.1157 -2.4288 -1.6905
 2312SOL     OW18568   1.742   4.440   9.993  0.4678  0.0893 -0.1804
 2312SOL    HW118569   1.714   4.399  10.076  1.2240 -1.8858 -0.9013
 2312SOL    HW218570   1.740   4.363   9.936  3.1369 -0.4784  0.5013
 2313SOL     OW18571   3.581   2.115   5.147 -0.2738 -0.0702 -0.3024
 2313SOL    HW118572   3.631   2.185   5.189  0.6012 -1.2196  0.5568
 2313SOL    HW218573   3.541   2.059   5.214  0.9022 -0.4021  0.1112
 2314SOL     OW18574   1.360   2.875   2.914  0.5822 -0.2679 -0.4240
 2314SOL    HW118575   1.390   2.812   2.849 -1.8701  0.0437 -1.8475
 2314SOL    HW218576   1.293   2.828   2.964 -0.8857  1.5752 -0.6420
 2315SOL     OW18577   4.481   3.885   5.731  0.0848  0.6293  0.3041
 2315SOL    HW118578   4.522   3.799   5.718 -1.0592 -0.2474  2.4718
 2315SOL    HW218579   4.550   3.900   5.795  0.3467  0.9295 -0.0517
 2316SOL     OW18580   3.231   0.159  15.085  0.3412  0.5305  0.2087
 2316SOL    HW118581   3.255   0.212  15.160  0.4937  0.5103  0.1762
 2316SOL    HW218582   3.290   0.201  15.022  1.3073 -0.2111  0.6000
 2317SOL     OW18583   0.048   2.305   5.173  0.1021 -0.2133  0.2140
 2317SOL    HW118584   0.048   2.284   5.267  3.5926  0.8007  0.4379
 2317SOL    HW218585   0.012   2.393   5.166  2.6644  0.7290 -0.9442
 2318SOL     OW18586   4.300   2.255   7.052 -0.1016 -0.9357  0.5011
 2318SOL    HW118587   4.347   2.246   7.135  0.0900 -0.5089  0.4406
 2318SOL    HW218588   4.375   2.283   7.000 -0.5620 -0.4897  0.0742
 2319SOL     OW18589   0.109   0.771  10.839 -0.7712 -0.3125 -0.4913
 2319SOL    HW118590   0.062   0.779  10.756  0.8751 -1.0147 -1.4892
 2319SOL    HW218591   0.036   0.729  10.884 -1.1235  1.1874  0.3174
 2320SOL     OW18592   3.320   2.768   8.046 -0.3428  0.4857  0.5189
 2320SOL    HW118593   3.415   2.760   8.034 -0.4042 -0.3062  0.5362
 2320SOL    HW218594   3.296   2.679   8.020 -0.7013  0.4228  1.0677
 2321SOL     OW18595   3.232   2.608  16.188 -0.1533 -0.5377  0.4020
 2321SOL    HW118596   3.211   2.610  16.282  2.4984  0.0507  0.9834
 2321SOL    HW218597   3.232   2.513  16.178  1.3040 -0.5649  0.6361
 2322SOL     OW18598   4.582   3.687   7.538 -0.4367 -0.0249 -1.1740
 2322SOL    HW118599   4.624   3.716   7.618 -1.4550  0.8087 -0.9514
 2322SOL    HW218600   4.492   3.712   7.556  0.2288 -0.0943  2.1200
 2323SOL     OW18601   2.589   1.790  12.472 -0.1991  0.5544 -0.0151
 2323SOL    HW118602   2.556   1.879  12.484 -0.3248  0.6349 -1.0299
 2323SOL    HW218603   2.663   1.785  12.534 -0.2774  0.1534  0.0480
 2324SOL     OW18604   1.791   0.765   8.136 -0.4920 -0.5497  1.0185
 2324SOL    HW118605   1.763   0.812   8.058  2.3021 -2.4805 -1.1809
 2324SOL    HW218606   1.879   0.743   8.105 -1.1662 -0.6916 -0.8053
 2325SOL     OW18607   2.775   2.710   8.341  0.1279  0.2342 -0.2859
 2325SOL    HW118608   2.716   2.638   8.363  0.3668  0.0581 -0.2281
 2325SOL    HW218609   2.861   2.685   8.374  0.4510 -0.7896 -1.8835
 2326SOL     OW18610   3.180   1.627   9.173 -0.2095  0.5251  0.1400
 2326SOL    HW118611   3.195   1.582   9.256  1.4630 -0.2337 -0.5579
 2326SOL    HW218612   3.246   1.583   9.119  1.6687  0.9102  2.1223
 2327SOL     OW18613   2.095   2.978   9.933  0.2277  0.1170 -0.0082
 2327SOL    HW118614   2.149   3.054   9.909  1.0763  0.6414  3.6436
 2327SOL    HW218615   2.140   2.925   9.999 -4.1702 -0.3465  2.5871
 2328SOL     OW18616   0.228   1.317  16.677 -0.7392 -0.6913  0.7609
 2328SOL    HW118617   0.228   1.355  16.589  0.2793  0.2467  1.1764
 2328SOL    HW218618   0.318   1.286  16.677 -0.3672  0.3768  1.3062
 2329SOL     OW18619   1.519   3.672   9.660  0.1937  0.1177 -0.1721
 2329SOL    HW118620   1.609   3.705   9.666 -0.5583  1.6810  2.2717
 2329SOL    HW218621   1.496   3.684   9.752  1.0155  2.3436 -0.2564
 2330SOL     OW18622   2.926   2.342   7.866 -0.2757  0.3361  0.4257
 2330SOL    HW118623   2.975   2.260   7.863 -1.5589 -0.4987  2.4804
 2330SOL    HW218624   2.990   2.403   7.829 -0.5547  0.6939  0.5298
 2331SOL     OW18625   1.214   1.156  14.594  0.0957  0.1077  0.1205
 2331SOL    HW118626   1.223   1.105  14.513 -0.1682 -1.4744  1.0878
 2331SOL    HW218627   1.119   1.165  14.589  0.1663  0.0676 -1.3683
 2332SOL     OW18628   3.095   0.327   4.394 -0.3564 -0.1460  0.0223
 2332SOL    HW118629   3.018   0.328   4.450 -0.5804  1.1953 -0.3084
 2332SOL    HW218630   3.072   0.396   4.332  1.0627  1.5387  1.3628
 2333SOL     OW18631   1.823   3.609   7.239 -0.5876  0.3908 -0.2915
 2333SOL    HW118632   1.842   3.617   7.333  0.5953  0.3015 -0.5201
 2333SOL    HW218633   1.783   3.522   7.232  0.1455 -0.1518  2.1076
 2334SOL     OW18634   1.690   2.385   2.663  0.1748  0.3997 -0.5818
 2334SOL    HW118635   1.703   2.305   2.611  1.9176  1.3638 -1.6231
 2334SOL    HW218636   1.660   2.352   2.748  1.0237  0.9270 -0.0835
 2335SOL     OW18637   2.014   2.880   9.675 -0.0057  0.1362 -0.0606
 2335SOL    HW118638   2.099   2.838   9.687 -0.7122 -0.7353  1.8598
 2335SOL    HW218639   1.980   2.911   9.759 -0.2778  0.9728 -0.4699
 2336SOL     OW18640   1.595   4.710  10.509 -0.7038 -0.3293 -0.3223
 2336SOL    HW118641   1.564   4.652  10.439 -1.7337 -3.5037  2.8022
 2336SOL    HW218642   1.627   4.648  10.574 -0.9523  0.3468  0.4370
 2337SOL     OW18643   3.383   0.100  15.833 -0.1159 -0.1850  0.0475
 2337SOL    HW118644   3.467   0.134  15.802  0.7518 -1.0320  1.4818
 2337SOL    HW218645   3.414   0.050  15.908 -0.4840  2.8808  2.2214
 2338SOL     OW18646   3.271   1.509   4.278  0.5476 -0.2639 -0.4544
 2338SOL    HW118647   3.226   1.582   4.320  2.3188  1.2814 -1.2990
 2338SOL    HW218648   3.348   1.503   4.334  0.4972  1.3436 -0.2307
 2339SOL     OW18649   0.622   1.383   9.135 -0.0665  0.6372 -0.6460
 2339SOL    HW118650   0.639   1.470   9.098 -1.5052  1.1527 -0.0933
 2339SOL    HW218651   0.533   1.356   9.114  0.3665 -0.3750 -1.1603
 2340SOL     OW18652   3.512   3.979   6.918 -0.0252  0.0083 -0.0348
 2340SOL    HW118653   3.429   3.940   6.946 -1.4343  1.0365 -2.8317
 2340SOL    HW218654   3.487   4.070   6.931  0.0325  0.0666 -0.3349
 2341SOL     OW18655   0.569   2.101  13.013 -0.7003  0.6057 -0.5622
 2341SOL    HW118656   0.498   2.036  13.013  0.1051 -0.2684 -2.2169
 2341SOL    HW218657   0.561   2.140  13.100  1.4683 -0.2637  0.0390
 2342SOL     OW18658   3.612   1.366   7.039 -0.5321  0.3238  1.1836
 2342SOL    HW118659   3.531   1.417   7.048 -1.2390 -0.6443  0.4651
 2342SOL    HW218660   3.643   1.395   6.953 -0.2848 -2.2781  0.3791
 2343SOL     OW18661   4.016   1.126   1.970  0.5685 -0.2045 -0.3173
 2343SOL    HW118662   4.013   1.052   2.031 -0.8381 -0.5563 -0.8252
 2343SOL    HW218663   4.107   1.123   1.941  0.8536 -0.5203  0.5879
 2344SOL     OW18664   1.870   1.005   1.617 -0.5459 -0.2404 -0.1959
 2344SOL    HW118665   1.824   0.935   1.663  0.8679 -0.3803  0.9825
 2344SOL    HW218666   1.926   0.960   1.555 -1.4756 -0.4855 -0.8510
 2345SOL     OW18667   1.436   4.527   2.961  0.5201  0.0552 -0.0944
 2345SOL    HW118668   1.409   4.475   3.036 -1.2022 -1.1872 -1.5877
 2345SOL    HW218669   1.360   4.575   2.928 -0.2454 -0.7816  0.4612
 2346SOL     OW18670   0.346   0.705   1.960  0.2002  0.0317  0.7315
 2346SOL    HW118671   0.401   0.627   1.957 -0.9528 -0.7814  0.8201
 2346SOL    HW218672   0.396   0.764   2.016  0.2700  1.9359 -1.3055
 2347SOL     OW18673   2.908   0.706  13.124  0.3609 -0.3503 -0.3100
 2347SOL    HW118674   2.849   0.671  13.058 -0.8534 -0.0902  0.6263
 2347SOL    HW218675   2.943   0.783  13.079 -0.6026  0.0674 -0.3600
 2348SOL     OW18676   2.165   2.009   6.601 -0.2084 -1.2958 -0.0989
 2348SOL    HW118677   2.239   1.973   6.649 -2.4385 -2.2340  2.6147
 2348SOL    HW218678   2.187   2.101   6.584  0.8956 -1.5616 -0.0732
 2349SOL     OW18679   3.162   0.288  11.509  0.2762 -0.3353  0.7758
 2349SOL    HW118680   3.215   0.331  11.442  0.0498 -0.0412  0.7849
 2349SOL    HW218681   3.213   0.308  11.587 -1.6422 -0.6245  2.0988
 2350SOL     OW18682   4.263   1.429   8.055 -0.7782 -0.6889 -0.9270
 2350SOL    HW118683   4.236   1.372   7.983 -1.0216  0.0516 -1.4200
 2350SOL    HW218684   4.225   1.388   8.133  1.0006  0.2280  0.4366
 2351SOL     OW18685   3.522   4.296   4.055  0.3901  0.3511 -0.4192
 2351SOL    HW118686   3.481   4.380   4.033 -0.2925 -0.2418 -1.4219
 2351SOL    HW218687   3.589   4.294   3.986 -0.7182 -0.8879 -1.4562
 2352SOL     OW18688   1.931   0.468  17.446  0.3358 -0.5715  0.6624
 2352SOL    HW118689   1.852   0.491  17.495  1.6374  1.5363  1.7354
 2352SOL    HW218690   1.996   0.496  17.510  0.8185 -0.1560 -0.0109
 2353SOL     OW18691   0.493   4.476   7.514  0.0662  0.4102  0.6612
 2353SOL    HW118692   0.472   4.548   7.573 -1.0922  0.7013 -0.0995
 2353SOL    HW218693   0.543   4.518   7.444  2.0671  0.2148  1.9799
 2354SOL     OW18694   2.345   4.640   2.450 -0.1462 -0.3419  0.3172
 2354SOL    HW118695   2.308   4.638   2.362  3.1626  2.6847 -1.1571
 2354SOL    HW218696   2.410   4.571   2.437 -2.0636 -2.0777 -0.0102
 2355SOL     OW18697   1.048   4.403   2.761 -0.0947 -0.0210  0.5923
 2355SOL    HW118698   0.968   4.431   2.716 -0.6519 -3.2783 -0.4529
 2355SOL    HW218699   1.004   4.382   2.843  0.1965  0.7710  0.9612
 2356SOL     OW18700   0.457   0.186   5.282 -0.2266  0.4917 -0.7729
 2356SOL    HW118701   0.450   0.255   5.216 -0.9814 -0.4157 -1.6437
 2356SOL    HW218702   0.426   0.240   5.355 -2.3181  0.3298 -1.5559
 2357SOL     OW18703   3.068   4.142   1.757 -0.2981  0.6054  0.0577
 2357SOL    HW118704   3.161   4.120   1.759 -0.5430 -0.7068 -2.4020
 2357SOL    HW218705   3.085   4.232   1.728 -1.2167  0.5396 -0.7041
 2358SOL     OW18706   1.595   2.830   3.034 -0.2707  0.2524 -0.3183
 2358SOL    HW118707   1.538   2.876   2.972 -1.0975 -0.2776  0.0565
 2358SOL    HW218708   1.540   2.829   3.112 -2.6256 -0.9799 -2.0130
 2359SOL     OW18709   3.340   3.867   2.012  0.4613 -0.2741 -0.1583
 2359SOL    HW118710   3.248   3.886   2.030  0.1625 -0.4764 -1.4564
 2359SOL    HW218711   3.338   3.783   2.059  1.7350 -1.0306 -1.4303
 2360SOL     OW18712   1.030   0.170  16.687 -0.2107 -0.3545  0.7688
 2360SOL    HW118713   0.973   0.109  16.639  1.0096 -0.3846 -0.6139
 2360SOL    HW218714   1.117   0.132  16.686  0.7311  1.8266 -0.1687
 2361SOL     OW18715   2.774   3.679   6.830 -0.5012  0.2261 -0.0775
 2361SOL    HW118716   2.707   3.734   6.791  1.5381  1.6500 -1.5816
 2361SOL    HW218717   2.724   3.598   6.832 -1.9059  1.1437  2.0904
 2362SOL     OW18718   0.111   1.649   7.764  0.5085 -0.9336 -0.9115
 2362SOL    HW118719   0.055   1.595   7.819 -2.0309  0.2327 -2.3537
 2362SOL    HW218720   0.113   1.593   7.687  1.6524 -0.1546 -1.4488
 2363SOL     OW18721   1.855   3.034   4.506 -0.1106 -0.3205  0.2705
 2363SOL    HW118722   1.821   3.024   4.417  2.3665 -1.2002 -0.5695
 2363SOL    HW218723   1.934   2.981   4.500 -0.2510 -0.3270 -1.5440
 2364SOL     OW18724   1.478   2.171   2.789  0.2212  0.1579 -0.7446
 2364SOL    HW118725   1.431   2.091   2.766  1.4709 -0.5190 -0.9412
 2364SOL    HW218726   1.465   2.224   2.710  1.3852  2.1912  0.4208
 2365SOL     OW18727   0.325   0.454  17.410  0.2391  0.4575  0.4524
 2365SOL    HW118728   0.304   0.538  17.449 -0.0901  1.1070 -1.1470
 2365SOL    HW218729   0.353   0.480  17.322  1.2659  0.8948  0.9072
 2366SOL     OW18730   0.806   2.234   6.020  0.4399 -0.1066 -0.2590
 2366SOL    HW118731   0.776   2.148   5.992  2.0138 -0.9497  0.6329
 2366SOL    HW218732   0.897   2.213   6.039  0.6872  2.2205  1.1721
 2367SOL     OW18733   4.712   0.990   7.371  0.2574 -0.4260 -0.5088
 2367SOL    HW118734   0.059   0.981   7.414  0.9486  2.5419 -1.2811
 2367SOL    HW218735   4.684   1.071   7.414  3.6551  1.0459 -1.1488
 2368SOL     OW18736   2.910   2.700   1.515 -0.2279  0.2787  0.1840
 2368SOL    HW118737   2.836   2.647   1.485 -0.7600  1.2200 -0.1908
 2368SOL    HW218738   2.978   2.633   1.522  0.9566  1.4685  0.0098
 2369SOL     OW18739   4.306   1.652   8.365  0.0438 -0.0706 -0.2835
 2369SOL    HW118740   4.389   1.698   8.359 -0.6441  1.1653 -0.2752
 2369SOL    HW218741   4.240   1.721   8.370  1.2464  1.1076 -0.6840
 2370SOL     OW18742   1.753   3.412   5.018  1.1583 -0.0718 -0.1464
 2370SOL    HW118743   1.739   3.362   5.099  3.1662 -0.5496 -0.1063
 2370SOL    HW218744   1.686   3.376   4.959 -1.3440  0.9052  2.0637
 2371SOL     OW18745   3.077   0.211   2.534  0.5964 -0.2263  0.1364
 2371SOL    HW118746   3.099   0.151   2.463 -0.5189 -0.8932  0.3490
 2371SOL    HW218747   3.055   0.293   2.490  3.7587  0.0538 -0.9213
 2372SOL     OW18748   3.813   4.701   1.960 -0.0195 -0.0142 -0.7386
 2372SOL    HW118749   3.820   0.059   1.962  1.2212 -0.0577 -2.5976
 2372SOL    HW218750   3.718   4.690   1.961 -0.1355  1.0120 -0.1448
 2373SOL     OW18751   1.735   1.831  13.537 -0.3390  0.1276  0.1808
 2373SOL    HW118752   1.760   1.912  13.493 -0.6076 -0.5578 -1.2274
 2373SOL    HW218753   1.770   1.764  13.478 -0.5350 -1.4469  1.8620
 2374SOL     OW18754   0.770   4.355   1.400  0.2271 -0.2670 -0.2272
 2374SOL    HW118755   0.864   4.362   1.419  0.4010 -0.6097 -0.9608
 2374SOL    HW218756   0.748   4.441   1.366 -0.8398 -0.7227 -0.6738
 2375SOL     OW18757   2.039   2.312   5.712 -0.3152 -0.2654 -0.1635
 2375SOL    HW118758   2.052   2.330   5.804 -1.4485 -0.8520  0.1220
 2375SOL    HW218759   2.017   2.219   5.724  0.4207 -0.3140  0.7289
 2376SOL     OW18760   2.403   0.026   9.020  0.3106  0.1530 -0.2418
 2376SOL    HW118761   2.375   0.087   9.088 -1.8365  0.5411 -1.4794
 2376SOL    HW218762   2.401   0.080   8.941  0.2932 -1.1157 -1.0944
 2377SOL     OW18763   1.051   0.553   0.864  0.2259  0.7106 -1.2480
 2377SOL    HW118764   1.090   0.573   0.950 -0.7228 -1.0922 -0.4039
 2377SOL    HW218765   0.959   0.560   0.891  0.1917  0.9156 -1.4166
 2378SOL     OW18766   3.409   1.794   9.400  0.0211 -0.1443 -0.0078
 2378SOL    HW118767   3.362   1.710   9.399  1.2282 -0.8806  3.7483
 2378SOL    HW218768   3.466   1.795   9.324 -0.6834 -0.6364 -0.5515
 2379SOL     OW18769   4.066   1.436  15.654 -0.2986 -0.1014 -0.7629
 2379SOL    HW118770   4.122   1.507  15.683 -1.7943  0.7944 -0.0523
 2379SOL    HW218771   4.070   1.436  15.558 -1.3861  0.1582 -0.8108
 2380SOL     OW18772   3.012   2.769  15.705  0.4926  0.7128 -0.4814
 2380SOL    HW118773   2.944   2.780  15.772  0.5918  1.6761 -0.5466
 2380SOL    HW218774   2.959   2.758  15.626 -2.8074  1.6132  1.5765
 2381SOL     OW18775   0.889   2.125   1.294  0.1736  0.7529  0.3712
 2381SOL    HW118776   0.898   2.047   1.350  0.0731  1.0604  0.8201
 2381SOL    HW218777   0.978   2.152   1.271 -0.4861  2.5671 -0.0700
 2382SOL     OW18778   3.434   2.400  10.730  0.5343  0.0919  0.4416
 2382SOL    HW118779   3.371   2.472  10.729  1.5362  0.9808  1.1454
 2382SOL    HW218780   3.458   2.399  10.823  0.9446  0.5953  0.3386
 2383SOL     OW18781   3.089   3.048   1.951  0.3716 -0.2148  0.3395
 2383SOL    HW118782   3.174   3.076   1.986  1.1254 -1.1254 -0.7519
 2383SOL    HW218783   3.035   3.059   2.029  0.0794 -0.4391  0.1663
 2384SOL     OW18784   3.753   0.498   5.573  0.3837 -0.2786  0.0740
 2384SOL    HW118785   3.754   0.568   5.508  0.5533  0.9914  1.4396
 2384SOL    HW218786   3.758   0.423   5.515 -0.1296  0.6226 -1.1486
 2385SOL     OW18787   1.860   3.566  15.399 -0.2942  0.5351 -0.0392
 2385SOL    HW118788   1.828   3.657  15.399 -1.1913  0.2260  1.7072
 2385SOL    HW218789   1.795   3.512  15.354 -0.0260 -0.7026  1.0584
 2386SOL     OW18790   0.688   4.265   0.794  0.0984 -0.2507 -0.0589
 2386SOL    HW118791   0.599   4.297   0.777 -0.0357 -0.9497 -0.6601
 2386SOL    HW218792   0.670   4.215   0.874  0.5771  1.2322  0.9754
 2387SOL     OW18793   3.095   1.490   3.528 -0.0823  0.3203 -0.1687
 2387SOL    HW118794   3.081   1.467   3.620 -1.1750 -2.0476 -0.9180
 2387SOL    HW218795   3.131   1.408   3.495 -0.0076  0.1340  0.3602
 2388SOL     OW18796   2.932   0.611   7.816 -0.4678 -0.2763 -0.0614
 2388SOL    HW118797   2.977   0.665   7.750  0.5675  0.2772  1.1106
 2388SOL    HW218798   2.978   0.529   7.797 -1.1515 -0.7836  0.4933
 2389SOL     OW18799   2.415   4.731   4.891  0.1488 -0.8519  0.6785
 2389SOL    HW118800   2.343   0.031   4.841  0.4533  0.2729  1.0901
 2389SOL    HW218801   2.394   0.015   4.981 -4.3100  1.8299 -1.0449
 2390SOL     OW18802   0.937   0.434   9.080 -0.0090 -0.3518  0.3858
 2390SOL    HW118803   0.922   0.520   9.119  1.3362 -0.5440  1.3335
 2390SOL    HW218804   1.033   0.430   9.082  0.0231  0.6035  0.9690
 2391SOL     OW18805   0.273   3.828  12.417 -0.4715  0.4986 -0.3114
 2391SOL    HW118806   0.250   3.856  12.328  2.3559  2.6412 -0.3435
 2391SOL    HW218807   0.188   3.799  12.450 -0.9609  0.4010 -1.6392
 2392SOL     OW18808   0.412   1.454   5.461 -0.0117 -0.6678 -0.1412
 2392SOL    HW118809   0.389   1.480   5.372 -0.2183  2.3561  0.7826
 2392SOL    HW218810   0.379   1.365   5.456 -1.0227 -0.2831 -0.3304
 2393SOL     OW18811   2.502   3.246   7.854 -0.0954 -0.1652  0.7324
 2393SOL    HW118812   2.507   3.333   7.813 -3.3884 -1.7302 -3.0179
 2393SOL    HW218813   2.566   3.252   7.924  1.1488  1.9590 -0.5960
 2394SOL     OW18814   4.363   0.486   6.819  0.5799  0.2381  0.0194
 2394SOL    HW118815   4.269   0.484   6.831  0.4029  2.0728 -1.0588
 2394SOL    HW218816   4.364   0.494   6.724  1.1633 -1.1068 -0.0986
 2395SOL     OW18817   3.827   4.298   8.767 -0.3775  0.1041 -0.2346
 2395SOL    HW118818   3.748   4.248   8.744  0.9175 -1.2667 -1.7127
 2395SOL    HW218819   3.867   4.305   8.680  0.8965 -1.9564  0.1823
 2396SOL     OW18820   2.663   0.382   1.911 -0.1268 -0.0666 -0.1034
 2396SOL    HW118821   2.748   0.368   1.952  0.2715  0.7802 -0.6341
 2396SOL    HW218822   2.678   0.463   1.862  1.0671 -0.2886 -0.1024
 2397SOL     OW18823   3.243   1.939  12.508 -0.1776 -0.0909  0.5186
 2397SOL    HW118824   3.323   1.893  12.533 -0.5104 -1.7300 -1.4317
 2397SOL    HW218825   3.265   2.029  12.529  1.0650 -0.1467 -0.5160
 2398SOL     OW18826   4.336   0.344  11.864 -0.1119  0.0678  0.4979
 2398SOL    HW118827   4.395   0.270  11.852  0.9107  0.8404  0.8184
 2398SOL    HW218828   4.377   0.385  11.940 -0.1124  0.0824  0.4903
 2399SOL     OW18829   3.325   3.417   7.101 -0.0022  0.1270  0.3767
 2399SOL    HW118830   3.276   3.438   7.180 -0.7788  0.8154 -0.2849
 2399SOL    HW218831   3.381   3.348   7.137  0.4373  0.5763  0.5548
 2400SOL     OW18832   0.084   0.966  14.050 -0.0975 -0.0601 -0.0684
 2400SOL    HW118833   0.035   0.905  14.104  1.5606 -2.7680 -1.6026
 2400SOL    HW218834   0.039   1.050  14.056  0.4578 -0.0002  3.2936
 2401SOL     OW18835   0.034   1.911   4.539 -0.0423 -0.0758 -0.3966
 2401SOL    HW118836   0.098   1.857   4.492  0.5161  0.7798 -0.6213
 2401SOL    HW218837   0.073   1.915   4.626 -0.5338 -1.0932 -0.1230
 2402SOL     OW18838   2.696   2.314   8.886 -0.2998  0.0594  0.4346
 2402SOL    HW118839   2.688   2.332   8.980 -0.9837  0.4526  0.2948
 2402SOL    HW218840   2.695   2.405   8.856 -2.0094  1.1577  3.8896
 2403SOL     OW18841   2.292   2.403   2.927 -0.0313  0.3256  0.2442
 2403SOL    HW118842   2.233   2.439   2.861  1.2661  0.3231 -0.9228
 2403SOL    HW218843   2.357   2.473   2.934 -1.6689  1.9484 -0.8549
 2404SOL     OW18844   0.656   1.977   1.999  0.4023  0.2888 -0.3094
 2404SOL    HW118845   0.616   2.057   1.963 -0.5760 -0.1709 -0.2490
 2404SOL    HW218846   0.689   2.017   2.079  0.7103 -2.7926  1.1018
 2405SOL     OW18847   3.986   0.702   6.244  0.1853 -0.2948  0.3539
 2405SOL    HW118848   3.925   0.662   6.306 -0.6953 -1.3773 -1.2114
 2405SOL    HW218849   3.940   0.691   6.160 -0.2825 -0.7079  0.6643
 2406SOL     OW18850   3.325   4.075   3.142  0.1318 -0.2276  0.4426
 2406SOL    HW118851   3.326   4.162   3.103 -0.8536 -0.1137  0.6743
 2406SOL    HW218852   3.412   4.068   3.182 -0.0201 -3.3405  0.1791
 2407SOL     OW18853   0.057   2.438  12.743 -0.3096  0.4559 -0.3179
 2407SOL    HW118854   0.041   2.441  12.649  2.6741 -1.7126 -0.9045
 2407SOL    HW218855   0.119   2.365  12.750 -3.0793 -1.6894  1.8383
 2408SOL     OW18856   3.622   3.921   5.193 -0.6891 -0.4505  0.1164
 2408SOL    HW118857   3.596   3.883   5.277  0.4063 -1.0245  0.1957
 2408SOL    HW218858   3.647   4.012   5.207  1.3029 -0.5887 -2.5326
 2409SOL     OW18859   2.933   2.646  11.973 -0.1821 -0.1184  0.4750
 2409SOL    HW118860   2.842   2.633  11.945  0.7691  0.2640 -2.7227
 2409SOL    HW218861   2.927   2.742  11.969 -0.7941 -0.2691 -2.3918
 2410SOL     OW18862   2.983   4.193   4.792  0.5876 -0.1428 -0.1566
 2410SOL    HW118863   2.950   4.230   4.710  2.0746  0.6181 -0.4178
 2410SOL    HW218864   3.041   4.126   4.757  0.3094 -1.2838  1.5843
 2411SOL     OW18865   1.716   2.774   6.397  0.0566 -0.6027 -0.3508
 2411SOL    HW118866   1.710   2.779   6.493 -1.2924 -2.8364 -0.3118
 2411SOL    HW218867   1.624   2.791   6.381  0.6984  2.8442 -0.4900
 2412SOL     OW18868   2.294   4.001  17.561  0.3493 -0.3249 -0.0648
 2412SOL    HW118869   2.253   3.924  17.601  1.8670 -0.3225  1.5142
 2412SOL    HW218870   2.283   4.067  17.629 -1.5264 -0.0136 -0.6788
 2413SOL     OW18871   2.965   3.530  17.430  0.3375 -0.4354  0.6202
 2413SOL    HW118872   2.902   3.597  17.458 -0.5294 -1.2078  0.5059
 2413SOL    HW218873   3.043   3.560  17.475  1.2742 -2.0166  0.0443
 2414SOL     OW18874   3.538   4.492   7.104  0.2467  0.1558  0.1819
 2414SOL    HW118875   3.575   4.539   7.029  0.5850 -1.1029 -0.4316
 2414SOL    HW218876   3.588   4.524   7.180 -0.7875  1.5151  0.2831
 2415SOL     OW18877   2.899   3.874   9.368 -0.6796  0.2945 -0.2242
 2415SOL    HW118878   2.952   3.915   9.299 -0.8934  0.8040 -0.0818
 2415SOL    HW218879   2.962   3.872   9.439 -1.8455  0.9847  0.8207
 2416SOL     OW18880   3.361   3.600  13.299 -0.5718 -0.0661 -0.0530
 2416SOL    HW118881   3.384   3.507  13.297 -0.4091 -0.0446  0.8488
 2416SOL    HW218882   3.404   3.641  13.374  0.0443 -0.5922 -0.1158
 2417SOL     OW18883   4.580   4.521   4.753 -0.1327  0.4529 -0.0036
 2417SOL    HW118884   4.611   4.596   4.803  0.4444  2.1795 -2.9824
 2417SOL    HW218885   4.660   4.468   4.761 -0.5266  0.0070  0.9843
 2418SOL     OW18886   2.839   0.992   9.470 -0.5149  0.8347  0.0766
 2418SOL    HW118887   2.794   1.076   9.461  0.4020  1.4448  1.0923
 2418SOL    HW218888   2.884   0.983   9.387 -0.2520  1.1624  0.1852
 2419SOL     OW18889   1.305   0.083   0.900 -0.1930 -0.0339 -0.2663
 2419SOL    HW118890   1.239   0.067   0.967  0.4137  1.5906  0.7077
 2419SOL    HW218891   1.300   0.179   0.894  1.0805  0.0861  0.6169
 2420SOL     OW18892   2.484   2.807   4.211  0.1416  0.0371  0.1392
 2420SOL    HW118893   2.396   2.785   4.242  0.1129  0.5392  0.4242
 2420SOL    HW218894   2.516   2.753   4.139 -0.3252 -1.8704  1.3621
 2421SOL     OW18895   1.016   4.239   8.063  0.3132 -0.1462 -0.2574
 2421SOL    HW118896   1.010   4.259   7.969 -0.4717 -1.5754 -0.5160
 2421SOL    HW218897   0.937   4.263   8.110 -0.3906  1.2388 -2.1486
 2422SOL     OW18898   3.137   1.196  11.773  0.4474  0.0997 -0.5648
 2422SOL    HW118899   3.154   1.272  11.828 -0.3132  0.7589 -1.2566
 2422SOL    HW218900   3.214   1.142  11.791  0.7539  0.6645 -0.1942
 2423SOL     OW18901   3.934   2.199   7.583  0.1339  0.3585  0.6784
 2423SOL    HW118902   3.981   2.278   7.558  0.8865 -0.0622  0.7483
 2423SOL    HW218903   3.933   2.222   7.676  1.3790  0.4398  0.6779
 2424SOL     OW18904   2.945   3.426   7.536 -0.5167  0.3133  0.0782
 2424SOL    HW118905   2.893   3.501   7.564 -0.6934 -0.8769  2.9316
 2424SOL    HW218906   2.896   3.401   7.458  0.8312  1.7640 -1.2289
 2425SOL     OW18907   2.057   4.336   3.085 -0.4066 -0.4874  0.1669
 2425SOL    HW118908   2.021   4.261   3.131  0.1075 -0.4954  0.5559
 2425SOL    HW218909   2.064   4.309   2.994  0.7789 -1.4840  0.5489
 2426SOL     OW18910   4.317   0.366  11.255 -0.1480 -0.2403  0.7133
 2426SOL    HW118911   4.250   0.306  11.286 -0.7470  0.1970  0.2647
 2426SOL    HW218912   4.281   0.388  11.169 -0.9434 -2.4220  0.4978
 2427SOL     OW18913   4.729   0.389   6.710 -0.1479 -0.1538  0.3302
 2427SOL    HW118914   4.689   0.316   6.662 -1.1895  0.7341 -0.1593
 2427SOL    HW218915   0.034   0.341   6.781 -0.7311 -0.4925  0.4576
 2428SOL     OW18916   2.168   2.414   2.128 -0.1485 -0.1784 -0.4410
 2428SOL    HW118917   2.098   2.354   2.153  0.0206 -0.1557  0.0931
 2428SOL    HW218918   2.131   2.437   2.043  0.9679  0.0932 -0.8508
 2429SOL     OW18919   4.223   2.109  16.974  0.4140  0.0208 -0.0888
 2429SOL    HW118920   4.243   2.190  17.021 -2.1887 -0.1782  1.4348
 2429SOL    HW218921   4.128   2.115  16.991  0.0678 -1.1587 -1.6423
 2430SOL     OW18922   3.828   3.181  14.832 -0.2120 -0.5026  0.0691
 2430SOL    HW118923   3.835   3.140  14.745 -0.0188 -1.5223  0.5695
 2430SOL    HW218924   3.821   3.270  14.797 -0.9073  0.0234  1.5574
 2431SOL     OW18925   2.363   0.933   5.055  0.3215 -0.4007 -0.7312
 2431SOL    HW118926   2.373   0.897   5.143  0.3191  0.7227 -0.2689
 2431SOL    HW218927   2.275   0.967   5.072  0.6360  1.1861 -2.2191
 2432SOL     OW18928   4.013   4.167   1.665 -0.1792  0.3752 -0.1444
 2432SOL    HW118929   4.091   4.206   1.626 -0.6384  0.9614 -0.4812
 2432SOL    HW218930   4.031   4.186   1.757  0.8181  2.5064 -0.7724
 2433SOL     OW18931   3.949   1.452   5.443 -0.0977  0.0172  0.3546
 2433SOL    HW118932   3.903   1.453   5.527  1.5612  2.7502  1.2590
 2433SOL    HW218933   3.929   1.542   5.415  1.0973  0.3566  0.5938
 2434SOL     OW18934   3.754   4.292   7.879 -0.1850 -0.0524 -0.0525
 2434SOL    HW118935   3.769   4.383   7.906  1.3402 -0.2386 -0.2706
 2434SOL    HW218936   3.815   4.279   7.807 -1.4976 -2.2316 -0.7544
 2435SOL     OW18937   0.815   3.414   5.483  0.0030 -0.4932 -0.2456
 2435SOL    HW118938   0.776   3.327   5.470 -1.6831  0.3120 -0.4899
 2435SOL    HW218939   0.789   3.428   5.574 -0.8250 -1.7822 -0.2734
 2436SOL     OW18940   3.616   4.274  10.472 -0.1857  0.0489  0.0597
 2436SOL    HW118941   3.550   4.250  10.407 -2.3049  1.4003  1.7516
 2436SOL    HW218942   3.657   4.347  10.425  2.4358 -1.5495 -0.1458
 2437SOL     OW18943   2.020   1.569   3.746 -0.8270  0.0259 -0.5183
 2437SOL    HW118944   1.966   1.562   3.667 -2.8058  0.3036  0.7985
 2437SOL    HW218945   2.094   1.616   3.709  1.2199 -1.5660  1.6109
 2438SOL     OW18946   4.583   3.378   6.616 -0.1341 -0.2029  0.4104
 2438SOL    HW118947   4.552   3.459   6.575 -1.3472 -0.8025  0.1644
 2438SOL    HW218948   4.587   3.405   6.708  0.4413  1.6662 -0.1475
 2439SOL     OW18949   3.181   3.925   3.376 -0.1137  0.1000  0.0907
 2439SOL    HW118950   3.128   3.980   3.319 -0.1854 -1.2099 -1.1228
 2439SOL    HW218951   3.266   3.952   3.341  0.0496 -0.5905 -0.0451
 2440SOL     OW18952   0.471   1.498  17.562 -0.1576 -0.0283  0.1710
 2440SOL    HW118953   0.427   1.568  17.611  0.8478 -1.8086  3.6615
 2440SOL    HW218954   0.535   1.472  17.629 -2.8738 -1.5153  2.1929
 2441SOL     OW18955   0.697   3.685   1.801  0.2434  0.2230 -0.4151
 2441SOL    HW118956   0.653   3.638   1.730  0.9266 -0.7532 -0.1852
 2441SOL    HW218957   0.770   3.629   1.828 -0.4773 -0.7646 -0.5049
 2442SOL     OW18958   4.430   4.411   8.067  0.0698 -0.4847 -0.3589
 2442SOL    HW118959   4.516   4.420   8.026  1.8042 -0.9490  3.1877
 2442SOL    HW218960   4.389   4.497   8.055 -2.1076 -1.1622  2.3309
 2443SOL     OW18961   1.976   1.740  17.298 -0.0073 -0.1640  0.0722
 2443SOL    HW118962   2.030   1.815  17.274 -1.4889  1.2928  1.2624
 2443SOL    HW218963   1.909   1.784  17.350 -0.7712  1.6732 -2.4901
 2444SOL     OW18964   1.089   0.748   3.671  0.1663 -0.2178 -0.2304
 2444SOL    HW118965   1.100   0.809   3.598 -0.8040  0.5006  0.2283
 2444SOL    HW218966   1.131   0.673   3.629 -0.1294  0.5130 -1.8193
 2445SOL     OW18967   3.614   0.143   8.127 -0.1235 -0.3063 -0.3668
 2445SOL    HW118968   3.522   0.149   8.153  0.5717 -1.7602  2.4593
 2445SOL    HW218969   3.605   0.112   8.037 -0.0395 -0.2818 -0.3835
 2446SOL     OW18970   3.469   2.412   1.412  0.1210 -0.0550 -0.9128
 2446SOL    HW118971   3.480   2.352   1.486 -0.0092 -1.1850 -1.8153
 2446SOL    HW218972   3.401   2.366   1.363  0.2853 -1.5309  0.2387
 2447SOL     OW18973   2.817   0.319  14.772  0.4563  0.0887  0.5429
 2447SOL    HW118974   2.903   0.335  14.809  1.3868  0.1935 -1.6529
 2447SOL    HW218975   2.808   0.386  14.703 -0.1073 -2.9629 -2.3565
 2448SOL     OW18976   0.664   0.020   5.799 -0.1133 -0.0767  0.4559
 2448SOL    HW118977   0.589   4.724   5.750  0.2538  0.9459 -0.8067
 2448SOL    HW218978   0.712   4.675   5.801  0.3755  0.2225  0.8940
 2449SOL     OW18979   2.104   0.816   3.179  0.3504  0.9795  0.4728
 2449SOL    HW118980   2.151   0.895   3.207 -0.0035  1.7741 -1.2080
 2449SOL    HW218981   2.175   0.753   3.164 -1.7493 -1.2438 -0.0318
 2450SOL     OW18982   1.644   4.095   5.991 -0.2238 -0.3324  0.1503
 2450SOL    HW118983   1.560   4.075   5.950 -0.3064 -0.2480  0.2791
 2450SOL    HW218984   1.639   4.039   6.068 -0.9176  1.3288  1.2974
 2451SOL     OW18985   3.780   0.925  16.622  0.0694 -0.4861  0.4124
 2451SOL    HW118986   3.770   0.847  16.676 -1.3368 -0.8887 -0.4424
 2451SOL    HW218987   3.824   0.883  16.547  0.1185  2.4917 -1.2439
 2452SOL     OW18988   0.200   3.778   5.745  0.0327  0.6046 -0.4706
 2452SOL    HW118989   0.153   3.856   5.775  0.4887  0.5059  0.5025
 2452SOL    HW218990   0.238   3.817   5.666 -2.7350 -0.3002 -2.2467
 2453SOL     OW18991   1.537   2.602   5.542 -0.9254 -0.4165 -0.1935
 2453SOL    HW118992   1.466   2.636   5.487 -1.8522  0.2928  1.4367
 2453SOL    HW218993   1.608   2.666   5.534 -2.1765  1.2236  1.6103
 2454SOL     OW18994   3.604   2.191   1.592 -0.0071 -0.3933 -0.1621
 2454SOL    HW118995   3.643   2.277   1.610  0.9958 -0.2636 -2.9707
 2454SOL    HW218996   3.606   2.146   1.676  1.2555 -0.7305 -0.3740
 2455SOL     OW18997   1.905   1.484   1.050 -0.1762 -0.2971 -0.7246
 2455SOL    HW118998   1.868   1.430   1.120  0.1605 -0.9439 -1.0424
 2455SOL    HW218999   1.823   1.511   1.008 -0.8848 -0.2502  0.6919
 2456SOL     OW19000   1.550   1.257   7.311 -0.1571  0.2095  0.0782
 2456SOL    HW119001   1.626   1.256   7.369 -0.4048 -1.3363  0.3657
 2456SOL    HW219002   1.567   1.192   7.242 -1.9891 -1.2263  1.0142
 2457SOL     OW19003   2.751   2.514   2.399 -0.0616 -0.1162 -0.0807
 2457SOL    HW119004   2.734   2.475   2.314  2.7008  0.4340 -0.9012
 2457SOL    HW219005   2.679   2.482   2.454  0.7512 -1.6018  0.1278
 2458SOL     OW19006   3.369   2.544   5.461  0.1556  0.2095  0.1724
 2458SOL    HW119007   3.418   2.620   5.494  0.0064  1.5507 -2.7392
 2458SOL    HW219008   3.306   2.591   5.408  0.8525 -1.6345 -2.2924
 2459SOL     OW19009   0.775   3.678   9.269  0.1601  0.6744 -0.3794
 2459SOL    HW119010   0.844   3.667   9.204  2.1495  1.0114  1.6771
 2459SOL    HW219011   0.833   3.706   9.341 -0.3539  2.0743 -0.5118
 2460SOL     OW19012   3.765   3.099  16.454 -0.2221  0.0374 -0.0304
 2460SOL    HW119013   3.765   3.073  16.547 -0.3366  2.2617  0.5838
 2460SOL    HW219014   3.829   3.170  16.461  0.3266 -0.4298 -0.3583
 2461SOL     OW19015   2.136   0.152   9.409 -0.5588 -0.2386 -0.2246
 2461SOL    HW119016   2.127   0.058   9.422 -4.0607  0.3210  1.4371
 2461SOL    HW219017   2.049   0.171   9.373 -0.2826  0.5342 -0.4754
 2462SOL     OW19018   1.515   2.695   0.827  0.3236 -0.3063 -0.0534
 2462SOL    HW119019   1.594   2.712   0.879 -1.8521 -0.4984  3.3733
 2462SOL    HW219020   1.474   2.780   0.840  0.5003 -0.1938 -0.2363
 2463SOL     OW19021   0.531   3.029   7.968  0.4401  0.5062  0.6424
 2463SOL    HW119022   0.508   3.072   7.885 -1.0685  0.8718  1.2499
 2463SOL    HW219023   0.573   3.105   8.006 -1.5344  0.7320  2.3539
 2464SOL     OW19024   3.905   1.716  15.483 -0.1232 -0.2696 -0.2784
 2464SOL    HW119025   3.980   1.663  15.509 -0.8929 -0.7913  0.8686
 2464SOL    HW219026   3.940   1.763  15.407 -0.7640  0.2621 -0.2445
 2465SOL     OW19027   2.267   2.298   4.600  0.1776 -0.2669 -0.2718
 2465SOL    HW119028   2.261   2.384   4.557 -0.8012 -0.1567  0.0975
 2465SOL    HW219029   2.175   2.274   4.598  0.4535 -1.5810  2.4553
 2466SOL     OW19030   3.754   0.128  17.492 -0.1095  1.1356  0.8950
 2466SOL    HW119031   3.767   0.071  17.416 -2.6106  3.2910 -1.1488
 2466SOL    HW219032   3.837   0.175  17.488 -0.0166  0.7804 -1.5008
 2467SOL     OW19033   1.175   1.762   3.928  0.2824 -0.1411 -0.2625
 2467SOL    HW119034   1.222   1.838   3.961  0.3675 -0.5500  0.5600
 2467SOL    HW219035   1.225   1.693   3.972 -1.2882 -0.0772  1.5845
 2468SOL     OW19036   4.674   4.703   5.358 -0.1889 -0.1012  0.1869
 2468SOL    HW119037   0.028   4.727   5.345 -1.2000  3.4759 -0.2857
 2468SOL    HW219038   4.686   4.653   5.439 -3.6482 -0.9436  0.1800
 2469SOL     OW19039   2.011   4.095   8.705 -0.1440 -0.4390  0.5421
 2469SOL    HW119040   2.025   4.003   8.682  0.9552 -0.3183  0.7483
 2469SOL    HW219041   1.916   4.092   8.721 -0.3147  0.2888 -0.3723
 2470SOL     OW19042   3.407   1.105   3.675 -0.5030  1.0351 -0.1432
 2470SOL    HW119043   3.452   1.148   3.602  0.1946 -1.8844 -1.4606
 2470SOL    HW219044   3.484   1.077   3.726 -0.7061  0.7510  0.0064
 2471SOL     OW19045   2.038   1.480   4.597 -0.1284  0.0308  0.1300
 2471SOL    HW119046   1.985   1.554   4.565 -0.6409 -1.6338 -2.7956
 2471SOL    HW219047   2.070   1.442   4.516  0.9710  4.1574 -1.3589
 2472SOL     OW19048   3.539   1.951  12.787  0.2474  0.2211  0.1432
 2472SOL    HW119049   3.543   1.957  12.692 -0.1130  2.5896  0.2663
 2472SOL    HW219050   3.506   2.037  12.813  0.0976  0.6105 -1.3752
 2473SOL     OW19051   4.221   3.619   9.044  0.4984 -0.3906  0.0275
 2473SOL    HW119052   4.190   3.661   8.964  0.1216 -1.6723 -0.5001
 2473SOL    HW219053   4.212   3.527   9.019 -1.4544 -0.2185  0.1225
 2474SOL     OW19054   3.187   4.578  16.458  0.4626  0.3081  0.0082
 2474SOL    HW119055   3.261   4.601  16.515  0.7447 -1.2179  0.2586
 2474SOL    HW219056   3.128   4.526  16.512  2.4564 -1.0398  0.8741
 2475SOL     OW19057   0.657   4.500   3.766 -1.3297 -0.7435 -0.2967
 2475SOL    HW119058   0.566   4.530   3.774 -0.9331  0.7101 -1.1460
 2475SOL    HW219059   0.663   4.435   3.835  0.6689  0.0214  0.2358
 2476SOL     OW19060   4.316   3.177   8.776  0.2256  0.1263  0.4667
 2476SOL    HW119061   4.405   3.149   8.798 -0.0883  0.1247  1.7693
 2476SOL    HW219062   4.275   3.090   8.773  1.1158 -0.3114  0.9696
 2477SOL     OW19063   1.618   4.406   2.200  0.8977  0.3327 -0.2558
 2477SOL    HW119064   1.596   4.499   2.206  3.8911  0.9443  1.4840
 2477SOL    HW219065   1.631   4.400   2.106 -0.6304  1.3153 -0.5297
 2478SOL     OW19066   2.256   3.983   9.477  0.5576 -0.4644  0.3384
 2478SOL    HW119067   2.299   4.068   9.486  0.2480 -0.1939 -0.7704
 2478SOL    HW219068   2.177   4.013   9.432  0.9142 -0.6613 -0.4033
 2479SOL     OW19069   1.836   0.802  12.077  0.6157  0.3468  0.4508
 2479SOL    HW119070   1.875   0.764  12.155 -2.8912  0.5815  2.3071
 2479SOL    HW219071   1.858   0.895  12.088 -2.6336  1.0136  1.3432
 2480SOL     OW19072   0.940   0.209   5.003 -0.1507 -0.1533  0.0138
 2480SOL    HW119073   0.974   0.139   4.947  0.4810  0.0658  0.1199
 2480SOL    HW219074   0.986   0.194   5.086  0.6351 -1.0466 -0.5886
 2481SOL     OW19075   1.673   4.044   6.433 -0.3813  0.3055  0.3761
 2481SOL    HW119076   1.620   4.109   6.479 -1.5163  0.6439 -1.4221
 2481SOL    HW219077   1.760   4.064   6.467  0.5884  0.4487 -2.2192
 2482SOL     OW19078   3.348   0.579   3.494 -0.2211 -0.0062  0.4410
 2482SOL    HW119079   3.372   0.648   3.556  1.1589 -0.4888  0.4360
 2482SOL    HW219080   3.314   0.635   3.424  1.4479  0.3026 -0.1166
 2483SOL     OW19081   2.636   4.350   8.619 -0.1460 -0.4118 -0.2192
 2483SOL    HW119082   2.552   4.327   8.580 -1.0627  0.1224  1.4270
 2483SOL    HW219083   2.641   4.438   8.583  0.2605 -0.7707 -1.0565
 2484SOL     OW19084   3.523   1.694  12.128 -0.4761 -0.5488 -0.2864
 2484SOL    HW119085   3.536   1.648  12.044 -0.9738 -1.7823  0.3197
 2484SOL    HW219086   3.613   1.686  12.159 -0.4508  3.0646  0.5613
 2485SOL     OW19087   2.977   2.791   8.796 -0.0528  0.3165  0.0543
 2485SOL    HW119088   2.890   2.811   8.762  0.6302  1.0807 -1.2287
 2485SOL    HW219089   2.975   2.831   8.883  0.8996 -0.8893  0.6254
 2486SOL     OW19090   2.319   4.380  12.438 -0.6931 -0.1263  0.7184
 2486SOL    HW119091   2.249   4.372  12.373  1.1631 -1.5910 -1.1015
 2486SOL    HW219092   2.266   4.408  12.512  1.0731  2.1248  1.1209
 2487SOL     OW19093   2.852   2.050   9.280  0.1479  0.7157  0.5380
 2487SOL    HW119094   2.894   1.969   9.252 -3.2429 -0.8035 -0.0125
 2487SOL    HW219095   2.802   2.024   9.357 -1.6918 -1.0613 -1.3006
 2488SOL     OW19096   0.621   3.889   1.220 -0.0683 -0.1177  0.1517
 2488SOL    HW119097   0.608   3.884   1.314 -0.3408 -1.4873  0.0420
 2488SOL    HW219098   0.677   3.966   1.219 -1.3563  0.8217  0.5129
 2489SOL     OW19099   1.768   3.204   4.676  0.4798  0.1085  0.2409
 2489SOL    HW119100   1.791   3.143   4.607 -1.1723 -0.5615  0.2863
 2489SOL    HW219101   1.852   3.214   4.720  0.4464  3.5392 -0.4960
 2490SOL     OW19102   4.435   1.160   3.631 -0.4950 -0.1553  0.2097
 2490SOL    HW119103   4.418   1.067   3.644  0.4246 -0.8340 -3.5998
 2490SOL    HW219104   4.445   1.173   3.537  1.5508 -0.2675  0.4104
 2491SOL     OW19105   1.353   1.410   7.281 -0.5516 -0.0767  0.7670
 2491SOL    HW119106   1.423   1.349   7.303  0.4253  0.7000 -0.1781
 2491SOL    HW219107   1.384   1.439   7.195 -2.3483 -0.0219  0.1316
 2492SOL     OW19108   0.741   2.316   8.302  0.1443  0.1470  0.0658
 2492SOL    HW119109   0.816   2.280   8.254  0.0301 -1.0465  0.8155
 2492SOL    HW219110   0.765   2.277   8.385  0.6520  1.7209  0.6718
 2493SOL     OW19111   4.210   0.034   3.309 -0.3800 -0.0329  0.0384
 2493SOL    HW119112   4.217   0.111   3.366  0.8479 -1.7391  2.1693
 2493SOL    HW219113   4.304   0.027   3.293 -0.1959 -0.3040  1.2715
 2494SOL     OW19114   3.688   0.162   6.528 -0.0333  0.4039 -0.0436
 2494SOL    HW119115   3.637   0.243   6.537 -1.3850 -0.3725 -0.6235
 2494SOL    HW219116   3.734   0.173   6.445 -0.9585  0.5218 -0.5389
 2495SOL     OW19117   1.132   4.051   5.971  0.2629  0.2601 -0.0368
 2495SOL    HW119118   1.077   4.065   5.893  2.0853 -1.1066 -1.5473
 2495SOL    HW219119   1.069   4.061   6.043  1.4270 -0.6056  1.0961
 2496SOL     OW19120   0.340   2.750   2.442  0.4893  0.7198 -0.2938
 2496SOL    HW119121   0.427   2.716   2.422  0.8471  1.4606  0.0112
 2496SOL    HW219122   0.312   2.780   2.356 -3.2122 -1.0286  0.2779
 2497SOL     OW19123   1.176   2.484   6.497  0.1747  0.1219  0.1737
 2497SOL    HW119124   1.201   2.398   6.533 -0.4867 -1.0876 -2.2292
 2497SOL    HW219125   1.112   2.456   6.432  0.3696 -1.4918  0.6490
 2498SOL     OW19126   4.461   2.917   5.558 -0.4892  0.1986  0.2249
 2498SOL    HW119127   4.385   2.866   5.587 -0.0000 -0.6096  0.0838
 2498SOL    HW219128   4.429   2.989   5.504  0.1414  2.2384  2.5587
 2499SOL     OW19129   0.575   2.956  13.823 -0.4695 -0.5542  0.2915
 2499SOL    HW119130   0.565   2.889  13.757  1.3680  0.1439 -0.7072
 2499SOL    HW219131   0.671   2.966  13.821 -0.5834  0.0305 -1.8291
 2500SOL     OW19132   2.073   4.607   2.283  0.3310  0.4411  0.3018
 2500SOL    HW119133   2.058   4.513   2.273 -0.9306  0.7215 -0.4180
 2500SOL    HW219134   2.088   4.639   2.194  1.0071  1.0625  0.6272
 2501SOL     OW19135   2.219   1.949  13.904 -0.2048 -0.0530  0.3173
 2501SOL    HW119136   2.232   2.038  13.870 -3.2290  0.6493  0.9558
 2501SOL    HW219137   2.202   1.904  13.821  3.4505  0.6682 -0.8301
 2502SOL     OW19138   0.419   1.783  16.222 -0.4396  0.6778  0.2144
 2502SOL    HW119139   0.450   1.840  16.152  0.7389 -0.7826 -0.4625
 2502SOL    HW219140   0.373   1.727  16.159 -0.3592  0.7524  0.0917
 2503SOL     OW19141   0.817   4.307   6.327  0.0012 -0.0828  0.2390
 2503SOL    HW119142   0.757   4.256   6.381  0.2086  0.0664  0.6073
 2503SOL    HW219143   0.880   4.351   6.383  0.0476 -1.3085  1.1459
 2504SOL     OW19144   0.815   3.050  12.937 -0.1013 -0.1744  0.3258
 2504SOL    HW119145   0.830   3.116  12.870  1.3360 -1.6223 -0.7774
 2504SOL    HW219146   0.875   3.070  13.008 -0.3687 -0.6746  0.6934
 2505SOL     OW19147   0.007   0.561  11.662 -0.3872  0.0580 -0.0559
 2505SOL    HW119148   0.065   0.490  11.636  2.0918  2.1688 -0.2991
 2505SOL    HW219149   4.658   0.520  11.663 -0.1947 -0.3230  0.7021
 2506SOL     OW19150   0.603   2.230  13.247  0.4459 -0.3881  0.4247
 2506SOL    HW119151   0.686   2.253  13.203  0.2016 -0.6387 -0.1664
 2506SOL    HW219152   0.607   2.273  13.332  2.2617  0.2077  0.0396
 2507SOL     OW19153   2.532   0.883  17.240 -0.2068  0.2155  0.0505
 2507SOL    HW119154   2.617   0.911  17.206 -0.3326  1.9419  1.1700
 2507SOL    HW219155   2.482   0.856  17.162  0.8922 -0.3107 -0.4828
 2508SOL     OW19156   1.272   2.188  11.248 -0.4325  0.0712  0.3137
 2508SOL    HW119157   1.272   2.280  11.223 -0.1205  1.2264  4.6165
 2508SOL    HW219158   1.296   2.189  11.341 -2.5329 -2.1439  0.8692
 2509SOL     OW19159   1.383   4.056   5.964 -0.1349  0.0348  0.1408
 2509SOL    HW119160   1.288   4.071   5.960  0.1455  2.2969  2.1859
 2509SOL    HW219161   1.389   4.017   6.051 -2.0937  1.0132  0.7229
 2510SOL     OW19162   3.954   1.580   8.133  0.7073  0.7719 -0.0226
 2510SOL    HW119163   4.004   1.512   8.178 -4.6074 -1.9635  1.7702
 2510SOL    HW219164   4.017   1.651   8.126  1.1613  0.4430  0.6862
 2511SOL     OW19165   2.658   1.022   2.472 -0.2396 -0.1184  1.1063
 2511SOL    HW119166   2.574   0.986   2.501 -0.2196 -1.2474 -0.2267
 2511SOL    HW219167   2.717   0.949   2.493  0.0972  0.1987  1.2561
 2512SOL     OW19168   4.468   3.832   2.918  0.8789 -0.1712  0.6651
 2512SOL    HW119169   4.424   3.916   2.906  0.9997 -0.3955 -1.4533
 2512SOL    HW219170   4.483   3.829   3.012  0.8336 -0.0211  0.6755
 2513SOL     OW19171   1.509   2.486   2.280 -0.3084  0.4840 -0.0702
 2513SOL    HW119172   1.583   2.520   2.329 -1.7972  1.5900  1.4105
 2513SOL    HW219173   1.453   2.559   2.306 -3.4803 -2.1748  0.5362
 2514SOL     OW19174   2.283   3.613   7.391  0.4485 -0.2881  0.2730
 2514SOL    HW119175   2.253   3.597   7.481  0.4653 -0.1268  0.3077
 2514SOL    HW219176   2.357   3.668   7.419  0.1698  0.7806 -1.0895
 2515SOL     OW19177   4.424   4.727   7.113 -0.5164  0.1896  0.6331
 2515SOL    HW119178   4.406   4.645   7.068  0.0437  1.0418 -1.1276
 2515SOL    HW219179   4.370   0.052   7.065 -0.1020 -0.7493 -1.0829
 2516SOL     OW19180   1.625   4.226   5.688  0.2240  0.1892  0.2241
 2516SOL    HW119181   1.539   4.268   5.696  0.7581  0.7169  2.9628
 2516SOL    HW219182   1.656   4.234   5.778  3.7537 -2.6026 -0.7478
 2517SOL     OW19183   2.685   3.555   3.584 -0.3537  0.1362  0.1710
 2517SOL    HW119184   2.710   3.537   3.493  1.0232 -1.6256  0.8847
 2517SOL    HW219185   2.610   3.610   3.566  0.8355  1.2003 -1.5324
 2518SOL     OW19186   2.168   3.590   9.053 -0.0111  0.0876  0.3108
 2518SOL    HW119187   2.193   3.655   8.988  2.1477  0.5148  1.5795
 2518SOL    HW219188   2.188   3.645   9.129  0.5448 -0.4606  0.5625
 2519SOL     OW19189   1.041   3.396  10.946  0.4466 -0.1404 -0.3684
 2519SOL    HW119190   0.963   3.350  10.915 -0.0982  0.4317  0.1418
 2519SOL    HW219191   1.031   3.473  10.890 -0.5280 -0.3325 -0.4528
 2520SOL     OW19192   2.504   3.439   8.116  1.2509  0.5702 -0.4751
 2520SOL    HW119193   2.544   3.518   8.153  1.6098 -1.5856  3.8435
 2520SOL    HW219194   2.425   3.481   8.083  2.3359  1.8789 -1.4497
 2521SOL     OW19195   2.838   1.596  11.585 -0.4191 -0.2713 -0.1548
 2521SOL    HW119196   2.743   1.595  11.601 -0.6461 -1.7685 -1.5590
 2521SOL    HW219197   2.869   1.529  11.645  1.8005  0.9412  0.0304
 2522SOL     OW19198   3.321   2.600   4.033 -0.3728 -0.0852  0.0544
 2522SOL    HW119199   3.314   2.671   4.096  0.2113 -0.5251  0.6019
 2522SOL    HW219200   3.373   2.533   4.077  0.1427 -0.5728 -1.2931
 2523SOL     OW19201   3.894   2.697  15.462 -0.0322  0.0450  0.0553
 2523SOL    HW119202   3.917   2.760  15.531  2.5540  2.4940 -3.0557
 2523SOL    HW219203   3.943   2.728  15.386  0.2327 -0.5019  0.0030
 2524SOL     OW19204   2.124   3.342  15.282  0.9469 -0.0888  0.3755
 2524SOL    HW119205   2.070   3.368  15.357 -0.1086  1.2863 -0.8409
 2524SOL    HW219206   2.057   3.301  15.227 -0.3640  0.7342  1.3405
 2525SOL     OW19207   0.595   1.211   7.555  0.1052  0.3469 -0.1310
 2525SOL    HW119208   0.671   1.211   7.498  0.0991  1.5953 -0.1240
 2525SOL    HW219209   0.615   1.136   7.611  1.6823  2.2537  1.8728
 2526SOL     OW19210   2.249   2.026   4.182 -0.3019  0.2723 -0.3282
 2526SOL    HW119211   2.243   1.958   4.115 -0.8824  0.3069 -0.3137
 2526SOL    HW219212   2.339   2.020   4.215 -0.3500 -1.0053 -0.4328
 2527SOL     OW19213   3.087   3.272  14.126  0.0219  0.1234  0.7438
 2527SOL    HW119214   3.117   3.200  14.182 -1.1521 -0.2324  0.9117
 2527SOL    HW219215   3.056   3.336  14.190  0.3435  0.4361  0.5850
 2528SOL     OW19216   1.853   2.290  12.492 -0.0111  0.6915  0.0512
 2528SOL    HW119217   1.829   2.260  12.404  0.7629  2.5328 -0.7688
 2528SOL    HW219218   1.782   2.352  12.505 -1.3987 -1.0097  0.6530
 2529SOL     OW19219   2.456   4.710  14.655 -0.1582  0.6025 -0.3850
 2529SOL    HW119220   2.495   0.051  14.691  0.3140 -2.1810  5.1296
 2529SOL    HW219221   2.410   0.016  14.583 -0.9435 -0.3905 -0.5007
 2530SOL     OW19222   3.507   4.203   6.152  0.9051  0.0412 -0.2653
 2530SOL    HW119223   3.468   4.152   6.223  0.8722 -0.9351 -0.9953
 2530SOL    HW219224   3.466   4.289   6.162  1.0097  0.2507 -1.6408
 2531SOL     OW19225   3.337   1.112   5.829  0.1680  0.3392 -0.6106
 2531SOL    HW119226   3.414   1.055   5.824  1.4092  1.8709  0.5214
 2531SOL    HW219227   3.366   1.179   5.892  2.3540  0.3483 -1.6136
 2532SOL     OW19228   3.587   1.517   9.864  0.0182  0.3798 -0.0347
 2532SOL    HW119229   3.583   1.495   9.957  0.1436  0.4083 -0.0233
 2532SOL    HW219230   3.624   1.435   9.831 -0.8141 -0.2049  0.4882
 2533SOL     OW19231   1.551   0.090  14.155  0.8603  0.5248  0.2007
 2533SOL    HW119232   1.566   0.150  14.228 -0.9934  0.4902  0.6116
 2533SOL    HW219233   1.607   0.014  14.172  0.1402 -0.2889 -1.0293
 2534SOL     OW19234   0.089   3.536   5.798 -0.6201 -0.1385  0.1976
 2534SOL    HW119235   4.733   3.543   5.818 -0.5232  3.1335 -0.5828
 2534SOL    HW219236   0.115   3.624   5.775 -1.4841 -0.0345 -0.3710
 2535SOL     OW19237   1.998   3.685   9.615 -0.3299 -0.5987 -0.2073
 2535SOL    HW119238   1.959   3.610   9.572 -3.4421  1.3996 -0.8458
 2535SOL    HW219239   1.989   3.758   9.554  0.5651 -1.2838 -1.1445
 2536SOL     OW19240   3.940   3.885   1.764  0.0459  0.1295 -0.1596
 2536SOL    HW119241   3.884   3.809   1.748  0.7584 -0.5779  0.7055
 2536SOL    HW219242   3.992   3.894   1.684  0.2736 -1.5914 -0.1878
 2537SOL     OW19243   0.148   1.543  12.721 -0.7891  0.5004 -0.1574
 2537SOL    HW119244   0.075   1.605  12.720  1.9893  3.7654  0.2997
 2537SOL    HW219245   0.206   1.594  12.664  2.0071 -2.7491 -0.2164
 2538SOL     OW19246   3.378   0.625   4.697 -0.6289  0.5926  0.1583
 2538SOL    HW119247   3.316   0.553   4.711  2.2621 -2.0147 -0.5083
 2538SOL    HW219248   3.311   0.692   4.685 -1.5442 -0.6127 -1.5290
 2539SOL     OW19249   3.581   3.874   1.931  0.5180 -0.3812  0.8209
 2539SOL    HW119250   3.492   3.878   1.967  0.2618  1.3380  0.0245
 2539SOL    HW219251   3.571   3.822   1.851 -0.6154  0.8558  0.1482
 2540SOL     OW19252   2.001   1.248   8.833 -0.5770  0.6427  0.0335
 2540SOL    HW119253   2.084   1.252   8.880  0.8239  0.7395 -2.4265
 2540SOL    HW219254   1.999   1.154   8.814  2.4609  0.4554  0.7154
 2541SOL     OW19255   4.341   0.728   4.140 -0.0784 -0.1022 -0.2416
 2541SOL    HW119256   4.356   0.676   4.219 -1.8130  0.9995  0.8249
 2541SOL    HW219257   4.255   0.698   4.109 -0.3957 -2.7381  3.2164
 2542SOL     OW19258   4.353   0.049   2.607 -0.3233 -0.4959 -0.2005
 2542SOL    HW119259   4.385   0.099   2.533 -0.1860 -0.2446  0.0275
 2542SOL    HW219260   4.305   0.122   2.646  0.9759  2.0952 -3.4259
 2543SOL     OW19261   0.317   0.413   8.687  0.2173 -0.1685  0.3263
 2543SOL    HW119262   0.255   0.423   8.614  1.8081 -0.8968 -1.1100
 2543SOL    HW219263   0.318   0.318   8.701 -2.3090 -0.0489  1.3788
 2544SOL     OW19264   3.787   1.368   3.959  0.5672 -0.1459 -0.1000
 2544SOL    HW119265   3.860   1.324   4.003  0.3789  0.3254  0.6890
 2544SOL    HW219266   3.828   1.454   3.950  0.0528  0.0845 -0.2664
 2545SOL     OW19267   2.761   3.954   6.174 -0.3138  0.1946  0.1700
 2545SOL    HW119268   2.727   3.947   6.085 -0.9460 -0.9730  0.5122
 2545SOL    HW219269   2.804   3.869   6.183  2.2481  1.5452  0.7243
 2546SOL     OW19270   1.744   1.943   4.186 -0.2758 -0.3763 -0.4421
 2546SOL    HW119271   1.833   1.937   4.220 -0.9681 -0.8905  1.3115
 2546SOL    HW219272   1.743   1.891   4.106 -0.2885 -0.1202 -0.6097
 2547SOL     OW19273   2.225   3.023   3.882 -0.1648 -0.5272 -0.1998
 2547SOL    HW119274   2.248   3.034   3.975 -0.1879  1.7723 -0.4753
 2547SOL    HW219275   2.155   2.958   3.876 -0.9227  0.1671  1.3239
 2548SOL     OW19276   3.076   0.081  15.924  0.0672 -0.2556 -0.0639
 2548SOL    HW119277   3.142   0.011  15.928 -1.1733 -1.2792  2.2744
 2548SOL    HW219278   3.016   0.050  15.856  0.1213 -1.8412  0.6027
 2549SOL     OW19279   2.265   1.367  14.924 -0.6050 -0.6568 -0.1279
 2549SOL    HW119280   2.255   1.452  14.966 -0.1731 -0.3975 -0.5418
 2549SOL    HW219281   2.193   1.320  14.966 -0.2830 -1.9845 -1.0228
 2550SOL     OW19282   0.712   0.865   4.133 -0.4435 -0.0497 -0.1593
 2550SOL    HW119283   0.771   0.939   4.142 -1.0529  0.5142 -0.7433
 2550SOL    HW219284   0.783   0.801   4.128 -1.6371 -1.3265 -0.6003
 2551SOL     OW19285   3.331   2.612   3.773  0.0960 -0.0275 -0.1076
 2551SOL    HW119286   3.316   2.605   3.867  1.7207  0.6987  0.1976
 2551SOL    HW219287   3.363   2.701   3.763  1.4889 -0.4589  0.5331
 2552SOL     OW19288   4.232   3.357   4.675  0.1062 -0.5461 -0.5298
 2552SOL    HW119289   4.137   3.357   4.682  0.0232  1.1928 -1.7711
 2552SOL    HW219290   4.252   3.308   4.755 -0.4671  0.9822  0.5518
 2553SOL     OW19291   1.740   3.791   7.847 -0.3315 -0.7964 -0.1709
 2553SOL    HW119292   1.789   3.872   7.834 -1.9726  0.4216  1.2413
 2553SOL    HW219293   1.753   3.781   7.941  1.0645 -0.6212 -0.3473
 2554SOL     OW19294   2.101   0.346   8.231  0.2484  0.1106 -0.1745
 2554SOL    HW119295   2.102   0.412   8.162 -0.4640 -0.5510 -0.8317
 2554SOL    HW219296   2.007   0.332   8.248  0.6095 -0.2330  1.4691
 2555SOL     OW19297   3.683   0.575   8.288 -0.8227 -0.5196 -0.0205
 2555SOL    HW119298   3.724   0.497   8.250 -2.5260 -1.2896 -0.2624
 2555SOL    HW219299   3.593   0.547   8.304 -1.0317 -0.0462 -0.3756
 2556SOL     OW19300   0.789   0.836  15.623  0.4368  0.3104  0.2415
 2556SOL    HW119301   0.766   0.857  15.713 -1.5342 -0.4168 -0.0939
 2556SOL    HW219302   0.842   0.758  15.638 -2.0549 -1.4449 -0.0858
 2557SOL     OW19303   4.691   2.840   7.011 -0.1080 -0.1297  0.1386
 2557SOL    HW119304   4.627   2.850   7.081  1.4916 -0.4614  1.6422
 2557SOL    HW219305   4.641   2.772   6.966 -1.9902 -0.2924  2.4456
 2558SOL     OW19306   0.837   1.596  16.909 -0.6996  0.6366  0.4670
 2558SOL    HW119307   0.917   1.616  16.957 -0.5220 -1.9869  1.2984
 2558SOL    HW219308   0.853   1.505  16.884 -0.9530  0.7315 -0.0319
 2559SOL     OW19309   3.796   1.328   7.674 -0.1874  0.1548 -0.2340
 2559SOL    HW119310   3.810   1.366   7.761 -0.7909 -0.3379  0.0754
 2559SOL    HW219311   3.861   1.374   7.621  0.7889  0.5884  1.3529
 2560SOL     OW19312   0.762   2.725   7.686 -0.5574  0.1127  0.1206
 2560SOL    HW119313   0.699   2.700   7.753 -0.9900  0.3867 -0.1812
 2560SOL    HW219314   0.729   2.671   7.614 -2.3628  0.7295  0.4917
 2561SOL     OW19315   1.472   2.727  10.559  0.0999 -0.1258  0.1514
 2561SOL    HW119316   1.396   2.784  10.548 -0.1663 -0.4593  0.2550
 2561SOL    HW219317   1.447   2.695  10.646 -0.9073  0.4938  0.0960
 2562SOL     OW19318   2.460   3.723   3.462  0.6914  0.2039  0.0576
 2562SOL    HW119319   2.368   3.701   3.448  0.6953  2.5759 -3.7183
 2562SOL    HW219320   2.484   3.739   3.371 -0.3798  0.4182 -0.1856
 2563SOL     OW19321   0.519   3.696  12.174  0.3554 -0.5654  0.2315
 2563SOL    HW119322   0.543   3.684  12.266 -1.0057 -1.9434  0.3936
 2563SOL    HW219323   0.560   3.616  12.141  0.2723 -0.9149  0.9834
 2564SOL     OW19324   1.574   3.338  14.726 -0.2214  0.2754 -0.2348
 2564SOL    HW119325   1.591   3.423  14.684  1.7524  0.4486  0.9373
 2564SOL    HW219326   1.479   3.331  14.717 -0.1319  0.0967 -0.9962
 2565SOL     OW19327   3.687   1.370   0.377  0.3274 -0.7783 -0.1544
 2565SOL    HW119328   3.639   1.342   0.455  0.8615 -1.6448 -0.1333
 2565SOL    HW219329   3.734   1.442   0.419 -0.5704  0.7749 -1.7937
 2566SOL     OW19330   0.875   1.284   8.907  0.7424 -0.3586  0.4078
 2566SOL    HW119331   0.930   1.334   8.967  1.5628  0.1800 -0.8079
 2566SOL    HW219332   0.929   1.215   8.868 -0.0538 -0.6137 -0.2534
 2567SOL     OW19333   0.346   3.084   4.508 -0.1719 -0.2222  0.3806
 2567SOL    HW119334   0.359   3.001   4.554 -0.9702 -0.9035 -0.6154
 2567SOL    HW219335   0.371   3.137   4.584 -2.0909 -0.2597  1.0362
 2568SOL     OW19336   2.368   1.251  14.709  0.1434  0.4916 -0.5226
 2568SOL    HW119337   2.417   1.192  14.767  0.9589  0.3221 -1.3999
 2568SOL    HW219338   2.324   1.306  14.775  0.7990  1.4647 -0.9011
 2569SOL     OW19339   1.547   1.104  12.554 -0.0449 -0.1054  0.1395
 2569SOL    HW119340   1.638   1.083  12.576  1.3379  5.1733 -0.6238
 2569SOL    HW219341   1.496   1.028  12.583 -0.2443  0.1490  0.4531
 2570SOL     OW19342   2.067   4.622  15.910 -0.1901  0.2356 -0.4548
 2570SOL    HW119343   2.085   4.604  16.002 -0.5127  0.0272 -0.4317
 2570SOL    HW219344   2.117   4.555  15.864  0.1033 -0.2388  0.5486
 2571SOL     OW19345   1.641   4.285  10.168 -0.3320  0.5744 -0.4842
 2571SOL    HW119346   1.560   4.241  10.194  0.0639  0.3122  0.3066
 2571SOL    HW219347   1.702   4.212  10.181 -0.3523  0.8998  1.4129
 2572SOL     OW19348   2.004   4.224  17.510  0.1196 -0.8155  0.3459
 2572SOL    HW119349   2.090   4.256  17.484 -0.1714 -1.5491 -1.4992
 2572SOL    HW219350   1.962   4.307  17.535 -1.5475 -2.0554  1.6314
 2573SOL     OW19351   4.509   0.389   4.684  0.1978 -0.1103 -0.0920
 2573SOL    HW119352   4.477   0.366   4.771  1.1856 -0.9924  0.0323
 2573SOL    HW219353   4.450   0.463   4.668 -0.2042 -0.2735  0.6658
 2574SOL     OW19354   2.520   4.491  13.192  0.4599  0.9811  0.2135
 2574SOL    HW119355   2.483   4.492  13.280 -0.8116  1.5310 -0.3237
 2574SOL    HW219356   2.557   4.579  13.187  0.3960  1.0590  1.2113
 2575SOL     OW19357   0.071   0.994   5.389 -0.0015  0.3262 -0.3592
 2575SOL    HW119358   0.074   1.089   5.383  2.2603  0.2216 -0.6723
 2575SOL    HW219359   4.718   0.976   5.364 -0.5274  0.5909  1.3781
 2576SOL     OW19360   3.428   0.968   4.110 -0.2078 -0.7852 -0.5986
 2576SOL    HW119361   3.452   1.054   4.144 -1.8212  0.3241 -2.2249
 2576SOL    HW219362   3.397   0.941   4.197 -3.1718  1.7798 -0.8374
 2577SOL     OW19363   0.273   3.089   7.505 -0.6026 -0.5008  0.8544
 2577SOL    HW119364   0.318   3.081   7.421 -0.5953 -0.9427  0.9008
 2577SOL    HW219365   0.278   2.996   7.526 -1.1758 -1.2357 -2.2194
 2578SOL     OW19366   4.025   2.176   1.814 -0.3028 -0.1321 -0.1130
 2578SOL    HW119367   4.051   2.155   1.904 -1.7786 -1.3879  0.0224
 2578SOL    HW219368   4.055   2.267   1.816 -0.5171 -0.0312 -1.2396
 2579SOL     OW19369   1.795   4.082  10.231 -0.0298  0.7275 -0.3593
 2579SOL    HW119370   1.882   4.105  10.198  0.8294  1.3690  2.3602
 2579SOL    HW219371   1.817   4.020  10.300  3.1002 -0.1235 -2.1414
 2580SOL     OW19372   4.441   1.194   5.651  0.0350 -0.5973 -0.7322
 2580SOL    HW119373   4.433   1.208   5.557  0.1242 -0.4070 -0.7111
 2580SOL    HW219374   4.353   1.157   5.663 -0.3370  0.8910  1.1722
 2581SOL     OW19375   2.230   4.654   1.285  0.0718  0.0116  0.0852
 2581SOL    HW119376   2.251   4.715   1.356 -1.5162  1.5777 -0.7678
 2581SOL    HW219377   2.303   4.593   1.288  1.5966  1.8098 -0.3827
 2582SOL     OW19378   3.038   2.810  11.565  0.1493  0.4328 -0.1486
 2582SOL    HW119379   3.109   2.853  11.612  1.2997 -1.3914 -0.2090
 2582SOL    HW219380   3.090   2.773  11.493 -0.9801  1.2670 -1.4095
 2583SOL     OW19381   0.614   4.174   3.955  0.1575  0.2310 -0.5164
 2583SOL    HW119382   0.694   4.141   3.914 -0.3847 -0.4853 -1.0049
 2583SOL    HW219383   0.614   4.126   4.038  2.7035  2.8134  0.9920
 2584SOL     OW19384   1.505   0.119   7.571 -0.6528  0.3541 -0.0723
 2584SOL    HW119385   1.565   0.183   7.533  0.4978 -0.5680  0.1518
 2584SOL    HW219386   1.561   0.041   7.566  0.1393  1.1197 -2.9355
 2585SOL     OW19387   0.885   1.106   4.103 -0.1198  0.4561 -0.2082
 2585SOL    HW119388   0.925   1.096   4.017  0.6813 -2.1255  0.4639
 2585SOL    HW219389   0.948   1.174   4.128  1.8154 -1.1945 -0.5956
 2586SOL     OW19390   2.373   0.354   1.986  0.3214 -0.2715  0.0214
 2586SOL    HW119391   2.327   0.431   1.955  0.4020 -0.9895 -1.8442
 2586SOL    HW219392   2.466   0.363   1.966  0.5288  2.3213  2.1248
 2587SOL     OW19393   4.059   0.928  17.638 -0.0053  0.3912 -0.3303
 2587SOL    HW119394   4.071   0.835  17.653  1.6354  0.7740  0.7553
 2587SOL    HW219395   3.966   0.933  17.660  0.9595 -3.2164  4.4352
 2588SOL     OW19396   4.429   4.527  11.879  0.1347 -0.3279 -0.0146
 2588SOL    HW119397   4.377   4.457  11.918 -1.1429  0.9028  0.4996
 2588SOL    HW219398   4.423   4.497  11.789  1.3659 -0.5181 -0.0280
 2589SOL     OW19399   0.539   3.037  12.929  0.7523 -0.4956  0.0692
 2589SOL    HW119400   0.533   3.001  13.018  2.2589  2.7047  1.4477
 2589SOL    HW219401   0.633   3.044  12.916  0.6797  1.7087  0.6508
 2590SOL     OW19402   0.534   3.490   6.739  0.0902  0.1592 -0.0969
 2590SOL    HW119403   0.610   3.455   6.786 -0.2985  1.3133  1.3999
 2590SOL    HW219404   0.554   3.582   6.757  0.2900 -0.1051  1.0264
 2591SOL     OW19405   2.982   1.303  12.661 -0.2207 -0.7616  0.3163
 2591SOL    HW119406   2.971   1.340  12.748  0.1826  3.2422 -1.3121
 2591SOL    HW219407   2.985   1.210  12.684  1.5558  0.0943  3.5123
 2592SOL     OW19408   2.447   0.045   9.715 -0.0685  0.7291 -0.1488
 2592SOL    HW119409   2.358   0.013   9.706  0.0361  0.8008 -1.4787
 2592SOL    HW219410   2.442   0.134   9.750 -0.2976  1.0284 -0.9539
 2593SOL     OW19411   3.259   0.689  14.491 -0.1204 -0.4764 -0.1020
 2593SOL    HW119412   3.224   0.776  14.468  0.6894 -0.6498 -2.0108
 2593SOL    HW219413   3.209   0.658  14.566  1.9225 -1.6188  0.7780
 2594SOL     OW19414   4.400   4.717   5.324  0.1535 -0.1411 -0.4502
 2594SOL    HW119415   4.385   0.067   5.288 -0.9547 -0.7925 -1.5470
 2594SOL    HW219416   4.495   4.713   5.337  0.2434  2.4339 -0.3272
 2595SOL     OW19417   2.342   0.719   5.252  0.1764  0.0257 -0.3982
 2595SOL    HW119418   2.262   0.716   5.200 -0.1535  0.3105  0.0928
 2595SOL    HW219419   2.331   0.639   5.305  0.4681  1.0540  1.2291
 2596SOL     OW19420   1.136   4.697  15.683  0.3069 -0.2008 -0.3153
 2596SOL    HW119421   1.083   0.037  15.701 -0.5083 -0.8214  0.0022
 2596SOL    HW219422   1.176   4.684  15.769 -0.3117  1.8339  0.2962
 2597SOL     OW19423   3.342   4.434   3.762  0.1959  0.0999 -0.3502
 2597SOL    HW119424   3.385   4.374   3.701  1.2811  0.2417  0.2735
 2597SOL    HW219425   3.325   4.366   3.827  0.2127 -0.6609 -1.1421
 2598SOL     OW19426   4.549   4.503  12.328  0.1068  0.5463 -0.5286
 2598SOL    HW119427   4.554   4.552  12.246  1.0786  1.3033 -0.0182
 2598SOL    HW219428   4.581   4.569  12.390  0.3302  0.4158 -0.5058
 2599SOL     OW19429   1.919   0.436   3.312 -0.1694 -0.1436 -0.5689
 2599SOL    HW119430   1.860   0.364   3.334 -0.5062  0.4628  0.4920
 2599SOL    HW219431   1.863   0.482   3.250 -1.3241  0.9462  1.2895
 2600SOL     OW19432   1.227   4.449  10.219 -0.0552  0.0351  0.1649
 2600SOL    HW119433   1.212   4.524  10.276 -1.4969  0.3025 -0.5521
 2600SOL    HW219434   1.183   4.482  10.140 -0.5440 -0.6886  0.1309
 2601SOL     OW19435   0.809   3.281  10.851 -0.3040  0.1847 -0.1048
 2601SOL    HW119436   0.825   3.247  10.763 -0.3718 -0.1904  0.0289
 2601SOL    HW219437   0.759   3.204  10.879 -1.1066  0.2270 -1.4018
 2602SOL     OW19438   1.487   4.306   3.507  0.0047 -0.1605 -0.3040
 2602SOL    HW119439   1.573   4.347   3.518  0.1295 -0.1404 -1.3187
 2602SOL    HW219440   1.507   4.212   3.503  0.5508 -0.0547 -0.1565
 2603SOL     OW19441   0.499   4.205   3.634  0.2901  0.1372 -0.0946
 2603SOL    HW119442   0.477   4.199   3.541 -0.8901 -1.6463  0.3117
 2603SOL    HW219443   0.595   4.206   3.636  0.2777 -0.9528  0.6039
 2604SOL     OW19444   3.946   0.269   9.553 -0.0689  0.2531  0.4547
 2604SOL    HW119445   3.917   0.211   9.623  0.7933  0.6422  1.1300
 2604SOL    HW219446   3.889   0.231   9.485 -0.7896  0.8031  0.7562
 2605SOL     OW19447   1.684   4.366  13.215 -0.2738  0.0764  0.0382
 2605SOL    HW119448   1.757   4.376  13.153  0.5392 -2.8928  0.5280
 2605SOL    HW219449   1.700   4.438  13.277 -1.8034  1.7793 -1.5603
 2606SOL     OW19450   3.408   3.078  14.120 -0.3471 -0.4339 -0.0586
 2606SOL    HW119451   3.415   2.983  14.108  0.2435 -0.2042 -1.4836
 2606SOL    HW219452   3.315   3.087  14.099 -0.9691 -1.4898  2.2238
 2607SOL     OW19453   4.335   1.165   6.207 -0.0192 -0.2739  0.5282
 2607SOL    HW119454   4.385   1.120   6.274  2.9703  3.2907  0.6974
 2607SOL    HW219455   4.343   1.258   6.229 -0.1618  0.0859 -0.8960
 2608SOL     OW19456   0.671   2.889   7.365  0.4352 -0.5828  0.2359
 2608SOL    HW119457   0.731   2.929   7.302 -1.4675 -0.3209 -1.4164
 2608SOL    HW219458   0.594   2.860   7.317 -0.0744 -0.3845  0.9348
 2609SOL     OW19459   0.017   1.502   6.430  0.1698  0.5796 -0.0966
 2609SOL    HW119460   4.677   1.559   6.433  0.0774  0.4295  0.3360
 2609SOL    HW219461   0.001   1.432   6.493 -2.7961  0.8400 -0.5413
 2610SOL     OW19462   1.231   1.280   1.893  0.4522  0.3876  0.5167
 2610SOL    HW119463   1.159   1.246   1.947 -0.0535 -0.8090 -0.9072
 2610SOL    HW219464   1.302   1.254   1.951 -0.9239  1.4068  2.6449
 2611SOL     OW19465   2.617   2.711   3.477 -0.2303 -0.2229 -0.2375
 2611SOL    HW119466   2.655   2.665   3.552 -2.3102 -2.6150 -0.6275
 2611SOL    HW219467   2.676   2.671   3.413  1.0221  1.8940 -0.3838
 2612SOL     OW19468   2.551   0.053   3.160  0.4950  0.5363 -0.8659
 2612SOL    HW119469   2.527   4.736   3.085  0.1994  0.5406 -0.7748
 2612SOL    HW219470   2.519   0.007   3.238  3.6250 -0.2548 -0.0381
 2613SOL     OW19471   0.377   1.929  12.964 -0.4655 -0.4049 -0.0305
 2613SOL    HW119472   0.282   1.932  12.969 -0.5112 -0.6185 -0.7092
 2613SOL    HW219473   0.400   1.878  12.886  1.1321  0.9515 -0.4522
 2614SOL     OW19474   0.152   1.579  11.855 -0.2296  0.4394  0.6690
 2614SOL    HW119475   0.209   1.652  11.876  0.1510 -0.0887  1.4963
 2614SOL    HW219476   0.075   1.614  11.900 -1.0915  0.4609 -0.8242
 2615SOL     OW19477   3.784   1.669   1.365 -0.0741  0.0039  0.4612
 2615SOL    HW119478   3.762   1.587   1.410 -1.1224 -0.1408 -0.3208
 2615SOL    HW219479   3.731   1.731   1.415 -1.2550 -0.6436  0.0239
 2616SOL     OW19480   0.120   3.427   9.077  0.5941  0.1688 -0.4601
 2616SOL    HW119481   0.164   3.389   9.153 -0.1471 -2.0191 -1.1061
 2616SOL    HW219482   0.149   3.518   9.082  1.0125 -0.0772  1.2998
 2617SOL     OW19483   0.211   1.607   5.883  0.1874 -0.4217  0.8564
 2617SOL    HW119484   0.122   1.614   5.917 -0.1658 -1.3883  0.1408
 2617SOL    HW219485   0.206   1.616   5.788  3.4539  2.2342  0.9071
 2618SOL     OW19486   3.839   4.150   5.143 -0.3447 -0.2726 -0.4525
 2618SOL    HW119487   3.877   4.071   5.181 -0.0491  0.0258 -0.1273
 2618SOL    HW219488   3.908   4.205   5.105 -1.2796 -1.8680 -4.4268
 2619SOL     OW19489   3.491   0.029   0.469 -0.1566  0.1832  0.7851
 2619SOL    HW119490   3.484   0.028   0.564 -1.2443  0.0540  0.7081
 2619SOL    HW219491   3.523   0.115   0.442  0.7483 -0.6666 -0.8555
 2620SOL     OW19492   3.548   2.212  12.418  0.1320 -0.1769 -0.0057
 2620SOL    HW119493   3.620   2.225  12.479 -0.7475 -0.9378  1.1944
 2620SOL    HW219494   3.511   2.300  12.413 -0.7600 -0.6019 -0.9300
 2621SOL     OW19495   4.052   2.317  16.227 -0.2208  0.1495 -0.6609
 2621SOL    HW119496   4.122   2.285  16.284 -0.9501 -1.8432 -0.8670
 2621SOL    HW219497   3.979   2.272  16.271  0.5103  1.6607  2.0970
 2622SOL     OW19498   0.260   0.346   9.554  0.1825  0.2970 -0.0910
 2622SOL    HW119499   0.250   0.375   9.645  0.6191  0.4108 -0.0803
 2622SOL    HW219500   0.295   0.259   9.573  1.1575  0.4096 -1.4134
 2623SOL     OW19501   3.610   2.551   2.679  0.2004 -0.3887 -0.2202
 2623SOL    HW119502   3.557   2.591   2.609 -1.3031  1.1553  1.8092
 2623SOL    HW219503   3.636   2.622   2.738 -1.1050  0.3066 -0.4859
 2624SOL     OW19504   4.307   1.443   3.306 -0.1738  0.2510  0.4942
 2624SOL    HW119505   4.338   1.483   3.387  1.4870 -1.2595  0.6227
 2624SOL    HW219506   4.307   1.518   3.246  1.5735 -0.7747 -0.8210
 2625SOL     OW19507   0.416   1.860   9.599 -0.4284  0.1723  0.0171
 2625SOL    HW119508   0.431   1.871   9.693  0.5007  0.2633 -0.1451
 2625SOL    HW219509   0.403   1.766   9.588 -1.8689  0.1441  1.9129
 2626SOL     OW19510   0.848   0.033   4.606  0.1033 -0.1405  0.1844
 2626SOL    HW119511   0.819   0.109   4.656  0.7288 -0.4305  0.9886
 2626SOL    HW219512   0.940   0.059   4.605  0.3858 -1.1284  0.0024
 2627SOL     OW19513   2.308   0.124  12.559 -0.1317  0.1116 -0.0442
 2627SOL    HW119514   2.248   0.195  12.583 -0.0088 -0.3967  1.8152
 2627SOL    HW219515   2.387   0.146  12.610 -0.1768 -1.5469  0.7500
 2628SOL     OW19516   2.763   0.454   7.290 -0.3229  0.3406  0.2352
 2628SOL    HW119517   2.739   0.538   7.251 -1.1376 -0.7850 -1.6816
 2628SOL    HW219518   2.726   0.408   7.214  1.2450 -0.4027 -0.0862
 2629SOL     OW19519   0.823   2.862   2.451 -0.0421 -0.3456  0.3594
 2629SOL    HW119520   0.795   2.952   2.461 -0.8078 -0.6222  0.6981
 2629SOL    HW219521   0.752   2.818   2.404 -1.0726  1.6396  0.0695
 2630SOL     OW19522   0.036   1.821  14.380  0.1660 -0.1687  0.1943
 2630SOL    HW119523   0.125   1.855  14.379 -0.3682  1.1493 -2.2366
 2630SOL    HW219524   0.037   1.746  14.439 -0.5547  1.3975  2.2313
 2631SOL     OW19525   2.974   2.626  13.780 -0.1585  0.1430  0.1339
 2631SOL    HW119526   2.988   2.534  13.803  0.0829  0.1270 -0.0665
 2631SOL    HW219527   2.895   2.664  13.818 -0.6084  0.0522 -0.6860
 2632SOL     OW19528   3.330   3.879   6.202 -0.3579  0.2351 -0.2980
 2632SOL    HW119529   3.273   3.876   6.126  2.8137  0.2870 -2.6709
 2632SOL    HW219530   3.413   3.877   6.155 -0.9117  3.6354 -1.4608
 2633SOL     OW19531   2.566   2.215   6.296 -0.2375  0.3331  0.2080
 2633SOL    HW119532   2.474   2.206   6.319 -0.4136  1.2105 -0.1361
 2633SOL    HW219533   2.552   2.252   6.209 -2.1721 -0.8260  0.0420
 2634SOL     OW19534   4.700   0.672   6.713 -0.7685  0.8618  0.6285
 2634SOL    HW119535   4.719   0.579   6.702  1.0045  0.9535  2.7165
 2634SOL    HW219536   0.045   0.713   6.689  0.4089 -1.0553  1.4305
 2635SOL     OW19537   2.677   3.517  13.815 -0.3296 -0.0579  0.0949
 2635SOL    HW119538   2.669   3.612  13.817 -3.1998 -0.3143  0.5854
 2635SOL    HW219539   2.762   3.509  13.860 -0.3775  0.3966  0.2701
 2636SOL     OW19540   2.815   2.608   2.087 -0.0635 -0.7251  0.1491
 2636SOL    HW119541   2.873   2.552   2.138  1.1284  0.6856  0.3361
 2636SOL    HW219542   2.760   2.552   2.033 -0.6863 -0.0033  0.0318
 2637SOL     OW19543   1.639   1.150   7.714  0.0679  0.5847  0.3956
 2637SOL    HW119544   1.723   1.113   7.686 -0.8135 -0.5347 -0.8095
 2637SOL    HW219545   1.591   1.151   7.631  0.5810 -0.1201  0.0816
 2638SOL     OW19546   2.014   1.827  11.806 -0.2622 -0.5746 -0.1809
 2638SOL    HW119547   1.928   1.791  11.785 -0.1364 -0.9027 -0.1348
 2638SOL    HW219548   2.035   1.880  11.729 -0.8503 -1.1283 -0.7195
 2639SOL     OW19549   1.281   3.072  16.564  0.2616 -0.0347 -0.0246
 2639SOL    HW119550   1.338   3.035  16.497 -0.7502 -0.0574 -0.8861
 2639SOL    HW219551   1.211   3.119  16.518  0.6560 -0.5289 -1.1361
 2640SOL     OW19552   0.489   2.713   7.239 -0.3000 -0.3205  0.1210
 2640SOL    HW119553   0.571   2.673   7.210  0.3605  1.8269 -0.9963
 2640SOL    HW219554   0.437   2.633   7.245  0.4697 -0.7592  0.8592
 2641SOL     OW19555   3.134   2.243   9.511  0.3092  0.2761  0.1468
 2641SOL    HW119556   3.127   2.150   9.531  1.7617 -0.1550 -1.3825
 2641SOL    HW219557   3.047   2.270   9.542  0.2162 -1.0063  1.0096
 2642SOL     OW19558   2.464   3.898  14.074 -0.0646  0.5517 -0.3332
 2642SOL    HW119559   2.403   3.838  14.032 -1.6467  2.7336 -1.1303
 2642SOL    HW219560   2.479   3.972  14.016  0.3012  0.9161  0.2270
 2643SOL     OW19561   1.751   4.062  14.440 -0.1049 -0.1618  0.0055
 2643SOL    HW119562   1.733   3.978  14.398  0.1528 -1.2216  1.9875
 2643SOL    HW219563   1.702   4.048  14.521 -1.3960  1.8272 -0.4339
 2644SOL     OW19564   2.152   3.010  11.857 -0.1001 -0.2095  0.1037
 2644SOL    HW119565   2.093   3.084  11.845 -0.0684 -0.0791  0.7536
 2644SOL    HW219566   2.092   2.937  11.840  0.5350 -0.3518 -1.6341
 2645SOL     OW19567   1.755   3.683   5.595 -0.2847  0.2210 -0.5710
 2645SOL    HW119568   1.666   3.649   5.592 -0.7719  1.3704  0.4117
 2645SOL    HW219569   1.728   3.774   5.580 -1.0962  0.2051  0.8051
 2646SOL     OW19570   3.594   0.623   7.520  0.3745 -0.1311 -0.1261
 2646SOL    HW119571   3.547   0.564   7.461 -1.5947  0.9456  0.3821
 2646SOL    HW219572   3.676   0.575   7.536  0.6987  0.9818  1.5598
 2647SOL     OW19573   3.909   3.403   9.332  0.2876 -0.1362 -0.3545
 2647SOL    HW119574   3.864   3.471   9.382 -0.4017 -1.0597  0.3056
 2647SOL    HW219575   3.999   3.406   9.363 -0.0321 -1.9668  0.8013
 2648SOL     OW19576   4.199   3.836   1.641  0.0835 -0.4510 -0.2386
 2648SOL    HW119577   4.293   3.856   1.643  0.0622 -0.0740 -2.3347
 2648SOL    HW219578   4.174   3.855   1.731 -1.0130 -0.3312 -0.5756
 2649SOL     OW19579   0.460   1.203   4.782  0.5995  0.0556 -0.3006
 2649SOL    HW119580   0.525   1.251   4.833  0.5122 -0.1098 -0.0268
 2649SOL    HW219581   0.464   1.111   4.810 -0.7212 -0.5423 -2.1144
 2650SOL     OW19582   4.217   4.136   4.127  0.0251  0.7905  0.0876
 2650SOL    HW119583   4.189   4.063   4.183 -0.4369  0.5795 -0.4194
 2650SOL    HW219584   4.269   4.088   4.063 -1.8512 -0.4848 -0.5018
 2651SOL     OW19585   1.105   3.080   2.453  0.2800 -0.0457 -0.4727
 2651SOL    HW119586   1.199   3.090   2.440  0.2158  0.1686 -0.7680
 2651SOL    HW219587   1.105   3.003   2.510  1.1012 -0.7170 -1.3922
 2652SOL     OW19588   3.412   0.907   8.879  0.1865  0.1030 -0.0930
 2652SOL    HW119589   3.396   0.849   8.805  1.4471 -3.6675  2.6234
 2652SOL    HW219590   3.327   0.906   8.921 -0.4568 -0.3137 -1.4150
 2653SOL     OW19591   1.819   0.369   6.668  0.2028  0.0708 -0.4961
 2653SOL    HW119592   1.780   0.353   6.754 -2.0523 -0.1804 -1.5633
 2653SOL    HW219593   1.747   0.384   6.607  0.2107  0.7158 -0.3512
 2654SOL     OW19594   1.066   1.287   2.657  0.3211 -0.1682 -0.1331
 2654SOL    HW119595   1.155   1.263   2.632 -0.0850 -2.0017  0.1588
 2654SOL    HW219596   1.066   1.275   2.752 -1.6480  0.4441 -0.0668
 2655SOL     OW19597   4.161   2.835  16.139  0.7857  0.0912  0.0311
 2655SOL    HW119598   4.211   2.796  16.211  0.1170  0.7225  0.8504
 2655SOL    HW219599   4.092   2.892  16.176 -1.4717 -1.1449 -2.2641
 2656SOL     OW19600   0.584   0.998  14.314 -0.4130 -0.6048  0.3952
 2656SOL    HW119601   0.580   0.929  14.381  1.9054 -1.0074  0.1262
 2656SOL    HW219602   0.496   0.975  14.287 -0.1940  0.8273 -1.5259
 2657SOL     OW19603   2.649   4.617   8.483  0.0811  0.9310  0.2986
 2657SOL    HW119604   2.714   4.664   8.534 -1.1835  1.1113  1.7229
 2657SOL    HW219605   2.566   4.642   8.523  0.8870  1.9593  1.3083
 2658SOL     OW19606   0.462   0.237   2.207 -0.2034 -0.1800 -0.4012
 2658SOL    HW119607   0.530   0.193   2.258  0.0184  0.9136  0.2394
 2658SOL    HW219608   0.484   0.330   2.203 -0.0214 -0.2361 -0.7052
 2659SOL     OW19609   0.887   0.333   5.835 -0.4320  0.1773 -0.3245
 2659SOL    HW119610   0.818   0.327   5.769 -1.2103  0.0864  0.5090
 2659SOL    HW219611   0.833   0.316   5.912  1.9156  0.7178  1.4246
 2660SOL     OW19612   0.906   2.759   2.675  0.2357 -0.1100  0.3095
 2660SOL    HW119613   0.869   2.785   2.591  1.0277  0.8261  0.2452
 2660SOL    HW219614   0.995   2.794   2.662 -0.5689  1.4292 -1.1426
 2661SOL     OW19615   3.990   1.653   4.768 -0.5794 -0.1451 -0.1279
 2661SOL    HW119616   3.933   1.693   4.833  1.0476  0.6023  0.8360
 2661SOL    HW219617   4.039   1.728   4.732  0.4493 -1.6296 -1.8447
 2662SOL     OW19618   4.542   0.953   5.264 -0.5823 -0.0989  0.2908
 2662SOL    HW119619   4.553   0.872   5.215  1.9238  1.1474 -1.1858
 2662SOL    HW219620   4.493   0.913   5.337  0.3682 -2.0905 -0.1573
 2663SOL     OW19621   3.518   4.225   4.749  0.2633  0.2012 -0.0882
 2663SOL    HW119622   3.588   4.265   4.697  1.8029  1.3829  2.8866
 2663SOL    HW219623   3.523   4.280   4.827 -1.2811 -1.1677  0.9543
 2664SOL     OW19624   2.465   1.792   4.775 -0.1239 -0.1584 -0.1400
 2664SOL    HW119625   2.419   1.710   4.793  0.3604 -0.2478  0.6796
 2664SOL    HW219626   2.554   1.766   4.799  0.6317  1.1024 -1.5788
 2665SOL     OW19627   3.332   4.376   7.573 -0.1721  0.0113 -0.6477
 2665SOL    HW119628   3.255   4.414   7.614 -0.4317  0.9900 -2.0142
 2665SOL    HW219629   3.399   4.400   7.637 -0.8983 -1.5106  0.6759
 2666SOL     OW19630   0.749   0.752   8.465 -0.0368  0.2493 -0.1062
 2666SOL    HW119631   0.678   0.747   8.530 -0.3255  1.5264 -0.3324
 2666SOL    HW219632   0.805   0.680   8.495 -2.3627 -0.8314  1.7571
 2667SOL     OW19633   3.994   3.002  16.314 -0.5121  0.7305  0.3521
 2667SOL    HW119634   3.912   3.026  16.357 -0.7366  0.9482 -0.1896
 2667SOL    HW219635   4.058   3.028  16.380  0.5320 -0.7729 -0.0627
 2668SOL     OW19636   1.065   0.240  16.048 -0.0517 -0.4238  0.0320
 2668SOL    HW119637   1.034   0.198  16.129 -1.0621  1.9726  0.8838
 2668SOL    HW219638   1.083   0.328  16.082  0.2098 -0.2664 -0.5165
 2669SOL     OW19639   0.930   2.446   3.448  0.4772  0.7875  0.1865
 2669SOL    HW119640   0.963   2.396   3.373 -0.2720 -1.6231  1.4840
 2669SOL    HW219641   1.009   2.499   3.463  0.9753 -0.5541  2.2522
 2670SOL     OW19642   3.150   0.064   5.914  0.6360  0.3703 -0.7516
 2670SOL    HW119643   3.179   0.085   5.826 -1.2205  0.0903 -1.4308
 2670SOL    HW219644   3.187   0.142   5.956  2.6872 -1.7163  1.3532
 2671SOL     OW19645   0.184   2.590   6.790  0.4955 -0.0829  0.3049
 2671SOL    HW119646   0.237   2.600   6.711  0.5005  0.3326  0.3579
 2671SOL    HW219647   0.232   2.633   6.861  1.7898 -4.2171  1.8795
 2672SOL     OW19648   4.134   2.684   8.724 -0.2321 -0.0960  0.5735
 2672SOL    HW119649   4.158   2.614   8.664 -1.1588 -0.4057  0.5652
 2672SOL    HW219650   4.045   2.701   8.692 -0.3309 -0.2654  0.7635
 2673SOL     OW19651   4.605   0.920   7.097 -0.2005  0.6541 -0.8672
 2673SOL    HW119652   4.639   0.949   7.182 -0.2511  0.3109 -0.7322
 2673SOL    HW219653   4.655   0.839   7.086 -0.5263  0.3373 -0.0666
 2674SOL     OW19654   1.022   1.211   0.998 -0.0398 -0.1460  0.0287
 2674SOL    HW119655   0.943   1.266   1.000 -0.1351 -0.1983 -2.1394
 2674SOL    HW219656   1.045   1.231   1.089  0.2424  0.1551 -0.1105
 2675SOL     OW19657   1.944   0.643   0.128 -0.1237  0.6931 -0.0978
 2675SOL    HW119658   1.880   0.608   0.190 -0.0181 -1.2792 -1.1001
 2675SOL    HW219659   1.980   0.705   0.192 -0.3912  1.5166 -0.7372
 2676SOL     OW19660   1.691   1.525   9.095  0.4537  0.4292 -0.6253
 2676SOL    HW119661   1.719   1.602   9.045  0.8797  1.1897  0.7777
 2676SOL    HW219662   1.714   1.551   9.184 -1.0157 -0.8088  0.1233
 2677SOL     OW19663   0.421   2.662   1.724  0.6588 -0.5500  0.2609
 2677SOL    HW119664   0.495   2.716   1.700 -1.2032  1.7584 -0.2678
 2677SOL    HW219665   0.379   2.640   1.641 -1.3844 -0.5680  1.3001
 2678SOL     OW19666   0.606   0.351   4.788  0.4384 -0.5623  0.2874
 2678SOL    HW119667   0.641   0.374   4.874  0.2058  1.7907 -0.2438
 2678SOL    HW219668   0.686   0.351   4.736 -0.5251  1.0575 -1.2077
 2679SOL     OW19669   1.150   3.786   7.241 -0.0589  0.2569 -0.1770
 2679SOL    HW119670   1.077   3.835   7.279  1.9685  1.5473  2.0448
 2679SOL    HW219671   1.108   3.732   7.174 -0.0230 -0.6661  0.5504
 2680SOL     OW19672   3.475   1.977   2.927  0.2630  0.0545 -0.6246
 2680SOL    HW119673   3.418   1.907   2.896  0.9958 -0.8390  0.0601
 2680SOL    HW219674   3.448   2.049   2.870  2.1094  0.4627 -0.9878
 2681SOL     OW19675   2.868   1.147   6.139 -0.1549  0.4779 -0.9342
 2681SOL    HW119676   2.910   1.077   6.089  1.8331  0.1091  1.2378
 2681SOL    HW219677   2.827   1.096   6.209  2.5578 -0.2326  0.1449
 2682SOL     OW19678   1.081   1.549   8.918  0.3077  0.1781  0.0755
 2682SOL    HW119679   1.155   1.496   8.887  0.4006 -0.7023  1.8195
 2682SOL    HW219680   1.062   1.506   9.001  0.4834  0.5891  0.3332
 2683SOL     OW19681   3.005   0.325   3.380 -0.0750 -0.1519 -0.4504
 2683SOL    HW119682   2.930   0.382   3.399  0.2289 -0.0012  0.2707
 2683SOL    HW219683   2.964   0.240   3.392 -1.6794  0.5167 -1.1260
 2684SOL     OW19684   0.110   3.321   2.921 -0.6011 -0.3981 -0.0520
 2684SOL    HW119685   0.125   3.242   2.869 -1.8772  0.5359 -1.8313
 2684SOL    HW219686   0.193   3.321   2.968 -2.1229 -0.7789  2.6583
 2685SOL     OW19687   3.059   3.253  10.768 -0.4146 -0.2131 -0.4979
 2685SOL    HW119688   3.012   3.319  10.818 -1.6230 -1.0595 -0.5049
 2685SOL    HW219689   3.044   3.270  10.675 -2.8152 -0.3437 -0.1312
 2686SOL     OW19690   0.182   3.158   4.946  0.3878  0.5295  0.5235
 2686SOL    HW119691   0.117   3.227   4.952 -0.4516 -0.2298  0.2093
 2686SOL    HW219692   0.149   3.073   4.916  1.3475  0.3052  0.0695
 2687SOL     OW19693   0.124   1.113   9.886  0.1847 -0.3200 -0.2444
 2687SOL    HW119694   0.084   1.200   9.877 -0.6251 -0.7063 -0.4260
 2687SOL    HW219695   0.121   1.091   9.793 -1.0181  1.6716 -0.6668
 2688SOL     OW19696   2.093   0.181  12.767 -0.4825  0.2143  0.4221
 2688SOL    HW119697   2.164   0.128  12.804  1.3365  0.8379 -2.1675
 2688SOL    HW219698   2.039   0.117  12.720  2.0307 -2.4987  1.2511
 2689SOL     OW19699   2.368   2.945   4.628  0.1519  0.5809  0.3576
 2689SOL    HW119700   2.351   2.863   4.674  1.5603  1.2825  2.1225
 2689SOL    HW219701   2.446   2.921   4.579 -0.1859 -0.1913  0.1985
 2690SOL     OW19702   2.373   0.260   6.356 -0.6867  0.2716  0.2516
 2690SOL    HW119703   2.448   0.201   6.356  0.2195  1.4321 -0.7662
 2690SOL    HW219704   2.331   0.243   6.271  1.3370 -6.1224  0.4976
 2691SOL     OW19705   0.836   4.060   7.833 -0.4819 -0.3365  1.0795
 2691SOL    HW119706   0.768   4.095   7.776  0.4394 -1.6333 -0.8389
 2691SOL    HW219707   0.802   4.066   7.922  2.5195  0.0632  2.1972
 2692SOL     OW19708   2.886   4.348   3.698  0.3287  0.3637  0.3603
 2692SOL    HW119709   2.955   4.396   3.744  1.0496  1.2884 -1.7171
 2692SOL    HW219710   2.935   4.299   3.632 -0.9618 -2.3630  1.4222
 2693SOL     OW19711   0.731   3.114  13.558  0.0683  0.0442  0.8437
 2693SOL    HW119712   0.803   3.174  13.540  0.8331 -0.5867  1.7905
 2693SOL    HW219713   0.783   3.050  13.606 -1.1392 -2.3419 -1.0520
 2694SOL     OW19714   0.056   1.906   6.739  0.2519  0.2005  0.1630
 2694SOL    HW119715   0.054   1.868   6.652  0.6719 -0.1624  0.3098
 2694SOL    HW219716   4.710   1.883   6.778 -0.4839  1.9625 -0.3847
 2695SOL     OW19717   0.878   4.460   9.588  0.2620 -0.1011 -0.1484
 2695SOL    HW119718   0.971   4.443   9.601  0.1492 -1.0463 -0.5430
 2695SOL    HW219719   0.846   4.370   9.594 -2.7405  0.9339 -0.2526
 2696SOL     OW19720   4.484   1.653   1.662  0.1189 -0.1778 -0.6898
 2696SOL    HW119721   4.402   1.641   1.614  1.2447 -0.5154 -2.5438
 2696SOL    HW219722   4.552   1.632   1.598  0.2277 -2.2011  0.0949
 2697SOL     OW19723   2.129   0.858  16.475  0.3324 -0.0548 -0.3522
 2697SOL    HW119724   2.174   0.789  16.427  0.3760 -0.9458  0.9420
 2697SOL    HW219725   2.176   0.854  16.559  0.7347 -1.1840 -0.6381
 2698SOL     OW19726   4.190   0.212   8.323  0.3624 -0.0661 -0.2794
 2698SOL    HW119727   4.179   0.204   8.228 -0.0083  0.8364 -0.3133
 2698SOL    HW219728   4.252   0.142   8.343  1.2518  0.0476 -2.6958
 2699SOL     OW19729   0.159   4.462   2.958  0.1517 -0.0786 -0.3043
 2699SOL    HW119730   0.172   4.384   3.012 -2.1145 -0.2652 -0.0512
 2699SOL    HW219731   0.202   4.427   2.880  1.5849 -0.8710  0.8450
 2700SOL     OW19732   2.809   1.974   4.222  0.2050  0.2426  0.0356
 2700SOL    HW119733   2.769   1.946   4.304 -0.4759 -0.1169 -0.4241
 2700SOL    HW219734   2.852   1.891   4.203  1.1990  0.5903  0.7410
 2701SOL     OW19735   3.774   4.122   9.187 -0.2919  0.3945 -0.4597
 2701SOL    HW119736   3.715   4.183   9.232 -1.4353 -0.3206 -0.9753
 2701SOL    HW219737   3.849   4.177   9.164 -0.6995  2.1624  2.5001
 2702SOL     OW19738   1.616   4.580   4.311 -0.3263 -0.2940 -0.0957
 2702SOL    HW119739   1.661   4.628   4.241 -2.0711  0.9644 -0.3210
 2702SOL    HW219740   1.682   4.512   4.329  0.1280 -0.1110 -1.0307
 2703SOL     OW19741   0.248   3.235  14.903 -1.0336  0.1227  0.0057
 2703SOL    HW119742   0.165   3.267  14.868 -1.0418  0.9071  0.7230
 2703SOL    HW219743   0.271   3.315  14.952 -0.5034  0.2320 -0.4106
 2704SOL     OW19744   4.661   1.370   6.671  0.4008  0.1297  0.4228
 2704SOL    HW119745   4.585   1.314   6.655  0.8132 -0.0367 -0.9331
 2704SOL    HW219746   4.617   1.441   6.717 -0.4665  0.4834 -0.9478
 2705SOL     OW19747   4.384   2.747   7.587 -0.6861 -0.4222 -0.0042
 2705SOL    HW119748   4.478   2.749   7.603 -0.7717  0.9409  0.3496
 2705SOL    HW219749   4.380   2.836   7.551  3.2972 -1.2280 -2.3680
 2706SOL     OW19750   4.093   0.429   8.491 -0.2916  0.3771  0.6460
 2706SOL    HW119751   4.129   0.354   8.444  0.4904  1.9359 -1.2086
 2706SOL    HW219752   4.018   0.397   8.542 -0.6582 -1.1188 -0.8345
 2707SOL     OW19753   4.291   3.899  17.174 -1.0415  0.2439  0.0837
 2707SOL    HW119754   4.361   3.904  17.108 -0.1933 -0.4238  0.9271
 2707SOL    HW219755   4.245   3.824  17.136 -1.1817  0.2607  0.2217
 2708SOL     OW19756   2.708   0.401  15.242  0.2679  0.0252 -1.0118
 2708SOL    HW119757   2.758   0.418  15.163  2.0529 -2.5474 -0.4450
 2708SOL    HW219758   2.765   0.332  15.277 -0.9914 -0.1922  0.6604
 2709SOL     OW19759   1.692   3.314   0.063  0.5210  0.3655  0.0278
 2709SOL    HW119760   1.602   3.347   0.065 -0.2471 -1.6750 -0.8315
 2709SOL    HW219761   1.723   3.329   0.152  0.0918 -1.1937  0.4325
 2710SOL     OW19762   0.646   1.791   3.259 -0.4386  0.3115 -0.2514
 2710SOL    HW119763   0.619   1.878   3.289 -2.1538 -0.4106  0.3129
 2710SOL    HW219764   0.593   1.780   3.180 -1.6291 -0.3943  0.6322
 2711SOL     OW19765   3.889   1.118  11.623 -0.6870 -0.4195 -0.2744
 2711SOL    HW119766   3.810   1.106  11.675 -1.3923 -0.8814 -1.4544
 2711SOL    HW219767   3.957   1.060  11.659 -2.3637 -0.9411  2.0649
 2712SOL     OW19768   0.184   3.269   4.088 -0.0232  0.1272 -0.0809
 2712SOL    HW119769   0.137   3.237   4.011  0.2443 -0.3361 -0.0515
 2712SOL    HW219770   0.166   3.206   4.157 -2.0394 -0.6563 -1.3147
 2713SOL     OW19771   1.620   0.078   6.871  0.1310 -0.2257 -0.7162
 2713SOL    HW119772   1.541   0.037   6.907 -0.7653  1.1925 -1.0915
 2713SOL    HW219773   1.676   0.001   6.875  1.0904  0.3314 -3.5620
 2714SOL     OW19774   2.235   0.486   7.015 -0.5323 -0.5101  0.3698
 2714SOL    HW119775   2.308   0.547   7.007  0.2413 -1.4362  0.3968
 2714SOL    HW219776   2.174   0.505   6.943  0.6379  2.3130  0.1163
 2715SOL     OW19777   4.620   4.260  16.275 -0.5360 -0.6026  0.2822
 2715SOL    HW119778   4.694   4.199  16.270 -0.1939 -0.1991  0.4340
 2715SOL    HW219779   4.555   4.196  16.303 -0.9574 -0.2841  0.0338
 2716SOL     OW19780   0.136   3.539  14.886 -0.4129  0.0837  0.0162
 2716SOL    HW119781   0.132   3.575  14.798 -0.0078  3.0127  1.2033
 2716SOL    HW219782   0.092   3.607  14.937 -2.0818  0.4121 -1.8534
 2717SOL     OW19783   2.880   4.313   2.600 -0.3471  0.0269 -0.1834
 2717SOL    HW119784   2.873   4.226   2.639 -1.2484  0.0455 -0.2926
 2717SOL    HW219785   2.797   4.347   2.635  0.0662  0.3904  0.4393
 2718SOL     OW19786   1.757   2.518   2.127 -0.2805  0.1410 -0.7382
 2718SOL    HW119787   1.730   2.451   2.065  0.6848 -1.4948  0.6062
 2718SOL    HW219788   1.726   2.487   2.212  1.1073 -0.4520 -0.4385
 2719SOL     OW19789   3.970   2.703   3.778  0.4002  0.1414  0.2381
 2719SOL    HW119790   3.977   2.738   3.689 -0.0010 -0.2222  0.0637
 2719SOL    HW219791   3.905   2.760   3.821  0.4522 -0.9580  1.7892
 2720SOL     OW19792   0.918   3.687   7.037 -0.2151 -0.2190  0.0133
 2720SOL    HW119793   0.858   3.756   7.067 -0.7092 -0.4840 -0.3686
 2720SOL    HW219794   0.880   3.602   7.060  1.2924 -0.3232  2.1247
 2721SOL     OW19795   3.383   0.616   7.963  0.6470 -0.1839  0.4234
 2721SOL    HW119796   3.425   0.655   7.886  2.1923  0.5847  1.6490
 2721SOL    HW219797   3.425   0.652   8.041  1.2200 -2.9272  1.4138
 2722SOL     OW19798   3.405   2.569   7.370  0.2121  0.0019 -0.2506
 2722SOL    HW119799   3.429   2.489   7.417 -1.9113 -2.1012 -2.7078
 2722SOL    HW219800   3.349   2.526   7.305  1.3718 -2.5440  0.3989
 2723SOL     OW19801   0.824   2.756  17.654  0.0239  0.2032  0.4972
 2723SOL    HW119802   0.868   2.698  17.592  1.3218 -1.5116  3.0337
 2723SOL    HW219803   0.867   2.727  17.734  0.2205 -0.9924 -0.0428
 2724SOL     OW19804   2.981   3.849   4.739  0.5871  0.0652  0.1947
 2724SOL    HW119805   2.917   3.839   4.809 -1.9612  1.7909 -1.8967
 2724SOL    HW219806   3.043   3.778   4.759 -1.6026 -1.2957  2.1191
 2725SOL     OW19807   3.379   3.703   8.511 -0.2576  0.0831  0.0308
 2725SOL    HW119808   3.471   3.722   8.530  0.1746 -0.3844 -1.5809
 2725SOL    HW219809   3.375   3.607   8.515 -0.3256  0.0490 -0.8959
 2726SOL     OW19810   0.804   3.867   6.280 -0.4253 -0.3301  0.5853
 2726SOL    HW119811   0.791   3.804   6.351 -1.0750 -0.2052  0.5766
 2726SOL    HW219812   0.781   3.813   6.204  0.7894 -1.3833  0.9641
 2727SOL     OW19813   4.046   1.349   3.467 -0.6198 -0.5264 -1.1501
 2727SOL    HW119814   3.962   1.359   3.512  0.5216 -1.2151  1.1184
 2727SOL    HW219815   4.057   1.436   3.429  0.5490  0.1256  0.7004
 2728SOL     OW19816   2.778   2.983   3.069 -0.6493  0.1790 -0.1282
 2728SOL    HW119817   2.867   2.987   3.033  0.4488 -1.3755  2.3803
 2728SOL    HW219818   2.742   2.948   2.987  1.6783 -0.1889 -1.0103
 2729SOL     OW19819   2.283   4.259   5.879 -0.0906 -0.0942  0.1935
 2729SOL    HW119820   2.328   4.180   5.850  0.9504 -0.0967  1.8180
 2729SOL    HW219821   2.346   4.302   5.937  0.5307  1.7446 -1.8148
 2730SOL     OW19822   3.715   0.646   3.035  0.4694  0.4513  0.2857
 2730SOL    HW119823   3.742   0.630   3.125 -2.1096  1.4950  1.2400
 2730SOL    HW219824   3.620   0.643   3.047  0.5843 -1.2846  0.7584
 2731SOL     OW19825   3.609   0.695   2.645 -0.3380 -0.7759 -0.6021
 2731SOL    HW119826   3.592   0.622   2.704  1.9901  0.5092  1.6339
 2731SOL    HW219827   3.688   0.656   2.609  1.1546  0.7571  1.0451
 2732SOL     OW19828   1.618   1.166  14.045  0.0458  0.8287 -0.1965
 2732SOL    HW119829   1.680   1.094  14.047 -1.1853 -0.2529 -0.9303
 2732SOL    HW219830   1.584   1.151  14.133  1.1673  0.9747  0.2597
 2733SOL     OW19831   1.748   2.140   6.169 -0.2858 -0.6880  0.1281
 2733SOL    HW119832   1.702   2.212   6.213  0.3243 -0.9776  1.2244
 2733SOL    HW219833   1.837   2.142   6.204  0.0892  2.2220 -0.9548
 2734SOL     OW19834   4.200   0.520   9.269 -0.0949  0.3832 -0.6812
 2734SOL    HW119835   4.288   0.553   9.287 -0.5280  0.5824  1.0612
 2734SOL    HW219836   4.180   0.485   9.355 -0.2423  2.1721  0.0081
 2735SOL     OW19837   1.118   4.315   7.784 -0.1428 -0.1917 -0.3223
 2735SOL    HW119838   1.102   4.221   7.779  1.3671 -0.5414  1.5552
 2735SOL    HW219839   1.053   4.349   7.723 -1.3021  1.7687  2.0126
 2736SOL     OW19840   4.655   4.169   8.151  0.3208 -0.4228 -0.1810
 2736SOL    HW119841   4.615   4.147   8.066  0.4817 -2.1405  0.1849
 2736SOL    HW219842   4.733   4.114   8.151  0.6835  0.0850 -0.9512
 2737SOL     OW19843   4.493   2.681  17.028 -0.1547  0.5304 -0.4187
 2737SOL    HW119844   4.400   2.696  17.040 -0.6821 -0.3993 -3.3320
 2737SOL    HW219845   4.540   2.763  17.041  2.1923 -0.7390 -0.6899
 2738SOL     OW19846   3.850   0.348   8.650  0.5824  0.4188  0.6246
 2738SOL    HW119847   3.812   0.277   8.702  2.7701 -0.3297  1.1909
 2738SOL    HW219848   3.786   0.349   8.579  0.2125 -0.1361  0.9445
 2739SOL     OW19849   2.094   1.369   1.911  0.4629  0.0977 -0.4368
 2739SOL    HW119850   2.033   1.301   1.881 -0.6194  1.5035 -1.4288
 2739SOL    HW219851   2.173   1.346   1.864  1.6127  2.8285  0.1626
 2740SOL     OW19852   0.201   1.393   0.193 -0.1837  0.5850 -0.5521
 2740SOL    HW119853   0.160   1.321   0.241  1.6351  0.1460  0.3111
 2740SOL    HW219854   0.166   1.387   0.104  1.8027  0.9018 -1.3554
 2741SOL     OW19855   4.623   1.986   8.201  0.0918 -0.3229 -0.3913
 2741SOL    HW119856   4.692   2.036   8.158 -0.3654  0.2905 -0.4063
 2741SOL    HW219857   4.552   1.981   8.136 -1.3259 -0.8185  1.1960
 2742SOL     OW19858   4.635   1.274   2.389  0.3754 -0.3332  0.0781
 2742SOL    HW119859   4.674   1.279   2.302  1.1266  0.8953  0.4814
 2742SOL    HW219860   4.540   1.285   2.377  0.1128 -0.8191  1.7495
 2743SOL     OW19861   0.096   4.311   7.181 -0.3120 -0.4233  0.2497
 2743SOL    HW119862   0.002   4.311   7.160  0.1326  0.5278 -1.7830
 2743SOL    HW219863   0.096   4.352   7.268  0.9664 -0.2240  0.1447
 2744SOL     OW19864   1.669   1.122   9.104  0.0100 -0.0011  0.9513
 2744SOL    HW119865   1.654   1.174   9.025 -3.8887  1.0045  2.3611
 2744SOL    HW219866   1.597   1.162   9.153  0.4388  2.7745 -0.6851
 2745SOL     OW19867   0.880   2.396  10.528 -0.0171  0.7448 -0.1549
 2745SOL    HW119868   0.950   2.337  10.559 -0.1492  0.6583 -0.0214
 2745SOL    HW219869   0.831   2.418  10.607  2.6016  1.9461  1.1625
 2746SOL     OW19870   2.261   3.182  13.934 -0.1072  0.3913  0.1689
 2746SOL    HW119871   2.215   3.112  13.978  1.0305  0.6499  1.7841
 2746SOL    HW219872   2.265   3.150  13.844 -0.6217 -0.9682  0.6399
 2747SOL     OW19873   4.427   2.327  11.477  0.2364  0.6478 -0.7521
 2747SOL    HW119874   4.450   2.239  11.445  0.3289  0.1625  0.6538
 2747SOL    HW219875   4.476   2.375  11.409  0.9003 -1.0307 -1.4566
 2748SOL     OW19876   4.523   3.579   3.353  0.3356  0.1230 -0.4915
 2748SOL    HW119877   4.430   3.585   3.375  0.4406  0.7603 -0.2284
 2748SOL    HW219878   4.567   3.532   3.424 -2.8674  0.0061  1.4216
 2749SOL     OW19879   4.669   1.509   7.916  0.0188  0.5239  0.2271
 2749SOL    HW119880   4.600   1.539   7.975  1.2626  3.1629  0.3747
 2749SOL    HW219881   4.631   1.441   7.861  0.5920 -0.2656  0.8169
 2750SOL     OW19882   4.245   1.102   9.248  0.2231 -0.1456 -0.3442
 2750SOL    HW119883   4.210   1.039   9.311 -0.7736  0.0065 -0.7371
 2750SOL    HW219884   4.196   1.080   9.168  0.6826 -0.5094 -0.5218
 2751SOL     OW19885   1.634   4.009   5.326 -0.4457  0.5390 -0.0569
 2751SOL    HW119886   1.544   3.975   5.319 -0.4366  0.8438 -1.5775
 2751SOL    HW219887   1.658   3.999   5.419 -1.5383  0.6558  0.2369
 2752SOL     OW19888   4.724   4.011  15.051  0.2073  0.2463 -0.5452
 2752SOL    HW119889   4.701   4.092  15.006 -0.9734 -0.5740 -1.4205
 2752SOL    HW219890   0.023   4.041  15.134 -0.2499  1.7954 -0.9047
 2753SOL     OW19891   1.940   2.706   3.312  0.3260  0.4124  0.4026
 2753SOL    HW119892   1.889   2.688   3.391 -0.1294 -0.4102 -0.0775
 2753SOL    HW219893   1.877   2.742   3.251  0.6383  1.8266  0.9222
 2754SOL     OW19894   2.230   1.403   8.276  0.1917  0.8513  0.2953
 2754SOL    HW119895   2.162   1.427   8.339 -0.3536  1.5520 -0.5634
 2754SOL    HW219896   2.194   1.345   8.209 -1.5445 -0.8488  2.7004
 2755SOL     OW19897   1.475   0.301   6.795 -0.3352 -0.4281 -0.2367
 2755SOL    HW119898   1.470   0.338   6.883  2.0611 -1.0833  0.1855
 2755SOL    HW219899   1.530   0.223   6.799 -0.8155 -0.7865 -0.6151
 2756SOL     OW19900   1.842   3.020   3.365 -0.1069 -0.1014 -0.4053
 2756SOL    HW119901   1.795   3.032   3.283 -2.3484  0.7562  1.0047
 2756SOL    HW219902   1.770   2.981   3.414  0.5641 -1.3396 -0.3985
 2757SOL     OW19903   1.608   4.631  16.568 -0.1831  0.2538 -0.5099
 2757SOL    HW119904   1.662   4.556  16.590 -0.3181  0.4707  0.5761
 2757SOL    HW219905   1.527   4.580  16.578 -0.6392  1.1793  0.4645
 2758SOL     OW19906   3.161   4.012   7.793  0.0800 -0.0244  0.1354
 2758SOL    HW119907   3.153   4.099   7.833 -1.5308  1.0823 -2.6111
 2758SOL    HW219908   3.158   4.026   7.699  0.3521  0.5142  0.2042
 2759SOL     OW19909   2.074   4.208   3.728 -0.0032 -0.2703 -0.2951
 2759SOL    HW119910   2.142   4.247   3.783  0.2348  0.8706 -1.3873
 2759SOL    HW219911   1.992   4.229   3.774  0.6490  0.8728  0.3577
 2760SOL     OW19912   1.130   2.945  13.981 -0.0855  0.1074  0.3291
 2760SOL    HW119913   1.161   3.013  13.922  0.0457 -2.3123 -2.3637
 2760SOL    HW219914   1.207   2.892  13.998  0.8315  1.0376 -0.9646
 2761SOL     OW19915   1.381   3.586   7.160 -0.5284 -0.1251  0.0161
 2761SOL    HW119916   1.326   3.635   7.220 -0.3697  1.8660 -1.4622
 2761SOL    HW219917   1.459   3.641   7.151  0.1813 -1.0138  0.8499
 2762SOL     OW19918   2.235   0.790   0.133  0.3426 -0.3095 -0.6231
 2762SOL    HW119919   2.325   0.762   0.150  0.7062  0.5165 -1.1633
 2762SOL    HW219920   2.241   0.813   0.040  0.6513  0.3694 -0.4377
 2763SOL     OW19921   4.165   2.811  12.025 -0.5139 -0.0226 -0.6007
 2763SOL    HW119922   4.190   2.761  11.947  1.1537 -0.3577  0.1638
 2763SOL    HW219923   4.087   2.764  12.055 -0.2711 -1.2096 -1.7731
 2764SOL     OW19924   1.704   2.146  13.288 -0.3103 -0.2870 -0.0496
 2764SOL    HW119925   1.636   2.182  13.344 -1.0141 -0.4620 -0.7917
 2764SOL    HW219926   1.730   2.229  13.249 -1.0499  0.2749  0.6601
 2765SOL     OW19927   3.351   2.232  15.658  0.0309 -0.2989 -0.1429
 2765SOL    HW119928   3.365   2.216  15.564  1.3907 -2.3594  0.4164
 2765SOL    HW219929   3.343   2.140  15.683 -0.2249 -0.7157 -1.7060
 2766SOL     OW19930   0.395   4.727   3.676 -0.4737  0.2992  0.3502
 2766SOL    HW119931   0.344   4.646   3.670 -0.8312  0.5361  0.1861
 2766SOL    HW219932   0.414   4.720   3.769  0.8981  1.9372  0.1794
 2767SOL     OW19933   2.457   0.193   8.788  0.0237 -0.0570  0.4126
 2767SOL    HW119934   2.396   0.258   8.753  1.4244  0.4899 -0.9813
 2767SOL    HW219935   2.490   0.151   8.709  2.5807  1.5049  0.6217
 2768SOL     OW19936   3.170   1.229  13.234 -0.1613 -0.5624  0.0056
 2768SOL    HW119937   3.156   1.323  13.248 -0.3631 -0.3549 -1.6017
 2768SOL    HW219938   3.201   1.197  13.319  0.3721 -1.6846 -0.6133
 2769SOL     OW19939   1.089   0.911   7.522  0.1019  0.3056 -0.2753
 2769SOL    HW119940   1.049   0.972   7.460 -0.5825  0.4348  0.3010
 2769SOL    HW219941   1.079   0.830   7.471  1.8925  1.0989 -1.8800
 2770SOL     OW19942   2.518   2.270   2.788  0.0735 -0.3378  0.3529
 2770SOL    HW119943   2.524   2.325   2.710  1.8903 -0.1699  0.6126
 2770SOL    HW219944   2.518   2.328   2.863 -0.4531  1.6418 -1.1941
 2771SOL     OW19945   2.117   4.664  13.111  0.2206  1.0914  0.5501
 2771SOL    HW119946   2.109   4.712  13.193  0.4738 -1.2412  1.9196
 2771SOL    HW219947   2.162   4.728  13.055 -1.2165  0.0859 -1.7373
 2772SOL     OW19948   4.538   2.143   2.555 -0.5137 -0.4852 -0.5656
 2772SOL    HW119949   4.465   2.082   2.563  0.0985 -1.2434 -0.7422
 2772SOL    HW219950   4.521   2.210   2.620 -0.0887 -1.0856  0.1643
 2773SOL     OW19951   0.437   1.517   3.349  0.3219  0.2970  0.5904
 2773SOL    HW119952   0.355   1.474   3.376  0.2678  0.0967  0.1087
 2773SOL    HW219953   0.478   1.527   3.435  1.5875 -1.0712  0.1444
 2774SOL     OW19954   3.047   3.404  10.521  0.3566  0.4459  0.3705
 2774SOL    HW119955   2.965   3.390  10.473  1.4293 -1.4973 -0.8840
 2774SOL    HW219956   3.058   3.499  10.518 -0.7858  0.5596 -0.6744
 2775SOL     OW19957   0.371   4.520   5.917  0.9779  0.7324 -0.1112
 2775SOL    HW119958   0.420   4.446   5.953  0.4194 -1.0392 -3.0181
 2775SOL    HW219959   0.382   4.588   5.984  0.3646  0.4850  0.2443
 2776SOL     OW19960   2.732   0.251   4.256  0.0625 -0.5274 -0.4443
 2776SOL    HW119961   2.707   0.266   4.347  0.2296  0.3692 -0.5430
 2776SOL    HW219962   2.685   0.169   4.242  1.2029 -1.5200  1.5207
 2777SOL     OW19963   1.373   0.991   7.497 -0.1643 -0.0411  0.3552
 2777SOL    HW119964   1.336   1.072   7.531 -0.0474  0.4586 -0.7129
 2777SOL    HW219965   1.289   0.948   7.481 -0.0455 -0.1205 -0.0465
 2778SOL     OW19966   3.014   1.660   6.436  0.3127 -0.2263 -0.5461
 2778SOL    HW119967   3.032   1.744   6.394 -0.8488 -0.1237 -0.8550
 2778SOL    HW219968   2.927   1.671   6.475  0.3387 -1.7185 -0.0512
 2779SOL     OW19969   4.598   2.946   7.715  0.0861  0.5846  0.1733
 2779SOL    HW119970   4.616   3.029   7.761 -0.0639  1.3298 -1.1297
 2779SOL    HW219971   4.581   2.883   7.786  1.2487 -0.1256 -0.1921
 2780SOL     OW19972   2.700   1.440   3.231  0.2870  0.3203 -0.2194
 2780SOL    HW119973   2.794   1.449   3.244  0.5897 -1.4034 -1.1589
 2780SOL    HW219974   2.686   1.391   3.149 -0.1283  0.9783 -0.5366
 2781SOL     OW19975   2.190   3.229   9.818  0.0326  0.2673 -0.1662
 2781SOL    HW119976   2.233   3.184   9.745 -1.9236 -1.5223 -0.2049
 2781SOL    HW219977   2.231   3.315   9.823  0.3937  0.0173  1.0349
 2782SOL     OW19978   2.080   1.545  11.913 -0.3714 -0.3596  0.0513
 2782SOL    HW119979   2.090   1.571  12.004  3.4059  1.4234 -0.9218
 2782SOL    HW219980   2.018   1.607  11.874 -1.9626 -1.7939  0.2590
 2783SOL     OW19981   1.386   2.992   1.405  0.5629 -0.2506  0.0168
 2783SOL    HW119982   1.417   3.064   1.350 -0.9450  0.6946  0.4031
 2783SOL    HW219983   1.294   3.001   1.378  0.4638  0.8200  0.7276
 2784SOL     OW19984   1.651   0.357   4.919 -0.2073 -0.5211 -0.1094
 2784SOL    HW119985   1.578   0.352   4.980 -0.8304  0.0918 -0.8009
 2784SOL    HW219986   1.620   0.427   4.861  0.7587  0.4238  0.5074
 2785SOL     OW19987   3.284   4.440   6.563 -0.0212  0.6566 -0.4051
 2785SOL    HW119988   3.365   4.425   6.514 -0.0122 -1.4077  0.2396
 2785SOL    HW219989   3.279   4.363   6.620  0.5669 -1.3418 -3.0155
 2786SOL     OW19990   2.880   0.369   4.568 -0.0545 -0.4613 -0.0399
 2786SOL    HW119991   2.794   0.326   4.569  0.5465 -1.6378  0.8629
 2786SOL    HW219992   2.872   0.429   4.642 -2.3671 -1.3557  0.4318
 2787SOL     OW19993   3.505   4.580   4.611  0.6679 -0.4143  0.4172
 2787SOL    HW119994   3.437   4.620   4.665 -1.2736 -0.7904 -1.7608
 2787SOL    HW219995   3.470   4.505   4.563  0.0139 -0.4341  0.9278
 2788SOL     OW19996   3.763   4.640   4.717  0.6130 -0.3321  0.1673
 2788SOL    HW119997   3.742   4.625   4.809 -3.5087  2.6631 -0.2550
 2788SOL    HW219998   3.688   4.599   4.673  1.1584 -0.7610 -0.3540
 2789SOL     OW19999   1.644   3.429   9.536  0.2610  0.0467 -0.8398
 2789SOL    HW120000   1.594   3.462   9.461 -1.3173  1.2942  0.7515
 2789SOL    HW220001   1.612   3.488   9.606  1.0213 -2.0030  1.2252
 2790SOL     OW20002   0.146   2.476   3.628  0.1016 -0.1053  0.0844
 2790SOL    HW120003   0.238   2.467   3.654  0.5543  1.3233 -1.0308
 2790SOL    HW220004   0.124   2.533   3.702 -1.3111  1.8442 -1.8380
 2791SOL     OW20005   2.855   2.662   9.577 -0.2738 -0.0716  0.4541
 2791SOL    HW120006   2.862   2.745   9.623 -0.0847  1.0154 -1.5464
 2791SOL    HW220007   2.879   2.599   9.646 -1.5533 -1.1061 -0.0312
 2792SOL     OW20008   1.415   0.870   3.906 -0.5716 -0.0499 -0.0639
 2792SOL    HW120009   1.446   0.861   3.816  0.6733 -2.0998  0.5891
 2792SOL    HW220010   1.449   0.959   3.915  0.8514 -0.7496  1.5045
 2793SOL     OW20011   1.187   0.559   7.014  0.5104 -0.0361 -0.1460
 2793SOL    HW120012   1.241   0.619   7.064  0.1085 -2.1477  2.8388
 2793SOL    HW220013   1.102   0.603   7.005  0.3361 -0.2404  0.4765
 2794SOL     OW20014   3.491   1.893   8.951  0.7153 -0.3284  0.0929
 2794SOL    HW120015   3.543   1.971   8.933  0.1101  0.1644  0.4699
 2794SOL    HW220016   3.519   1.864   9.037  0.0558 -3.5984 -0.7902
 2795SOL     OW20017   2.074   3.668   7.179  0.1500 -0.0756  0.0804
 2795SOL    HW120018   2.098   3.645   7.269 -0.1419  0.4836  0.2994
 2795SOL    HW220019   1.979   3.666   7.190  0.4697  0.9926  2.8407
 2796SOL     OW20020   3.917   3.976   4.558 -0.4064 -0.0349  0.0217
 2796SOL    HW120021   3.875   3.894   4.585  1.0970 -1.8420 -3.0551
 2796SOL    HW220022   3.907   4.019   4.643  3.3393 -0.4080  0.6391
 2797SOL     OW20023   3.789   3.756  10.099 -0.0246  0.1969 -0.3644
 2797SOL    HW120024   3.732   3.799  10.035 -1.1381 -2.4054 -1.1324
 2797SOL    HW220025   3.794   3.819  10.171  3.4751 -1.2157  0.6165
 2798SOL     OW20026   1.446   4.386   7.407 -0.2553  0.3112  0.5527
 2798SOL    HW120027   1.398   4.391   7.489 -0.2147 -2.5899  0.7646
 2798SOL    HW220028   1.524   4.347   7.445 -1.2589 -0.0121  2.2675
 2799SOL     OW20029   1.740   1.506   4.969  0.2186  0.3206  0.0089
 2799SOL    HW120030   1.764   1.598   4.981  1.6251  0.3108 -2.6144
 2799SOL    HW220031   1.791   1.485   4.891  0.7947  1.2263  0.1398
 2800SOL     OW20032   2.095   3.325   0.435  0.4967 -0.1284 -0.3372
 2800SOL    HW120033   2.111   3.260   0.367 -1.4713 -0.1959 -0.7554
 2800SOL    HW220034   2.017   3.362   0.393  0.5555  0.0770 -0.2643
 2801SOL     OW20035   3.312   0.908   7.094 -0.3813 -0.2631  0.4260
 2801SOL    HW120036   3.221   0.880   7.105  0.3360 -2.5081  0.6633
 2801SOL    HW220037   3.342   0.910   7.185  0.6410 -1.2687  0.1002
 2802SOL     OW20038   4.392   3.229  10.532 -0.1413  0.3107 -0.1748
 2802SOL    HW120039   4.432   3.144  10.521  0.2328  0.3232  1.0659
 2802SOL    HW220040   4.317   3.228  10.472 -0.1995 -1.1138 -0.0611
 2803SOL     OW20041   2.617   2.796  10.547  0.7512  0.5545  0.0862
 2803SOL    HW120042   2.649   2.879  10.583 -0.4008  1.0534 -0.0337
 2803SOL    HW220043   2.695   2.744  10.564 -0.1334 -0.5328  0.9021
 2804SOL     OW20044   0.001   0.908   2.046 -0.0008 -0.0773 -0.5066
 2804SOL    HW120045   0.014   0.991   1.999  1.8696 -0.2550 -0.3005
 2804SOL    HW220046   0.044   0.844   1.990  1.3084  1.8334 -1.7124
 2805SOL     OW20047   0.901   0.861  12.166 -0.2418 -0.3101  0.3642
 2805SOL    HW120048   0.911   0.862  12.071 -2.0887  1.2063  0.1985
 2805SOL    HW220049   0.813   0.823  12.170 -0.0068 -0.6498  2.5944
 2806SOL     OW20050   4.589   4.439   5.771 -0.0015  0.5052 -0.4924
 2806SOL    HW120051   4.596   4.506   5.839  1.2654 -0.9530  0.8074
 2806SOL    HW220052   4.518   4.387   5.809  0.5322  0.2566  0.1691
 2807SOL     OW20053   0.364   3.389  15.112 -0.7307  0.3090 -0.7046
 2807SOL    HW120054   0.457   3.381  15.090 -0.5432 -2.0462  1.0288
 2807SOL    HW220055   0.382   3.413  15.203  1.3567  1.9796 -1.5339
 2808SOL     OW20056   1.420   2.928   6.312  0.3895  0.5801 -0.3705
 2808SOL    HW120057   1.385   2.863   6.252 -1.0117  1.9205 -1.0234
 2808SOL    HW220058   1.358   2.927   6.384 -1.8026 -1.2118 -2.3013
 2809SOL     OW20059   4.052   3.995   5.129 -0.2733  0.0289  0.2371
 2809SOL    HW120060   4.076   3.924   5.188 -1.5639 -1.2834 -0.8199
 2809SOL    HW220061   4.077   3.969   5.041 -0.8581 -1.0922  0.3940
 2810SOL     OW20062   1.369   3.735  11.103  0.6458  0.8651  0.5670
 2810SOL    HW120063   1.368   3.658  11.046  2.0872  0.9068  0.4913
 2810SOL    HW220064   1.280   3.764  11.080 -0.0165 -1.1516  0.5974
 2811SOL     OW20065   4.736   0.759   4.750 -0.6999  0.1688 -0.0063
 2811SOL    HW120066   4.737   0.670   4.714  1.1319  0.6633 -1.1538
 2811SOL    HW220067   0.067   0.748   4.815  1.7794 -0.2713 -2.7194
 2812SOL     OW20068   3.300   1.866   3.229 -0.1421  0.1791 -0.6433
 2812SOL    HW120069   3.258   1.834   3.309 -0.7861 -1.9378 -1.8462
 2812SOL    HW220070   3.227   1.897   3.176 -1.2103  0.6357  1.1009
 2813SOL     OW20071   1.035   2.680   5.269  0.6759  0.0754 -0.6889
 2813SOL    HW120072   1.060   2.754   5.325 -0.2855 -0.7611  0.8663
 2813SOL    HW220073   1.117   2.631   5.268  1.7697  1.7630  4.2844
 2814SOL     OW20074   4.145   4.547   8.130  0.3174  0.6075  0.1061
 2814SOL    HW120075   4.100   4.578   8.051 -0.7069 -1.0549  0.0512
 2814SOL    HW220076   4.212   4.615   8.136  0.1662  0.6002  1.7132
 2815SOL     OW20077   3.944   0.222   2.800  0.0880 -0.1632  0.6719
 2815SOL    HW120078   3.911   0.189   2.883 -0.5031 -4.0582 -1.1006
 2815SOL    HW220079   3.895   0.304   2.799  1.7878  0.8487 -1.0668
 2816SOL     OW20080   1.134   3.734   6.160 -0.5891  0.5511  0.1577
 2816SOL    HW120081   1.052   3.776   6.186 -1.0097 -0.1372 -0.0486
 2816SOL    HW220082   1.128   3.684   6.078  0.2611  1.0390 -0.2105
 2817SOL     OW20083   3.348   3.218   2.646  0.1976 -0.1723  0.7716
 2817SOL    HW120084   3.400   3.282   2.695 -2.1998  1.9247  0.5316
 2817SOL    HW220085   3.281   3.272   2.607 -0.9516 -1.7599  0.5357
 2818SOL     OW20086   1.064   0.731   7.323  0.2899  0.3924  0.1313
 2818SOL    HW120087   1.056   0.637   7.307  2.1449  0.2866 -0.1839
 2818SOL    HW220088   1.042   0.752   7.232  1.2194 -1.8280 -0.6147
 2819SOL     OW20089   0.448   2.181   4.475 -0.0370 -0.1559 -0.4453
 2819SOL    HW120090   0.420   2.142   4.558  1.0363  1.4680  0.6992
 2819SOL    HW220091   0.474   2.104   4.424  1.2541  0.3010 -0.4871
 2820SOL     OW20092   3.800   4.400   5.496 -0.4094 -0.0264 -0.2343
 2820SOL    HW120093   3.884   4.393   5.452 -1.6839  1.7508 -2.9168
 2820SOL    HW220094   3.759   4.329   5.448  0.4215 -1.6772  1.4680
 2821SOL     OW20095   0.533   1.778   5.953 -0.2008  0.0846 -0.0653
 2821SOL    HW120096   0.626   1.758   5.966 -0.7654 -1.1604  1.9281
 2821SOL    HW220097   0.529   1.766   5.858 -0.6403  2.0769 -0.3141
 2822SOL     OW20098   2.720   0.488   3.219 -0.0811 -0.3413 -0.3648
 2822SOL    HW120099   2.680   0.575   3.213  1.8741  0.4901 -1.4139
 2822SOL    HW220100   2.638   0.440   3.208 -0.9735  1.1590 -0.2998
 2823SOL     OW20101   0.112   4.606  11.356  0.1718 -0.3311  0.1575
 2823SOL    HW120102   0.102   4.568  11.269  0.4538  0.0764 -0.0584
 2823SOL    HW220103   0.036   4.571  11.403 -1.3577  0.0309 -2.0589
 2824SOL     OW20104   0.416   2.040  12.243  0.5178  0.2545  0.2131
 2824SOL    HW120105   0.369   2.120  12.221  0.0628  0.1202  0.6856
 2824SOL    HW220106   0.445   2.016  12.155  0.0063 -1.4910  0.5060
 2825SOL     OW20107   0.100   0.185   6.921 -0.1024  0.3068 -0.5814
 2825SOL    HW120108   0.049   0.148   6.994  0.0435 -0.2984 -0.7832
 2825SOL    HW220109   0.165   0.232   6.973 -0.0821 -0.3363 -0.0109
 2826SOL     OW20110   4.026   1.830  10.635 -0.0830 -0.4153  0.3536
 2826SOL    HW120111   4.009   1.838  10.541  0.0847  0.3042  0.3797
 2826SOL    HW220112   4.048   1.920  10.659 -0.2938 -0.3149  0.1687
 2827SOL     OW20113   0.490   0.484   0.290  0.2548 -0.4160  0.0797
 2827SOL    HW120114   0.411   0.529   0.321 -0.9310 -1.1978 -1.8293
 2827SOL    HW220115   0.550   0.555   0.312  0.1443 -0.6748  1.2294
 2828SOL     OW20116   3.703   4.580  11.999 -0.4343  0.6483  0.4927
 2828SOL    HW120117   3.631   4.535  11.954 -0.3581 -0.1105  1.1467
 2828SOL    HW220118   3.689   4.563  12.092  0.7422  0.6628  0.6680
 2829SOL     OW20119   0.608   4.407   5.521 -0.0752  0.0778  0.1071
 2829SOL    HW120120   0.680   4.379   5.465 -1.6952 -3.4867 -0.1683
 2829SOL    HW220121   0.584   4.322   5.557 -0.5696  0.2963  0.2871
 2830SOL     OW20122   2.980   0.971  15.906 -0.0396 -0.1935 -0.3478
 2830SOL    HW120123   2.988   1.057  15.946 -0.7817 -1.0690  1.6605
 2830SOL    HW220124   2.897   0.977  15.858  0.1745  0.9911 -0.5583
 2831SOL     OW20125   2.333   2.064   4.838  0.6196  0.0377  0.3618
 2831SOL    HW120126   2.393   2.058   4.911 -1.2424  0.0956  1.8919
 2831SOL    HW220127   2.359   2.146   4.797  1.1930 -0.4362 -0.2254
 2832SOL     OW20128   0.840   0.887   6.298  0.0247  0.0540  0.4760
 2832SOL    HW120129   0.834   0.839   6.215  1.4907 -3.1723  2.2362
 2832SOL    HW220130   0.860   0.977   6.271 -1.3524  0.2395  0.0876
 2833SOL     OW20131   1.827   4.559   9.416  0.4066 -0.8212 -0.2277
 2833SOL    HW120132   1.735   4.570   9.440  0.2483  0.8902 -1.5822
 2833SOL    HW220133   1.825   4.624   9.345  1.4750 -0.3487  0.1714
 2834SOL     OW20134   1.919   1.692   4.814  0.1048 -0.1772 -0.3188
 2834SOL    HW120135   1.909   1.606   4.775  2.0467  0.1951 -1.6545
 2834SOL    HW220136   2.008   1.721   4.792  1.4078 -1.5133  3.1785
 2835SOL     OW20137   0.739   2.431   1.915 -0.2572  0.3371 -0.2159
 2835SOL    HW120138   0.769   2.348   1.879 -0.5954  0.2870 -0.3771
 2835SOL    HW220139   0.720   2.400   2.004  0.6768 -1.3987 -0.6380
 2836SOL     OW20140   4.262   3.777   6.938 -0.8484  0.2597 -0.1368
 2836SOL    HW120141   4.189   3.827   6.901 -0.0055  0.6539 -1.2502
 2836SOL    HW220142   4.220   3.766   7.024 -1.3738  1.7291 -0.2187
 2837SOL     OW20143   1.932   0.990   9.530  0.0265 -0.3875 -0.0440
 2837SOL    HW120144   1.881   0.930   9.476 -2.3017  0.8124  0.8238
 2837SOL    HW220145   2.024   0.973   9.507 -0.4646 -0.3979 -1.9879
 2838SOL     OW20146   3.092   1.752   5.084 -0.4773  0.3419 -0.1863
 2838SOL    HW120147   3.046   1.732   5.002  0.7401 -0.4324 -0.6858
 2838SOL    HW220148   3.117   1.666   5.116  0.0726  0.9808  1.0917
 2839SOL     OW20149   0.925   0.559   5.602  0.6100  0.1430  0.4413
 2839SOL    HW120150   0.878   0.631   5.645  1.0922  1.2515 -0.8707
 2839SOL    HW220151   1.011   0.600   5.611  1.0440 -0.4244 -0.9819
 2840SOL     OW20152   4.073   2.791   5.583  0.2182 -0.3073  0.1447
 2840SOL    HW120153   3.984   2.763   5.603  0.6671 -1.7211  0.1653
 2840SOL    HW220154   4.113   2.773   5.668  1.4886 -0.3463 -0.4603
 2841SOL     OW20155   2.533   0.404  10.515 -0.5710  0.1074  0.4401
 2841SOL    HW120156   2.580   0.342  10.459 -1.0720  0.7486 -0.7039
 2841SOL    HW220157   2.572   0.491  10.503 -1.2600  0.0780 -2.0787
 2842SOL     OW20158   3.363   0.161  12.170  0.4713  0.0122 -0.2773
 2842SOL    HW120159   3.391   0.253  12.166  2.3627 -0.5058  0.9368
 2842SOL    HW220160   3.269   0.176  12.161  0.5607  0.4801 -0.4575
 2843SOL     OW20161   4.303   2.965  15.634  0.0281  0.3008  0.0525
 2843SOL    HW120162   4.384   3.005  15.603  0.3326  0.0084  0.4601
 2843SOL    HW220163   4.246   3.041  15.641  0.1497  0.3773  0.2174
 2844SOL     OW20164   2.359   0.159   9.239  0.3858 -0.3111  0.2995
 2844SOL    HW120165   2.359   0.255   9.234  1.1759 -0.4447 -2.0477
 2844SOL    HW220166   2.303   0.152   9.316 -0.4009  1.1624 -0.1299
 2845SOL     OW20167   4.134   4.049   5.418 -0.6228  0.0090  0.0361
 2845SOL    HW120168   4.170   4.080   5.335  0.6236 -0.7275  0.3132
 2845SOL    HW220169   4.046   4.085   5.404 -0.9873 -0.1470  1.9327
 2846SOL     OW20170   4.316   1.894   9.184  0.0955  0.3648 -0.2841
 2846SOL    HW120171   4.338   1.855   9.268 -2.3989  1.2952  0.7991
 2846SOL    HW220172   4.344   1.826   9.122 -1.2034 -0.1900 -0.2656
 2847SOL     OW20173   3.437   0.159   1.764 -0.2998 -0.3403  0.0617
 2847SOL    HW120174   3.493   0.195   1.833  0.7476  0.3557 -1.1561
 2847SOL    HW220175   3.500   0.144   1.695  0.1115  0.4714  0.2552
 2848SOL     OW20176   1.243   0.615   2.052  0.1208  0.1915 -0.3153
 2848SOL    HW120177   1.149   0.598   2.063  0.0625  0.5769 -0.2095
 2848SOL    HW220178   1.269   0.587   2.140 -0.6845  1.9458  0.4857
 2849SOL     OW20179   2.845   4.150  13.580  0.2547 -0.0744 -0.6765
 2849SOL    HW120180   2.801   4.066  13.593  0.3498  0.0091  0.1700
 2849SOL    HW220181   2.838   4.167  13.486  0.4708 -2.0646 -1.0585
 2850SOL     OW20182   1.707   4.490   2.995  0.0370 -0.1040  0.6537
 2850SOL    HW120183   1.733   4.432   2.924 -0.7175  1.1324 -0.6429
 2850SOL    HW220184   1.612   4.490   2.980  0.0647  0.0502  0.4871
 2851SOL     OW20185   1.223   4.361  13.560 -0.1094 -0.1655 -0.0510
 2851SOL    HW120186   1.317   4.371  13.546  0.0884  0.1760  1.5180
 2851SOL    HW220187   1.207   4.324  13.474  1.3199  0.1223 -0.4405
 2852SOL     OW20188   1.438   0.216  15.288  0.3934 -0.2020 -0.2613
 2852SOL    HW120189   1.455   0.163  15.366  0.7093  1.5589  0.8624
 2852SOL    HW220190   1.344   0.200  15.280  0.1107  1.4186 -0.0489
 2853SOL     OW20191   2.532   2.444   2.577 -0.1689  0.3573 -0.3888
 2853SOL    HW120192   2.479   2.516   2.611  1.6471  2.1775 -1.3841
 2853SOL    HW220193   2.465   2.398   2.528 -0.0758 -1.1219  0.8886
 2854SOL     OW20194   1.192   3.668   0.480 -0.2558  0.2839 -0.0733
 2854SOL    HW120195   1.262   3.640   0.420 -0.0958  0.8357 -0.1366
 2854SOL    HW220196   1.216   3.755   0.511  0.2481 -0.4065  1.4692
 2855SOL     OW20197   1.895   3.402  12.925  0.1276  0.3340  0.4560
 2855SOL    HW120198   1.904   3.496  12.944  1.1360  0.3156  0.0799
 2855SOL    HW220199   1.948   3.405  12.845 -1.2770 -1.7401 -0.5347
 2856SOL     OW20200   0.244   0.889   0.993  0.0373 -0.1398  0.7447
 2856SOL    HW120201   0.175   0.822   1.001 -0.0184 -0.2216 -0.4607
 2856SOL    HW220202   0.271   0.874   0.902 -2.2422  0.5086 -0.0369
 2857SOL     OW20203   0.708   0.144  11.111 -0.5474 -0.3366  0.2132
 2857SOL    HW120204   0.712   0.068  11.054  0.6467 -0.0279 -0.1238
 2857SOL    HW220205   0.747   0.101  11.188  1.1508 -0.0262 -0.4680
 2858SOL     OW20206   0.029   3.301   1.680  0.2504  0.0230  0.1807
 2858SOL    HW120207   4.733   3.269   1.596 -1.2844 -2.2850  1.6547
 2858SOL    HW220208   4.721   3.243   1.741 -2.5798  1.5153 -0.5457
 2859SOL     OW20209   3.859   3.940   7.235  0.0238  0.2276  0.2081
 2859SOL    HW120210   3.785   3.998   7.253  1.1965  1.6357  0.5299
 2859SOL    HW220211   3.885   3.892   7.314 -0.9315  0.3866  0.6240
 2860SOL     OW20212   0.302   1.325   8.778 -0.3474 -0.6243  0.7443
 2860SOL    HW120213   0.224   1.333   8.724 -1.3535 -1.1811  2.1109
 2860SOL    HW220214   0.370   1.372   8.730  0.7559 -1.1820  1.7389
 2861SOL     OW20215   0.166   2.161  12.075 -0.0844  0.1426  0.1343
 2861SOL    HW120216   0.187   2.108  11.997 -1.3696  0.5388 -0.4773
 2861SOL    HW220217   0.081   2.126  12.101 -0.5976 -0.3597 -2.1634
 2862SOL     OW20218   4.374   0.112   1.329 -0.3744  0.0462 -0.3372
 2862SOL    HW120219   4.292   0.104   1.280  0.1888 -0.3979 -1.1972
 2862SOL    HW220220   4.374   0.020   1.355 -3.1239  0.1208 -0.0783
 2863SOL     OW20221   1.655   0.854   9.145  0.6782 -0.5186 -0.3613
 2863SOL    HW120222   1.649   0.806   9.062  0.4472  0.0393 -0.6638
 2863SOL    HW220223   1.657   0.945   9.117  0.2304 -0.6324 -0.7798
 2864SOL     OW20224   2.950   1.324   8.610  0.6903 -0.6191  0.3048
 2864SOL    HW120225   3.045   1.316   8.600  1.0591  2.2968  1.3419
 2864SOL    HW220226   2.915   1.243   8.573  0.7528 -1.3451  1.8497
 2865SOL     OW20227   2.238   3.164   3.655  0.0503  0.7058  0.1330
 2865SOL    HW120228   2.192   3.098   3.604  0.9911  0.5989 -0.5800
 2865SOL    HW220229   2.240   3.127   3.743 -0.9623 -0.8172 -0.4874
 2866SOL     OW20230   2.761   2.841   2.243 -0.2849 -0.1796  0.3883
 2866SOL    HW120231   2.701   2.900   2.197  1.0612  0.5394 -0.4510
 2866SOL    HW220232   2.774   2.763   2.188  3.5392 -0.7949  2.1963
 2867SOL     OW20233   0.317   1.937  13.711  0.1807  0.1657 -0.2700
 2867SOL    HW120234   0.266   2.014  13.733 -1.4940 -0.8047 -0.7256
 2867SOL    HW220235   0.248   1.873  13.728  1.6436 -1.2110  0.4503
 2868SOL     OW20236   0.383   4.313   8.691  0.1016  0.3379 -0.5699
 2868SOL    HW120237   0.407   4.406   8.685  2.0920 -0.2414 -1.7424
 2868SOL    HW220238   0.446   4.267   8.635 -0.8183  0.6821 -1.8914
 2869SOL     OW20239   0.752   4.480   5.894  0.2874 -0.7362 -0.0575
 2869SOL    HW120240   0.686   4.413   5.913  1.4191 -0.9893  3.0413
 2869SOL    HW220241   0.794   4.477   5.980  0.9667 -0.1527 -0.3741
 2870SOL     OW20242   3.027   2.974   8.304 -0.4402 -0.1179  0.0539
 2870SOL    HW120243   2.953   2.914   8.299 -0.2452 -0.4678  1.1776
 2870SOL    HW220244   3.017   3.010   8.393  0.2246 -1.4604  0.6663
 2871SOL     OW20245   3.743   3.541  15.487 -1.0277  0.8901 -0.1793
 2871SOL    HW120246   3.725   3.623  15.441 -1.7309  1.5658  1.3385
 2871SOL    HW220247   3.666   3.487  15.464  0.6888 -1.0511 -1.4084
 2872SOL     OW20248   0.714   4.251  17.657 -0.2747 -0.1380  0.1361
 2872SOL    HW120249   0.624   4.272  17.632  0.2710  3.2888  1.0602
 2872SOL    HW220250   0.745   4.239  17.567  0.2607  1.6352  0.0858
 2873SOL     OW20251   0.557   4.104   4.539 -0.3470  0.1568  0.6971
 2873SOL    HW120252   0.520   4.103   4.450 -0.1754  0.4045  0.6236
 2873SOL    HW220253   0.650   4.088   4.524 -0.8822 -0.6962 -1.8610
 2874SOL     OW20254   1.750   4.539  11.181 -0.5104 -0.1884  0.0904
 2874SOL    HW120255   1.802   4.600  11.129  0.6721 -2.5407 -1.5303
 2874SOL    HW220256   1.671   4.585  11.207 -0.8425 -0.4385 -0.4652
 2875SOL     OW20257   2.254   2.741   5.611  0.3159  0.5433  0.5034
 2875SOL    HW120258   2.344   2.770   5.599  0.6252 -0.3274  0.7257
 2875SOL    HW220259   2.243   2.730   5.705  1.4970 -0.9746  0.4650
 2876SOL     OW20260   3.520   0.255   2.171 -0.4337  0.2792  0.1150
 2876SOL    HW120261   3.553   0.166   2.174  1.8356  1.0770 -1.0970
 2876SOL    HW220262   3.550   0.278   2.083 -1.4016 -0.3606 -0.3883
 2877SOL     OW20263   1.296   0.332   4.764  0.4435  0.4227  0.3939
 2877SOL    HW120264   1.373   0.289   4.727  0.6379 -0.1766  1.4913
 2877SOL    HW220265   1.334   0.420   4.769 -0.1990  0.8198 -2.0359
 2878SOL     OW20266   3.143   3.199   9.040 -0.5107  0.1762 -0.0212
 2878SOL    HW120267   3.078   3.267   9.054  0.4082  1.1207 -0.3738
 2878SOL    HW220268   3.198   3.198   9.119  0.4718  0.3769 -0.6915
 2879SOL     OW20269   2.524   2.360   7.890 -0.2378 -0.2799 -0.1490
 2879SOL    HW120270   2.579   2.283   7.877  0.7183 -0.2070  3.5097
 2879SOL    HW220271   2.586   2.421   7.930  1.0142 -1.7480  0.1456
 2880SOL     OW20272   2.191   3.693   3.423  0.2750  0.2378 -0.3813
 2880SOL    HW120273   2.148   3.612   3.452  1.9808 -0.6570 -0.3236
 2880SOL    HW220274   2.126   3.728   3.362  0.9964  0.2988 -1.1160
 2881SOL     OW20275   0.976   4.657   6.684  0.1558  0.3069  0.4200
 2881SOL    HW120276   1.008   4.575   6.646  0.7136  0.3794  0.7383
 2881SOL    HW220277   1.055   4.712   6.681 -0.7579  1.5474 -0.7261
 2882SOL     OW20278   2.027   1.359  16.129  0.1605  0.0438 -0.7772
 2882SOL    HW120279   2.016   1.268  16.159  2.4511  0.6126  1.8053
 2882SOL    HW220280   2.016   1.424  16.198  0.8101 -0.8956  0.2147
 2883SOL     OW20281   0.762   2.780   3.140 -0.2628 -0.1164  0.5648
 2883SOL    HW120282   0.697   2.837   3.099  1.9491  0.7463 -1.7723
 2883SOL    HW220283   0.805   2.738   3.065 -2.5805  0.9495 -1.3713
 2884SOL     OW20284   0.696   3.291   6.185 -0.9969  0.4500 -0.5199
 2884SOL    HW120285   0.746   3.372   6.194  0.1918 -0.5083  1.6167
 2884SOL    HW220286   0.610   3.324   6.212 -0.7537 -0.3950  1.3209
 2885SOL     OW20287   2.941   4.374   6.410 -0.2368 -0.4970 -0.2224
 2885SOL    HW120288   2.959   4.382   6.504 -0.1225 -0.7497 -0.2232
 2885SOL    HW220289   2.918   4.281   6.402 -0.9459 -0.2466 -1.1273
 2886SOL     OW20290   0.920   2.546   8.323  0.1818  0.3543  0.5386
 2886SOL    HW120291   0.914   2.463   8.276  0.2564 -0.2224  1.5568
 2886SOL    HW220292   1.008   2.546   8.359 -0.4781  1.1541  2.1256
 2887SOL     OW20293   2.374   0.496   7.593 -0.6883 -0.1203  0.1886
 2887SOL    HW120294   2.465   0.522   7.589 -0.6386 -0.5126 -1.5793
 2887SOL    HW220295   2.389   0.414   7.544  0.9817 -0.5579  1.4471
 2888SOL     OW20296   0.703   1.021   3.607  0.1738 -0.1480  0.2032
 2888SOL    HW120297   0.691   1.114   3.591  1.1025  0.1748  1.4625
 2888SOL    HW220298   0.704   1.017   3.702  2.1140 -0.4333  0.1520
 2889SOL     OW20299   1.926   1.483   8.067 -0.1250  0.2848  0.4684
 2889SOL    HW120300   1.831   1.486   8.055 -0.4851 -0.1976  3.2580
 2889SOL    HW220301   1.947   1.576   8.073 -0.1744  0.2433  1.3458
 2890SOL     OW20302   3.709   2.441   1.662 -0.1191 -0.1793 -0.3254
 2890SOL    HW120303   3.690   2.529   1.630 -1.0333 -0.4190 -0.4430
 2890SOL    HW220304   3.771   2.466   1.731 -1.4864 -0.3461  0.9695
 2891SOL     OW20305   1.082   4.619   7.105  0.1764  0.0910  0.2674
 2891SOL    HW120306   1.139   4.562   7.156 -1.5031 -1.4280  0.4099
 2891SOL    HW220307   1.140   4.695   7.099 -1.4702  1.4138  1.1462
 2892SOL     OW20308   0.480   0.172   6.598  0.0496 -0.4779  0.2139
 2892SOL    HW120309   0.465   0.192   6.691 -0.1621 -1.4309  0.3860
 2892SOL    HW220310   0.422   0.238   6.561  2.3120  2.3051  1.5876
 2893SOL     OW20311   0.218   4.725  17.743 -0.1213  0.2975 -0.1530
 2893SOL    HW120312   0.307   4.695  17.726 -0.9938 -2.0700 -0.5193
 2893SOL    HW220313   0.167   4.658  17.697  1.7303 -0.0108 -1.7240
 2894SOL     OW20314   1.770   3.764  15.796  0.6645 -0.6277  0.7053
 2894SOL    HW120315   1.720   3.736  15.872 -0.9553 -2.3591 -0.9966
 2894SOL    HW220316   1.777   3.682  15.746  1.9633  0.0029 -0.1709
 2895SOL     OW20317   3.817   1.630   4.560  0.4777 -0.3882 -0.2537
 2895SOL    HW120318   3.749   1.639   4.627  0.2232  0.5705 -0.6395
 2895SOL    HW220319   3.897   1.626   4.612 -0.7465 -2.4539  1.4595
 2896SOL     OW20320   0.023   4.295  10.110  0.6413 -0.3119 -0.2751
 2896SOL    HW120321   4.678   4.256  10.081 -0.7192 -0.0254  3.2390
 2896SOL    HW220322   0.062   4.211  10.133  0.1499 -0.9513 -1.7813
 2897SOL     OW20323   4.483   2.054   9.050  0.1273  0.4426  0.1672
 2897SOL    HW120324   4.441   2.049   8.964 -0.8066  0.2894  0.6327
 2897SOL    HW220325   4.416   2.006   9.098 -0.6183 -0.5681 -1.8557
 2898SOL     OW20326   3.606   4.127   2.998 -0.2431  0.4959  0.0496
 2898SOL    HW120327   3.667   4.081   2.941 -0.6570  0.0887 -0.0628
 2898SOL    HW220328   3.539   4.060   2.986  0.6112 -0.3256 -0.1143
 2899SOL     OW20329   4.571   4.644   7.589  0.3051  0.5146 -0.0674
 2899SOL    HW120330   4.576   4.616   7.498  2.7407  0.6934 -0.0052
 2899SOL    HW220331   4.665   4.638   7.608  0.7052  0.6794 -2.0475
 2900SOL     OW20332   3.262   3.856  11.265  0.2046 -0.1411 -0.0510
 2900SOL    HW120333   3.266   3.895  11.177 -0.1040 -1.0346 -0.4595
 2900SOL    HW220334   3.355   3.835  11.275  0.2983 -0.3216 -1.2654
 2901SOL     OW20335   4.548   2.638   6.811  0.1102 -0.3030 -0.5584
 2901SOL    HW120336   4.564   2.656   6.718 -2.0667 -1.4316 -1.1504
 2901SOL    HW220337   4.456   2.610   6.811  0.7074 -2.3078 -0.6282
 2902SOL     OW20338   0.315   3.671   4.543  0.5268  0.0134  0.3520
 2902SOL    HW120339   0.223   3.676   4.516  0.3420  0.9113  1.1659
 2902SOL    HW220340   0.310   3.678   4.638 -0.6541  2.4406  0.1197
 2903SOL     OW20341   2.525   0.208   3.531  0.1900 -0.1513 -0.2678
 2903SOL    HW120342   2.476   0.242   3.606  1.6687 -1.1723  1.1740
 2903SOL    HW220343   2.515   0.113   3.536 -1.2907  0.0291  0.2954
 2904SOL     OW20344   4.303   2.017  16.397 -0.5401  0.1425 -0.1652
 2904SOL    HW120345   4.277   2.107  16.415 -0.0888 -0.1335  1.7746
 2904SOL    HW220346   4.238   2.002  16.328 -0.6947 -0.4466  0.1091
 2905SOL     OW20347   2.139   1.939   9.071 -0.6492  0.0737  0.6706
 2905SOL    HW120348   2.187   1.976   9.144  1.3433  0.2832 -0.7372
 2905SOL    HW220349   2.176   1.852   9.057  2.8624  1.4556  1.3639
 2906SOL     OW20350   0.378   0.276  14.845  0.2582  0.5677 -0.8014
 2906SOL    HW120351   0.338   0.312  14.924 -2.5173 -3.7967 -0.2403
 2906SOL    HW220352   0.305   0.264  14.784 -1.2042 -1.3226  1.3238
 2907SOL     OW20353   3.737   1.351   4.975 -0.0620  0.0338 -0.2509
 2907SOL    HW120354   3.722   1.298   5.053 -0.3204  2.4673  1.3674
 2907SOL    HW220355   3.717   1.439   5.009 -1.5358 -0.6165  0.5568
 2908SOL     OW20356   4.635   2.844  16.211  0.3888  0.2458  0.2733
 2908SOL    HW120357   4.577   2.798  16.272 -1.9239  0.7232 -1.5181
 2908SOL    HW220358   4.679   2.900  16.274 -0.4736  2.5633 -1.1907
 2909SOL     OW20359   2.824   4.687   9.442 -0.3924 -0.0526  0.1573
 2909SOL    HW120360   2.845   0.040   9.464 -1.4481  0.8220 -2.4980
 2909SOL    HW220361   2.812   4.693   9.348 -2.6187  2.2416  0.5824
 2910SOL     OW20362   3.748   0.924   6.172  0.1234  0.3123 -0.2426
 2910SOL    HW120363   3.666   0.910   6.124  0.7264  0.2196 -1.2523
 2910SOL    HW220364   3.804   0.881   6.107 -0.9914  0.8214 -1.5464
 2911SOL     OW20365   3.433   4.374  11.005  0.0613 -0.4362  0.3955
 2911SOL    HW120366   3.526   4.368  10.984  0.2795  1.9464  0.6745
 2911SOL    HW220367   3.391   4.290  10.987 -2.6091  0.5164  2.1076
 2912SOL     OW20368   2.638   2.982  17.355 -0.6072 -0.4078 -0.3626
 2912SOL    HW120369   2.607   2.997  17.444 -0.4872  0.2206 -0.4304
 2912SOL    HW220370   2.684   3.063  17.331 -1.0911  0.2654  1.0314
 2913SOL     OW20371   3.043   3.490  14.363  0.1260  0.1052  0.3712
 2913SOL    HW120372   3.016   3.421  14.424  2.9360  0.2307  1.7792
 2913SOL    HW220373   2.995   3.568  14.389 -0.1657 -0.7460  2.4198
 2914SOL     OW20374   4.024   0.958  12.017 -0.0102 -0.1527  0.2540
 2914SOL    HW120375   4.077   0.942  12.095  0.6815 -0.4630 -0.2808
 2914SOL    HW220376   3.978   0.874  12.009  1.1724 -0.8214  0.4325
 2915SOL     OW20377   1.829   0.166   4.408  0.2755  0.1409  0.4103
 2915SOL    HW120378   1.868   0.079   4.395 -0.2717 -0.1266  0.5328
 2915SOL    HW220379   1.800   0.162   4.499 -0.1949 -1.3136  0.2048
 2916SOL     OW20380   3.243   0.920  15.973  0.0381  0.0557 -0.4334
 2916SOL    HW120381   3.225   0.873  16.055  0.3299  1.8575  0.6606
 2916SOL    HW220382   3.155   0.922  15.935 -0.3613 -0.1488  0.4809
 2917SOL     OW20383   4.136   2.599  11.868  0.3456 -0.9967 -0.3144
 2917SOL    HW120384   4.081   2.550  11.929  0.0267 -0.8443 -0.4769
 2917SOL    HW220385   4.182   2.526  11.825  1.1405  0.9485 -2.7363
 2918SOL     OW20386   3.978   2.869   9.205  0.8619 -0.1113 -0.2996
 2918SOL    HW120387   3.999   2.954   9.166  0.7222  0.4379  0.8320
 2918SOL    HW220388   4.068   2.841   9.221  0.8290 -1.1749 -1.9556
 2919SOL     OW20389   1.156   0.123   2.300  0.1690  0.2527 -0.1785
 2919SOL    HW120390   1.218   0.140   2.370 -0.2938  1.0276  0.0410
 2919SOL    HW220391   1.149   0.207   2.255  0.9804  0.1770 -0.4466
 2920SOL     OW20392   4.388   3.298   0.019 -0.3750  0.2859 -0.1340
 2920SOL    HW120393   4.444   3.258   0.085 -0.4339 -1.5665 -1.1914
 2920SOL    HW220394   4.320   3.331   0.078 -0.4325  1.4537 -0.8618
 2921SOL     OW20395   3.109   3.452   3.727 -0.1489 -0.4872  0.1401
 2921SOL    HW120396   3.074   3.367   3.752  2.1852 -0.8152  2.3144
 2921SOL    HW220397   3.034   3.508   3.707 -1.0227 -1.3933  0.8590
 2922SOL     OW20398   1.858   4.586   7.695  0.4462  0.4254  0.3001
 2922SOL    HW120399   1.947   4.602   7.725  0.9738 -0.5814 -0.7292
 2922SOL    HW220400   1.871   4.549   7.608  1.6543 -0.1478  0.7249
 2923SOL     OW20401   2.882   4.652   2.238  0.5317  1.3967 -0.0324
 2923SOL    HW120402   2.815   4.691   2.183  0.9437  1.2102 -0.6581
 2923SOL    HW220403   2.835   4.577   2.276 -1.7243  1.7772 -2.1234
 2924SOL     OW20404   2.948   3.065   7.006  0.1056  0.0056  0.5951
 2924SOL    HW120405   2.968   3.065   7.100  0.6464  0.5991  0.4784
 2924SOL    HW220406   3.019   3.121   6.975  0.3256  0.2427  1.5247
 2925SOL     OW20407   0.646   0.237   6.381 -0.6630 -0.1548  0.0957
 2925SOL    HW120408   0.707   0.164   6.374  1.6022  1.6905  0.7280
 2925SOL    HW220409   0.631   0.242   6.475 -0.7809  0.9951  0.0197
 2926SOL     OW20410   2.970   3.934   1.607  0.0998 -0.0875  0.5685
 2926SOL    HW120411   2.913   3.888   1.668 -2.1377  0.0673 -1.4388
 2926SOL    HW220412   3.027   3.997   1.653 -0.8716  1.0575  0.2151
 2927SOL     OW20413   0.557   2.435  15.306  0.4746 -0.2970 -0.3794
 2927SOL    HW120414   0.489   2.486  15.263 -1.6653 -2.0630  0.9214
 2927SOL    HW220415   0.562   2.360  15.247 -0.9054 -2.2848  2.0476
 2928SOL     OW20416   1.173   1.839   4.404  0.1794  0.0154 -0.2924
 2928SOL    HW120417   1.246   1.832   4.343  0.3486  3.7216 -0.4765
 2928SOL    HW220418   1.110   1.783   4.358 -0.0318 -0.3059  0.3910
 2929SOL     OW20419   4.034   0.295   3.653  0.1059 -0.6686  0.5661
 2929SOL    HW120420   3.941   0.309   3.631  0.1747  0.2373  0.8445
 2929SOL    HW220421   4.053   0.379   3.694  3.7540 -1.9507  1.4499
 2930SOL     OW20422   1.131   1.543   6.113  0.5315 -0.1524  0.1669
 2930SOL    HW120423   1.086   1.557   6.196  1.5596  0.5082  0.6185
 2930SOL    HW220424   1.062   1.527   6.048  0.0104  0.0852  0.6646
 2931SOL     OW20425   3.667   2.271   2.082  0.4758 -0.3520  0.2694
 2931SOL    HW120426   3.693   2.345   2.028 -2.2341  0.3854 -0.0569
 2931SOL    HW220427   3.691   2.307   2.168  0.9768  0.0488 -0.0419
 2932SOL     OW20428   0.754   3.450   8.205  0.2981  0.6636 -0.2543
 2932SOL    HW120429   0.848   3.452   8.221  0.5017  1.0733 -1.5635
 2932SOL    HW220430   0.726   3.504   8.280  0.1765  2.6395 -1.7349
 2933SOL     OW20431   0.729   3.710   4.960 -0.0134  0.2120  0.1345
 2933SOL    HW120432   0.817   3.709   4.997 -0.0026  0.3153  0.1099
 2933SOL    HW220433   0.745   3.776   4.893 -0.5563  1.1512  0.9373
 2934SOL     OW20434   4.402   4.579   1.390 -0.1586 -0.2957 -0.1024
 2934SOL    HW120435   4.339   4.511   1.368 -0.0440 -1.0396  1.8857
 2934SOL    HW220436   4.433   4.549   1.475 -0.6416 -0.5258 -0.0126
 2935SOL     OW20437   0.243   3.966  12.656 -0.1222 -0.2338 -0.0728
 2935SOL    HW120438   0.320   3.952  12.713 -1.2534  0.8312  1.7106
 2935SOL    HW220439   0.266   3.919  12.576 -1.0401  0.2931 -0.6310
 2936SOL     OW20440   3.308   1.794  10.369 -0.2292 -0.1654  0.0403
 2936SOL    HW120441   3.318   1.874  10.317 -1.5279 -1.1678 -1.7614
 2936SOL    HW220442   3.399   1.774  10.392  0.2010  1.5684 -0.1969
 2937SOL     OW20443   2.376   0.618   7.914  0.2831  0.3278 -0.0002
 2937SOL    HW120444   2.418   0.688   7.863  0.4113 -0.9239 -1.6233
 2937SOL    HW220445   2.394   0.537   7.866  1.3880  0.0024  0.9879
 2938SOL     OW20446   3.809   3.484   5.382 -0.3623  0.0430  0.0632
 2938SOL    HW120447   3.794   3.564   5.332 -1.1834 -1.4010 -2.0503
 2938SOL    HW220448   3.895   3.497   5.420  0.0614 -1.9509 -0.1844
 2939SOL     OW20449   3.498   3.386   3.736 -0.5387 -0.3088 -1.1221
 2939SOL    HW120450   3.553   3.454   3.696 -0.4665 -0.3501 -1.0939
 2939SOL    HW220451   3.494   3.417   3.826 -0.2468  1.2679 -1.6496
 2940SOL     OW20452   3.453   3.030  10.227 -0.1847  0.9294  0.3008
 2940SOL    HW120453   3.487   3.066  10.309  0.7759  1.7479 -0.4382
 2940SOL    HW220454   3.535   3.027  10.177 -0.2850 -1.2239  0.2544
 2941SOL     OW20455   4.056   4.177   0.791 -0.0112  0.6103 -0.3807
 2941SOL    HW120456   4.013   4.135   0.866  1.7957 -0.3493  0.1400
 2941SOL    HW220457   4.098   4.106   0.742  0.4199  1.6538 -1.5381
 2942SOL     OW20458   2.139   3.702   3.087 -0.0192  0.1559 -0.0727
 2942SOL    HW120459   2.082   3.741   3.153 -0.5858 -1.9575  0.6847
 2942SOL    HW220460   2.096   3.725   3.005 -0.7020 -2.1168 -0.3491
 2943SOL     OW20461   1.037   1.014   3.857  0.5204  0.4087  0.0786
 2943SOL    HW120462   1.031   1.058   3.773  0.0754  1.6468  0.7558
 2943SOL    HW220463   1.097   0.941   3.842 -0.7713 -0.3680 -1.3594
 2944SOL     OW20464   2.353   2.305   3.790 -0.4113 -0.0578  0.0760
 2944SOL    HW120465   2.396   2.223   3.815  0.1168  0.4422  0.8229
 2944SOL    HW220466   2.301   2.320   3.869 -0.7007  0.9296 -0.3015
 2945SOL     OW20467   3.082   0.365  14.861 -0.2479 -0.3081 -0.2695
 2945SOL    HW120468   3.087   0.282  14.813  0.9181  0.5935 -1.6825
 2945SOL    HW220469   3.158   0.408  14.823  0.1369  0.5263  1.4396
 2946SOL     OW20470   4.160   2.804   8.329 -0.1974 -0.3258  0.5777
 2946SOL    HW120471   4.193   2.749   8.401  1.6658  0.7213  0.5404
 2946SOL    HW220472   4.156   2.740   8.258  1.1971 -1.0755  1.1617
 2947SOL     OW20473   3.649   1.237   2.352 -0.2482  0.6524  0.2667
 2947SOL    HW120474   3.688   1.294   2.419  0.5112 -2.9634  2.8858
 2947SOL    HW220475   3.623   1.295   2.281 -2.1251  0.2693  0.6310
 2948SOL     OW20476   2.680   4.537  12.382  0.3134 -0.6691 -0.6443
 2948SOL    HW120477   2.765   4.534  12.426 -0.7097 -0.9393  1.3325
 2948SOL    HW220478   2.705   4.490  12.302 -2.5873  0.2400 -2.0833
 2949SOL     OW20479   2.999   0.538   8.284  0.0484 -0.3699  0.2795
 2949SOL    HW120480   3.091   0.548   8.311  0.1734 -0.2331 -0.1990
 2949SOL    HW220481   2.991   0.569   8.194 -1.4456 -0.8607  0.2596
 2950SOL     OW20482   2.765   2.128   1.115 -0.3909 -0.4664  0.1608
 2950SOL    HW120483   2.685   2.080   1.089 -1.4724  1.2440  0.3222
 2950SOL    HW220484   2.772   2.198   1.050 -0.0497  0.8118  1.5849
 2951SOL     OW20485   1.166   4.588   5.380 -0.0410  0.0123 -0.5719
 2951SOL    HW120486   1.261   4.583   5.386 -0.2533 -0.4980  2.3456
 2951SOL    HW220487   1.155   4.659   5.443 -3.3856  0.0684 -1.2041
 2952SOL     OW20488   3.502   0.665   2.171  0.0280  0.0091 -0.3651
 2952SOL    HW120489   3.590   0.690   2.196 -0.0439 -0.2132  0.1089
 2952SOL    HW220490   3.463   0.750   2.190 -0.0181 -0.0631 -0.1407
 2953SOL     OW20491   1.611   2.045   4.968  0.2499  0.3277 -0.0075
 2953SOL    HW120492   1.691   2.071   5.014 -1.0852  0.4971  2.2270
 2953SOL    HW220493   1.633   2.094   4.888 -0.4631 -0.3884 -0.6411
 2954SOL     OW20494   2.121   1.146   4.866 -0.1530  0.0659 -0.0348
 2954SOL    HW120495   2.105   1.053   4.848 -1.5065  0.4423 -0.8433
 2954SOL    HW220496   2.113   1.158   4.960  2.3333  1.4824 -0.0192
 2955SOL     OW20497   4.078   1.758   2.486 -0.5241  0.6470 -0.2849
 2955SOL    HW120498   4.065   1.807   2.567  0.2180  0.1759  0.1165
 2955SOL    HW220499   4.145   1.694   2.510 -0.6191  0.8323  0.4891
 2956SOL     OW20500   1.965   4.357   7.211 -0.1019 -0.0017  0.2375
 2956SOL    HW120501   2.048   4.360   7.162 -2.1492 -1.6316 -3.3179
 2956SOL    HW220502   1.985   4.279   7.262  0.0631 -1.9881 -2.8630
 2957SOL     OW20503   1.363   0.039   8.858  0.1802  0.0876 -0.1051
 2957SOL    HW120504   1.323   4.692   8.876  2.2934 -1.1469 -1.1276
 2957SOL    HW220505   1.294   0.106   8.864  0.0308  0.1229 -2.0823
 2958SOL     OW20506   0.473   3.885   4.681  0.2614  0.2737  0.0020
 2958SOL    HW120507   0.557   3.846   4.655 -1.2301 -2.0158 -1.3659
 2958SOL    HW220508   0.487   3.975   4.649  0.4405  0.4971  0.6890
 2959SOL     OW20509   0.933   2.579   9.490  0.3845 -0.3449  0.0137
 2959SOL    HW120510   0.970   2.598   9.576 -3.1141  0.6800  1.2981
 2959SOL    HW220511   0.924   2.673   9.478 -0.5269 -0.5067 -0.5618
 2960SOL     OW20512   2.297   3.075   2.669  0.5832  0.1195 -0.3863
 2960SOL    HW120513   2.377   3.028   2.647 -0.4182 -2.1197  0.7540
 2960SOL    HW220514   2.308   3.152   2.613 -1.5687  1.1298  0.5415
 2961SOL     OW20515   0.429   2.575  13.017 -0.2038 -0.5179 -0.9836
 2961SOL    HW120516   0.463   2.589  13.106 -1.4828  0.1997 -0.6157
 2961SOL    HW220517   0.482   2.642  12.976  0.1709 -0.3431 -0.2228
 2962SOL     OW20518   0.396   2.345  12.898 -0.5767 -0.0542 -0.3467
 2962SOL    HW120519   0.398   2.299  12.981 -3.2011  3.2347  1.5503
 2962SOL    HW220520   0.405   2.433  12.935  0.9177 -0.6330  0.6680
 2963SOL     OW20521   0.757   2.277   4.521  0.5286  0.3861  0.7248
 2963SOL    HW120522   0.774   2.360   4.566 -0.3797  1.8494 -1.6150
 2963SOL    HW220523   0.688   2.310   4.463  1.7687 -1.2507 -1.7010
 2964SOL     OW20524   1.276   2.865  13.461  0.7621  0.9331 -0.1290
 2964SOL    HW120525   1.368   2.849  13.481 -0.4182 -3.5263  1.8160
 2964SOL    HW220526   1.256   2.775  13.435 -1.7212  0.9430  1.8296
 2965SOL     OW20527   2.426   1.261   3.254 -0.5165 -0.3797 -0.3351
 2965SOL    HW120528   2.399   1.269   3.163 -0.4977 -3.1787 -0.5908
 2965SOL    HW220529   2.521   1.250   3.255 -0.2186  2.3130  1.1411
 2966SOL     OW20530   3.823   3.905   3.557  0.1152 -0.5054 -0.0408
 2966SOL    HW120531   3.836   3.869   3.469  1.8206  0.8333 -0.3166
 2966SOL    HW220532   3.862   3.841   3.616  0.9683  0.6185  0.5923
 2967SOL     OW20533   2.887   0.505  11.182 -0.1047  0.0951 -0.3501
 2967SOL    HW120534   2.863   0.428  11.131  0.0976 -1.4092  1.7861
 2967SOL    HW220535   2.983   0.494  11.183 -0.1250 -0.0392  0.1875
 2968SOL     OW20536   3.894   2.733   8.507 -0.4752 -0.2784 -0.0952
 2968SOL    HW120537   3.916   2.791   8.580  0.7708  0.1651 -0.8276
 2968SOL    HW220538   3.963   2.743   8.441  0.3640  0.7278  0.9361
 2969SOL     OW20539   1.035   2.395   6.280 -0.0489 -0.1578  0.5141
 2969SOL    HW120540   1.051   2.302   6.265 -2.7182 -0.4503 -0.4948
 2969SOL    HW220541   1.101   2.439   6.226 -0.4909 -1.8991 -1.4222
 2970SOL     OW20542   3.030   1.315   6.693 -0.6257 -0.2137  0.0364
 2970SOL    HW120543   2.949   1.354   6.662  0.8564  3.6712  0.9760
 2970SOL    HW220544   3.096   1.357   6.638 -0.3822  0.2213  0.6601
 2971SOL     OW20545   1.694   4.389   7.507 -0.1964  0.0119  0.7173
 2971SOL    HW120546   1.689   4.335   7.586  0.4262 -2.6764 -1.0786
 2971SOL    HW220547   1.784   4.417   7.517 -0.1867 -0.4344  1.9106
 2972SOL     OW20548   1.322   0.962   5.537 -0.2346  0.2132 -0.0320
 2972SOL    HW120549   1.330   1.040   5.483 -0.2020  0.1078 -0.1777
 2972SOL    HW220550   1.227   0.962   5.549 -0.0787  0.3154  1.1926
 2973SOL     OW20551   2.440   0.444   9.281  0.0057 -0.0080 -0.5778
 2973SOL    HW120552   2.396   0.522   9.315  1.5239  0.3367  0.6129
 2973SOL    HW220553   2.499   0.496   9.228  0.0132 -1.0139 -1.5473
 2974SOL     OW20554   4.545   1.696  16.412 -0.3214 -0.0443  0.0790
 2974SOL    HW120555   4.477   1.737  16.467 -0.4210 -0.1596  0.0411
 2974SOL    HW220556   4.583   1.640  16.479 -0.8174 -0.3798  0.0742
 2975SOL     OW20557   2.030   0.786   0.334 -0.2612  0.0475  0.1350
 2975SOL    HW120558   2.124   0.800   0.319 -0.4704  0.9167 -0.3804
 2975SOL    HW220559   2.015   0.814   0.425  0.3108 -1.5097  0.7097
 2976SOL     OW20560   4.658   4.618   2.400 -0.7465 -0.0877 -0.2137
 2976SOL    HW120561   4.656   4.634   2.495  1.7013  1.7700 -0.4848
 2976SOL    HW220562   0.014   4.606   2.388 -1.0231 -1.0292 -1.4147
 2977SOL     OW20563   4.057   4.672   4.642 -0.2840  0.0204  0.0893
 2977SOL    HW120564   3.982   4.680   4.701 -0.0782  1.1279  0.2054
 2977SOL    HW220565   4.031   4.601   4.584 -2.4453  1.3116 -0.5185
 2978SOL     OW20566   2.219   3.965   3.690 -0.3798 -0.2784 -0.5772
 2978SOL    HW120567   2.209   3.921   3.775 -1.7617  0.6528 -0.2470
 2978SOL    HW220568   2.180   4.048   3.717  0.3442 -0.1012 -0.0880
 2979SOL     OW20569   4.153   3.495   9.413 -0.5436 -0.0393  0.0129
 2979SOL    HW120570   4.116   3.579   9.384 -3.0026 -1.0215  0.3496
 2979SOL    HW220571   4.151   3.516   9.506  0.8985  0.0269  0.0260
 2980SOL     OW20572   2.506   3.819   7.051 -0.5270  0.4381 -0.1768
 2980SOL    HW120573   2.459   3.865   7.121  0.7385 -0.3171  1.1738
 2980SOL    HW220574   2.440   3.779   6.994  0.2851  1.4334 -1.8130
 2981SOL     OW20575   4.579   2.750   9.985 -0.1834  0.2801  0.6776
 2981SOL    HW120576   4.596   2.684  10.053 -0.8935 -1.2138 -0.6197
 2981SOL    HW220577   4.643   2.820   9.998  0.6470 -0.7463  2.1862
 2982SOL     OW20578   2.528   4.641   3.407  0.4865  0.6487  0.3886
 2982SOL    HW120579   2.615   4.627   3.443  0.6250 -0.4184 -0.3419
 2982SOL    HW220580   2.516   4.551   3.376 -0.7830  0.8519  0.2886
 2983SOL     OW20581   1.566   0.706   4.891  0.6443 -0.3550 -0.1552
 2983SOL    HW120582   1.535   0.797   4.892 -0.8513 -0.8677 -0.9791
 2983SOL    HW220583   1.536   0.672   4.975 -0.4554  0.2906 -0.2794
 2984SOL     OW20584   1.996   2.374   3.716  0.2695  0.4168 -0.1410
 2984SOL    HW120585   1.904   2.349   3.714  0.6014 -0.7351 -0.9175
 2984SOL    HW220586   2.035   2.315   3.651  1.6079 -0.4612  1.4637
 2985SOL     OW20587   0.324   0.776   5.088  0.2263 -0.0741  0.2205
 2985SOL    HW120588   0.252   0.778   5.152 -1.6920  0.2448 -1.9187
 2985SOL    HW220589   0.402   0.795   5.140  0.4915  1.3212 -0.6790
 2986SOL     OW20590   4.729   0.094   4.537  0.3837 -0.5954 -1.0964
 2986SOL    HW120591   4.642   0.133   4.538  0.1477 -1.0885 -2.7476
 2986SOL    HW220592   4.712   4.738   4.537 -2.4971 -0.0524 -0.2554
 2987SOL     OW20593   2.590   3.773  10.572  0.3744  0.4947  0.0642
 2987SOL    HW120594   2.642   3.853  10.568  2.0563 -0.6816 -1.7834
 2987SOL    HW220595   2.529   3.806  10.638 -1.7411 -0.6929 -1.2686
 2988SOL     OW20596   4.222   2.351   6.554 -0.1056 -0.3968 -0.1844
 2988SOL    HW120597   4.317   2.363   6.561 -0.2332  0.6874 -0.2920
 2988SOL    HW220598   4.197   2.432   6.509 -0.0109 -1.1480 -1.5909
 2989SOL     OW20599   4.136   2.383   2.976  0.5958 -0.4583  0.0414
 2989SOL    HW120600   4.088   2.309   3.013  1.9929 -1.4056 -0.0431
 2989SOL    HW220601   4.100   2.452   3.032  1.1309 -1.2829  1.4010
 2990SOL     OW20602   2.723   0.033   9.790 -0.2282 -0.2496 -0.2988
 2990SOL    HW120603   2.738   0.094   9.718  1.3790  1.1954  1.2530
 2990SOL    HW220604   2.628   0.032   9.790 -0.2155 -1.1780 -0.8475
 2991SOL     OW20605   2.471   0.732  12.284 -0.4212 -0.0496 -0.4670
 2991SOL    HW120606   2.440   0.650  12.247 -0.1266 -0.2238 -0.3345
 2991SOL    HW220607   2.393   0.782  12.260  0.3495  1.0209 -0.7390
 2992SOL     OW20608   0.560   2.947  15.670 -0.0753  0.4203 -0.5361
 2992SOL    HW120609   0.488   2.887  15.651  1.0284 -1.3691  0.8669
 2992SOL    HW220610   0.635   2.889  15.657  0.0604  0.0619  1.7764
 2993SOL     OW20611   2.576   2.797   8.972 -0.6789 -0.3458 -0.1616
 2993SOL    HW120612   2.481   2.790   8.965 -0.6110 -1.3631  0.0439
 2993SOL    HW220613   2.588   2.870   8.911  0.5547 -0.4278 -0.0300
 2994SOL     OW20614   1.585   1.336   8.288 -1.1868 -0.2497 -0.2272
 2994SOL    HW120615   1.588   1.249   8.248 -1.5969 -0.6006  0.5267
 2994SOL    HW220616   1.670   1.342   8.332 -2.3496  0.0750  1.9244
 2995SOL     OW20617   3.220   0.841   8.554 -0.1189 -0.2030  0.3522
 2995SOL    HW120618   3.226   0.827   8.459  0.5958 -0.1274  0.3797
 2995SOL    HW220619   3.277   0.767   8.578  1.5994  1.5365  1.5978
 2996SOL     OW20620   3.252   2.815   5.142 -0.4837 -0.3535 -0.4086
 2996SOL    HW120621   3.184   2.757   5.177  0.7377 -0.9268  0.9845
 2996SOL    HW220622   3.322   2.752   5.125 -1.6910 -2.0375  0.8353
 2997SOL     OW20623   2.074   1.897  12.067 -0.2333 -0.0543 -0.1003
 2997SOL    HW120624   2.081   1.808  12.100  1.1354 -0.9228 -2.7203
 2997SOL    HW220625   2.064   1.874  11.975  0.6889  3.0293 -0.9880
 2998SOL     OW20626   4.505   1.485  11.980  0.0314  0.1871  0.4521
 2998SOL    HW120627   4.566   1.518  12.046 -0.0958 -2.8400  2.0696
 2998SOL    HW220628   4.488   1.574  11.947 -0.1621  0.1493  0.4525
 2999SOL     OW20629   3.426   0.557   3.042  0.2743 -0.2867  0.5097
 2999SOL    HW120630   3.433   0.617   3.117  0.6744 -1.2355  1.2355
 2999SOL    HW220631   3.346   0.517   3.075 -0.2412  0.7719  0.5330
 3000SOL     OW20632   1.560   2.968   7.561 -0.4229 -0.0937 -0.3055
 3000SOL    HW120633   1.543   3.059   7.588  1.4529 -0.0971  0.8876
 3000SOL    HW220634   1.651   2.975   7.535 -0.2827  1.8317  0.6611
 3001SOL     OW20635   0.530   2.023   7.253  0.0351 -0.3061  0.7285
 3001SOL    HW120636   0.505   2.089   7.318 -1.1865  1.5336 -1.6183
 3001SOL    HW220637   0.604   1.985   7.301  0.8297 -0.0088 -0.2690
 3002SOL     OW20638   4.636   0.932   7.691  0.2824  0.5733 -0.2060
 3002SOL    HW120639   4.663   0.955   7.779 -0.6353  0.2388  0.1654
 3002SOL    HW220640   4.648   1.013   7.642 -0.1637  0.8398  0.1271
 3003SOL     OW20641   4.362   4.299   8.487 -0.2647  0.0878  0.0373
 3003SOL    HW120642   4.411   4.367   8.441 -0.3031 -0.3254 -0.6115
 3003SOL    HW220643   4.275   4.321   8.454 -0.4021 -1.8405 -0.8623
 3004SOL     OW20644   4.736   4.411   9.867  0.6200 -0.2789  0.4666
 3004SOL    HW120645   4.710   4.498   9.896  1.1063 -0.3290  1.0478
 3004SOL    HW220646   0.005   4.354   9.944 -1.3535  0.8901  1.4967
 3005SOL     OW20647   0.322   3.443   4.239  0.2254  0.3592 -0.1144
 3005SOL    HW120648   0.275   3.378   4.186  1.1051  2.1592 -3.0723
 3005SOL    HW220649   0.327   3.519   4.182  1.5073  1.7528  1.8611
 3006SOL     OW20650   3.238   1.207   4.628 -0.0476 -0.5106  0.0932
 3006SOL    HW120651   3.285   1.130   4.659 -1.4021 -1.8692 -1.2451
 3006SOL    HW220652   3.273   1.272   4.690  1.1082 -0.6060 -0.4586
 3007SOL     OW20653   2.145   3.973   2.868 -0.4351  0.6696 -0.7364
 3007SOL    HW120654   2.218   3.917   2.842 -1.2157  0.3224 -2.1868
 3007SOL    HW220655   2.129   4.027   2.791 -0.7606  2.0434  0.2949
 3008SOL     OW20656   3.429   3.718   3.634 -0.6971 -0.3082  0.5035
 3008SOL    HW120657   3.444   3.810   3.615  0.5578 -0.0755  2.5162
 3008SOL    HW220658   3.469   3.714   3.722  0.4494  1.5600  0.0589
 3009SOL     OW20659   2.061   2.381  16.891  0.2613 -0.0225  0.3649
 3009SOL    HW120660   2.076   2.381  16.797 -3.1534  0.1120 -0.2024
 3009SOL    HW220661   1.991   2.446  16.897  3.7122  3.4515  3.0504
 3010SOL     OW20662   3.286   1.303   8.062 -0.7085  0.3821 -0.2230
 3010SOL    HW120663   3.221   1.296   8.132  1.3062 -2.8004  1.3224
 3010SOL    HW220664   3.255   1.390   8.038  1.7870  1.3054 -0.0642
 3011SOL     OW20665   0.672   0.875   8.729  0.7620 -0.4618 -0.0480
 3011SOL    HW120666   0.745   0.876   8.790  0.8326  1.2138 -0.1634
 3011SOL    HW220667   0.656   0.781   8.716 -1.3210 -0.2403  0.8688
 3012SOL     OW20668   3.310   2.837   5.786 -1.1038 -0.0485  0.1354
 3012SOL    HW120669   3.324   2.931   5.774 -1.4001  0.1908  1.7024
 3012SOL    HW220670   3.373   2.796   5.727 -1.1831 -1.4402  1.0287
 3013SOL     OW20671   0.294   1.629  17.727  0.3117 -0.1833 -0.1226
 3013SOL    HW120672   0.343   1.572   0.037 -1.7014 -1.0899  0.6886
 3013SOL    HW220673   0.236   1.680   0.035  1.4301  0.3035  0.5669
 3014SOL     OW20674   0.142   1.945   3.835 -0.0440  0.1243 -0.2501
 3014SOL    HW120675   0.167   2.030   3.871  1.3983  0.3402 -1.7558
 3014SOL    HW220676   0.226   1.928   3.792 -1.5425 -1.4337 -2.5452
 3015SOL     OW20677   4.205   0.661  14.385  0.5878  0.2682  0.4189
 3015SOL    HW120678   4.144   0.715  14.435 -2.2722 -2.2691 -0.3423
 3015SOL    HW220679   4.169   0.670  14.297 -1.3495  0.7346  1.2594
 3016SOL     OW20680   2.210   0.492  13.408  0.4869  0.4225 -0.0022
 3016SOL    HW120681   2.215   0.578  13.450  1.9696  0.2796  0.1384
 3016SOL    HW220682   2.131   0.458  13.450 -1.0006  0.1964 -2.9892
 3017SOL     OW20683   2.903   1.637   2.695  0.3835 -0.2443  0.2662
 3017SOL    HW120684   2.824   1.598   2.659  0.1000 -0.8609  1.5438
 3017SOL    HW220685   2.971   1.598   2.641  0.6183  0.4459  0.0628
 3018SOL     OW20686   2.068   0.674   8.241  0.3508 -0.3284  0.0221
 3018SOL    HW120687   2.152   0.666   8.285 -0.1003 -0.0829  0.9392
 3018SOL    HW220688   2.084   0.617   8.166  0.4605 -1.3528  0.8353
 3019SOL     OW20689   0.930   4.486   2.057 -0.0666  0.2018  0.3247
 3019SOL    HW120690   0.873   4.536   1.999  0.0910  1.8893  1.6002
 3019SOL    HW220691   0.873   4.474   2.132  1.5887 -4.5924  0.7828
 3020SOL     OW20692   3.247   3.891  12.508  0.6717 -0.2159  0.2664
 3020SOL    HW120693   3.270   3.825  12.443 -0.8084 -1.3952  0.9459
 3020SOL    HW220694   3.183   3.844  12.562 -0.2408  1.9508  1.0877
 3021SOL     OW20695   0.477   2.902   4.044  0.0809  0.2403  0.3779
 3021SOL    HW120696   0.423   2.911   4.123 -0.4094 -0.5321  0.1285
 3021SOL    HW220697   0.432   2.953   3.976  1.0379 -0.2084 -0.5839
 3022SOL     OW20698   2.021   3.382  17.661  0.0681  0.0887 -0.1152
 3022SOL    HW120699   1.985   3.314  17.718  0.1541 -0.7750 -1.1038
 3022SOL    HW220700   2.020   3.336  17.577  0.3136  0.2494 -0.2066
 3023SOL     OW20701   0.860   4.619   1.779 -0.0988  1.1491  0.0274
 3023SOL    HW120702   0.883   4.614   1.686  1.3017  1.2103  0.3613
 3023SOL    HW220703   0.777   4.572   1.785  0.2971  0.6276  1.2779
 3024SOL     OW20704   3.378   3.116   5.823 -0.1387 -0.1809 -0.6235
 3024SOL    HW120705   3.353   3.176   5.893 -1.4361  0.2914 -1.4810
 3024SOL    HW220706   3.451   3.164   5.783 -0.1559 -1.8395 -2.6808
 3025SOL     OW20707   2.581   0.296   0.472 -0.2300  0.3117 -0.2797
 3025SOL    HW120708   2.507   0.255   0.427  1.2255  1.9904 -4.1414
 3025SOL    HW220709   2.568   0.251   0.556 -1.0745 -1.6759 -1.4568
 3026SOL     OW20710   0.400   4.375  16.236  0.3724 -0.0305 -0.5837
 3026SOL    HW120711   0.356   4.305  16.283 -0.6541 -0.9259 -2.9196
 3026SOL    HW220712   0.338   4.412  16.174  0.0186  1.7993  0.8492
 3027SOL     OW20713   2.904   3.000  17.110 -0.2263  0.0977 -0.3670
 3027SOL    HW120714   2.945   3.084  17.090 -0.7244 -0.0720 -2.1051
 3027SOL    HW220715   2.861   3.010  17.195  1.8572  1.5279  0.4993
 3028SOL     OW20716   0.836   1.294  15.433 -0.5647  0.9839  0.2410
 3028SOL    HW120717   0.775   1.365  15.452  1.5106  2.5202  1.1498
 3028SOL    HW220718   0.825   1.280  15.339  1.5294 -0.3892  0.1981
 3029SOL     OW20719   2.491   1.618   3.351  0.6583 -0.3218 -0.3948
 3029SOL    HW120720   2.565   1.564   3.320 -1.8815 -2.6050 -2.5137
 3029SOL    HW220721   2.423   1.551   3.353  1.3390 -1.0498 -1.2240
 3030SOL     OW20722   2.276   1.288   0.421  0.2850  0.0743  0.2786
 3030SOL    HW120723   2.202   1.297   0.361  0.5954 -2.7148 -0.5347
 3030SOL    HW220724   2.340   1.317   0.356 -0.4935 -1.4626 -1.1764
 3031SOL     OW20725   3.657   1.933   3.325 -0.0717 -0.7553 -0.8725
 3031SOL    HW120726   3.682   1.970   3.240  0.9492  2.3685  0.7833
 3031SOL    HW220727   3.586   1.872   3.307 -0.0995 -1.4359  1.6482
 3032SOL     OW20728   1.269   4.607   5.824 -0.2005 -0.1385  0.1808
 3032SOL    HW120729   1.315   4.689   5.846  0.2870  0.0058 -1.3668
 3032SOL    HW220730   1.181   4.640   5.809  0.4233  2.1018  1.4230
 3033SOL     OW20731   0.547   3.632   0.749  0.2884 -0.1703 -0.2482
 3033SOL    HW120732   0.639   3.626   0.725  0.2889 -1.6640  0.1711
 3033SOL    HW220733   0.535   3.722   0.782 -1.3868  0.1418 -1.6984
 3034SOL     OW20734   3.806   0.165   5.221  0.3300 -0.3586 -0.0514
 3034SOL    HW120735   3.842   0.080   5.193  0.6693  0.0065 -0.7078
 3034SOL    HW220736   3.807   0.202   5.133 -0.7926 -0.5738 -0.1619
 3035SOL     OW20737   0.643   1.029   3.234  0.0975 -0.4436 -0.0486
 3035SOL    HW120738   0.564   1.057   3.280  0.8589 -1.9318  2.1686
 3035SOL    HW220739   0.611   0.942   3.211  1.5371 -0.6949 -1.0921
 3036SOL     OW20740   0.693   3.283   2.088  0.5708 -0.1911  0.1226
 3036SOL    HW120741   0.771   3.339   2.089 -0.8562  1.8342 -0.9146
 3036SOL    HW220742   0.691   3.264   1.994  4.4188 -1.3844  0.3064
 3037SOL     OW20743   1.206   1.075  17.548  0.0818  0.0484  0.2698
 3037SOL    HW120744   1.162   1.108  17.470  0.9107 -0.1649 -0.2843
 3037SOL    HW220745   1.145   1.004  17.570 -0.8026  1.2642  1.6961
 3038SOL     OW20746   1.274   2.909   7.864  0.1260  0.2449  0.1416
 3038SOL    HW120747   1.306   2.878   7.779  1.3336 -1.4527  1.2094
 3038SOL    HW220748   1.362   2.936   7.891  0.3317 -0.9597  0.6536
 3039SOL     OW20749   3.330   2.186   4.214  0.1913  0.5742 -0.0334
 3039SOL    HW120750   3.249   2.227   4.184  0.5566  1.3358  0.0200
 3039SOL    HW220751   3.355   2.120   4.149 -0.4175 -0.6723  0.9985
 3040SOL     OW20752   1.226   2.028   5.445  0.1455  0.6578 -0.0049
 3040SOL    HW120753   1.161   2.058   5.508  2.1041  0.0983  2.2931
 3040SOL    HW220754   1.243   2.107   5.393 -0.1932 -0.0347 -1.1682
 3041SOL     OW20755   2.571   4.472   0.590  0.5824  0.1919 -0.7414
 3041SOL    HW120756   2.641   4.534   0.568  1.8101 -1.9115 -2.7048
 3041SOL    HW220757   2.521   4.524   0.654  1.3577  2.8091 -2.2582
 3042SOL     OW20758   1.378   4.347   3.152 -0.7068 -0.1457  0.5239
 3042SOL    HW120759   1.376   4.274   3.090  0.5313  0.5979 -0.4013
 3042SOL    HW220760   1.411   4.312   3.234 -0.8876  0.7534  0.9782
 3043SOL     OW20761   2.558   2.148   9.177 -0.0820 -0.1711 -0.1288
 3043SOL    HW120762   2.646   2.181   9.160 -0.7958  1.8136  0.0187
 3043SOL    HW220763   2.539   2.198   9.256  0.7630  1.2890 -0.8534
 3044SOL     OW20764   0.705   1.080  12.460 -0.4446 -0.0910  0.1869
 3044SOL    HW120765   0.619   1.115  12.437 -0.8028  0.2489  2.0570
 3044SOL    HW220766   0.714   1.100  12.553 -0.9267  0.6524  0.0728
 3045SOL     OW20767   3.742   0.339   3.626 -0.3513  0.3217  0.2818
 3045SOL    HW120768   3.703   0.335   3.538  1.5517  1.3612 -0.6049
 3045SOL    HW220769   3.689   0.407   3.669 -1.5279 -0.1617 -0.3844
 3046SOL     OW20770   1.433   2.653   4.143  0.7667 -0.4265 -0.2882
 3046SOL    HW120771   1.404   2.744   4.140 -3.5082 -1.8009 -0.5207
 3046SOL    HW220772   1.351   2.603   4.146 -0.9415  2.3447 -1.0518
 3047SOL     OW20773   3.241   0.288   9.762 -0.5733  0.2705  0.2552
 3047SOL    HW120774   3.254   0.195   9.780 -1.1173  0.4162  1.3725
 3047SOL    HW220775   3.147   0.301   9.770 -0.8933 -0.5680 -1.8855
 3048SOL     OW20776   2.171   4.587   7.490  0.3820  0.0269  0.2717
 3048SOL    HW120777   2.190   4.594   7.396  0.6321 -1.3789  0.2279
 3048SOL    HW220778   2.260   4.606   7.519  1.2853 -1.6078 -1.4558
 3049SOL     OW20779   2.473   0.332   9.670 -0.3616 -0.2118  0.3808
 3049SOL    HW120780   2.397   0.386   9.693 -0.1196 -0.1046  0.9199
 3049SOL    HW220781   2.546   0.386   9.698  0.7200 -1.7164  0.4648
 3050SOL     OW20782   3.356   1.995   7.595 -0.0292  0.8473 -0.0131
 3050SOL    HW120783   3.399   2.014   7.512 -1.8789  1.1461 -0.8931
 3050SOL    HW220784   3.418   1.932   7.632  0.9906  1.8037 -0.0973
 3051SOL     OW20785   3.502   3.175  10.443  0.6037 -0.0033 -0.6365
 3051SOL    HW120786   3.485   3.212  10.529  0.7952 -1.0160 -0.1610
 3051SOL    HW220787   3.590   3.210  10.429 -0.9449  3.1957 -2.2175
 3052SOL     OW20788   1.625   1.570   6.177  0.2801  0.6607  0.1571
 3052SOL    HW120789   1.584   1.656   6.182 -0.2704  0.2852  2.1414
 3052SOL    HW220790   1.546   1.516   6.181  0.1957  0.8179  0.6059
 3053SOL     OW20791   4.002   2.131  10.317  0.4621 -0.6083  0.1048
 3053SOL    HW120792   4.079   2.120  10.261  1.0317 -0.0091  0.7660
 3053SOL    HW220793   3.985   2.040  10.343 -1.2822  0.7744  3.6915
 3054SOL     OW20794   0.571   1.732   7.853 -0.1939 -0.0599 -0.1625
 3054SOL    HW120795   0.656   1.730   7.808 -0.7694 -2.9581 -1.0920
 3054SOL    HW220796   0.527   1.809   7.817 -1.1188 -0.6083 -0.2066
 3055SOL     OW20797   1.502   2.330  12.609 -0.0497 -0.3147 -0.6118
 3055SOL    HW120798   1.574   2.388  12.630 -0.7735  0.3309  0.0922
 3055SOL    HW220799   1.523   2.245  12.649  0.7735 -0.1153 -0.6274
 3056SOL     OW20800   3.601   4.410   2.066 -0.7555 -0.0331 -0.2181
 3056SOL    HW120801   3.688   4.402   2.027 -1.1074  1.0101 -1.2021
 3056SOL    HW220802   3.588   4.319   2.092 -0.3288 -0.2390 -0.7286
 3057SOL     OW20803   4.175   4.542   2.473 -0.1696 -0.4648  0.0372
 3057SOL    HW120804   4.257   4.500   2.448  0.3959  0.4543  0.3302
 3057SOL    HW220805   4.209   4.628   2.498 -1.5807 -0.3412  1.5767
 3058SOL     OW20806   4.289   3.292   8.533  0.7230  0.3927  0.1711
 3058SOL    HW120807   4.318   3.264   8.620  0.8808 -0.9220 -0.3002
 3058SOL    HW220808   4.297   3.212   8.481 -0.8052  0.8994 -0.8322
 3059SOL     OW20809   3.882   3.791   0.709  0.3941 -0.3066 -0.4956
 3059SOL    HW120810   3.799   3.752   0.737  1.1840 -0.7292  1.2609
 3059SOL    HW220811   3.897   3.778   0.615 -2.1087 -0.0048 -0.9376
 3060SOL     OW20812   0.615   1.211   8.857 -0.1482  0.0267  0.0467
 3060SOL    HW120813   0.629   1.255   8.941  1.1024  1.0312 -0.6802
 3060SOL    HW220814   0.708   1.229   8.840 -0.2600 -1.6349 -2.3082
 3061SOL     OW20815   1.442   3.577   3.480  0.5844  0.2966  0.0512
 3061SOL    HW120816   1.426   3.521   3.557 -0.9580 -0.7884 -1.0645
 3061SOL    HW220817   1.477   3.512   3.419  2.2750  1.6487 -0.4007
 3062SOL     OW20818   2.973   1.492   3.261 -0.0288  0.4059 -0.3778
 3062SOL    HW120819   3.006   1.490   3.350 -0.9020 -0.5718 -0.0726
 3062SOL    HW220820   3.049   1.502   3.203  0.6199 -3.7777 -0.2245
 3063SOL     OW20821   3.810   1.577   5.124 -0.2519  0.2578  0.8155
 3063SOL    HW120822   3.865   1.582   5.202 -0.3078 -1.2858  0.9655
 3063SOL    HW220823   3.762   1.659   5.121 -0.3897  0.0719 -1.8520
 3064SOL     OW20824   0.415   1.140   0.930  0.4301  0.5716 -0.2359
 3064SOL    HW120825   0.366   1.084   0.871 -0.0587 -0.3126  1.0054
 3064SOL    HW220826   0.476   1.181   0.869  2.7133 -2.2282  0.1894
 3065SOL     OW20827   0.512   2.457   4.694  0.0011 -0.2561  0.4583
 3065SOL    HW120828   0.471   2.543   4.688 -0.1294 -0.1694  2.7666
 3065SOL    HW220829   0.602   2.470   4.664 -0.9889  2.1488 -1.4401
 3066SOL     OW20830   3.991   4.259   8.994 -0.0047  0.0832 -0.0071
 3066SOL    HW120831   3.994   4.164   8.979 -2.6618  0.1924 -1.1406
 3066SOL    HW220832   3.947   4.290   8.915 -0.7766  2.6242  1.4285
 3067SOL     OW20833   0.221   0.092   6.053  0.2898 -0.0765  0.3129
 3067SOL    HW120834   0.311   0.063   6.062  0.7671  1.0250 -0.9251
 3067SOL    HW220835   0.218   0.178   6.096  0.8943  0.2986 -0.3926
 3068SOL     OW20836   4.431   2.442   5.881  0.1739 -0.1215  0.1511
 3068SOL    HW120837   4.447   2.525   5.835  1.4208 -0.7406 -0.5463
 3068SOL    HW220838   4.376   2.467   5.954  0.9901 -1.1032  1.0974
 3069SOL     OW20839   2.351   3.150   0.399  0.1922  0.6428 -0.0079
 3069SOL    HW120840   2.370   3.242   0.417  2.3569  0.5679 -1.8998
 3069SOL    HW220841   2.291   3.158   0.326 -0.1697  0.5533  0.2807
 3070SOL     OW20842   3.644   1.712   3.646 -0.4885  0.4652  0.4100
 3070SOL    HW120843   3.739   1.721   3.640 -0.6523  1.7132 -0.2533
 3070SOL    HW220844   3.642   1.618   3.664  1.1452  0.5848  1.2095
 3071SOL     OW20845   3.974   4.214  11.398 -0.4475  0.4612 -0.5920
 3071SOL    HW120846   3.961   4.291  11.453 -0.1089  0.5920 -0.6966
 3071SOL    HW220847   4.001   4.147  11.462 -1.1655  0.8855  0.1497
 3072SOL     OW20848   1.310   4.710   2.045  0.2664  0.3681  0.1986
 3072SOL    HW120849   1.374   0.042   2.054  0.1161  0.5892 -0.4368
 3072SOL    HW220850   1.244   0.020   2.097  1.5018 -1.0878  3.1050
 3073SOL     OW20851   2.233   0.782  13.494  0.0811  0.2514 -0.2877
 3073SOL    HW120852   2.155   0.800  13.547  1.4971 -0.2024  1.9382
 3073SOL    HW220853   2.304   0.804  13.554 -1.6881 -0.4970  2.1107
 3074SOL     OW20854   1.239   3.450   6.403 -0.7591 -0.1013 -0.4466
 3074SOL    HW120855   1.236   3.503   6.483  1.8695  1.3124 -1.3039
 3074SOL    HW220856   1.211   3.364   6.434  0.5877 -0.0168  1.0050
 3075SOL     OW20857   0.704   1.602   6.998 -0.0450  0.3891 -0.0896
 3075SOL    HW120858   0.644   1.529   6.983  1.7297 -0.4008 -3.2852
 3075SOL    HW220859   0.654   1.676   6.963  2.1760  2.2585  0.6831
 3076SOL     OW20860   2.867   0.320   0.468  0.6528 -0.0036 -0.0369
 3076SOL    HW120861   2.877   0.232   0.505  0.0155  0.0231  0.1873
 3076SOL    HW220862   2.772   0.313   0.464  0.7419 -0.0031 -2.2721
 3077SOL     OW20863   0.067   0.251   3.925  0.0304  0.6949 -1.2718
 3077SOL    HW120864   4.715   0.268   3.956  0.4096 -0.3937  0.4175
 3077SOL    HW220865   0.060   0.269   3.831 -3.3887  0.4735 -1.0944
 3078SOL     OW20866   0.444   2.015   4.713  0.2296  0.4402 -0.3045
 3078SOL    HW120867   0.434   1.922   4.692  3.2319 -0.2381  1.2112
 3078SOL    HW220868   0.539   2.027   4.701  0.0712  0.9453 -1.0480
 3079SOL     OW20869   1.107   1.610   9.940  0.5367  0.4007 -0.0986
 3079SOL    HW120870   1.155   1.606   9.857  3.1203  0.2597  1.3944
 3079SOL    HW220871   1.176   1.607  10.006  0.4774 -2.1240 -0.1590
 3080SOL     OW20872   2.972   1.232   9.409 -0.0406  0.0966  0.0867
 3080SOL    HW120873   3.067   1.217   9.415  0.0948 -0.1223 -2.6162
 3080SOL    HW220874   2.966   1.311   9.355  0.5731  0.1098  0.0319
 3081SOL     OW20875   2.078   1.085   2.256 -0.0474  0.0112  0.0164
 3081SOL    HW120876   1.986   1.069   2.279 -0.3013  0.5072 -0.6686
 3081SOL    HW220877   2.071   1.048   2.168 -1.4258 -1.3738  0.7031
 3082SOL     OW20878   0.914   0.523  17.239  0.1929 -0.7390  0.5216
 3082SOL    HW120879   0.929   0.451  17.177  0.7910  1.6623 -2.0902
 3082SOL    HW220880   0.829   0.507  17.280 -1.1753 -0.3847 -2.1991
 3083SOL     OW20881   0.344   4.554  17.172 -0.1600 -0.3255  0.2934
 3083SOL    HW120882   0.268   4.607  17.148  0.2697  0.0862 -0.1562
 3083SOL    HW220883   0.353   4.583  17.263  1.9443 -0.0556  0.0077
 3084SOL     OW20884   1.882   0.111   6.495 -0.0247 -0.1495 -0.0022
 3084SOL    HW120885   1.913   0.131   6.407  0.5041 -1.3068 -0.0802
 3084SOL    HW220886   1.883   0.199   6.533 -1.3785 -0.0728 -0.1283
 3085SOL     OW20887   3.736   2.491   8.615  0.1041  0.7360 -0.4920
 3085SOL    HW120888   3.777   2.545   8.547 -0.5450  0.3650 -1.1803
 3085SOL    HW220889   3.698   2.557   8.672  2.0969 -1.6934  3.6298
 3086SOL     OW20890   2.852   3.471  17.172 -0.2490 -0.0970 -0.2986
 3086SOL    HW120891   2.912   3.495  17.243  0.5680  0.1263 -1.0505
 3086SOL    HW220892   2.818   3.552  17.134 -1.6956 -0.8749 -0.6547
 3087SOL     OW20893   3.878   2.107   7.340 -0.5066  0.1386  0.4766
 3087SOL    HW120894   3.906   2.191   7.302 -0.8047  1.0231  2.2427
 3087SOL    HW220895   3.898   2.131   7.430  2.5455  2.4615 -0.7933
 3088SOL     OW20896   3.823   4.515  14.841 -0.4734 -0.0769 -0.0852
 3088SOL    HW120897   3.877   4.539  14.766 -0.4531  0.0573 -0.0275
 3088SOL    HW220898   3.883   4.534  14.912 -0.8424  0.2664  0.1387
 3089SOL     OW20899   1.796   3.840  16.746 -0.5329  0.0121  0.2413
 3089SOL    HW120900   1.790   3.887  16.830 -2.7618 -0.8697  0.5738
 3089SOL    HW220901   1.848   3.896  16.688 -0.2440 -0.0333  0.4622
 3090SOL     OW20902   0.528   2.142  16.227  0.8162  0.2452  0.3136
 3090SOL    HW120903   0.506   2.225  16.270  0.7701  0.8858 -0.9395
 3090SOL    HW220904   0.589   2.183  16.166 -0.8792  0.4508 -1.2476
 3091SOL     OW20905   2.364   1.990  16.686 -0.3600 -0.2375 -0.4388
 3091SOL    HW120906   2.349   1.902  16.722  0.4555 -1.2598 -2.6212
 3091SOL    HW220907   2.353   1.974  16.592 -0.2069 -2.8779 -0.0221
 3092SOL     OW20908   1.633   0.231   9.401  0.3093  0.5301 -0.1347
 3092SOL    HW120909   1.570   0.178   9.449 -1.3648  1.8910 -0.8321
 3092SOL    HW220910   1.600   0.318   9.424 -0.4014 -0.5675  3.0325
 3093SOL     OW20911   4.582   0.840  11.360 -0.0334 -0.0845 -0.1876
 3093SOL    HW120912   4.553   0.872  11.445 -2.4910 -1.9215 -0.3404
 3093SOL    HW220913   4.567   0.910  11.296  4.3826  0.0470 -1.0934
 3094SOL     OW20914   1.980   1.596   2.884  0.1465  0.1440 -0.0494
 3094SOL    HW120915   2.051   1.547   2.844 -0.6352 -2.5081  1.7608
 3094SOL    HW220916   1.960   1.658   2.814 -0.4087  0.5707  0.4849
 3095SOL     OW20917   3.056   0.232   9.108  0.0097 -0.3304  0.0627
 3095SOL    HW120918   3.122   0.302   9.108 -0.2648 -0.0720  0.1883
 3095SOL    HW220919   2.977   0.282   9.087  1.0607 -0.1085 -3.3866
 3096SOL     OW20920   3.416   2.226   4.680  0.4658 -0.7062 -0.3364
 3096SOL    HW120921   3.416   2.153   4.741 -1.1101 -1.3843 -1.1432
 3096SOL    HW220922   3.361   2.195   4.608 -0.1606  2.1106 -1.0843
 3097SOL     OW20923   0.954   1.878  10.327 -0.2035  0.1650  0.1558
 3097SOL    HW120924   0.977   1.924  10.407  1.2079 -0.2665  0.0083
 3097SOL    HW220925   1.009   1.799  10.331 -0.3077  0.1467  1.3123
 3098SOL     OW20926   3.008   4.044   3.629 -0.2776 -1.0802  0.0035
 3098SOL    HW120927   3.067   3.972   3.605 -1.6900 -1.8383 -1.1679
 3098SOL    HW220928   3.064   4.122   3.633 -0.9296 -0.5164 -1.9894
 3099SOL     OW20929   4.558   0.246   3.054 -0.5290 -1.0409  0.7441
 3099SOL    HW120930   4.555   0.161   3.098  0.4809 -1.2064  0.4918
 3099SOL    HW220931   4.557   0.298   3.134  1.4323 -1.4435  1.0396
 3100SOL     OW20932   1.238   4.331   2.591 -0.7119 -0.5270 -0.2563
 3100SOL    HW120933   1.155   4.351   2.634  0.1538 -2.3588  2.2179
 3100SOL    HW220934   1.288   4.295   2.664  1.1052 -0.8827 -1.6650
 3101SOL     OW20935   1.504   0.141   3.468 -0.1749  0.1005  0.0619
 3101SOL    HW120936   1.482   0.053   3.435  0.2344  0.3639 -0.9107
 3101SOL    HW220937   1.542   0.112   3.551 -1.2338  0.5715  0.7060
 3102SOL     OW20938   0.524   1.544   3.623  0.3130 -0.1498 -0.0782
 3102SOL    HW120939   0.617   1.569   3.627  0.3388 -0.1655 -0.6712
 3102SOL    HW220940   0.529   1.476   3.691  0.9279  0.2010  0.2337
 3103SOL     OW20941   3.305   1.682   2.152 -0.0210  0.0227 -0.0075
 3103SOL    HW120942   3.240   1.742   2.189  0.0046  0.9747 -1.4592
 3103SOL    HW220943   3.339   1.746   2.089  1.1642  0.3099  0.9418
 3104SOL     OW20944   2.403   4.054  14.302  0.2766 -0.1994 -0.7618
 3104SOL    HW120945   2.419   3.975  14.250 -0.7496  0.1819 -1.6488
 3104SOL    HW220946   2.488   4.098  14.307 -0.0523  0.4676 -1.0141
 3105SOL     OW20947   3.637   3.744   3.164 -0.9100 -0.1475  0.4178
 3105SOL    HW120948   3.560   3.708   3.208  0.4323 -1.4711  1.6948
 3105SOL    HW220949   3.594   3.766   3.082 -1.3780  2.3048  1.3345
 3106SOL     OW20950   4.162   3.478   7.066  0.0064  0.5825  0.6254
 3106SOL    HW120951   4.102   3.548   7.040 -2.5484 -1.0845  2.1285
 3106SOL    HW220952   4.211   3.510   7.142 -1.5072  1.2221  1.3303
 3107SOL     OW20953   4.517   0.409   3.685  0.0309  0.4383 -0.1958
 3107SOL    HW120954   4.611   0.396   3.693 -0.1753 -1.0278 -0.2010
 3107SOL    HW220955   4.502   0.329   3.734  0.0554 -0.1813 -1.1864
 3108SOL     OW20956   3.608   1.160   6.233 -0.2023  0.0054 -0.2696
 3108SOL    HW120957   3.658   1.080   6.213 -2.1472 -1.8911  2.4458
 3108SOL    HW220958   3.683   1.211   6.263  0.4491 -0.1839 -1.5623
 3109SOL     OW20959   0.857   1.386  13.094 -0.3114  0.2378  0.2393
 3109SOL    HW120960   0.875   1.477  13.114  1.0060  0.0585 -0.1369
 3109SOL    HW220961   0.865   1.384  12.998  4.0050 -2.8646  0.6486
 3110SOL     OW20962   4.470   1.515   1.257  0.5908  0.6587 -0.0428
 3110SOL    HW120963   4.449   1.449   1.323  0.5664  1.2447  0.5351
 3110SOL    HW220964   4.490   1.591   1.311  1.9262  0.6814 -0.5804
 3111SOL     OW20965   2.784   3.887   3.235  0.1290 -0.1533  0.7383
 3111SOL    HW120966   2.874   3.917   3.228 -0.0988  0.9415  2.4423
 3111SOL    HW220967   2.767   3.884   3.329  0.5085  0.3801  0.8200
 3112SOL     OW20968   4.482   0.047   3.250 -0.4176 -0.7755 -0.0350
 3112SOL    HW120969   4.501   0.137   3.275 -0.5202 -0.7252 -0.1362
 3112SOL    HW220970   4.564   4.736   3.259 -1.1227 -1.7406  1.1576
 3113SOL     OW20971   3.108   3.598  13.172 -0.4293 -0.0128 -0.0331
 3113SOL    HW120972   3.203   3.610  13.175 -0.0226 -3.2491 -0.0196
 3113SOL    HW220973   3.092   3.532  13.240  0.8795 -0.5032 -0.1915
 3114SOL     OW20974   4.310   0.501   7.876  0.2371 -0.1391 -0.3657
 3114SOL    HW120975   4.375   0.566   7.848  1.3511 -1.0964  0.0180
 3114SOL    HW220976   4.313   0.502   7.972  1.5021 -0.8201 -0.4039
 3115SOL     OW20977   0.501   4.587  11.125 -0.2634  0.5519  0.3739
 3115SOL    HW120978   0.414   4.626  11.116 -1.4435 -1.7903  1.6824
 3115SOL    HW220979   0.505   4.565  11.218  0.9251 -1.5123 -0.1807
 3116SOL     OW20980   0.429   0.894   8.588  0.2984 -0.0269  0.4786
 3116SOL    HW120981   0.499   0.883   8.651  0.8788 -1.5526 -0.4484
 3116SOL    HW220982   0.373   0.940   8.650 -0.2823 -1.8587  1.2943
 3117SOL     OW20983   2.342   3.049   5.669  0.1261 -0.2586 -0.0920
 3117SOL    HW120984   2.403   2.995   5.719 -1.9202 -2.4339  0.0765
 3117SOL    HW220985   2.368   3.133   5.705 -2.2795 -0.9113  3.1634
 3118SOL     OW20986   3.738   0.380   5.824 -0.1926 -0.1387  0.8338
 3118SOL    HW120987   3.646   0.351   5.822 -0.4929  0.8384  0.3434
 3118SOL    HW220988   3.757   0.406   5.734  1.5564  0.7971  1.4712
 3119SOL     OW20989   4.172   3.379   7.465 -0.0113  0.3613  0.1717
 3119SOL    HW120990   4.223   3.336   7.397  0.4710  0.6747  0.3343
 3119SOL    HW220991   4.152   3.310   7.528 -0.9738 -0.8678 -1.4719
 3120SOL     OW20992   3.607   3.544   5.568 -0.1521  1.1112  0.4297
 3120SOL    HW120993   3.692   3.535   5.524 -0.6169 -0.0548 -0.2483
 3120SOL    HW220994   3.550   3.483   5.520  1.3063 -0.5128  0.7728
 3121SOL     OW20995   2.775   4.632   1.405  0.3721  0.1687  0.5796
 3121SOL    HW120996   2.742   4.711   1.448  1.1190  0.8462 -0.0697
 3121SOL    HW220997   2.814   4.584   1.478 -0.9197 -0.2467  0.9816
 3122SOL     OW20998   3.459   1.386   5.345 -0.9525 -0.0627 -0.5463
 3122SOL    HW120999   3.476   1.411   5.436  1.0939  0.2456 -1.0106
 3122SOL    HW221000   3.364   1.383   5.351 -0.8963 -0.3254  0.2854
 3123SOL     OW21001   3.989   0.687   2.368 -0.4385 -0.2581  0.1039
 3123SOL    HW121002   3.989   0.640   2.285  1.1349 -0.0334 -0.0231
 3123SOL    HW221003   4.082   0.670   2.380 -0.9013 -1.7635  1.6524
 3124SOL     OW21004   3.920   0.357   4.580  0.3963  0.1735  0.0199
 3124SOL    HW121005   3.901   0.263   4.582  2.1903 -0.1790  0.3254
 3124SOL    HW221006   3.891   0.374   4.491  1.3670  1.2474 -0.0853
 3125SOL     OW21007   0.858   2.243   5.733  0.2362 -0.5656  0.0862
 3125SOL    HW121008   0.859   2.245   5.828  0.8842  0.8537  0.0401
 3125SOL    HW221009   0.767   2.269   5.715  0.8635  2.5280  1.3737
 3126SOL     OW21010   2.555   2.190   3.589 -0.1204  0.3301  0.2758
 3126SOL    HW121011   2.576   2.184   3.682 -0.7176  2.5354  0.5537
 3126SOL    HW221012   2.465   2.216   3.610 -0.2835 -1.1009  1.3745
 3127SOL     OW21013   0.396   3.972   3.720  0.4049  0.4623 -0.1925
 3127SOL    HW121014   0.444   4.048   3.686 -1.3837  0.3371 -3.0219
 3127SOL    HW221015   0.310   3.982   3.679  0.7583 -0.2536 -1.1201
 3128SOL     OW21016   0.995   1.859   4.710 -0.1679  0.4531  0.1620
 3128SOL    HW121017   0.910   1.816   4.700 -0.7848  1.7950 -0.4180
 3128SOL    HW221018   0.998   1.902   4.625  0.9951  1.7367  0.8564
 3129SOL     OW21019   3.772   4.479   7.281 -0.0040  0.2942 -0.1336
 3129SOL    HW121020   3.825   4.548   7.242 -0.3994  0.2170 -0.8169
 3129SOL    HW221021   3.831   4.404   7.270 -1.3204 -0.7316 -0.3428
 3130SOL     OW21022   0.687   4.513   6.655 -0.1460  0.5178 -0.3884
 3130SOL    HW121023   0.624   4.451   6.693  1.3021  0.4486  1.9473
 3130SOL    HW221024   0.704   4.560   6.737 -0.2805 -2.5848  1.4241
 3131SOL     OW21025   3.978   1.520   7.574  0.3586  0.6739 -0.1544
 3131SOL    HW121026   4.001   1.549   7.485 -2.8867  1.8974 -0.5790
 3131SOL    HW221027   3.970   1.601   7.623  1.3527 -0.0840  1.2626
 3132SOL     OW21028   0.890   0.131   2.243 -0.1113  0.5678 -0.0024
 3132SOL    HW121029   0.970   0.123   2.295 -2.0894 -1.0410  2.7570
 3132SOL    HW221030   0.929   0.117   2.157 -1.8729 -0.4286 -0.6146
 3133SOL     OW21031   3.251   3.042  10.656 -0.3293 -0.3637 -0.8649
 3133SOL    HW121032   3.210   3.049  10.570  1.2949  2.3932 -1.4076
 3133SOL    HW221033   3.212   3.120  10.695  0.8635 -0.8186  1.2409
 3134SOL     OW21034   0.074   0.319   0.156 -0.2521 -0.0616 -0.1596
 3134SOL    HW121035   0.081   0.263   0.079  1.7055  0.4976 -0.3929
 3134SOL    HW221036   0.035   0.402   0.128 -0.1246  0.2044  0.4409
 3135SOL     OW21037   1.616   0.635  12.034  0.8790 -0.7834 -0.3194
 3135SOL    HW121038   1.594   0.636  11.941  1.7293  0.6564 -0.5112
 3135SOL    HW221039   1.667   0.713  12.055 -1.1311  0.1528  1.0504
 3136SOL     OW21040   4.557   4.576   7.323 -0.0201 -0.0466 -0.2377
 3136SOL    HW121041   4.508   4.502   7.288 -0.8961 -0.2119  1.3852
 3136SOL    HW221042   4.523   4.640   7.260  2.1393  0.1089 -1.2512
 3137SOL     OW21043   4.272   2.140  11.858 -0.0544 -0.2839 -0.1873
 3137SOL    HW121044   4.232   2.061  11.824 -0.6001 -0.3407  0.5737
 3137SOL    HW221045   4.256   2.122  11.950 -0.9920 -3.4212 -0.9960
 3138SOL     OW21046   0.446   2.586   5.041 -0.2975 -0.6946  0.2185
 3138SOL    HW121047   0.532   2.550   5.019 -1.4572 -2.5486 -1.2925
 3138SOL    HW221048   0.398   2.504   5.054 -0.3861 -0.5538  0.7954
 3139SOL     OW21049   0.476   3.607   5.503  0.6713 -0.5057  0.0850
 3139SOL    HW121050   0.453   3.596   5.411  0.3689 -0.2679  0.1328
 3139SOL    HW221051   0.405   3.562   5.549  1.4723  0.3198  2.1694
 3140SOL     OW21052   1.661   2.188  13.727  0.1317 -0.5086  0.2788
 3140SOL    HW121053   1.605   2.204  13.803 -2.1082 -1.7257 -1.1092
 3140SOL    HW221054   1.743   2.162  13.768  0.2872 -0.7584 -0.1930
 3141SOL     OW21055   3.737   4.312   4.622 -0.9177  0.1699 -0.0880
 3141SOL    HW121056   3.782   4.393   4.648  0.1594 -0.7745  0.9720
 3141SOL    HW221057   3.730   4.334   4.529  2.1789  1.8079  0.0405
 3142SOL     OW21058   1.829   0.903  15.730  0.3762 -0.0937 -0.2762
 3142SOL    HW121059   1.742   0.864  15.718  0.9431 -0.2801 -3.8824
 3142SOL    HW221060   1.816   0.979  15.787 -0.0105 -0.3334 -0.0405
 3143SOL     OW21061   0.224   2.741  10.586 -0.1830 -0.6290  0.2855
 3143SOL    HW121062   0.224   2.652  10.621 -0.3348 -1.1626 -1.0613
 3143SOL    HW221063   0.137   2.770  10.613  0.4959  1.8978 -0.3139
 3144SOL     OW21064   1.254   1.285   9.195  0.3152  0.6816  0.0297
 3144SOL    HW121065   1.317   1.220   9.227 -0.1500 -0.6512 -1.8235
 3144SOL    HW221066   1.308   1.364   9.208 -0.7135  1.5898 -1.2094
 3145SOL     OW21067   4.578   2.277   7.918  0.1169  0.2246 -0.1540
 3145SOL    HW121068   4.600   2.188   7.891  0.7118  1.3207 -3.2270
 3145SOL    HW221069   4.664   2.316   7.933  0.2521 -0.5382  1.1302
 3146SOL     OW21070   0.999   0.275   0.403  0.5645  0.1618  0.2915
 3146SOL    HW121071   1.079   0.314   0.369  0.2844  0.2855 -0.2345
 3146SOL    HW221072   0.955   0.352   0.439  0.2825  0.4391 -0.6534
 3147SOL     OW21073   3.618   1.807   0.130 -0.4048  0.3995  0.3823
 3147SOL    HW121074   3.576   1.729   0.166 -1.3891  0.0246 -1.6002
 3147SOL    HW221075   3.570   1.837   0.053 -0.5135  0.2450  0.3909
 3148SOL     OW21076   1.393   0.820   6.692  0.0118 -0.2797 -0.4195
 3148SOL    HW121077   1.410   0.729   6.667  1.0321 -0.0573 -0.5364
 3148SOL    HW221078   1.338   0.839   6.616 -1.5294 -3.3351 -0.0642
 3149SOL     OW21079   0.014   3.953   1.491 -0.4457  0.1703 -0.1084
 3149SOL    HW121080   4.709   4.026   1.447 -1.1693  0.3109  0.8323
 3149SOL    HW221081   0.102   3.975   1.460 -1.2783 -0.4444 -2.9525
 3150SOL     OW21082   2.072   0.500   6.736 -0.5827  0.0486  0.1712
 3150SOL    HW121083   2.123   0.472   6.660  0.5741 -0.7987  1.2718
 3150SOL    HW221084   1.990   0.457   6.710 -0.6874  0.7155 -0.5991
 3151SOL     OW21085   2.986   4.731   6.138 -0.3971 -0.2900 -0.2077
 3151SOL    HW121086   2.999   0.070   6.194  0.0868  0.8807 -1.9201
 3151SOL    HW221087   3.028   0.019   6.056  0.5505  0.5309  0.5301
 3152SOL     OW21088   3.868   3.416   2.400  0.1364  0.1897 -0.0064
 3152SOL    HW121089   3.777   3.438   2.420  0.7643  1.3750  1.5146
 3152SOL    HW221090   3.875   3.332   2.444  1.5042  0.2788 -0.0626
 3153SOL     OW21091   0.467   2.236  11.788 -0.4729  0.1962  0.3272
 3153SOL    HW121092   0.396   2.199  11.737  0.9107 -0.4166 -1.1688
 3153SOL    HW221093   0.498   2.166  11.845 -0.7561  1.0682  1.5383
 3154SOL     OW21094   1.499   0.880   9.391  0.1086 -0.0658 -0.0876
 3154SOL    HW121095   1.557   0.843   9.325 -0.2786  0.5180 -0.7546
 3154SOL    HW221096   1.417   0.896   9.343  0.7253  2.7404 -0.1886
 3155SOL     OW21097   2.090   2.939  10.753  0.4526 -0.2182  0.4416
 3155SOL    HW121098   2.171   2.962  10.707  1.3776 -2.4335  0.9177
 3155SOL    HW221099   2.028   2.954  10.683 -0.8432  1.1859  1.9153
 3156SOL     OW21100   1.785   4.060   7.930  0.7227  0.2083 -0.2612
 3156SOL    HW121101   1.714   4.059   7.994  1.5445  0.3913  0.6629
 3156SOL    HW221102   1.857   4.091   7.985  1.9259 -2.1110 -0.5007
 3157SOL     OW21103   2.980   4.146  16.289  0.2292  0.2940  0.1849
 3157SOL    HW121104   3.017   4.121  16.205 -0.4240  0.8528 -0.2703
 3157SOL    HW221105   2.900   4.094  16.284  0.5715 -0.2287  0.2270
 3158SOL     OW21106   3.138   0.901  14.368 -0.0468  0.4914  0.2652
 3158SOL    HW121107   3.076   0.894  14.296 -0.0483 -0.0108  0.3138
 3158SOL    HW221108   3.220   0.893  14.319  1.0757 -1.6376  2.5064
 3159SOL     OW21109   0.622   2.354  13.500 -0.3046  0.4201  0.4234
 3159SOL    HW121110   0.669   2.437  13.504  0.0730  0.0901  2.5680
 3159SOL    HW221111   0.691   2.289  13.514 -0.5232 -0.0066 -0.4330
 3160SOL     OW21112   2.043   2.812   8.625  0.0754 -0.2770 -0.0289
 3160SOL    HW121113   2.100   2.759   8.681  0.1351 -1.5876 -1.3365
 3160SOL    HW221114   2.073   2.782   8.540 -0.4473  1.7600 -0.9270
 3161SOL     OW21115   0.116   3.401   8.359 -0.0457 -0.1608  0.1423
 3161SOL    HW121116   0.134   3.432   8.448 -5.0446  2.4139  0.2217
 3161SOL    HW221117   0.178   3.454   8.309  0.5870  1.8709  3.0851
 3162SOL     OW21118   0.378   3.335   2.662 -0.1008 -0.3846 -0.7538
 3162SOL    HW121119   0.381   3.425   2.695 -0.5367 -1.2833  1.7633
 3162SOL    HW221120   0.295   3.302   2.698  0.3515 -0.1278  0.5261
 3163SOL     OW21121   2.324   4.520   9.017  0.2979 -0.0028  0.3528
 3163SOL    HW121122   2.341   4.614   9.009  0.0869 -0.0383 -0.5716
 3163SOL    HW221123   2.398   4.482   9.065 -1.2278 -3.1435  0.1771
 3164SOL     OW21124   3.296   2.794   4.874 -0.0372 -0.5221 -0.0929
 3164SOL    HW121125   3.267   2.879   4.909 -1.3017 -1.0693  0.2013
 3164SOL    HW221126   3.246   2.730   4.925  0.4224 -1.0556 -0.3196
 3165SOL     OW21127   4.370   0.085  12.438  0.4632  0.3812  0.5745
 3165SOL    HW121128   4.348   0.071  12.530 -0.2391 -1.4549  0.1248
 3165SOL    HW221129   4.462   0.057  12.439  0.1321 -0.6992  0.5127
 3166SOL     OW21130   1.074   1.581   4.797 -0.1153 -0.4485  0.4085
 3166SOL    HW121131   1.093   1.497   4.756 -3.5927 -0.4248 -1.2723
 3166SOL    HW221132   1.083   1.640   4.722  0.2006 -1.6284 -0.4804
 3167SOL     OW21133   0.173   3.225   6.832  0.6392  0.1140  0.2776
 3167SOL    HW121134   0.216   3.143   6.807 -1.3649 -1.2052  1.1264
 3167SOL    HW221135   0.083   3.191   6.834  0.5426  0.3646  0.1330
 3168SOL     OW21136   2.315   0.400  16.255 -0.2315 -0.2657  0.1003
 3168SOL    HW121137   2.310   0.340  16.329 -1.2401  1.5351  1.4916
 3168SOL    HW221138   2.365   0.349  16.191 -0.9436  1.0978 -1.5381
 3169SOL     OW21139   2.025   4.361   5.963 -0.1425 -0.8181 -0.7963
 3169SOL    HW121140   2.028   4.430   5.895  0.9654 -0.4506 -0.3674
 3169SOL    HW221141   2.109   4.322   5.941  0.3739  0.9316 -2.0205
 3170SOL     OW21142   3.075   0.876  10.732 -0.4683 -0.1806 -0.3067
 3170SOL    HW121143   3.079   0.843  10.822  1.9707 -1.3246 -0.8443
 3170SOL    HW221144   3.061   0.798  10.679  0.3793 -1.6909  1.6877
 3171SOL     OW21145   2.508   0.148   7.738 -0.0780  0.0551 -0.8793
 3171SOL    HW121146   2.445   0.158   7.667 -1.1341 -0.9192 -0.0857
 3171SOL    HW221147   2.496   0.229   7.788 -0.0553 -0.3199 -0.2678
 3172SOL     OW21148   0.957   4.726   3.862  0.0047  0.2670  0.0191
 3172SOL    HW121149   0.878   0.039   3.885  0.1753  1.8010 -2.8170
 3172SOL    HW221150   0.978   0.013   3.772  3.0974 -0.5738  0.5377
 3173SOL     OW21151   2.722   3.219   2.003 -0.6757 -0.3745 -0.1430
 3173SOL    HW121152   2.647   3.219   1.943  0.0827  1.5011 -1.0707
 3173SOL    HW221153   2.798   3.224   1.946 -2.4152  0.8357 -2.3762
 3174SOL     OW21154   3.898   0.190   3.062 -0.2479 -0.1487 -0.1211
 3174SOL    HW121155   3.822   0.158   3.110 -0.0324  0.7020  0.7811
 3174SOL    HW221156   3.949   0.244   3.123 -0.6960 -0.9452  0.9443
 3175SOL     OW21157   1.295   2.313   8.083  0.3503 -0.1934  0.1232
 3175SOL    HW121158   1.204   2.338   8.096  0.5261  1.2692 -1.2639
 3175SOL    HW221159   1.304   2.218   8.088 -0.6551 -0.2111  1.2764
 3176SOL     OW21160   0.540   0.712   4.739  0.2816 -0.6032 -0.1356
 3176SOL    HW121161   0.549   0.717   4.644  1.5419 -1.4256 -0.0720
 3176SOL    HW221162   0.469   0.648   4.740  0.4491 -0.8009 -1.2011
 3177SOL     OW21163   2.762   0.095   7.620 -0.5715 -0.5618  0.1938
 3177SOL    HW121164   2.678   0.103   7.664 -2.3779 -1.9473 -2.9812
 3177SOL    HW221165   2.768   0.179   7.575  0.4315 -0.4408  0.5466
 3178SOL     OW21166   4.001   2.312   2.157  0.4901  0.0462 -0.1762
 3178SOL    HW121167   4.034   2.243   2.099 -1.3021 -1.9611  1.1776
 3178SOL    HW221168   4.084   2.355   2.174 -0.1180  0.5911  1.4417
 3179SOL     OW21169   2.260   3.737   7.942 -0.2560 -0.6158 -0.0023
 3179SOL    HW121170   2.244   3.647   7.970 -0.4757  0.0840  2.1564
 3179SOL    HW221171   2.234   3.788   8.019  1.4457  1.7233 -0.9968
 3180SOL     OW21172   0.966   1.266   6.421 -0.1996  0.0047  0.2004
 3180SOL    HW121173   0.985   1.192   6.479  2.0197  2.4757  2.6490
 3180SOL    HW221174   0.899   1.233   6.362  0.4911  1.2382 -1.2966
 3181SOL     OW21175   3.592   2.523   3.133  0.3779 -0.6285  0.5307
 3181SOL    HW121176   3.510   2.560   3.103  1.5355 -0.3172 -2.2679
 3181SOL    HW221177   3.626   2.604   3.170 -0.5359  0.5760 -1.2542
 3182SOL     OW21178   2.781   0.016   5.798  0.1435  0.1286  0.5376
 3182SOL    HW121179   2.763   0.100   5.755 -0.7865 -0.1692  0.3474
 3182SOL    HW221180   2.841   4.712   5.736  0.1785 -1.2953  1.5558
 3183SOL     OW21181   4.245   2.343   3.940 -0.0858  0.7856 -0.8115
 3183SOL    HW121182   4.336   2.328   3.913  0.5325  3.0290 -0.0174
 3183SOL    HW221183   4.190   2.343   3.862 -2.0040  3.1040  0.5206
 3184SOL     OW21184   0.015   0.364   1.849  0.1762  0.0203 -0.0736
 3184SOL    HW121185   0.080   0.364   1.920  1.0144  0.7345 -0.8590
 3184SOL    HW221186   4.732   0.270   1.851 -0.4697  0.1928  2.0740
 3185SOL     OW21187   1.754   4.356   8.708 -0.2366  0.1830  0.3944
 3185SOL    HW121188   1.755   4.405   8.790  0.8186  0.4244  0.2305
 3185SOL    HW221189   1.678   4.398   8.667  1.5083  1.1948 -1.7609
 3186SOL     OW21190   4.550   3.960   9.453  0.2582 -0.3088  0.3327
 3186SOL    HW121191   4.473   3.906   9.435 -0.5112  1.6285 -2.1316
 3186SOL    HW221192   4.534   4.040   9.404  0.5609 -0.7244 -0.4340
 3187SOL     OW21193   1.755   2.841   8.222  0.3304  0.3245  0.1183
 3187SOL    HW121194   1.673   2.889   8.211 -0.4817 -1.9218 -3.5091
 3187SOL    HW221195   1.766   2.810   8.133 -0.5144  2.5983 -0.7684
 3188SOL     OW21196   3.847   1.368   4.483 -0.2522 -0.5913  0.1464
 3188SOL    HW121197   3.817   1.441   4.538  1.3878  1.7354 -2.0117
 3188SOL    HW221198   3.942   1.380   4.493 -0.6872  3.7497 -0.5757
 3189SOL     OW21199   1.547   2.150   3.221 -0.3863  0.1037  0.0811
 3189SOL    HW121200   1.604   2.099   3.163  0.8283 -0.0136  1.3924
 3189SOL    HW221201   1.606   2.216   3.258  1.5043 -1.6643  0.2192
 3190SOL     OW21202   2.675   3.802  13.798  0.1100  0.4266  0.2131
 3190SOL    HW121203   2.681   3.827  13.706 -0.4648 -0.1932  0.0036
 3190SOL    HW221204   2.707   3.881  13.840 -1.5819  2.1949 -1.8257
 3191SOL     OW21205   2.067   2.741   7.424  0.2307  0.0516 -0.5620
 3191SOL    HW121206   2.075   2.694   7.507  1.2508 -0.5157 -0.9717
 3191SOL    HW221207   2.105   2.670   7.371 -1.6529 -0.3659 -1.3780
 3192SOL     OW21208   0.631   0.590   0.715  0.0723  0.2960 -0.0451
 3192SOL    HW121209   0.618   0.620   0.625  1.5147 -0.7130 -0.5940
 3192SOL    HW221210   0.570   0.646   0.763  1.3572  2.5054 -0.9829
 3193SOL     OW21211   1.080   1.769   6.524  0.1237  0.4933  0.0107
 3193SOL    HW121212   1.094   1.683   6.483  0.3311  0.9033 -0.7747
 3193SOL    HW221213   1.157   1.784   6.578  0.7994  2.2113 -1.4521
 3194SOL     OW21214   1.431   2.060   6.482 -0.3116  0.0529  0.1172
 3194SOL    HW121215   1.425   1.966   6.496 -1.2290  0.1553  0.4065
 3194SOL    HW221216   1.444   2.063   6.388 -0.4703  2.3141  0.1612
 3195SOL     OW21217   2.001   2.555   2.524  0.1159 -0.3624 -0.1330
 3195SOL    HW121218   2.083   2.560   2.475 -0.4306 -0.6603 -1.0691
 3195SOL    HW221219   2.026   2.586   2.611 -2.3448  0.4671  0.2808
 3196SOL     OW21220   0.268   3.549   3.827  0.6096  0.3520 -0.4398
 3196SOL    HW121221   0.292   3.613   3.894  0.7849  0.4606 -0.6076
 3196SOL    HW221222   0.338   3.485   3.841 -0.3658 -0.4851  0.5817
 3197SOL     OW21223   4.686   4.006  11.926  0.0586  0.1745 -0.2664
 3197SOL    HW121224   4.611   4.063  11.939 -0.2019 -0.7029  2.1004
 3197SOL    HW221225   4.691   4.012  11.831  1.3530 -1.4126 -0.3141
 3198SOL     OW21226   0.650   4.631   2.065 -0.7748 -0.3865 -0.1139
 3198SOL    HW121227   0.643   4.717   2.023  0.3201 -0.1141  0.2518
 3198SOL    HW221228   0.599   4.585   1.998 -0.4302 -2.7124  1.2329
 3199SOL     OW21229   1.717   4.011   8.368 -0.0797 -0.5489 -0.5887
 3199SOL    HW121230   1.693   3.961   8.446  1.7132  0.2331  0.4667
 3199SOL    HW221231   1.643   4.070   8.353  0.0906  0.2229  1.5881
 3200SOL     OW21232   4.291   0.964   7.177  0.2670  1.1481 -0.6194
 3200SOL    HW121233   4.223   1.013   7.130  2.0513  0.7618 -3.6038
 3200SOL    HW221234   4.365   0.971   7.116  0.1810  1.7415 -0.6589
 3201SOL     OW21235   2.014   3.648   6.647 -0.3139 -0.1018  0.4670
 3201SOL    HW121236   2.023   3.634   6.741 -1.1257 -1.8735  0.2816
 3201SOL    HW221237   1.919   3.657   6.648 -0.1875  1.3843 -1.0733
 3202SOL     OW21238   1.481   1.800   6.177 -0.0865  0.3496  0.1585
 3202SOL    HW121239   1.489   1.894   6.165  2.3877  0.2575  0.9611
 3202SOL    HW221240   1.387   1.781   6.172 -0.4705  2.4679 -0.7329
 3203SOL     OW21241   4.532   1.314   1.750 -0.6879 -0.2160 -0.5322
 3203SOL    HW121242   4.529   1.333   1.656  1.0838 -0.5212 -0.6522
 3203SOL    HW221243   4.438   1.301   1.760 -0.2071 -2.6167  0.7611
 3204SOL     OW21244   4.120   4.451   0.741  0.5804 -0.1176 -0.4111
 3204SOL    HW121245   4.070   4.370   0.751  0.1276  0.3445  1.0334
 3204SOL    HW221246   4.152   4.469   0.829  0.2745  1.0448 -0.5470
 3205SOL     OW21247   2.856   3.359   7.092 -0.3077 -0.5139  0.2278
 3205SOL    HW121248   2.781   3.354   7.032  1.5715 -0.9718 -2.0936
 3205SOL    HW221249   2.912   3.422   7.045 -0.0387 -3.0455 -2.8555
 3206SOL     OW21250   2.238   2.912   8.998  0.2354 -0.7466  0.4496
 3206SOL    HW121251   2.298   2.964   9.052  0.4729  0.6322 -1.1905
 3206SOL    HW221252   2.161   2.939   9.049 -1.8250 -0.3980 -2.9053
 3207SOL     OW21253   2.546   2.843   5.669 -0.0762  0.0051 -0.6267
 3207SOL    HW121254   2.570   2.856   5.760 -0.9888  1.5931 -0.6095
 3207SOL    HW221255   2.628   2.846   5.620  1.5416  2.2711  2.2192
 3208SOL     OW21256   0.123   0.615   8.069  0.4947  0.0235 -0.6535
 3208SOL    HW121257   0.036   0.608   8.109  1.5721 -2.4337  1.2179
 3208SOL    HW221258   0.128   0.711   8.069  1.3308 -0.0246  0.8809
 3209SOL     OW21259   2.630   0.890   3.007  0.3633 -0.1565 -0.4670
 3209SOL    HW121260   2.715   0.921   3.039  0.3390 -0.8949  0.3200
 3209SOL    HW221261   2.613   0.818   3.067 -0.2703  0.1101 -0.3333
 3210SOL     OW21262   4.306   3.199   3.450  0.2624  0.1492  0.2301
 3210SOL    HW121263   4.258   3.238   3.377  0.4971 -1.4993 -0.8013
 3210SOL    HW221264   4.341   3.115   3.419  0.7796  0.5307 -0.2294
 3211SOL     OW21265   3.572   2.060   4.865  0.1704  0.1483  0.0585
 3211SOL    HW121266   3.613   2.146   4.869  1.4972 -0.4407 -0.9270
 3211SOL    HW221267   3.560   2.039   4.958  0.6256  0.1476  0.1138
 3212SOL     OW21268   0.903   0.844   0.147  0.1261 -0.1583  0.6326
 3212SOL    HW121269   0.829   0.880   0.097  0.6614 -1.3296 -0.9972
 3212SOL    HW221270   0.934   0.780   0.083  0.0281  0.3485  0.0678
 3213SOL     OW21271   2.380   3.798   9.631 -0.0861 -0.1738 -0.2761
 3213SOL    HW121272   2.352   3.855   9.560 -0.6785 -1.2022 -0.8640
 3213SOL    HW221273   2.295   3.762   9.657 -0.6371  1.4687  0.1403
 3214SOL     OW21274   4.461   1.931   6.534  0.2691 -0.1902 -0.2643
 3214SOL    HW121275   4.517   1.938   6.456  1.0455  0.2696  0.3395
 3214SOL    HW221276   4.402   2.005   6.516 -1.6448 -1.1740  1.9870
 3215SOL     OW21277   4.309   4.040  17.393 -0.7715  0.3130  0.2612
 3215SOL    HW121278   4.301   4.002  17.306  0.3988 -1.4196  0.9207
 3215SOL    HW221279   4.274   4.121  17.356  0.5414  1.4349  1.4888
 3216SOL     OW21280   0.490   4.580   2.377 -0.7268 -0.2956 -0.7419
 3216SOL    HW121281   0.514   4.540   2.461 -0.8938  0.3925 -0.3734
 3216SOL    HW221282   0.541   4.659   2.394  1.0072 -1.1937 -1.7489
 3217SOL     OW21283   0.098   0.105   8.466  0.2165 -0.0018 -0.3393
 3217SOL    HW121284   0.014   0.141   8.495  0.2951  0.5155 -0.7602
 3217SOL    HW221285   0.058   0.033   8.417 -1.1231  0.6930 -0.2887
 3218SOL     OW21286   0.959   1.428  13.776 -0.0045 -0.2641  0.5516
 3218SOL    HW121287   1.045   1.397  13.804 -0.4671 -0.7661  1.4049
 3218SOL    HW221288   0.966   1.522  13.794  0.0879 -0.4115  1.2818
 3219SOL     OW21289   1.965   0.749   8.475  0.1970  0.0632 -0.3448
 3219SOL    HW121290   2.024   0.690   8.523  0.7551  0.7270 -0.2091
 3219SOL    HW221291   1.968   0.717   8.385  0.3697  2.0362 -1.0364
 3220SOL     OW21292   1.001   2.458   2.164  0.3759  0.5383 -0.0861
 3220SOL    HW121293   1.019   2.545   2.128 -0.5696 -0.5541 -3.2167
 3220SOL    HW221294   0.907   2.445   2.174  0.6260 -0.8309  0.4230
 3221SOL     OW21295   0.306   4.112   3.976  0.3879  0.3112  0.1173
 3221SOL    HW121296   0.312   4.196   4.021 -0.8164  1.1334 -1.2310
 3221SOL    HW221297   0.393   4.103   3.937  0.5744  2.2904  0.0971
 3222SOL     OW21298   4.361   0.482   5.131  0.4665  0.1062  0.4792
 3222SOL    HW121299   4.441   0.478   5.079  0.1175  1.1410 -0.1333
 3222SOL    HW221300   4.396   0.512   5.214 -0.5570  0.7697  0.6753
 3223SOL     OW21301   4.019   1.548   5.904 -0.1240  0.6336 -0.3349
 3223SOL    HW121302   3.929   1.571   5.883 -0.2912 -2.7994 -3.3712
 3223SOL    HW221303   4.035   1.483   5.836 -0.5791 -0.5947  0.7061
 3224SOL     OW21304   4.464   2.209   3.406  0.5489 -0.2115 -0.4618
 3224SOL    HW121305   4.547   2.257   3.404 -0.1886  0.9767 -2.1431
 3224SOL    HW221306   4.460   2.206   3.502  0.4550  1.2048 -0.4277
 3225SOL     OW21307   0.727   0.798   1.170  0.6367 -0.4209  0.2590
 3225SOL    HW121308   0.691   0.853   1.100  1.8608  1.5587  1.2094
 3225SOL    HW221309   0.660   0.732   1.189  0.1591  0.0582  0.2518
 3226SOL     OW21310   3.939   0.601  13.710  0.1804  0.1510  0.5240
 3226SOL    HW121311   3.890   0.659  13.769  0.3567  2.1247 -1.2573
 3226SOL    HW221312   3.913   0.619  13.620  0.8228  2.0544  0.7187
 3227SOL     OW21313   2.121   4.476   9.205  0.8049 -0.1660  1.0354
 3227SOL    HW121314   2.183   4.478   9.132 -0.0873 -2.8568  0.2081
 3227SOL    HW221315   2.068   4.548   9.170 -1.1766 -2.6317 -1.0922
 3228SOL     OW21316   0.928   1.981   6.787 -0.4977 -1.0755  0.0054
 3228SOL    HW121317   0.924   1.892   6.820 -2.6534 -0.8068  0.4153
 3228SOL    HW221318   0.915   2.030   6.868 -1.5498 -1.6319  0.1733
 3229SOL     OW21319   0.889   3.170   6.971 -0.6811 -1.1525  0.3190
 3229SOL    HW121320   0.976   3.156   6.934 -0.7786  1.3785 -0.8764
 3229SOL    HW221321   0.844   3.230   6.912 -0.8483 -1.5783  0.0148
 3230SOL     OW21322   3.861   1.867  13.377 -0.2351 -0.2964  0.0049
 3230SOL    HW121323   3.830   1.781  13.407 -0.1553 -0.0078  0.9225
 3230SOL    HW221324   3.888   1.845  13.288  0.1877  0.9713 -0.1844
 3231SOL     OW21325   4.364   2.670   3.833  0.5118  0.1350  0.3447
 3231SOL    HW121326   4.392   2.673   3.924  1.6312  0.8650 -0.0203
 3231SOL    HW221327   4.342   2.761   3.812  0.3806 -0.4177 -1.9933
 3232SOL     OW21328   4.331   0.014   6.094 -0.0975 -0.1695  0.3868
 3232SOL    HW121329   4.265   4.702   6.143 -1.6807  1.2880 -0.2782
 3232SOL    HW221330   4.275   0.059   6.031  2.1262  2.0446  0.0084
 3233SOL     OW21331   1.150   0.564   8.513 -0.5372  0.6190 -0.5022
 3233SOL    HW121332   1.222   0.597   8.567  0.5168 -0.6258 -1.1345
 3233SOL    HW221333   1.195   0.543   8.431  1.0415  2.1629 -0.0306
 3234SOL     OW21334   2.465   1.695   4.324  0.0499  0.7765 -0.7883
 3234SOL    HW121335   2.551   1.689   4.282  0.6346  0.0758  0.5158
 3234SOL    HW221336   2.455   1.789   4.310 -0.2150  0.9994  0.8730
 3235SOL     OW21337   4.627   0.324   8.049 -0.1298 -0.3157  0.4772
 3235SOL    HW121338   4.713   0.306   8.087  0.7319  0.1655 -1.2553
 3235SOL    HW221339   4.574   0.337   8.128 -1.3992 -0.2273 -0.3931
 3236SOL     OW21340   2.861   1.621  11.148 -0.4539 -0.5378 -0.3178
 3236SOL    HW121341   2.772   1.625  11.181 -0.5016 -2.5703 -0.2145
 3236SOL    HW221342   2.907   1.595  11.228 -0.9157  1.3185  0.5572
 3237SOL     OW21343   2.836   0.751  10.324 -0.0643 -0.2520 -0.3301
 3237SOL    HW121344   2.863   0.843  10.322  0.6648 -0.4787 -1.3841
 3237SOL    HW221345   2.754   0.745  10.373  1.2838 -2.8433  1.6214
 3238SOL     OW21346   4.328   0.861   4.743 -0.4190 -0.8681 -0.3884
 3238SOL    HW121347   4.279   0.858   4.826 -0.5475 -0.2367 -0.4350
 3238SOL    HW221348   4.409   0.900   4.775 -0.3876 -1.4658  0.2637
 3239SOL     OW21349   2.101   1.370   3.162  0.2923  0.8701  0.1638
 3239SOL    HW121350   2.131   1.460   3.151  0.5271  0.8839  0.9305
 3239SOL    HW221351   2.067   1.358   3.251 -1.5245 -0.5177 -0.7102
 3240SOL     OW21352   3.816   1.680   9.500  0.0803 -0.4193  0.1238
 3240SOL    HW121353   3.796   1.586   9.501 -0.3701 -0.3419 -3.2290
 3240SOL    HW221354   3.911   1.674   9.507  0.2848  1.2137 -1.4017
 3241SOL     OW21355   2.717   2.703   7.301 -0.2183  0.1394 -0.0850
 3241SOL    HW121356   2.703   2.752   7.220  2.9425  0.2503 -0.5917
 3241SOL    HW221357   2.722   2.770   7.369  0.7140  0.4366 -0.4442
 3242SOL     OW21358   4.308   0.998   8.285  0.3488  0.3027 -0.2115
 3242SOL    HW121359   4.361   1.058   8.337 -0.4418 -1.2862  2.4175
 3242SOL    HW221360   4.218   1.012   8.315  0.1875 -1.6216  0.1962
 3243SOL     OW21361   3.558   3.601  11.356  0.2460  0.2098  0.1068
 3243SOL    HW121362   3.609   3.648  11.422  1.2272  1.0305 -1.2191
 3243SOL    HW221363   3.472   3.643  11.364 -0.4752 -1.4309  0.8514
 3244SOL     OW21364   3.444   2.836  14.003 -0.2143 -0.2268 -0.1770
 3244SOL    HW121365   3.459   2.828  13.909  1.0764  0.3151 -0.0153
 3244SOL    HW221366   3.367   2.779  14.007  0.9252 -1.7309  0.1595
 3245SOL     OW21367   1.102   1.273   8.081 -0.4532 -0.3635 -0.6952
 3245SOL    HW121368   1.174   1.253   8.141 -0.8667  0.9985  0.2646
 3245SOL    HW221369   1.152   1.281   8.000  1.5091  1.6288  0.7028
 3246SOL     OW21370   0.826   1.105  13.222  0.2532  0.2104 -0.2360
 3246SOL    HW121371   0.877   1.031  13.256 -1.4516 -1.1104 -0.5567
 3246SOL    HW221372   0.884   1.164  13.173 -0.9884 -0.5531 -2.6336
 3247SOL     OW21373   1.703   3.546   1.983  0.0086  0.1677  0.1249
 3247SOL    HW121374   1.620   3.562   1.938 -0.9400 -2.0194  1.0921
 3247SOL    HW221375   1.727   3.464   1.941 -0.2678  0.2496 -0.1926
 3248SOL     OW21376   4.013   1.655   7.299  0.3147 -0.0730  0.5359
 3248SOL    HW121377   4.048   1.743   7.281  0.5464 -0.0810  0.9475
 3248SOL    HW221378   3.931   1.644   7.251  0.1423  0.4094  0.7126
 3249SOL     OW21379   4.205   1.313   0.932  0.2672  0.0910  0.0217
 3249SOL    HW121380   4.153   1.304   1.011  2.3220  1.8146  1.5693
 3249SOL    HW221381   4.139   1.274   0.874 -1.0388  1.2382  0.7201
 3250SOL     OW21382   2.745   4.472   7.138 -0.0092 -0.5236 -0.3466
 3250SOL    HW121383   2.832   4.450   7.171 -0.3199 -1.3331 -0.0598
 3250SOL    HW221384   2.713   4.544   7.192  0.7794 -2.2650  2.4429
 3251SOL     OW21385   3.216   3.641   3.488 -0.3132  0.2327 -0.0517
 3251SOL    HW121386   3.298   3.664   3.531  0.4224 -1.3874 -0.5967
 3251SOL    HW221387   3.184   3.726   3.457  1.0347  1.0201  0.7705
 3252SOL     OW21388   1.089   1.249   6.790  0.1567  0.0949 -0.2273
 3252SOL    HW121389   1.046   1.186   6.732  1.2192  0.3049 -1.2532
 3252SOL    HW221390   1.078   1.336   6.753  1.0749 -0.1655 -1.1188
 3253SOL     OW21391   2.446   3.933   9.198  0.3781 -0.3625  0.3189
 3253SOL    HW121392   2.530   3.917   9.240  0.0889 -1.5390  0.4482
 3253SOL    HW221393   2.464   4.026   9.183  0.3944 -0.6596 -1.4935
 3254SOL     OW21394   3.013   3.539   6.945  0.3436 -0.2783  0.3618
 3254SOL    HW121395   2.935   3.578   6.904  1.4025 -0.6537 -2.0003
 3254SOL    HW221396   3.068   3.524   6.868  0.0227  2.2141 -0.3262
 3255SOL     OW21397   4.635   4.083   0.246  0.2800  0.0759 -0.3124
 3255SOL    HW121398   4.578   4.079   0.323  2.6512  1.4521  1.5122
 3255SOL    HW221399   4.581   4.108   0.171  1.5458 -1.8815 -1.8817
 3256SOL     OW21400   1.550   3.952   9.339 -0.1396 -0.2306  0.2615
 3256SOL    HW121401   1.491   3.898   9.393  0.1193 -0.0147  0.7635
 3256SOL    HW221402   1.611   3.965   9.412  0.5479 -0.8031 -0.2129
 3257SOL     OW21403   4.280   3.538  10.484  0.5254 -0.3179 -0.0626
 3257SOL    HW121404   4.304   3.445  10.491 -1.6842 -0.9430 -0.7374
 3257SOL    HW221405   4.353   3.591  10.517 -0.2651  1.1895 -0.7255
 3258SOL     OW21406   4.727   4.151   9.713 -0.2789  0.4854 -0.1349
 3258SOL    HW121407   4.718   4.201   9.794  0.4479 -2.8449  1.9936
 3258SOL    HW221408   4.662   4.083   9.729  0.7587 -0.6033 -0.6178
 3259SOL     OW21409   2.717   2.375   6.863 -1.0481 -0.1807 -0.2738
 3259SOL    HW121410   2.767   2.299   6.892 -0.7060 -0.5625 -1.8452
 3259SOL    HW221411   2.753   2.443   6.920  0.3672  0.3199 -1.7560
 3260SOL     OW21412   1.148   0.123  15.294  0.2528 -0.4960  0.5266
 3260SOL    HW121413   1.125   0.032  15.275 -0.3225  0.1733 -2.1014
 3260SOL    HW221414   1.124   0.143  15.384  0.6342  0.6018  0.3861
 3261SOL     OW21415   4.105   2.105  13.622  0.1109  0.4981  0.3165
 3261SOL    HW121416   4.102   2.018  13.583  2.5086  0.5236  0.0779
 3261SOL    HW221417   4.108   2.074  13.713 -0.2927  1.5940  0.7032
 3262SOL     OW21418   3.976   1.233   7.249 -0.5771 -0.1671  0.2037
 3262SOL    HW121419   3.992   1.174   7.322 -2.3707 -0.6061  0.2239
 3262SOL    HW221420   4.047   1.297   7.260  0.6300 -1.4938  0.1887
 3263SOL     OW21421   1.520   3.451   6.848  0.2162 -0.3604 -0.0448
 3263SOL    HW121422   1.472   3.534   6.847  0.5196 -0.1983 -0.8602
 3263SOL    HW221423   1.511   3.419   6.758 -0.1670  2.1812 -0.9254
 3264SOL     OW21424   1.473   1.533   6.501 -0.1030 -0.8016  0.5066
 3264SOL    HW121425   1.440   1.467   6.441 -0.1814  0.9626 -1.3996
 3264SOL    HW221426   1.565   1.506   6.509  0.0187  0.1727  2.5399
 3265SOL     OW21427   1.927   4.668   4.352  0.7727  0.0003  1.3210
 3265SOL    HW121428   1.971   4.662   4.267 -1.8009  0.5223 -0.0554
 3265SOL    HW221429   1.895   4.579   4.367  2.7267 -0.5593  2.1240
 3266SOL     OW21430   0.549   2.910  16.409  0.1209  0.2508  0.4727
 3266SOL    HW121431   0.529   2.948  16.323  0.6199 -0.0966  0.2078
 3266SOL    HW221432   0.502   2.966  16.470 -0.4374 -0.2692  0.5206
 3267SOL     OW21433   2.774   2.123   5.337 -0.5111  0.5022  0.3708
 3267SOL    HW121434   2.800   2.037   5.369 -3.2801 -0.6074 -0.3769
 3267SOL    HW221435   2.679   2.125   5.348 -0.8735 -0.9147 -2.5130
 3268SOL     OW21436   4.293   1.186   3.862  0.0982 -0.0866  0.7021
 3268SOL    HW121437   4.268   1.097   3.888 -2.2927  0.8325  1.5489
 3268SOL    HW221438   4.388   1.185   3.850 -0.0715 -0.4636 -0.6172
 3269SOL     OW21439   0.176   2.990  16.944 -0.3307  0.6605 -0.1026
 3269SOL    HW121440   0.144   2.915  16.994 -1.3574 -0.9124 -3.1281
 3269SOL    HW221441   0.148   3.067  16.992  2.0429  1.6165 -0.2511
 3270SOL     OW21442   2.931   0.842  17.127  0.3157  0.6211  0.3930
 3270SOL    HW121443   2.935   0.780  17.200  0.6414  1.1490  0.8232
 3270SOL    HW221444   2.883   0.915  17.166  0.1816 -0.9314  3.1526
 3271SOL     OW21445   1.195   3.347   4.420 -0.4776  0.0618  0.5410
 3271SOL    HW121446   1.104   3.319   4.425 -0.6080  0.2794 -0.7477
 3271SOL    HW221447   1.234   3.261   4.433 -2.1786 -0.6714  0.7672
 3272SOL     OW21448   1.015   3.931  10.711  0.4339  0.1461  0.6491
 3272SOL    HW121449   1.077   3.969  10.773  0.4368  1.0388  0.0870
 3272SOL    HW221450   0.943   3.914  10.772  0.5012  0.8787  0.9301
 3273SOL     OW21451   3.008   0.054  17.682  0.0293  0.3312  0.1699
 3273SOL    HW121452   2.939   0.106  17.640  1.8145  2.7183  0.1556
 3273SOL    HW221453   2.990   0.082   0.023  0.3102 -1.8615  0.8974
 3274SOL     OW21454   1.602   3.917   7.401 -0.1695 -0.4459 -0.2005
 3274SOL    HW121455   1.564   4.004   7.391  1.5153  0.5324  1.8440
 3274SOL    HW221456   1.576   3.909   7.492 -1.2489 -0.8407 -0.5431
 3275SOL     OW21457   3.079   3.704  11.393  0.2366 -0.0830 -0.0353
 3275SOL    HW121458   3.161   3.743  11.363 -0.8523  2.7299  0.5921
 3275SOL    HW221459   3.021   3.780  11.385 -0.5134 -0.6273  0.2716
 3276SOL     OW21460   1.144   3.275   5.188 -0.5105  0.5243  0.2999
 3276SOL    HW121461   1.111   3.317   5.267  0.3948  1.2526  0.2883
 3276SOL    HW221462   1.126   3.341   5.122  0.3865 -0.3207 -0.7810
 3277SOL     OW21463   3.367   0.888   1.711  0.2903 -0.4556 -0.5283
 3277SOL    HW121464   3.309   0.861   1.639 -1.4759 -2.0986  1.5224
 3277SOL    HW221465   3.396   0.802   1.742  0.7705  0.4747  1.5825
 3278SOL     OW21466   0.241   4.425   1.781  0.0119  0.1874  0.2726
 3278SOL    HW121467   0.275   4.346   1.822  3.0827  1.0931 -0.5722
 3278SOL    HW221468   0.317   4.481   1.768 -0.5580  0.9400  0.1522
 3279SOL     OW21469   4.535   4.482   4.036  0.2823  0.2837 -0.0634
 3279SOL    HW121470   4.513   4.564   4.080  0.6079  0.6571 -0.5974
 3279SOL    HW221471   4.522   4.427   4.113  2.8632 -1.0089 -0.5210
 3280SOL     OW21472   2.616   1.974  17.621  0.2844  0.0059  0.4369
 3280SOL    HW121473   2.592   1.989  17.712 -0.6985 -1.7481  0.4664
 3280SOL    HW221474   2.705   1.940  17.622  0.0931 -0.5669 -1.4820
 3281SOL     OW21475   4.601   1.678   2.392  0.1055  0.0882 -0.8420
 3281SOL    HW121476   4.696   1.671   2.379  0.0216  0.9166 -1.9840
 3281SOL    HW221477   4.587   1.595   2.437  1.5235 -0.5256 -1.5315
 3282SOL     OW21478   1.653   0.133   7.174 -0.5916 -0.4040  0.1092
 3282SOL    HW121479   1.736   0.141   7.128  0.2004 -0.0383  1.5811
 3282SOL    HW221480   1.594   0.140   7.099 -0.9607  3.4523  0.7654
 3283SOL     OW21481   3.274   3.283   6.002  0.1290  0.1132 -0.2789
 3283SOL    HW121482   3.244   3.374   5.995  1.1330  0.2739 -2.6293
 3283SOL    HW221483   3.190   3.239   6.014  0.5993 -1.4055 -2.5503
 3284SOL     OW21484   3.955   0.540   7.400  0.5014  0.7540  0.3925
 3284SOL    HW121485   3.963   0.615   7.342 -1.9521  0.7721  0.0518
 3284SOL    HW221486   3.889   0.491   7.351  1.5357  0.1060 -0.3283
 3285SOL     OW21487   1.722   0.364  13.469 -0.4766  0.1857  0.4810
 3285SOL    HW121488   1.815   0.345  13.485  0.3478  0.0900 -4.6070
 3285SOL    HW221489   1.709   0.458  13.454  0.1042 -0.2864 -2.8587
 3286SOL     OW21490   2.725   1.472   2.164  0.6601  0.3474  0.1182
 3286SOL    HW121491   2.658   1.535   2.136  1.8566  1.9355  0.8164
 3286SOL    HW221492   2.676   1.392   2.183 -0.5218  1.4863  1.8399
 3287SOL     OW21493   4.658   1.842  16.221  0.0715 -0.4604 -0.3317
 3287SOL    HW121494   4.695   1.774  16.164 -0.0831 -0.8254  0.0051
 3287SOL    HW221495   4.625   1.787  16.292 -1.5681  3.5420  2.0212
 3288SOL     OW21496   2.773   3.262   7.330  0.0487 -0.0290 -0.0586
 3288SOL    HW121497   2.788   3.301   7.244  2.2804 -0.6058  0.0640
 3288SOL    HW221498   2.707   3.323   7.363  0.6431  1.2209 -1.1562
 3289SOL     OW21499   4.251   1.821   9.925  0.3575 -0.3653  0.0887
 3289SOL    HW121500   4.247   1.730   9.954 -3.1672 -0.3207 -0.1843
 3289SOL    HW221501   4.309   1.808   9.850 -0.5751  2.3683 -1.1298
 3290SOL     OW21502   0.374   3.435   7.485  0.4100  0.1082 -0.2307
 3290SOL    HW121503   0.312   3.414   7.556  0.8393 -1.0380 -0.2016
 3290SOL    HW221504   0.443   3.480   7.533  0.4914 -1.1494  0.8252
 3291SOL     OW21505   1.435   0.026   6.644 -0.1292  0.1601 -0.4966
 3291SOL    HW121506   1.421   4.671   6.663 -0.9681  0.7415  1.6742
 3291SOL    HW221507   1.505   0.044   6.707 -1.8010 -1.0577  1.6939
 3292SOL     OW21508   1.329   0.674  10.969 -0.2624  0.2286 -0.2607
 3292SOL    HW121509   1.272   0.602  10.996 -1.9526  1.8672  0.5878
 3292SOL    HW221510   1.404   0.663  11.027 -0.1248  1.3941 -0.2187
 3293SOL     OW21511   1.573   0.551   7.589  0.6411  0.1527  0.1600
 3293SOL    HW121512   1.498   0.522   7.641 -0.6676  0.1352 -1.7230
 3293SOL    HW221513   1.522   0.589   7.518 -0.7010 -1.1836  0.4191
 3294SOL     OW21514   0.638   0.077  17.361 -0.4331  0.0887  0.5246
 3294SOL    HW121515   0.705   0.010  17.350  2.9328  3.3185  1.4676
 3294SOL    HW221516   0.694   0.138  17.408 -1.4719  1.9185 -0.6360
 3295SOL     OW21517   4.597   3.330   9.489  0.0314 -0.5573 -0.0818
 3295SOL    HW121518   4.523   3.304   9.434 -0.8994 -0.7457  1.2664
 3295SOL    HW221519   4.656   3.255   9.496  2.6488  1.9398  4.3456
 3296SOL     OW21520   2.679   0.923  12.920 -0.1056 -0.1864 -0.9901
 3296SOL    HW121521   2.645   0.906  13.007  0.0100  0.6070 -0.7845
 3296SOL    HW221522   2.692   0.831  12.898  0.7882 -0.6084  1.3218
 3297SOL     OW21523   2.133   3.692   9.865 -0.0800 -0.4527  0.4523
 3297SOL    HW121524   2.098   3.645   9.940  0.0940  0.9717  1.4121
 3297SOL    HW221525   2.071   3.661   9.798  0.0367  1.2232 -0.4443
 3298SOL     OW21526   4.326   0.282   9.909 -0.3000  0.2228  0.3453
 3298SOL    HW121527   4.358   0.235   9.987  0.8395  1.7231  0.7869
 3298SOL    HW221528   4.239   0.242   9.901  0.3892 -1.0435 -0.8386
 3299SOL     OW21529   0.239   2.730   5.501 -0.2348 -0.2794  0.2310
 3299SOL    HW121530   0.197   2.775   5.429 -1.5331 -3.4412 -1.0101
 3299SOL    HW221531   0.269   2.651   5.455 -0.4437  0.0166 -0.4081
 3300SOL     OW21532   2.076   4.594  17.382  0.0299 -0.0161  0.3404
 3300SOL    HW121533   2.163   4.606  17.422  0.1723 -1.0613  0.3404
 3300SOL    HW221534   2.064   4.672  17.328  1.4487 -0.4620 -0.6430
 3301SOL     OW21535   0.938   2.819   8.388  0.3192  0.2278 -0.0486
 3301SOL    HW121536   0.907   2.744   8.338  1.4606  0.2787 -0.8354
 3301SOL    HW221537   0.958   2.788   8.477  0.6916  1.1362  0.1892
 3302SOL     OW21538   0.410   1.753   3.927 -0.3649 -0.7737 -0.0419
 3302SOL    HW121539   0.489   1.703   3.907  0.9543  1.9600 -1.6350
 3302SOL    HW221540   0.438   1.844   3.924 -0.4144 -0.7862 -0.9356
 3303SOL     OW21541   2.919   3.621   8.317 -0.0053 -0.3644  0.0750
 3303SOL    HW121542   2.914   3.630   8.222  1.2174  0.4411  0.0904
 3303SOL    HW221543   2.985   3.689   8.331 -1.3408  0.5775  1.8619
 3304SOL     OW21544   1.336   1.328   6.366 -0.1129  0.4499 -0.4164
 3304SOL    HW121545   1.349   1.238   6.395  2.1550  0.8405 -0.2699
 3304SOL    HW221546   1.332   1.315   6.271 -3.5260 -0.2374 -0.1767
 3305SOL     OW21547   2.310   3.628  10.180 -0.1386 -0.2963 -0.6658
 3305SOL    HW121548   2.225   3.628  10.224 -1.7268 -0.3636 -3.7688
 3305SOL    HW221549   2.298   3.695  10.114  0.7706  1.1127  0.5944
 3306SOL     OW21550   3.606   0.420   6.558 -0.2348 -0.1699 -0.3851
 3306SOL    HW121551   3.554   0.459   6.628  0.6873  0.3274  0.0230
 3306SOL    HW221552   3.639   0.499   6.515 -0.8242  0.6238  0.6487
 3307SOL     OW21553   1.043   4.213   3.810  0.6313  0.3863 -0.0470
 3307SOL    HW121554   1.024   4.152   3.881  0.1843  0.1849 -0.3358
 3307SOL    HW221555   1.019   4.293   3.856 -0.2522  0.6562 -0.9729
 3308SOL     OW21556   2.765   2.283   8.267  0.3581  0.2262  0.3979
 3308SOL    HW121557   2.758   2.360   8.324  3.0767 -0.1199  1.2227
 3308SOL    HW221558   2.681   2.241   8.287  0.5193 -0.2371  0.1102
 3309SOL     OW21559   1.364   0.820  11.256 -0.1352 -0.3296 -0.2231
 3309SOL    HW121560   1.453   0.851  11.270  0.2459 -1.5032 -0.0943
 3309SOL    HW221561   1.313   0.862  11.325  1.8140  0.5494  0.6751
 3310SOL     OW21562   1.288   2.253  12.354  0.4798 -0.0698 -0.8238
 3310SOL    HW121563   1.279   2.321  12.421  0.6903 -0.4389 -0.4196
 3310SOL    HW221564   1.276   2.173  12.406  2.3930 -0.0826 -0.4109
 3311SOL     OW21565   3.149   2.171   7.615  0.3674  0.1745  0.1896
 3311SOL    HW121566   3.103   2.137   7.691  1.0167 -1.6320 -0.2041
 3311SOL    HW221567   3.228   2.117   7.611  0.7391  0.5036  3.0057
 3312SOL     OW21568   3.796   1.037   6.556  0.2909 -0.4641 -0.5662
 3312SOL    HW121569   3.848   1.070   6.630  0.2106 -0.3689 -0.5538
 3312SOL    HW221570   3.864   1.044   6.489 -0.3274  2.0283 -0.9081
 3313SOL     OW21571   3.553   4.706   2.301 -0.7498  0.0151 -0.1220
 3313SOL    HW121572   3.601   0.020   2.366 -1.8253  1.4437 -0.4848
 3313SOL    HW221573   3.538   4.626   2.352 -0.9799  0.1294 -0.0071
 3314SOL     OW21574   2.889   3.762   8.060 -0.2754  0.2072 -0.1031
 3314SOL    HW121575   2.938   3.844   8.048  3.6737 -2.2498 -0.7294
 3314SOL    HW221576   2.948   3.698   8.020  1.1544  1.6897 -0.3747
 3315SOL     OW21577   2.547   2.509  16.190 -0.0388 -0.5720 -0.0011
 3315SOL    HW121578   2.568   2.581  16.249  2.7201 -1.7509  0.4268
 3315SOL    HW221579   2.630   2.489  16.147 -0.2836  1.0596 -1.1975
 3316SOL     OW21580   3.853   4.287  15.911 -0.0213  0.0408 -0.0912
 3316SOL    HW121581   3.929   4.296  15.854  0.2827 -0.6159  0.2189
 3316SOL    HW221582   3.886   4.314  15.996  1.5144  1.5532 -1.1532
 3317SOL     OW21583   2.879   4.087   6.891  0.3788  0.1941 -0.5970
 3317SOL    HW121584   2.901   4.044   6.974 -3.5944  1.4973  1.1097
 3317SOL    HW221585   2.930   4.036   6.828  0.9044 -1.3488  1.0661
 3318SOL     OW21586   3.374   1.822   5.018  0.4939  0.1851  0.6230
 3318SOL    HW121587   3.317   1.793   4.947 -0.8784  3.1833  0.4826
 3318SOL    HW221588   3.311   1.809   5.088 -1.5344  0.4671 -1.1394
 3319SOL     OW21589   2.030   0.712   0.747  0.0539 -0.3043  0.3271
 3319SOL    HW121590   1.968   0.703   0.820 -2.0261 -0.7016 -1.4967
 3319SOL    HW221591   2.015   0.623   0.715  2.9941  0.1023 -2.1362
 3320SOL     OW21592   2.986   3.226   3.801 -0.7930 -0.8871  0.0794
 3320SOL    HW121593   2.991   3.151   3.741  0.5052  1.9427 -3.3224
 3320SOL    HW221594   2.901   3.214   3.844 -1.4344  1.6522 -0.4968
 3321SOL     OW21595   1.601   3.170   5.731 -0.2987  0.4582  0.7502
 3321SOL    HW121596   1.629   3.218   5.810  1.8864 -0.8019  0.7163
 3321SOL    HW221597   1.657   3.213   5.667 -1.4941  0.8010 -0.0710
 3322SOL     OW21598   4.614   4.166  17.126 -0.3462 -0.3394  0.0734
 3322SOL    HW121599   4.680   4.225  17.088 -1.5464  1.7979  1.3026
 3322SOL    HW221600   4.642   4.180  17.216  2.3846 -0.9645 -0.6541
 3323SOL     OW21601   0.111   0.363   6.230  0.5681  0.5591  0.7946
 3323SOL    HW121602   0.095   0.282   6.279  1.3514 -0.2951 -0.3639
 3323SOL    HW221603   0.163   0.417   6.291  0.9404 -0.5580  1.4640
 3324SOL     OW21604   1.592   1.242   3.709 -0.8236 -0.0299 -0.1730
 3324SOL    HW121605   1.501   1.222   3.730 -0.7334  0.7236  0.9350
 3324SOL    HW221606   1.617   1.274   3.796 -0.8724 -1.3500  0.3318
 3325SOL     OW21607   2.477   3.845   3.732  0.2042  0.9464  0.3082
 3325SOL    HW121608   2.493   3.799   3.650 -2.0853 -1.1928  1.0407
 3325SOL    HW221609   2.397   3.887   3.701  0.7989  2.2033  0.5013
 3326SOL     OW21610   0.582   2.404   6.172 -0.3433 -0.0779  0.1468
 3326SOL    HW121611   0.629   2.325   6.144 -1.5736 -1.9006  3.1870
 3326SOL    HW221612   0.496   2.381   6.137  0.6838 -3.4178 -0.1835
 3327SOL     OW21613   1.899   2.665  14.363 -0.3423  0.1067 -0.4866
 3327SOL    HW121614   1.823   2.674  14.306  0.5418 -0.0848 -1.7084
 3327SOL    HW221615   1.961   2.703  14.300 -0.5112  2.8070  0.9680
 3328SOL     OW21616   0.634   0.091   3.027 -0.0447 -0.2170 -0.0146
 3328SOL    HW121617   0.625   0.165   2.968  0.5603  0.8927  1.2772
 3328SOL    HW221618   0.725   0.096   3.056 -0.0232  0.2616 -0.1764
 3329SOL     OW21619   4.072   4.629  14.365  0.3687  0.2667  0.3797
 3329SOL    HW121620   4.055   4.619  14.458  2.6758 -0.4194  0.7128
 3329SOL    HW221621   3.988   4.588  14.343  0.5639 -0.1445  0.4001
 3330SOL     OW21622   1.362   0.312   8.437 -0.1655 -0.0479  0.9682
 3330SOL    HW121623   1.385   0.404   8.420  2.8027 -1.2767 -1.4679
 3330SOL    HW221624   1.348   0.311   8.532 -0.7275  3.2780  0.9383
 3331SOL     OW21625   1.324   1.599  16.797  0.4185 -0.0830 -0.6257
 3331SOL    HW121626   1.358   1.563  16.879  0.4641 -1.3934 -1.2228
 3331SOL    HW221627   1.400   1.657  16.786 -1.0194  1.6385 -1.4121
 3332SOL     OW21628   1.962   2.541  11.676 -0.0647 -0.0617 -0.2139
 3332SOL    HW121629   1.940   2.448  11.673  0.8169 -0.3205  1.6548
 3332SOL    HW221630   1.872   2.571  11.659  1.2276  2.1505 -3.1714
 3333SOL     OW21631   3.082   2.396  11.783 -0.1912  0.9652 -0.3659
 3333SOL    HW121632   3.044   2.405  11.870  1.6130  1.4896  0.3883
 3333SOL    HW221633   3.173   2.381  11.811  0.0493 -0.0010 -1.6675
 3334SOL     OW21634   2.033   3.194   5.108 -0.1444  0.0835 -0.0988
 3334SOL    HW121635   2.078   3.278   5.116 -3.6326  2.1833 -2.8044
 3334SOL    HW221636   2.036   3.176   5.202 -1.5279  1.0805  0.1335
 3335SOL     OW21637   3.307   4.383   9.009  0.1837 -1.2014 -0.6104
 3335SOL    HW121638   3.260   4.450   8.961 -0.3388  0.8615  2.7919
 3335SOL    HW221639   3.380   4.433   9.044  1.9953 -2.4945 -2.5897
 3336SOL     OW21640   4.066   3.984   9.743  0.4130 -0.1198  0.4850
 3336SOL    HW121641   4.054   3.889   9.737 -0.1739  0.0893 -1.4943
 3336SOL    HW221642   4.040   4.005   9.833 -1.8971 -0.5420 -0.0743
 3337SOL     OW21643   0.855   3.724  11.555 -0.0082  0.1510 -0.2617
 3337SOL    HW121644   0.918   3.659  11.524 -1.7761 -1.5504 -0.2439
 3337SOL    HW221645   0.860   3.786  11.482  1.4196  1.1149  0.6477
 3338SOL     OW21646   2.315   3.780   2.784  0.0420 -0.4457 -0.0024
 3338SOL    HW121647   2.242   3.722   2.804  0.0561 -0.0134  1.3089
 3338SOL    HW221648   2.364   3.721   2.727  0.6461 -0.1474  0.2064
 3339SOL     OW21649   1.141   0.100   3.396 -0.1818 -0.6571  0.0468
 3339SOL    HW121650   1.226   0.104   3.352  0.7226  4.3751  2.2111
 3339SOL    HW221651   1.147   0.028   3.459 -0.6832 -2.2305 -1.7080
 3340SOL     OW21652   0.595   4.504   2.640  0.5489 -0.2454  0.0196
 3340SOL    HW121653   0.591   4.560   2.718  0.6641  0.6288 -0.6011
 3340SOL    HW221654   0.690   4.491   2.638  0.4538 -1.5117  2.8736
 3341SOL     OW21655   0.349   2.525   5.338  0.2587 -0.3585 -0.0381
 3341SOL    HW121656   0.304   2.502   5.257 -1.6206  0.0513  0.8978
 3341SOL    HW221657   0.347   2.437   5.376  0.5886 -0.3138  0.0818
 3342SOL     OW21658   1.413   2.125   7.397  0.2393  0.3146 -0.0567
 3342SOL    HW121659   1.489   2.068   7.410 -0.4942 -0.4791  0.6837
 3342SOL    HW221660   1.452   2.202   7.355 -0.0904 -0.2595 -1.4141
 3343SOL     OW21661   0.008   3.466   2.590  0.3586  0.4475  0.2003
 3343SOL    HW121662   0.054   3.535   2.543 -2.5715  0.1515 -3.1392
 3343SOL    HW221663   0.041   3.398   2.532 -0.0138  0.5546 -0.1394
 3344SOL     OW21664   2.701   2.529  12.214 -0.0969 -0.5272 -0.4636
 3344SOL    HW121665   2.635   2.581  12.169 -0.2275 -0.8525 -0.6446
 3344SOL    HW221666   2.652   2.533  12.296  0.5527 -0.2764 -0.0870
 3345SOL     OW21667   2.382   1.906  16.430 -0.3994 -0.6425  0.4677
 3345SOL    HW121668   2.477   1.907  16.418 -0.6229  0.9024 -1.1679
 3345SOL    HW221669   2.383   1.813  16.408 -1.3493 -0.1618 -1.6301
 3346SOL     OW21670   3.343   4.649   5.441 -0.3860 -0.3821 -0.1243
 3346SOL    HW121671   3.323   4.568   5.487  1.5262 -1.0684 -0.5231
 3346SOL    HW221672   3.289   4.631   5.364 -0.8524 -2.4350  0.6971
 3347SOL     OW21673   0.123   0.235   5.637  0.3468 -0.2792 -0.4624
 3347SOL    HW121674   0.032   0.227   5.666  0.2671 -0.3800 -0.7461
 3347SOL    HW221675   0.186   0.189   5.693  0.0362  0.5723  0.6054
 3348SOL     OW21676   0.585   1.399  14.192  0.4005 -0.3773 -0.2666
 3348SOL    HW121677   0.492   1.379  14.181 -0.2978  3.1671 -0.6897
 3348SOL    HW221678   0.617   1.375  14.105 -0.6206 -1.6407 -0.2948
 3349SOL     OW21679   3.574   2.755   4.870 -0.1369  0.0762 -0.3008
 3349SOL    HW121680   3.547   2.664   4.884  0.3283 -0.3512 -2.1202
 3349SOL    HW221681   3.488   2.795   4.862 -0.0855  0.0475 -1.0898
 3350SOL     OW21682   3.420   4.077   2.706  0.1225  0.0394 -0.2278
 3350SOL    HW121683   3.336   4.113   2.677  1.4563  2.9758 -0.3816
 3350SOL    HW221684   3.400   4.032   2.788 -1.5050  3.0681  1.0337
 3351SOL     OW21685   4.075   4.123  16.813  0.5725  0.5176 -0.2781
 3351SOL    HW121686   3.986   4.095  16.835  0.9835  1.5430  2.6541
 3351SOL    HW221687   4.078   4.205  16.861  0.8436  0.2901  0.0938
 3352SOL     OW21688   1.452   0.557  14.974  0.1530 -0.2077  0.2507
 3352SOL    HW121689   1.533   0.560  15.024  0.0686  0.0224  0.3722
 3352SOL    HW221690   1.483   0.562  14.884 -0.8098 -0.0902 -0.0736
 3353SOL     OW21691   0.215   3.133  11.834  0.1388  0.6729 -0.1184
 3353SOL    HW121692   0.164   3.052  11.838  1.4503  0.0472  4.1671
 3353SOL    HW221693   0.148   3.197  11.812 -1.3637 -0.1047  2.2133
 3354SOL     OW21694   0.761   2.941   3.819 -0.5318  1.2572 -0.2665
 3354SOL    HW121695   0.692   2.982   3.766 -0.7363  2.0718  0.6423
 3354SOL    HW221696   0.796   3.015   3.868 -2.0761  0.4520  2.0266
 3355SOL     OW21697   1.965   0.782   2.312  0.3112  0.0903 -0.7112
 3355SOL    HW121698   1.918   0.714   2.360  2.5266 -1.1959 -0.3441
 3355SOL    HW221699   1.912   0.855   2.345  0.1248 -1.8557  3.2877
 3356SOL     OW21700   2.195   0.040  16.808  0.1172  0.3462  0.1480
 3356SOL    HW121701   2.228   4.738  16.728  1.7933 -2.9858  2.5085
 3356SOL    HW221702   2.127   0.099  16.775 -0.6788 -0.6152  0.0463
 3357SOL     OW21703   0.904   3.199   1.194 -0.0450  0.0068 -0.2664
 3357SOL    HW121704   0.918   3.202   1.289 -0.1410 -0.9221 -0.2305
 3357SOL    HW221705   0.814   3.231   1.198 -0.3206 -0.7165 -0.8104
 3358SOL     OW21706   4.202   2.185  14.030 -0.0463 -0.2392  0.7229
 3358SOL    HW121707   4.192   2.100  13.986  0.4211 -0.3496  0.8417
 3358SOL    HW221708   4.128   2.171  14.090 -0.8954  0.5914 -0.1161
 3359SOL     OW21709   0.122   2.938   3.459 -0.4257  0.3320  0.1387
 3359SOL    HW121710   0.051   2.907   3.403 -0.2980  0.6326 -0.1949
 3359SOL    HW221711   0.192   2.955   3.395 -2.1858  0.2212 -1.8322
 3360SOL     OW21712   3.791   3.174  11.767  0.1465  0.7995 -0.1734
 3360SOL    HW121713   3.757   3.094  11.808  2.4998  0.3083  0.7997
 3360SOL    HW221714   3.706   3.201  11.732 -0.7578  1.1877  2.3490
 3361SOL     OW21715   1.397   0.874  14.537 -0.3951  0.2471  0.2940
 3361SOL    HW121716   1.324   0.832  14.491  0.1848 -0.8478  0.3736
 3361SOL    HW221717   1.468   0.869  14.473 -1.5719  1.9010 -1.1431
 3362SOL     OW21718   2.426   4.438  12.934 -0.2185  0.4613 -0.0296
 3362SOL    HW121719   2.364   4.374  12.966  1.3772 -0.6157  0.8767
 3362SOL    HW221720   2.456   4.476  13.017  1.6057 -0.5623 -0.2155
 3363SOL     OW21721   2.780   3.707   5.843 -0.8267 -0.6025 -0.3221
 3363SOL    HW121722   2.759   3.616   5.822 -0.6214 -0.9202  0.8499
 3363SOL    HW221723   2.710   3.726   5.905 -0.7645  0.8331 -0.6972
 3364SOL     OW21724   1.827   4.282   1.940 -0.4450 -0.2482  0.7219
 3364SOL    HW121725   1.750   4.229   1.961 -0.3582 -0.1990  1.1494
 3364SOL    HW221726   1.862   4.223   1.873 -0.1417 -0.1502  0.7915
 3365SOL     OW21727   0.132   3.563   5.150  0.1396 -0.3300 -0.5686
 3365SOL    HW121728   0.096   3.572   5.062 -1.4765 -0.3627  0.0990
 3365SOL    HW221729   0.070   3.499   5.185  1.1768 -1.3423 -0.5782
 3366SOL     OW21730   1.282   3.911  16.315  0.8631  0.1287 -0.1633
 3366SOL    HW121731   1.245   3.837  16.267  0.1909  0.2799  0.1198
 3366SOL    HW221732   1.204   3.962  16.337  0.3453  0.0920 -1.9275
 3367SOL     OW21733   1.523   1.563   5.121  0.0044 -0.3170  0.0039
 3367SOL    HW121734   1.578   1.509   5.064 -0.5050 -0.1593 -0.6338
 3367SOL    HW221735   1.544   1.651   5.088  0.7121  0.0116  1.3324
 3368SOL     OW21736   2.360   4.214   7.440  0.7196  0.0406 -0.1760
 3368SOL    HW121737   2.306   4.187   7.514  0.9485  0.0908  0.0096
 3368SOL    HW221738   2.359   4.309   7.456  0.3049 -0.1430  0.8442
 3369SOL     OW21739   0.519   4.302  14.542  0.4884 -0.0619  0.3925
 3369SOL    HW121740   0.450   4.300  14.476  0.2505  1.3544  0.5871
 3369SOL    HW221741   0.562   4.383  14.514 -1.1770 -0.1072 -2.3545
 3370SOL     OW21742   0.492   3.964   5.973  0.9529 -0.2868  0.1682
 3370SOL    HW121743   0.463   4.001   6.057 -0.2212 -0.1734 -0.2796
 3370SOL    HW221744   0.462   4.030   5.910  0.4480  0.3198  1.0494
 3371SOL     OW21745   2.195   2.460   8.546 -0.0970  0.0129  0.1277
 3371SOL    HW121746   2.138   2.476   8.621 -2.0963 -0.1834 -1.3460
 3371SOL    HW221747   2.268   2.415   8.590  1.0333  0.3410 -1.3733
 3372SOL     OW21748   0.804   3.460   7.119  0.5259 -0.4309  0.1485
 3372SOL    HW121749   0.731   3.413   7.160 -1.2172  2.1569  0.0478
 3372SOL    HW221750   0.877   3.437   7.177 -0.2613 -4.0480 -0.2877
 3373SOL     OW21751   4.386   4.268   7.754 -0.0914  0.5620  0.1953
 3373SOL    HW121752   4.439   4.234   7.682 -0.1956  1.2577 -0.2171
 3373SOL    HW221753   4.376   4.363   7.740 -0.0251  0.4387 -0.7181
 3374SOL     OW21754   1.194   1.125   1.441  0.1840  0.0179 -0.0118
 3374SOL    HW121755   1.257   1.107   1.371  1.6657  1.0770  1.0427
 3374SOL    HW221756   1.245   1.085   1.512  0.9017 -0.5053 -0.8102
 3375SOL     OW21757   1.753   2.627   7.491 -0.1476 -0.3777  0.1695
 3375SOL    HW121758   1.718   2.619   7.403 -1.9834  1.3215  0.7618
 3375SOL    HW221759   1.750   2.720   7.511  2.4677 -0.0347 -0.9901
 3376SOL     OW21760   1.080   3.555  11.205  0.1328 -0.2524  0.5668
 3376SOL    HW121761   1.065   3.543  11.299  0.0944  0.3792  0.6454
 3376SOL    HW221762   1.075   3.466  11.171  0.0732 -0.7418  1.8345
 3377SOL     OW21763   1.068   1.720   2.610  0.4771 -0.1062 -0.9295
 3377SOL    HW121764   1.127   1.648   2.631 -0.0792  0.1172  1.3706
 3377SOL    HW221765   1.066   1.714   2.514  1.5064 -0.2860 -0.9375
 3378SOL     OW21766   3.312   3.776   8.142 -0.3764  0.1246 -0.5710
 3378SOL    HW121767   3.346   3.854   8.097 -2.6077  2.1216  1.2249
 3378SOL    HW221768   3.380   3.716   8.112  2.8247  3.5206 -0.0947
 3379SOL     OW21769   3.408   4.126   5.892  0.0380  0.1401 -0.1863
 3379SOL    HW121770   3.394   4.147   5.984  1.1709  2.2524 -0.4917
 3379SOL    HW221771   3.318   4.102   5.872 -0.3253  0.8032  0.6402
 3380SOL     OW21772   0.573   4.419   6.229 -0.1256 -0.0974 -0.0719
 3380SOL    HW121773   0.663   4.392   6.247 -0.0467  0.1750 -0.0478
 3380SOL    HW221774   0.559   4.387   6.140  0.7507  3.0980 -1.3661
 3381SOL     OW21775   0.516   1.390  16.716 -0.3716  0.0085  0.7600
 3381SOL    HW121776   0.563   1.307  16.716 -1.9021 -0.8710  0.1616
 3381SOL    HW221777   0.590   1.438  16.679 -0.0837 -0.1190  1.1784
 3382SOL     OW21778   0.544   0.110   7.917 -0.1440  1.0010  0.3197
 3382SOL    HW121779   0.544   0.202   7.891  0.3946  1.1155  0.7352
 3382SOL    HW221780   0.535   0.123   8.011  1.8860 -0.2152  0.6674
 3383SOL     OW21781   2.273   0.584  12.745  0.3980  0.2418  0.1561
 3383SOL    HW121782   2.294   0.641  12.672  1.0873  1.0890  1.0147
 3383SOL    HW221783   2.284   0.651  12.813 -2.9744  1.4223 -0.4139
 3384SOL     OW21784   0.109   4.288  17.013 -0.2430 -0.0384 -0.1207
 3384SOL    HW121785   0.192   4.282  17.060  0.6079  0.7425 -1.5221
 3384SOL    HW221786   0.133   4.318  16.925 -0.1056  0.2583  0.0173
 3385SOL     OW21787   4.615   2.719  15.935 -0.0894 -0.0932 -0.1789
 3385SOL    HW121788   4.609   2.777  16.010 -0.2574 -1.6308  0.9975
 3385SOL    HW221789   4.525   2.723  15.902 -0.3632 -3.7856  0.1541
 3386SOL     OW21790   2.581   1.820   7.069  0.4599 -0.0316 -0.2157
 3386SOL    HW121791   2.535   1.884   7.014  0.2830  1.3103  1.4990
 3386SOL    HW221792   2.518   1.807   7.139  0.1108 -0.6622 -0.6525
 3387SOL     OW21793   4.479   4.152   5.674  0.0422 -0.0785  0.0430
 3387SOL    HW121794   4.520   4.187   5.754 -0.9805 -2.3451  1.5531
 3387SOL    HW221795   4.508   4.061   5.680  1.4270  0.3604  0.0737
 3388SOL     OW21796   3.167   4.701   7.711 -0.3443  0.0632 -0.0220
 3388SOL    HW121797   3.214   4.734   7.787  2.1476  1.5195 -2.1760
 3388SOL    HW221798   3.080   4.696   7.750 -0.1057 -2.2442  0.1944
 3389SOL     OW21799   4.507   3.381   6.292 -0.3744 -0.2924 -0.0834
 3389SOL    HW121800   4.550   3.305   6.253 -0.0826 -0.6985  1.0139
 3389SOL    HW221801   4.554   3.385   6.375 -0.8564 -2.0105  0.2783
 3390SOL     OW21802   2.244   3.736  12.055  0.0311 -0.3807 -0.3494
 3390SOL    HW121803   2.243   3.642  12.077 -0.2814 -0.3544 -0.2471
 3390SOL    HW221804   2.324   3.734  12.003  0.2503 -1.8019  0.0312
 3391SOL     OW21805   0.526   3.018   5.973  0.2892 -0.0984  0.2824
 3391SOL    HW121806   0.448   2.965   5.990 -1.1054  0.8004 -3.2612
 3391SOL    HW221807   0.500   3.104   6.006  1.9673 -0.4380  2.4996
 3392SOL     OW21808   3.603   1.027   8.710  0.1642 -0.1827  0.0777
 3392SOL    HW121809   3.522   1.073   8.688  0.8789  0.5194 -1.0511
 3392SOL    HW221810   3.566   0.968   8.776  1.4872  0.5401  1.4570
 3393SOL     OW21811   1.180   4.712   9.067  0.1080 -0.0258  0.0181
 3393SOL    HW121812   1.238   0.030   9.119 -1.5189  1.8377 -0.1865
 3393SOL    HW221813   1.158   4.646   9.133 -1.8761  0.2437 -0.3915
 3394SOL     OW21814   3.703   1.686   4.274  0.3317 -0.7808  0.6145
 3394SOL    HW121815   3.778   1.654   4.325  0.9176 -0.6436 -0.1614
 3394SOL    HW221816   3.759   1.713   4.201 -0.2601  2.9268  1.5153
 3395SOL     OW21817   1.658   4.170   3.234  0.3535 -0.5085  0.1374
 3395SOL    HW121818   1.647   4.154   3.328  1.1423  0.3284  0.3683
 3395SOL    HW221819   1.753   4.169   3.221  0.5794 -2.0840  1.9008
 3396SOL     OW21820   2.494   1.337   8.240 -0.3005 -0.7421 -0.2809
 3396SOL    HW121821   2.484   1.355   8.146  0.0533  2.8372  0.3595
 3396SOL    HW221822   2.417   1.384   8.273  0.5483  0.2357  0.3281
 3397SOL     OW21823   3.457   0.633  15.068 -0.4709 -0.9878  0.6214
 3397SOL    HW121824   3.538   0.596  15.034 -0.9086 -2.1562  0.8303
 3397SOL    HW221825   3.488   0.691  15.137 -0.7487  0.2905 -0.3369
 3398SOL     OW21826   4.608   2.962   8.203  0.1318  0.3490  0.3702
 3398SOL    HW121827   4.619   2.879   8.249  2.1631  1.1235  1.2649
 3398SOL    HW221828   4.693   2.985   8.165 -0.9633  3.6538 -0.0689
 3399SOL     OW21829   0.179   1.192   7.043  0.1328 -0.2988  0.0483
 3399SOL    HW121830   0.176   1.240   6.961 -0.3721  0.0727  0.2892
 3399SOL    HW221831   0.089   1.178   7.071  0.0949  1.3108  0.7116
 3400SOL     OW21832   3.130   4.567   0.052 -0.2578 -0.3553 -0.1506
 3400SOL    HW121833   3.090   4.640   0.006 -0.6484 -0.1523  0.5140
 3400SOL    HW221834   3.224   4.586   0.058 -0.7060  1.3181  1.7375
 3401SOL     OW21835   0.651   0.388   4.228 -0.7780  0.2005 -0.5401
 3401SOL    HW121836   0.676   0.435   4.149 -0.5417  1.6642  0.3889
 3401SOL    HW221837   0.737   0.357   4.256 -0.6014 -0.2135 -1.5480
 3402SOL     OW21838   1.858   0.874  16.476  0.0386 -0.0208  0.2313
 3402SOL    HW121839   1.953   0.874  16.478  0.0261  1.8706  1.1722
 3402SOL    HW221840   1.843   0.955  16.524  0.5665 -0.4894  1.1740
 3403SOL     OW21841   4.638   3.704   6.284  0.2382 -0.3359  0.2409
 3403SOL    HW121842   4.674   3.617   6.268 -1.8477 -1.3281  0.8566
 3403SOL    HW221843   4.611   3.696   6.376  1.4165 -0.3312  0.5873
 3404SOL     OW21844   1.544   0.941  15.996 -0.3513  0.2179 -0.1531
 3404SOL    HW121845   1.456   0.944  15.959  0.0654 -0.7638 -1.2143
 3404SOL    HW221846   1.589   0.982  15.923  0.7265  1.7180  1.3608
 3405SOL     OW21847   2.177   0.300  10.619 -0.3972  0.2020 -0.0146
 3405SOL    HW121848   2.110   0.295  10.688 -0.7504  1.2231 -0.2749
 3405SOL    HW221849   2.184   0.393  10.599  2.8735 -0.1067 -0.2900
 3406SOL     OW21850   2.126   1.265  12.177 -0.0143  0.5692  0.0084
 3406SOL    HW121851   2.193   1.290  12.241  0.1690  0.8422 -0.2952
 3406SOL    HW221852   2.057   1.325  12.205 -0.8525 -1.1514  1.6425
 3407SOL     OW21853   4.666   1.265   2.118  0.0253 -0.1578 -0.0522
 3407SOL    HW121854   4.730   1.329   2.087  2.4153 -3.5881 -2.1774
 3407SOL    HW221855   4.586   1.312   2.093  0.3442  0.9651  1.0565
 3408SOL     OW21856   0.958   0.271   8.190 -0.1060 -0.2639 -0.0069
 3408SOL    HW121857   0.888   0.298   8.249  0.4264 -2.5633  1.6723
 3408SOL    HW221858   1.010   0.351   8.180 -0.2027  0.1688  3.2136
 3409SOL     OW21859   0.453   0.240  11.076 -0.1404  0.3115 -0.6546
 3409SOL    HW121860   0.541   0.222  11.043  0.0863  1.7387 -0.8425
 3409SOL    HW221861   0.407   0.156  11.068  0.7280 -0.1646 -0.5666
 3410SOL     OW21862   1.442   0.098   5.856 -0.0597 -0.0065  0.8927
 3410SOL    HW121863   1.363   0.139   5.890  0.6984  0.6728  1.8196
 3410SOL    HW221864   1.465   0.167   5.793 -0.7295 -1.9464 -1.5149
 3411SOL     OW21865   2.833   0.704   9.525  0.4232 -0.0410  0.2419
 3411SOL    HW121866   2.822   0.798   9.540  0.4748 -0.5253  3.3032
 3411SOL    HW221867   2.850   0.659   9.608 -0.1932  0.7800  0.8169
 3412SOL     OW21868   1.050   0.909  17.270 -0.1907  0.2773  0.1769
 3412SOL    HW121869   0.983   0.958  17.223 -0.6320 -0.0856  0.4218
 3412SOL    HW221870   1.019   0.906  17.360  0.6864  0.7857  0.4981
 3413SOL     OW21871   1.099   2.289   1.766  0.0547  0.1010 -0.0891
 3413SOL    HW121872   1.019   2.238   1.753 -0.5251  0.9723 -0.0088
 3413SOL    HW221873   1.058   2.375   1.755 -0.6681 -0.1069  0.9502
 3414SOL     OW21874   1.618   4.097   1.961  0.5259  0.3274 -0.1532
 3414SOL    HW121875   1.531   4.135   1.947  1.2967  2.7393  1.6882
 3414SOL    HW221876   1.596   4.008   1.988  0.8573 -0.5335 -2.6529
 3415SOL     OW21877   0.416   1.967   7.722  0.0366  0.7803 -0.1864
 3415SOL    HW121878   0.504   1.997   7.697 -0.0879  0.9025 -0.4726
 3415SOL    HW221879   0.388   2.027   7.792  1.4504  0.3007  0.7879
 3416SOL     OW21880   1.764   3.479  15.823 -0.0187  0.1842  0.0749
 3416SOL    HW121881   1.833   3.517  15.877  0.3664 -0.8649  0.3307
 3416SOL    HW221882   1.818   3.447  15.750  0.3136 -1.9302  1.2437
 3417SOL     OW21883   4.366   2.389   5.126 -0.2970  0.7981  0.4206
 3417SOL    HW121884   4.341   2.356   5.040 -1.2943 -1.3026  1.5251
 3417SOL    HW221885   4.461   2.395   5.117 -0.5857  3.0692 -0.9907
 3418SOL     OW21886   3.497   1.615  16.936  0.3027  0.6839  0.0463
 3418SOL    HW121887   3.426   1.617  16.872 -2.2381  0.5935  2.8608
 3418SOL    HW221888   3.580   1.614  16.889  0.1104 -0.4720 -0.2645
 3419SOL     OW21889   4.576   2.056   8.538  0.0102 -0.4777  0.0939
 3419SOL    HW121890   4.490   2.028   8.569 -0.2879 -0.8092 -1.0554
 3419SOL    HW221891   4.572   2.012   8.453  0.5338 -2.1779  0.9525
 3420SOL     OW21892   1.291   3.368   9.570  0.3346  0.6331  0.0450
 3420SOL    HW121893   1.295   3.439   9.506 -1.4354 -0.2052 -1.0057
 3420SOL    HW221894   1.196   3.359   9.570  0.5300 -1.5154 -0.8578
 3421SOL     OW21895   1.348   0.344   7.071 -0.1799 -0.3220  0.4453
 3421SOL    HW121896   1.374   0.387   7.152 -1.8698  0.1137  0.7562
 3421SOL    HW221897   1.327   0.415   7.010 -2.8163  0.4279  2.2310
 3422SOL     OW21898   2.617   1.173   5.840 -0.2490 -0.3880  0.0759
 3422SOL    HW121899   2.597   1.109   5.909 -2.2036  1.3417  1.1111
 3422SOL    HW221900   2.649   1.247   5.891  0.2237  0.1654 -1.0404
 3423SOL     OW21901   1.437   4.366   7.022 -0.0915 -0.1163  0.6196
 3423SOL    HW121902   1.499   4.386   7.092 -0.9059  1.0910  1.0007
 3423SOL    HW221903   1.449   4.448   6.974 -0.6455 -0.3400  0.1105
 3424SOL     OW21904   1.145   0.569   3.456 -0.2877 -0.6485 -0.2003
 3424SOL    HW121905   1.178   0.484   3.485 -0.5779  0.6259  3.8367
 3424SOL    HW221906   1.070   0.554   3.399  2.2379 -1.4783 -3.2853
 3425SOL     OW21907   1.776   0.674   2.476 -0.4461 -1.0794  0.1149
 3425SOL    HW121908   1.703   0.723   2.437 -0.2881 -0.4586  0.6088
 3425SOL    HW221909   1.767   0.689   2.570  0.8590  1.3670 -0.1463
 3426SOL     OW21910   2.462   2.018  12.705  0.1020 -0.4546  0.5804
 3426SOL    HW121911   2.413   1.940  12.729  3.1154 -1.2701  4.2089
 3426SOL    HW221912   2.398   2.086  12.726 -0.7823 -1.0444 -0.2607
 3427SOL     OW21913   4.105   1.459   4.458 -0.3030  0.6506 -0.6509
 3427SOL    HW121914   4.191   1.447   4.418  0.1098 -2.5049  1.1795
 3427SOL    HW221915   4.115   1.553   4.466  1.0906  0.5182 -0.9198
 3428SOL     OW21916   4.021   0.803  14.505 -0.0815  0.5175 -0.2716
 3428SOL    HW121917   4.009   0.897  14.512  0.3256  0.6541 -1.4399
 3428SOL    HW221918   3.933   0.777  14.480  0.1028  0.0666 -0.4633
 3429SOL     OW21919   1.695   0.875   7.911 -0.2260  0.0460  0.0098
 3429SOL    HW121920   1.708   0.823   7.832 -1.2956  2.0151 -1.4837
 3429SOL    HW221921   1.610   0.917   7.896 -0.5551 -0.0419  1.5819
 3430SOL     OW21922   2.174   0.032   4.718 -0.2355  0.6331  0.0757
 3430SOL    HW121923   2.141   0.074   4.639  0.1035 -1.1748 -1.0367
 3430SOL    HW221924   2.156   4.677   4.699  1.6969 -0.1677  2.1462
 3431SOL     OW21925   1.518   2.191   2.275  0.0016 -0.3303 -0.4235
 3431SOL    HW121926   1.520   2.279   2.312  0.8269 -0.4294 -0.2346
 3431SOL    HW221927   1.542   2.128   2.343  1.9226 -0.2901 -1.0794
 3432SOL     OW21928   2.059   0.563  17.660 -0.4472 -0.0593 -0.0341
 3432SOL    HW121929   1.998   0.573  17.733  1.8201  4.3818  1.2598
 3432SOL    HW221930   2.126   0.627  17.685 -0.6968  0.7413 -1.3906
 3433SOL     OW21931   2.608   2.061  16.248 -0.3107 -0.2424 -0.4405
 3433SOL    HW121932   2.601   2.030  16.158 -3.7777 -0.7646  0.0042
 3433SOL    HW221933   2.529   2.115  16.250  1.4896  2.4532 -3.3422
 3434SOL     OW21934   4.238   3.154   6.144  0.2245 -0.0610  0.4891
 3434SOL    HW121935   4.292   3.223   6.106 -0.6838  0.2069 -0.3450
 3434SOL    HW221936   4.259   3.173   6.235 -0.7276  1.7431  0.3397
 3435SOL     OW21937   1.096   3.606  10.741  0.6443  0.1578 -0.8367
 3435SOL    HW121938   1.016   3.649  10.771  0.7655 -0.4462  0.3235
 3435SOL    HW221939   1.069   3.579  10.653 -0.7729  0.2780 -0.4325
 3436SOL     OW21940   1.541   0.101   4.409 -0.0006  0.2158  0.5532
 3436SOL    HW121941   1.549   0.006   4.402  3.1848  0.4324  0.9629
 3436SOL    HW221942   1.623   0.125   4.366 -1.1060 -0.0395 -1.7040
 3437SOL     OW21943   1.904   2.065  13.800 -0.4505  0.0004  0.4260
 3437SOL    HW121944   1.976   2.013  13.765 -0.5420 -1.2637  2.0939
 3437SOL    HW221945   1.867   2.010  13.868 -1.6166  0.4146  0.1314
 3438SOL     OW21946   4.698   0.593   5.515 -0.0867 -0.3223 -0.0963
 3438SOL    HW121947   4.676   0.554   5.599  0.5869  0.8265  0.6143
 3438SOL    HW221948   0.056   0.586   5.513  0.0097  0.3699  2.2358
 3439SOL     OW21949   3.017   2.884   4.043 -0.1795  0.7799 -0.0746
 3439SOL    HW121950   3.016   2.799   3.998 -0.7347 -0.8761  3.0419
 3439SOL    HW221951   3.090   2.928   4.000  1.4114 -2.1761 -0.4088
 3440SOL     OW21952   1.746   1.300   6.049 -0.5298  0.3683 -0.4685
 3440SOL    HW121953   1.681   1.366   6.024  1.1558  1.5464 -1.7089
 3440SOL    HW221954   1.815   1.358   6.083 -0.8042  0.9977 -0.9814
 3441SOL     OW21955   3.739   1.128  16.772  0.1448 -0.5549 -0.0737
 3441SOL    HW121956   3.764   1.059  16.710  0.3048 -2.4101  2.0428
 3441SOL    HW221957   3.746   1.079  16.855  0.0589  0.3148  0.4464
 3442SOL     OW21958   1.601   4.371   1.087 -0.3271 -0.1605 -0.2041
 3442SOL    HW121959   1.690   4.356   1.053 -0.2766  2.0944 -1.0873
 3442SOL    HW221960   1.627   4.393   1.176  1.1345  1.8814 -1.1227
 3443SOL     OW21961   2.642   0.280  11.666 -0.1594 -0.2653  0.7743
 3443SOL    HW121962   2.566   0.321  11.707  0.3969  2.1478 -0.6693
 3443SOL    HW221963   2.701   0.355  11.670 -0.2327 -0.0950 -1.7862
 3444SOL     OW21964   2.179   2.153   8.896  0.3260 -0.0555 -0.1512
 3444SOL    HW121965   2.169   2.065   8.932  0.5550  1.2313  3.1053
 3444SOL    HW221966   2.270   2.155   8.866  0.0002  0.8958 -1.0698
 3445SOL     OW21967   0.567   4.704   9.477  0.2440 -0.0625  0.2326
 3445SOL    HW121968   0.568   4.689   9.383  0.0178 -1.6650  0.4699
 3445SOL    HW221969   0.480   4.668   9.492 -0.1635 -0.3599 -2.9679
 3446SOL     OW21970   4.214   1.945  17.204  0.5860 -0.3926 -0.1923
 3446SOL    HW121971   4.222   1.976  17.114  0.5105  0.7485  0.1891
 3446SOL    HW221972   4.298   1.959  17.247  0.0120 -2.9489  1.7586
 3447SOL     OW21973   3.391   4.278  17.049  0.4861 -0.3799  0.4011
 3447SOL    HW121974   3.450   4.205  17.067  0.2292 -0.5612  0.5202
 3447SOL    HW221975   3.364   4.245  16.963  1.0508  0.9633 -0.2894
 3448SOL     OW21976   0.207   1.002   7.518  0.0478  0.7567 -0.3098
 3448SOL    HW121977   0.260   1.055   7.458  2.5786  0.6417  1.8311
 3448SOL    HW221978   0.250   1.025   7.600 -1.3905  0.3812  0.5405
 3449SOL     OW21979   2.623   0.897   9.770 -0.0963  0.7059  0.1318
 3449SOL    HW121980   2.712   0.862   9.765 -0.1454  0.1657  2.9913
 3449SOL    HW221981   2.636   0.972   9.828  0.0720  0.4211  0.4640
 3450SOL     OW21982   3.214   2.292   2.547  0.0620  0.0442  0.0505
 3450SOL    HW121983   3.143   2.341   2.505 -1.2063  1.1558  3.4630
 3450SOL    HW221984   3.278   2.363   2.543  0.1193 -0.0923 -1.2463
 3451SOL     OW21985   1.959   0.435  12.347  0.1123  0.1144 -0.6009
 3451SOL    HW121986   1.978   0.417  12.439 -2.1790  0.0205 -0.1584
 3451SOL    HW221987   1.964   0.531  12.342  1.6565  0.0879  0.4697
 3452SOL     OW21988   1.824   0.816   9.350  0.1233 -0.0979 -0.3515
 3452SOL    HW121989   1.834   0.723   9.365  1.6064 -0.0238 -0.8704
 3452SOL    HW221990   1.783   0.814   9.264 -0.6794 -1.9447  0.0866
 3453SOL     OW21991   2.959   2.720   9.127  0.1570 -0.0972 -0.2516
 3453SOL    HW121992   2.868   2.719   9.158  0.3414 -0.3573  0.2821
 3453SOL    HW221993   2.954   2.813   9.105  0.3067 -0.1164 -0.3638
 3454SOL     OW21994   0.025   3.150   2.010 -0.1309  0.0540  0.3935
 3454SOL    HW121995   0.111   3.138   1.971 -0.2273  1.1800 -0.1554
 3454SOL    HW221996   0.028   3.097   2.090  0.2690 -2.9061 -1.6128
 3455SOL     OW21997   4.513   1.155   9.149  0.0055  0.0692 -0.0561
 3455SOL    HW121998   4.573   1.221   9.183  2.0765 -2.2096  0.7886
 3455SOL    HW221999   4.426   1.174   9.185 -0.5055 -1.0539 -0.6807
 3456SOL     OW22000   4.027   3.923   6.788  0.0271 -0.1235  0.0546
 3456SOL    HW122001   3.945   3.950   6.831  0.4597  3.4414 -1.3064
 3456SOL    HW222002   4.082   3.998   6.813  0.0124  0.1936 -0.8738
 3457SOL     OW22003   3.546   4.401   6.514  0.2548 -0.0379  0.0328
 3457SOL    HW122004   3.559   4.493   6.491 -1.6116 -0.2460 -1.8460
 3457SOL    HW222005   3.618   4.352   6.475 -0.6165 -0.9695 -0.4088
 3458SOL     OW22006   3.469   3.966   0.566 -0.0489  0.7342  0.7667
 3458SOL    HW122007   3.395   3.938   0.619 -0.4282 -0.5528 -0.4459
 3458SOL    HW222008   3.431   3.924   0.489 -0.8255  1.8607  0.5336
 3459SOL     OW22009   2.164   1.078   7.722 -0.0445 -0.2823  0.2863
 3459SOL    HW122010   2.231   1.060   7.788 -1.0370 -0.7307  1.1684
 3459SOL    HW222011   2.078   1.080   7.764 -0.5434 -1.0988 -0.7141
 3460SOL     OW22012   2.089   3.220   6.734 -0.1644  0.2804  0.2829
 3460SOL    HW122013   2.125   3.279   6.801 -0.6068  1.4239 -0.4755
 3460SOL    HW222014   2.143   3.146   6.759  0.8402  0.9009 -0.0492
 3461SOL     OW22015   0.477   2.653  16.297  0.5933 -0.3535  0.4923
 3461SOL    HW122016   0.501   2.732  16.345  1.7541 -1.2290  1.3687
 3461SOL    HW222017   0.429   2.588  16.348 -2.1271  1.9549  0.8464
 3462SOL     OW22018   3.260   3.692   2.198 -0.0271  0.6739 -0.4059
 3462SOL    HW122019   3.255   3.733   2.284 -0.2705  0.9384 -0.5457
 3462SOL    HW222020   3.283   3.607   2.236  1.2979  0.1962 -2.2540
 3463SOL     OW22021   1.928   4.290   9.341  0.6776  0.1606 -0.4583
 3463SOL    HW122022   1.860   4.354   9.360  2.1127  0.8846  2.2243
 3463SOL    HW222023   1.987   4.327   9.276 -1.0982  1.4014 -1.3613
 3464SOL     OW22024   1.040   2.446   8.059 -0.0492  0.3769  0.0597
 3464SOL    HW122025   1.055   2.425   7.967  3.0945  0.8448  0.4594
 3464SOL    HW222026   0.988   2.526   8.051 -2.0406 -1.0517 -1.1378
 3465SOL     OW22027   2.504   2.000   4.221  0.2447 -0.1887  0.0475
 3465SOL    HW122028   2.591   1.960   4.223  0.5149  0.4326  0.4639
 3465SOL    HW222029   2.521   2.093   4.205  0.6935 -0.5723 -1.7710
 3466SOL     OW22030   1.391   3.664   1.111  0.5980  0.0468  0.5268
 3466SOL    HW122031   1.403   3.724   1.038  1.7839 -0.5341  0.2354
 3466SOL    HW222032   1.297   3.653   1.119  0.0101  3.2662 -2.0678
 3467SOL     OW22033   3.531   0.402  10.765  0.7775  0.1318 -0.0735
 3467SOL    HW122034   3.490   0.316  10.752 -0.9883  0.7619  1.2414
 3467SOL    HW222035   3.529   0.450  10.682 -1.6993  0.0682 -0.0529
 3468SOL     OW22036   1.305   3.782   5.804  0.1271 -0.0145 -0.1919
 3468SOL    HW122037   1.256   3.851   5.849  0.7190  0.3265 -0.0848
 3468SOL    HW222038   1.251   3.776   5.726 -0.8055  3.2467  0.2132
 3469SOL     OW22039   0.500   1.997  11.986 -0.1114  0.2606 -0.0724
 3469SOL    HW122040   0.575   1.959  11.939 -1.1320 -3.3645  1.2806
 3469SOL    HW222041   0.429   1.967  11.929 -0.0689 -0.3443  0.1910
 3470SOL     OW22042   1.635   2.742   4.851 -0.0689 -0.4913  0.0215
 3470SOL    HW122043   1.624   2.730   4.757  1.1427 -3.4883  0.2649
 3470SOL    HW222044   1.580   2.819   4.869 -1.5970 -1.1158 -1.9339
 3471SOL     OW22045   3.600   2.875   7.703 -0.2419  0.2591 -0.0831
 3471SOL    HW122046   3.564   2.801   7.654  0.7522 -0.1819 -0.1341
 3471SOL    HW222047   3.644   2.837   7.779 -1.7776 -1.1197  0.1212
 3472SOL     OW22048   0.983   0.128   9.358 -0.8597  0.3917 -0.2622
 3472SOL    HW122049   0.917   0.074   9.315 -0.6776  0.2939 -0.4137
 3472SOL    HW222050   0.945   0.164   9.439 -0.8572  1.1905 -0.6196
 3473SOL     OW22051   3.275   0.200   2.703 -0.4539 -0.0814 -0.2370
 3473SOL    HW122052   3.245   0.248   2.780 -0.1327 -0.8930  0.3945
 3473SOL    HW222053   3.195   0.202   2.650  1.4444 -0.7002 -3.1032
 3474SOL     OW22054   1.874   2.097   7.821 -0.0943  0.1828  0.0665
 3474SOL    HW122055   1.865   2.103   7.916 -3.1413  2.4836 -0.3446
 3474SOL    HW222056   1.940   2.165   7.807  0.1019  0.3229  1.7671
 3475SOL     OW22057   4.119   2.395   2.481 -0.3918 -0.2945 -0.1202
 3475SOL    HW122058   4.154   2.437   2.403  1.7514 -0.1347  0.9070
 3475SOL    HW222059   4.071   2.318   2.450  0.5243 -1.0700  0.3691
 3476SOL     OW22060   2.605   0.928   6.057 -0.4997 -0.0010  0.2448
 3476SOL    HW122061   2.679   0.933   5.996 -1.5783 -0.3930 -1.1100
 3476SOL    HW222062   2.629   0.849   6.106 -0.4511  0.9706  1.7702
 3477SOL     OW22063   0.110   0.885   5.877 -0.7903  0.0580 -0.4429
 3477SOL    HW122064   0.169   0.813   5.854 -1.4648 -0.8649  0.7512
 3477SOL    HW222065   0.130   0.908   5.967 -0.7072  1.6827 -0.8774
 3478SOL     OW22066   3.538   4.069  10.015  0.5733 -0.1001 -0.2180
 3478SOL    HW122067   3.595   4.127   9.965 -0.2648  0.6192 -0.3547
 3478SOL    HW222068   3.574   3.989   9.977  0.0801 -0.6208  0.4052
 3479SOL     OW22069   3.419   0.724   2.468  0.4172 -0.5326 -0.2841
 3479SOL    HW122070   3.389   0.634   2.456 -0.2603 -0.5280  1.4130
 3479SOL    HW222071   3.492   0.704   2.527 -0.4951 -1.0188  0.6732
 3480SOL     OW22072   4.561   1.539   3.730  0.0174  0.2223  0.5959
 3480SOL    HW122073   4.479   1.492   3.716 -0.9205  1.9878  0.2162
 3480SOL    HW222074   4.559   1.561   3.823  0.4065 -0.8376  0.8652
 3481SOL     OW22075   4.153   0.072   0.835  0.3032  0.0594  0.4153
 3481SOL    HW122076   4.158   0.154   0.786  0.2034 -0.9162 -1.2090
 3481SOL    HW222077   4.236   0.027   0.823  0.8428  0.7798  1.3961
 3482SOL     OW22078   4.005   0.716   3.085 -0.2388  0.0779  0.2496
 3482SOL    HW122079   3.929   0.693   3.032 -1.3766  1.7282  1.1392
 3482SOL    HW222080   4.071   0.673   3.031 -0.3422 -0.8427  0.8671
 3483SOL     OW22081   1.415   2.857  10.247 -0.0658  0.7438 -0.7244
 3483SOL    HW122082   1.398   2.951  10.244  0.8431  0.7741 -5.4297
 3483SOL    HW222083   1.433   2.843  10.340 -0.4541  1.3810 -0.5481
 3484SOL     OW22084   3.692   3.974  12.502 -0.3479 -0.0759 -0.4542
 3484SOL    HW122085   3.670   3.996  12.411  0.6534 -1.5611 -1.0697
 3484SOL    HW222086   3.605   3.972  12.542 -1.3658  1.0578 -2.6158
 3485SOL     OW22087   3.909   0.636   4.242  0.1400 -0.1400  0.3175
 3485SOL    HW122088   3.862   0.673   4.167 -1.1797 -0.5694  0.9364
 3485SOL    HW222089   3.898   0.701   4.312 -1.4357 -0.4456  0.3562
 3486SOL     OW22090   3.645   2.462   5.928 -0.1684 -0.2633 -0.6001
 3486SOL    HW122091   3.624   2.499   5.843 -0.3904  1.6122  0.2893
 3486SOL    HW222092   3.565   2.483   5.975 -0.5112 -2.0635 -0.3871
 3487SOL     OW22093   0.932   1.398   5.156  0.2049  0.0374  0.1556
 3487SOL    HW122094   0.892   1.311   5.160  2.5587 -1.0381  0.3212
 3487SOL    HW222095   0.933   1.431   5.246 -0.7445 -2.0839  0.9552
 3488SOL     OW22096   0.434   1.057   3.975 -0.0533  0.5313 -0.2825
 3488SOL    HW122097   0.461   1.132   3.923 -1.4394  1.8952  0.9567
 3488SOL    HW222098   0.347   1.039   3.938  0.2081  2.2881 -1.7471
 3489SOL     OW22099   4.504   2.294   5.678  0.6500  0.3546 -0.1710
 3489SOL    HW122100   4.501   2.344   5.759 -0.5411  1.3728 -0.8355
 3489SOL    HW222101   4.562   2.359   5.637 -1.1548  1.6857 -0.6118
 3490SOL     OW22102   2.180   3.985  12.195 -0.3091  0.0781  0.4345
 3490SOL    HW122103   2.235   3.921  12.150 -0.6556  1.3619 -1.8053
 3490SOL    HW222104   2.187   4.048  12.123 -0.1372  1.4995  1.6889
 3491SOL     OW22105   4.320   1.043   2.352 -0.0217 -0.3020 -0.2734
 3491SOL    HW122106   4.357   1.024   2.438 -1.5419 -0.0055  0.4518
 3491SOL    HW222107   4.392   1.038   2.289  1.3186 -1.3309  1.3550
 3492SOL     OW22108   0.803   0.581   0.946 -0.1093 -0.3431  0.2655
 3492SOL    HW122109   0.762   0.601   1.030 -1.0472  0.9591 -0.5073
 3492SOL    HW222110   0.722   0.585   0.895  0.5808  0.2220 -0.7955
 3493SOL     OW22111   0.126   4.175   9.428  0.4179  0.0879 -0.4328
 3493SOL    HW122112   0.180   4.095   9.430  1.6771  0.9714  0.8366
 3493SOL    HW222113   0.094   4.183   9.518 -0.6980 -1.0074 -0.7258
 3494SOL     OW22114   2.059   0.372   7.353  0.2245  0.4208 -0.1172
 3494SOL    HW122115   2.148   0.401   7.332 -1.0909  3.3545 -1.7595
 3494SOL    HW222116   2.032   0.359   7.262 -1.9392  2.3378  0.2532
 3495SOL     OW22117   3.325   1.191   0.380  0.4607 -0.2250  0.0578
 3495SOL    HW122118   3.296   1.128   0.446  2.3280 -0.3153  0.7986
 3495SOL    HW222119   3.247   1.247   0.379 -0.7776 -1.9249  0.3920
 3496SOL     OW22120   1.426   4.569  15.506 -0.0310 -0.2011 -0.4438
 3496SOL    HW122121   1.450   4.643  15.451 -3.8259  1.1854 -0.2537
 3496SOL    HW222122   1.334   4.592  15.521 -0.5321 -1.6742 -1.2842
 3497SOL     OW22123   2.007   3.204   4.786 -0.1194  0.8576  0.4347
 3497SOL    HW122124   2.055   3.152   4.850  1.2095 -0.0123 -1.2653
 3497SOL    HW222125   2.078   3.227   4.726  0.9064 -0.8156  1.0159
 3498SOL     OW22126   0.618   3.040   2.749 -0.0941  0.1756 -0.0014
 3498SOL    HW122127   0.547   3.020   2.689  0.9467 -1.6530 -0.6210
 3498SOL    HW222128   0.679   3.065   2.679  2.0082 -0.7265  1.4736
 3499SOL     OW22129   2.180   4.288   6.335  0.2569 -0.1357  0.4635
 3499SOL    HW122130   2.269   4.296   6.370  1.2199 -2.2818 -1.3985
 3499SOL    HW222131   2.191   4.213   6.275  0.1428  1.1229 -1.1252
 3500SOL     OW22132   1.861   3.001   6.459  0.0057 -0.2317  0.2435
 3500SOL    HW122133   1.796   2.934   6.440 -1.4169  1.0726  0.5267
 3500SOL    HW222134   1.819   3.040   6.536 -0.1435  0.1150 -0.0165
 3501SOL     OW22135   4.604   0.688  10.959  0.0195  0.3730 -0.1146
 3501SOL    HW122136   4.635   0.704  11.049  0.1598  1.4301 -0.3468
 3501SOL    HW222137   4.519   0.731  10.956  0.3446  1.0131 -0.2037
 3502SOL     OW22138   1.997   4.002   2.207 -0.7303  0.3557  0.1184
 3502SOL    HW122139   1.970   3.959   2.126  0.7083  0.3089 -0.3331
 3502SOL    HW222140   1.980   4.091   2.175 -0.0750  0.1855 -0.7063
 3503SOL     OW22141   3.539   4.372   5.611 -0.3971  0.0865  0.6570
 3503SOL    HW122142   3.613   4.394   5.669 -0.5263  0.2188  0.7711
 3503SOL    HW222143   3.585   4.343   5.532 -2.8393  2.0391 -1.4644
 3504SOL     OW22144   1.689   1.366   7.849 -0.4251  0.1651 -0.1365
 3504SOL    HW122145   1.656   1.290   7.801 -1.3237  0.9631 -0.8083
 3504SOL    HW222146   1.771   1.389   7.806  0.6006 -1.2155  1.1054
 3505SOL     OW22147   3.186   2.653   3.505 -0.1918  0.1629  0.0160
 3505SOL    HW122148   3.252   2.616   3.564 -0.5812 -0.3019  0.1631
 3505SOL    HW222149   3.205   2.747   3.501  1.1396 -0.1474 -0.6957
 3506SOL     OW22150   0.817   0.404   5.412  0.2263 -0.0188  0.0609
 3506SOL    HW122151   0.900   0.399   5.365  0.8101  2.4798  0.8478
 3506SOL    HW222152   0.850   0.447   5.491 -2.2946 -0.6072  1.4310
 3507SOL     OW22153   0.667   2.715   2.776  0.1493  0.7309 -0.4485
 3507SOL    HW122154   0.761   2.730   2.766 -0.1950  1.5252 -2.4482
 3507SOL    HW222155   0.652   2.779   2.846 -1.0020 -0.4140  0.3462
 3508SOL     OW22156   3.640   1.714   7.897 -0.1100 -0.4393 -0.3244
 3508SOL    HW122157   3.705   1.647   7.918  0.5256  1.3512  3.3684
 3508SOL    HW222158   3.620   1.686   7.808  0.7682 -2.4591  0.1138
 3509SOL     OW22159   0.836   3.052   8.264 -0.0709 -0.2460 -0.7822
 3509SOL    HW122160   0.902   2.984   8.275 -0.2378  0.2067  2.8833
 3509SOL    HW222161   0.888   3.127   8.292 -0.4564 -0.1680 -0.2715
 3510SOL     OW22162   3.611   1.675   5.472 -0.0688  0.9068  0.0060
 3510SOL    HW122163   3.704   1.695   5.479  0.3559 -1.1928  0.4423
 3510SOL    HW222164   3.576   1.719   5.550  0.0251 -1.7049  1.5173
 3511SOL     OW22165   2.784   4.237  11.734 -0.0729 -0.1936  0.3587
 3511SOL    HW122166   2.848   4.299  11.699  0.0149  0.3165  1.4309
 3511SOL    HW222167   2.721   4.236  11.663 -1.5403 -1.0483  1.6858
 3512SOL     OW22168   2.662   0.135   1.486 -0.3561  0.1738 -0.2354
 3512SOL    HW122169   2.608   0.188   1.544  0.5232  1.7392 -0.8517
 3512SOL    HW222170   2.670   0.197   1.414 -1.2741 -0.8049 -1.1930
 3513SOL     OW22171   4.676   0.895  15.570 -0.1900 -0.1226  0.5213
 3513SOL    HW122172   0.023   0.870  15.533  0.3640 -0.0968  1.7937
 3513SOL    HW222173   4.667   0.816  15.623  0.3551 -1.9270 -2.0301
 3514SOL     OW22174   0.112   0.146   7.869  0.6723  0.1262  0.6132
 3514SOL    HW122175   0.176   0.212   7.893  0.3528  0.5980  0.1632
 3514SOL    HW222176   0.093   0.175   7.780 -0.6082  0.7596  1.0985
 3515SOL     OW22177   1.961   2.538   4.473 -0.0827  0.4247 -0.0977
 3515SOL    HW122178   1.964   2.489   4.555  0.6121  0.9407  0.1874
 3515SOL    HW222179   2.055   2.536   4.460 -0.3474 -3.2573 -1.1978
 3516SOL     OW22180   3.724   0.087   2.499  0.0127  0.2935  0.4727
 3516SOL    HW122181   3.652   0.069   2.560  0.6124  0.4378  1.2258
 3516SOL    HW222182   3.798   0.073   2.558 -0.9514 -1.5129  1.2686
 3517SOL     OW22183   3.137   3.597   5.117  0.1203 -0.5231 -1.0117
 3517SOL    HW122184   3.114   3.688   5.098 -3.6894 -1.1339  0.6979
 3517SOL    HW222185   3.059   3.577   5.169 -0.3284 -0.2849 -1.5889
 3518SOL     OW22186   1.216   2.109  11.665  0.4950 -0.6578  0.2566
 3518SOL    HW122187   1.186   2.028  11.707 -1.8428 -1.0701 -2.2016
 3518SOL    HW222188   1.246   2.139  11.751 -2.5225  1.5943  0.5264
 3519SOL     OW22189   0.536   2.202   2.665  0.1542 -0.3257 -0.3295
 3519SOL    HW122190   0.530   2.288   2.707  1.9927 -0.0278 -0.7033
 3519SOL    HW222191   0.452   2.203   2.618 -0.2691  1.5775  0.4506
 3520SOL     OW22192   2.373   2.865   5.098 -0.0740  0.0123 -0.0710
 3520SOL    HW122193   2.303   2.816   5.055  0.6976 -1.0828 -0.0770
 3520SOL    HW222194   2.319   2.930   5.144 -1.4479  0.1203 -1.8198
 3521SOL     OW22195   0.020   4.032   2.924  0.7408  0.4110  0.0862
 3521SOL    HW122196   0.026   3.949   2.972  0.7960  2.2982  3.3010
 3521SOL    HW222197   4.672   4.064   2.951  0.4249  0.1221 -0.5677
 3522SOL     OW22198   4.603   4.570  17.430 -0.7838 -0.3059  0.3305
 3522SOL    HW122199   4.677   4.532  17.476  1.1977  1.4278 -1.4297
 3522SOL    HW222200   4.536   4.569  17.499  1.5955  1.4505  2.7065
 3523SOL     OW22201   4.540   1.682   3.516  0.2096  0.8060  0.8392
 3523SOL    HW122202   4.608   1.738   3.478  0.6526 -1.8538 -2.3400
 3523SOL    HW222203   4.592   1.640   3.584 -0.6487  0.3458  1.2095
 3524SOL     OW22204   4.708   1.104   5.700 -0.1333 -0.6663 -0.3048
 3524SOL    HW122205   4.656   1.163   5.647 -1.4104 -0.8828  0.7231
 3524SOL    HW222206   4.642   1.073   5.762 -0.9322  0.5130 -0.5848
 3525SOL     OW22207   2.812   0.228   3.110  0.2664 -0.0957  0.4720
 3525SOL    HW122208   2.813   0.323   3.120  1.0395  0.1223 -1.7969
 3525SOL    HW222209   2.735   0.204   3.161  0.2868 -1.7559 -0.2884
 3526SOL     OW22210   3.255   1.176   8.911 -0.2480  0.4085 -0.2498
 3526SOL    HW122211   3.193   1.105   8.926 -0.3906  0.5000 -0.4065
 3526SOL    HW222212   3.306   1.141   8.838 -0.2103 -1.1439  0.5225
 3527SOL     OW22213   1.346   0.174  12.167  0.2187 -0.1478 -0.3711
 3527SOL    HW122214   1.331   0.143  12.256 -0.7159  1.4340  0.0139
 3527SOL    HW222215   1.389   0.257  12.184  1.4975 -0.4038 -2.3293
 3528SOL     OW22216   1.761   1.186   3.372  0.3127  0.4276  0.2479
 3528SOL    HW122217   1.795   1.171   3.460  2.8855  0.0554 -0.8272
 3528SOL    HW222218   1.842   1.211   3.328  2.0714 -0.5753  2.9445
 3529SOL     OW22219   3.587   2.293   2.800 -0.3224 -0.3956  0.5637
 3529SOL    HW122220   3.650   2.269   2.869 -1.0614 -2.3895  0.5553
 3529SOL    HW222221   3.603   2.384   2.775  1.2815 -0.4717  1.2355
 3530SOL     OW22222   2.370   2.532  16.826 -0.1147 -0.2401 -0.7276
 3530SOL    HW122223   2.390   2.524  16.919 -0.2542  0.3721 -0.6475
 3530SOL    HW222224   2.360   2.438  16.809 -0.8252 -0.3213  0.1158
 3531SOL     OW22225   0.148   0.135   2.827  0.1830 -0.1528  0.1733
 3531SOL    HW122226   0.089   0.078   2.876  0.2448 -1.1114 -0.8631
 3531SOL    HW222227   0.150   0.087   2.744  1.0989  1.9272 -0.9993
 3532SOL     OW22228   1.502   3.836   4.255  0.2229 -0.6535 -0.5265
 3532SOL    HW122229   1.537   3.777   4.321  0.1992 -1.9702 -1.6906
 3532SOL    HW222230   1.582   3.849   4.204  0.2307  1.8491  0.1376
 3533SOL     OW22231   2.245   3.776   8.498  0.1100 -0.0776  0.2273
 3533SOL    HW122232   2.203   3.822   8.571  2.3782  2.1740  0.1166
 3533SOL    HW222233   2.281   3.844   8.441 -1.4624  0.6944  0.1471
 3534SOL     OW22234   3.459   1.627  17.217  0.7026  0.0727  0.5578
 3534SOL    HW122235   3.476   1.610  17.125 -0.7087 -0.2275  0.3516
 3534SOL    HW222236   3.543   1.635  17.262  1.6007 -1.3919 -0.8859
 3535SOL     OW22237   4.194   2.101  12.115 -0.2291 -0.9284 -0.4184
 3535SOL    HW122238   4.226   2.061  12.196 -0.2375 -2.2305 -1.0606
 3535SOL    HW222239   4.109   2.059  12.105 -1.8255  2.0130  1.1969
 3536SOL     OW22240   1.657   0.383   3.868 -0.8467 -0.0826 -0.2470
 3536SOL    HW122241   1.649   0.465   3.916 -0.8057 -0.1959 -0.0415
 3536SOL    HW222242   1.568   0.348   3.871  0.5009 -3.3014  2.4761
 3537SOL     OW22243   3.237   1.549  13.132  0.5229  0.1279 -0.1407
 3537SOL    HW122244   3.260   1.613  13.063 -1.6140  0.2686 -0.7328
 3537SOL    HW222245   3.280   1.468  13.105 -0.4055 -0.4245  0.0712
 3538SOL     OW22246   4.132   3.884   4.212  0.0605 -0.4615  0.4183
 3538SOL    HW122247   4.049   3.847   4.243 -1.1032  0.8339 -1.1683
 3538SOL    HW222248   4.148   3.838   4.130 -0.5996 -0.2041  0.1470
 3539SOL     OW22249   3.190   4.324   4.951  0.2589 -0.9846 -0.1745
 3539SOL    HW122250   3.261   4.370   4.906 -0.4500  0.3660  0.0605
 3539SOL    HW222251   3.111   4.337   4.898  0.7669  2.3473 -0.1143
 3540SOL     OW22252   0.261   4.282   2.759  0.1378 -0.1992 -0.0482
 3540SOL    HW122253   0.220   4.217   2.702 -0.3645  0.3785 -0.3600
 3540SOL    HW222254   0.277   4.244   2.845 -1.3760  1.0656  0.8073
 3541SOL     OW22255   3.134   2.335   2.830  0.0271  0.5070 -0.3412
 3541SOL    HW122256   3.071   2.406   2.814 -1.3811 -0.7093 -0.1703
 3541SOL    HW222257   3.207   2.373   2.781  0.5633  1.9600  1.5699
 3542SOL     OW22258   1.965   1.023   3.812  0.2353  0.0260 -0.2678
 3542SOL    HW122259   2.004   1.075   3.883  0.9096 -1.0094  0.1289
 3542SOL    HW222260   2.034   0.959   3.794  0.2207 -0.0572 -0.0255
 3543SOL     OW22261   1.217   0.818   6.484  0.1143  1.1721  0.1957
 3543SOL    HW122262   1.247   0.733   6.452  1.5991  1.5311  0.6511
 3543SOL    HW222263   1.127   0.792   6.503  1.0217 -1.1545  1.3172
 3544SOL     OW22264   1.685   0.873   7.162  0.1240  0.1483 -0.4451
 3544SOL    HW122265   1.627   0.848   7.090  1.3275  1.2078 -1.7857
 3544SOL    HW222266   1.738   0.793   7.159 -0.5393 -0.3069  0.0408
 3545SOL     OW22267   1.342   3.190   2.335 -0.0389  0.2888  0.4638
 3545SOL    HW122268   1.264   3.207   2.281 -0.6317 -1.5896  0.7110
 3545SOL    HW222269   1.413   3.219   2.279 -1.3490  0.0741 -1.3301
 3546SOL     OW22270   1.852   2.987   4.232 -0.9178  0.2422  0.2831
 3546SOL    HW122271   1.918   2.922   4.209 -0.8851 -0.0189  1.1234
 3546SOL    HW222272   1.831   3.015   4.143  1.7998  2.4636  0.3335
 3547SOL     OW22273   4.212   2.720   7.953 -0.9361 -1.2551 -0.8643
 3547SOL    HW122274   4.139   2.781   7.949  0.1662  0.1893  1.0634
 3547SOL    HW222275   4.185   2.662   8.023 -0.6042  0.5592  0.7652
 3548SOL     OW22276   0.522   2.205   3.842  0.3078 -0.2231 -0.1847
 3548SOL    HW122277   0.430   2.182   3.851  1.2524 -2.8384  2.9336
 3548SOL    HW222278   0.541   2.197   3.748 -0.2581  2.5105 -0.5357
 3549SOL     OW22279   1.941   3.835   9.386 -0.2397  0.0372  0.1204
 3549SOL    HW122280   1.867   3.796   9.339  0.1768  0.1742 -0.6536
 3549SOL    HW222281   1.970   3.903   9.325  0.2382  0.3622  0.7118
 3550SOL     OW22282   1.687   2.701   7.222 -0.2741  0.0278  0.2007
 3550SOL    HW122283   1.620   2.760   7.256 -0.7803 -1.9839  2.7251
 3550SOL    HW222284   1.645   2.678   7.139 -0.8387  1.7500  0.0279
 3551SOL     OW22285   4.698   0.222   2.638 -0.1609 -0.2436 -0.6566
 3551SOL    HW122286   4.683   0.219   2.733  1.4205  1.3221 -0.3528
 3551SOL    HW222287   0.043   0.269   2.632  1.5875 -3.0070  1.9029
 3552SOL     OW22288   3.893   0.029   6.631 -0.0641  0.0808 -0.0546
 3552SOL    HW122289   3.820   0.086   6.608 -1.5882 -1.1513  1.6601
 3552SOL    HW222290   3.857   4.707   6.698  1.4545  0.0557  0.7390
 3553SOL     OW22291   0.424   1.273  17.425  0.6220  0.6214 -0.0078
 3553SOL    HW122292   0.443   1.341  17.489  1.7705 -0.3897  0.7313
 3553SOL    HW222293   0.453   1.309  17.342  0.9369  0.8386  0.1969
 3554SOL     OW22294   1.092   2.944  13.644 -0.2526  0.7360  0.2769
 3554SOL    HW122295   1.153   2.907  13.581 -0.1889  1.2472  0.0423
 3554SOL    HW222296   1.158   2.987  13.698 -1.3544  0.4079  1.8855
 3555SOL     OW22297   3.491   4.505   2.492  0.1260  0.5104  0.3465
 3555SOL    HW122298   3.487   4.542   2.580 -0.8248  0.8516  0.1656
 3555SOL    HW222299   3.515   4.413   2.506 -1.1767  0.3469  1.5285
 3556SOL     OW22300   0.179   4.487   7.704  0.0890  0.1571 -0.7483
 3556SOL    HW122301   0.256   4.490   7.761  1.6222 -0.8757 -2.7528
 3556SOL    HW222302   0.106   4.458   7.758  1.9439  0.1824  1.7769
 3557SOL     OW22303   4.588   3.777   8.617 -0.1807 -0.2954 -0.2156
 3557SOL    HW122304   4.618   3.867   8.616  0.1732 -0.4133  0.6046
 3557SOL    HW222305   4.665   3.721   8.623 -2.6657 -3.4558  2.5244
 3558SOL     OW22306   0.812   3.568   2.109 -0.2617 -0.3652 -0.0690
 3558SOL    HW122307   0.844   3.567   2.019  1.6281 -0.1499  0.6004
 3558SOL    HW222308   0.781   3.658   2.119  0.7934 -0.3043  2.4524
 3559SOL     OW22309   0.952   2.415  13.737  0.1248  0.1181 -0.0325
 3559SOL    HW122310   0.879   2.436  13.795 -1.0223  0.3953 -1.5878
 3559SOL    HW222311   0.916   2.352  13.675  1.1109  0.2502 -0.7367
 3560SOL     OW22312   4.021   2.127   2.455  0.1391 -0.0830 -0.2754
 3560SOL    HW122313   4.075   2.100   2.530  0.1696 -1.5727 -0.8310
 3560SOL    HW222314   4.046   2.062   2.389  1.4749  1.6264 -1.4649
 3561SOL     OW22315   1.777   0.660   7.714 -0.1798  0.5536  0.3691
 3561SOL    HW122316   1.833   0.598   7.668 -1.7501  0.1844 -1.0455
 3561SOL    HW222317   1.693   0.640   7.672  0.0610 -0.4942  0.3869
 3562SOL     OW22318   1.586   0.107   4.076  0.3303 -0.4672  0.2847
 3562SOL    HW122319   1.637   0.099   3.995  0.1822  0.3870  0.0994
 3562SOL    HW222320   1.635   0.183   4.108  2.7783 -1.8991 -0.0690
 3563SOL     OW22321   4.219   4.726   9.717  0.2049 -0.5409 -0.7506
 3563SOL    HW122322   4.134   4.682   9.707 -0.5278  0.5084  0.9454
 3563SOL    HW222323   4.258   4.659   9.660  2.8392  1.0198 -0.7739
 3564SOL     OW22324   0.535   1.312   5.790 -0.1125  0.2492 -0.1599
 3564SOL    HW122325   0.467   1.280   5.730 -0.3426  1.9914 -0.8215
 3564SOL    HW222326   0.555   1.396   5.749 -0.9748 -0.0022 -1.1091
 3565SOL     OW22327   4.562   3.632   5.664  0.4446  0.3592  0.0825
 3565SOL    HW122328   4.532   3.562   5.721 -0.0687 -0.7123 -1.5186
 3565SOL    HW222329   4.606   3.577   5.600  0.5266 -0.5661  0.9390
 3566SOL     OW22330   1.233   3.846   4.168  0.3167 -0.4976  0.4544
 3566SOL    HW122331   1.255   3.916   4.107 -1.1292 -1.6668 -1.4233
 3566SOL    HW222332   1.317   3.820   4.206  0.9599  0.9927  0.0412
 3567SOL     OW22333   2.759   4.259   9.431  0.1978 -0.0568  0.1930
 3567SOL    HW122334   2.785   4.177   9.389  0.7075  0.6896 -0.9688
 3567SOL    HW222335   2.713   4.230   9.510  0.3048 -0.0878  0.2437
 3568SOL     OW22336   1.892   3.030   2.578  0.0151 -0.2849 -0.4897
 3568SOL    HW122337   1.909   2.943   2.542 -0.4289 -0.5110 -0.1668
 3568SOL    HW222338   1.950   3.079   2.521 -0.8766  0.4054 -0.8053
 3569SOL     OW22339   4.141   3.834  13.709 -0.4248 -0.0117 -0.1325
 3569SOL    HW122340   4.192   3.810  13.632 -2.7909 -3.3990 -0.6180
 3569SOL    HW222341   4.145   3.763  13.773  0.5158 -0.9540 -1.2566
 3570SOL     OW22342   0.126   1.182   6.767 -0.3013 -0.5718 -0.1223
 3570SOL    HW122343   0.083   1.254   6.722 -0.8964 -1.2170 -0.5901
 3570SOL    HW222344   0.052   1.142   6.813  0.4843 -1.8365  0.0687
 3571SOL     OW22345   1.347   2.593  16.874 -0.6118  0.2134  0.1018
 3571SOL    HW122346   1.375   2.501  16.879  1.6106  0.7959 -1.1775
 3571SOL    HW222347   1.427   2.624  16.916 -0.4043  0.0438 -0.1644
 3572SOL     OW22348   0.854   1.778  11.058 -0.3456  0.0578  0.6834
 3572SOL    HW122349   0.917   1.706  11.056 -1.6294 -1.0247 -0.4725
 3572SOL    HW222350   0.807   1.764  11.141 -2.0635 -1.4477 -0.5469
 3573SOL     OW22351   3.873   2.170   9.197 -0.1145 -0.3039  0.3679
 3573SOL    HW122352   3.887   2.245   9.254 -1.5725  0.3083 -0.0794
 3573SOL    HW222353   3.784   2.144   9.219 -0.9373  2.7471  0.5689
 3574SOL     OW22354   0.336   0.682   0.348 -0.2101  0.7691 -0.1888
 3574SOL    HW122355   0.243   0.687   0.324 -0.1379  1.0804 -0.4163
 3574SOL    HW222356   0.322   0.662   0.440 -1.7145  1.9054 -0.1604
 3575SOL     OW22357   0.676   2.629  13.509  0.3466  0.3531  0.0182
 3575SOL    HW122358   0.625   2.685  13.567  1.5980 -0.5852  2.0189
 3575SOL    HW222359   0.762   2.663  13.534  0.5873 -0.6735  0.6086
 3576SOL     OW22360   2.706   0.265   2.290 -0.1989  0.2617 -0.0287
 3576SOL    HW122361   2.785   0.300   2.251  0.2791 -1.3925 -0.5149
 3576SOL    HW222362   2.644   0.336   2.273 -2.5526 -1.9376 -0.7034
 3577SOL     OW22363   3.833   4.254  16.625  0.4948  0.5951 -0.4236
 3577SOL    HW122364   3.804   4.345  16.634 -2.8652 -0.5600  0.4810
 3577SOL    HW222365   3.904   4.252  16.690  0.1591 -2.2999 -0.1696
 3578SOL     OW22366   3.379   4.001   4.831 -0.5627  0.4823 -0.1021
 3578SOL    HW122367   3.289   3.997   4.797 -1.8025 -2.8534  3.5247
 3578SOL    HW222368   3.407   4.085   4.795  2.5326 -1.0746 -1.2815
 3579SOL     OW22369   2.478   0.872  16.898  0.1794 -0.1365  0.7665
 3579SOL    HW122370   2.552   0.933  16.907  0.6549 -0.7399  0.9321
 3579SOL    HW222371   2.408   0.919  16.943  1.0225  1.4986  0.3846
 3580SOL     OW22372   4.200   2.641   7.435  0.2812  0.6872  0.6214
 3580SOL    HW122373   4.257   2.677   7.503  0.0768  3.0250 -0.4367
 3580SOL    HW222374   4.146   2.716   7.412  0.6343  1.4238  2.1702
 3581SOL     OW22375   3.358   2.726   3.060  0.7994 -0.3403 -0.1816
 3581SOL    HW122376   3.285   2.775   3.097  1.0251  0.3967 -0.7089
 3581SOL    HW222377   3.328   2.638   3.082  1.8063 -0.6159  0.0945
 3582SOL     OW22378   1.466   0.555   6.656 -0.3833  0.1363 -0.3616
 3582SOL    HW122379   1.458   0.469   6.698  1.8298  0.3979  0.5998
 3582SOL    HW222380   1.528   0.524   6.590 -2.7457 -2.3113 -1.4235
 3583SOL     OW22381   2.520   4.175   9.047 -0.2670  0.5332 -0.0344
 3583SOL    HW122382   2.537   4.269   9.036 -0.7762  0.8737  2.2242
 3583SOL    HW222383   2.500   4.158   8.954  2.4897 -0.0618 -0.5144
 3584SOL     OW22384   2.146   0.530   1.547 -0.1751 -0.2178  0.1200
 3584SOL    HW122385   2.170   0.479   1.470 -0.2107 -1.5784  0.9982
 3584SOL    HW222386   2.120   0.617   1.519 -0.3499  0.0779  1.2184
 3585SOL     OW22387   1.806   3.217   8.288  0.5166  0.2284 -0.4507
 3585SOL    HW122388   1.740   3.184   8.349  2.2984 -1.0128  0.7868
 3585SOL    HW222389   1.821   3.141   8.232 -3.1848 -0.5408 -0.4418
 3586SOL     OW22390   0.459   0.135   7.152 -0.1546  0.0540 -0.5752
 3586SOL    HW122391   0.497   0.221   7.171  1.8778 -0.4739 -2.1481
 3586SOL    HW222392   0.381   0.177   7.116  0.2437  0.6558 -0.7290
 3587SOL     OW22393   3.542   4.682  15.610  0.2246 -0.1879  0.3979
 3587SOL    HW122394   3.450   4.661  15.628 -0.0080 -0.9387 -1.6576
 3587SOL    HW222395   3.577   4.595  15.631 -0.7899 -1.0241 -1.4289
 3588SOL     OW22396   3.024   0.401   7.244 -0.3298 -0.4794 -0.1611
 3588SOL    HW122397   3.066   0.393   7.329 -3.3785  0.8568  1.4674
 3588SOL    HW222398   2.936   0.425   7.275 -0.4093  2.0663 -2.3444
 3589SOL     OW22399   3.785   0.140  10.194  0.5020  0.3066 -0.3322
 3589SOL    HW122400   3.811   0.084  10.121 -0.3019  0.2823 -0.5989
 3589SOL    HW222401   3.728   0.197  10.143 -0.7912 -0.8725 -0.1961
 3590SOL     OW22402   1.409   1.399   6.112 -0.1176 -0.0585  0.4158
 3590SOL    HW122403   1.403   1.325   6.052  1.6013  0.1304  0.0086
 3590SOL    HW222404   1.331   1.453   6.096 -0.7880 -1.2654 -0.4116
 3591SOL     OW22405   0.123   0.725   2.829 -0.0072 -0.2105 -0.1309
 3591SOL    HW122406   0.160   0.753   2.746 -0.9219  0.4867 -0.3074
 3591SOL    HW222407   0.052   0.786   2.848  2.1251  1.1986  3.4775
 3592SOL     OW22408   3.618   1.539   8.176 -0.3027 -0.7006 -0.6064
 3592SOL    HW122409   3.604   1.578   8.262  0.1275 -0.5935 -0.5840
 3592SOL    HW222410   3.707   1.570   8.162  0.1293 -1.3075  0.7093
 3593SOL     OW22411   1.356   1.647   7.015  0.4070 -0.7724 -0.5123
 3593SOL    HW122412   1.420   1.659   7.085 -0.9750 -2.4299  1.0217
 3593SOL    HW222413   1.303   1.726   7.018  3.4975  1.4035 -2.8870
 3594SOL     OW22414   2.939   3.916   8.458  0.3152  0.6372  0.0282
 3594SOL    HW122415   2.983   4.001   8.471  0.1165  0.5280  1.3690
 3594SOL    HW222416   3.018   3.864   8.443 -0.3451 -0.7724  1.5758
 3595SOL     OW22417   1.623   0.820  14.393  0.1510 -0.4674  0.0629
 3595SOL    HW122418   1.631   0.777  14.308  3.0296 -2.1524  1.2029
 3595SOL    HW222419   1.670   0.759  14.448  0.3113  1.1505  1.7232
 3596SOL     OW22420   3.169   3.450  16.101  0.3516 -0.5712  0.5751
 3596SOL    HW122421   3.140   3.531  16.143 -0.7460  0.4167 -2.0331
 3596SOL    HW222422   3.264   3.445  16.116  0.5769  0.3651 -0.5572
 3597SOL     OW22423   3.165   1.083   1.797  0.2090 -0.3237  0.2048
 3597SOL    HW122424   3.231   1.014   1.800  0.0889 -0.4427  0.0796
 3597SOL    HW222425   3.202   1.152   1.852  1.7981 -1.8993  1.1092
 3598SOL     OW22426   2.690   1.096   5.227  0.1678  0.1376  0.3218
 3598SOL    HW122427   2.693   1.110   5.133  0.7567 -1.6015  0.0740
 3598SOL    HW222428   2.636   1.171   5.252  1.3899  1.4039 -0.8377
 3599SOL     OW22429   1.513   2.843   3.305 -0.3570  0.4416 -0.5628
 3599SOL    HW122430   1.559   2.819   3.386 -0.2873  0.2653 -0.6543
 3599SOL    HW222431   1.500   2.934   3.329  1.3747  0.0437  1.8630
 3600SOL     OW22432   3.259   4.327   3.025 -0.1173 -0.1978  0.6077
 3600SOL    HW122433   3.257   4.332   2.929 -1.0634 -3.3295  0.4499
 3600SOL    HW222434   3.165   4.329   3.045  0.2255  2.2285  2.0037
 3601SOL     OW22435   2.977   0.627   3.188  0.0569  0.2289  0.5757
 3601SOL    HW122436   2.913   0.568   3.227 -0.6614  0.4253 -0.3234
 3601SOL    HW222437   3.026   0.565   3.134 -1.3862 -0.4300  0.0277
 3602SOL     OW22438   0.490   0.747  10.799 -0.4949  0.2755 -0.5340
 3602SOL    HW122439   0.559   0.784  10.855  0.3972 -1.2604 -0.6124
 3602SOL    HW222440   0.429   0.821  10.802 -0.4088  0.2502  2.1952
 3603SOL     OW22441   2.875   3.038   6.695 -0.1889 -0.0871 -0.6479
 3603SOL    HW122442   2.861   3.050   6.788 -4.5550  0.6033 -1.4093
 3603SOL    HW222443   2.959   2.992   6.701  1.5849  3.1475 -0.9510
 3604SOL     OW22444   3.420   4.424   9.603  0.2851  0.3593  0.4647
 3604SOL    HW122445   3.446   4.496   9.660  0.2390  0.3621  0.4824
 3604SOL    HW222446   3.393   4.354   9.663 -1.7770  2.8637  2.4534
 3605SOL     OW22447   4.050   4.478   6.581 -0.6203  0.4878 -0.4284
 3605SOL    HW122448   4.130   4.444   6.542 -0.9933 -1.8164  0.8333
 3605SOL    HW222449   4.039   4.561   6.536  0.2221  1.1516  0.5925
 3606SOL     OW22450   3.356   3.596   3.249  0.4051 -0.4326  0.2516
 3606SOL    HW122451   3.401   3.514   3.268  2.1605  0.4589  0.0460
 3606SOL    HW222452   3.279   3.591   3.305 -0.7986  1.2075 -1.2743
 3607SOL     OW22453   3.295   2.964   2.730  0.2167 -0.2177 -0.4636
 3607SOL    HW122454   3.234   3.014   2.783 -1.1644 -1.9999 -0.3669
 3607SOL    HW222455   3.317   3.039   2.676  1.0486 -0.4868 -0.5016
 3608SOL     OW22456   0.630   0.075   2.372 -0.2026  0.1118  0.0156
 3608SOL    HW122457   0.708   0.098   2.322 -1.3503  2.2372 -0.7948
 3608SOL    HW222458   0.655   0.107   2.459  1.4364  1.8552 -1.0992
 3609SOL     OW22459   4.557   1.735   6.950  0.6804  0.1198  0.1039
 3609SOL    HW122460   4.632   1.676   6.944  0.1522 -0.6859  1.5514
 3609SOL    HW222461   4.549   1.739   7.045 -1.0073 -1.2452  0.0086
 3610SOL     OW22462   1.277   0.939   9.259  0.4206  0.4344  0.5127
 3610SOL    HW122463   1.213   0.959   9.191 -0.0905  0.8066  1.0986
 3610SOL    HW222464   1.227   0.949   9.340 -0.8420 -0.2808 -0.1860
 3611SOL     OW22465   1.443   0.779   3.055 -0.2042  0.0236  0.1333
 3611SOL    HW122466   1.519   0.823   3.093  0.2917 -0.4445 -0.3196
 3611SOL    HW222467   1.390   0.761   3.133 -2.5885 -0.5206 -1.6255
 3612SOL     OW22468   0.608   0.710  17.318  0.7543 -0.5796 -0.2183
 3612SOL    HW122469   0.557   0.711  17.236  0.9223 -1.4933 -0.3373
 3612SOL    HW222470   0.614   0.615  17.332 -0.6713 -0.5833  0.3996
 3613SOL     OW22471   2.363   3.309  16.115 -0.7399 -0.2157  0.3399
 3613SOL    HW122472   2.284   3.256  16.124 -0.3221 -0.6650  1.3152
 3613SOL    HW222473   2.357   3.352  16.029  0.5840 -1.8505 -0.5630
 3614SOL     OW22474   3.836   1.771   1.088 -0.5141 -0.5298 -0.3041
 3614SOL    HW122475   3.825   1.728   1.173  0.3180 -0.3485 -0.1106
 3614SOL    HW222476   3.811   1.860   1.113  0.8954 -0.0212 -0.7449
 3615SOL     OW22477   3.437   2.274   5.414  0.4614 -0.7255  0.4028
 3615SOL    HW122478   3.362   2.219   5.436  0.1320 -0.5643 -0.3291
 3615SOL    HW222479   3.409   2.363   5.433  1.3146 -0.6229  1.1646
 3616SOL     OW22480   1.850   3.979   6.730 -0.8638  0.2247 -0.2894
 3616SOL    HW122481   1.915   3.997   6.798 -0.0399  0.9488 -1.2773
 3616SOL    HW222482   1.895   3.985   6.646  2.0344 -1.5486  1.1379
 3617SOL     OW22483   4.103   1.049   3.490  0.4193  0.2874 -0.3755
 3617SOL    HW122484   4.089   0.969   3.438  0.1350  0.6744 -0.8887
 3617SOL    HW222485   4.123   1.111   3.420  1.7861  0.3837  0.0987
 3618SOL     OW22486   2.168   1.876   4.722  0.0452  0.1448  0.6306
 3618SOL    HW122487   2.255   1.917   4.730 -1.1746  2.8631  0.0670
 3618SOL    HW222488   2.188   1.787   4.749  1.1278  0.6858  1.6094
 3619SOL     OW22489   1.717   0.415   1.955 -0.1145 -0.1436 -0.2024
 3619SOL    HW122490   1.781   0.448   1.891 -0.7035 -0.0010 -0.7236
 3619SOL    HW222491   1.644   0.469   1.924 -0.9501 -0.7072  0.8135
 3620SOL     OW22492   3.847   4.162   8.114 -0.2604  0.6594  0.1424
 3620SOL    HW122493   3.904   4.099   8.069  1.2582  1.0155  1.5795
 3620SOL    HW222494   3.815   4.210   8.038 -1.0184 -1.3280 -0.8111
 3621SOL     OW22495   3.151   3.723  12.709  0.1084  0.3058 -0.1474
 3621SOL    HW122496   3.186   3.772  12.783  1.1120 -2.1052  0.9824
 3621SOL    HW222497   3.139   3.636  12.747  0.3099  0.3295 -0.0334
 3622SOL     OW22498   3.533   3.362   2.808  0.2664 -0.1954  0.4496
 3622SOL    HW122499   3.602   3.370   2.874 -1.3816 -1.5235  2.3485
 3622SOL    HW222500   3.456   3.381   2.862 -0.3897  0.6318 -0.7810
 3623SOL     OW22501   0.068   2.134   8.103  0.3155 -0.1112  0.0528
 3623SOL    HW122502   0.140   2.183   8.142  0.5210  0.4674 -1.0444
 3623SOL    HW222503   0.109   2.071   8.043  0.9978  0.5520 -0.1664
 3624SOL     OW22504   1.140   0.525   2.808  0.2444 -0.2546  0.0912
 3624SOL    HW122505   1.085   0.603   2.794  2.0843  0.8398 -0.9982
 3624SOL    HW222506   1.125   0.500   2.899  0.5747 -1.9550 -0.3399
 3625SOL     OW22507   0.483   4.263   9.424  0.3462 -0.4435  0.0783
 3625SOL    HW122508   0.518   4.252   9.512 -0.5125  1.7438  0.6975
 3625SOL    HW222509   0.427   4.335   9.454  1.6344 -0.0243  1.4683
 3626SOL     OW22510   2.696   1.144   8.829  0.3455  0.9220  0.6579
 3626SOL    HW122511   2.733   1.134   8.917  0.2109 -0.9134  0.5064
 3626SOL    HW222512   2.771   1.180   8.782 -0.9673  2.8793  0.0565
 3627SOL     OW22513   3.638   1.615  15.390  0.0160  0.0944 -0.1515
 3627SOL    HW122514   3.663   1.550  15.325  0.3018  1.6883 -1.6375
 3627SOL    HW222515   3.719   1.636  15.436 -0.5645 -1.1495  1.4228
 3628SOL     OW22516   3.184   1.832   2.675 -0.3766  0.5888 -0.4159
 3628SOL    HW122517   3.131   1.880   2.739 -1.9909 -3.0527  0.9833
 3628SOL    HW222518   3.170   1.893   2.602 -0.1523  0.6848 -0.3790
 3629SOL     OW22519   3.814   1.932   7.554 -0.4629 -0.1128  0.1271
 3629SOL    HW122520   3.801   2.018   7.593 -1.4560 -0.4492  0.5515
 3629SOL    HW222521   3.855   1.964   7.474 -1.2463  0.9721  0.1714
 3630SOL     OW22522   3.736   1.199   8.962  0.0132  0.5240 -0.2596
 3630SOL    HW122523   3.744   1.204   8.867 -0.4424 -2.3473 -0.4631
 3630SOL    HW222524   3.735   1.292   8.983 -0.9346  0.2898  0.7720
 3631SOL     OW22525   0.845   4.164   8.664 -0.3375  0.0447 -0.3909
 3631SOL    HW122526   0.801   4.238   8.705  0.5338  1.0480 -1.2573
 3631SOL    HW222527   0.816   4.100   8.729 -1.1583  0.0939 -0.7043
 3632SOL     OW22528   2.506   4.330   6.352 -0.1563  0.4221  0.0499
 3632SOL    HW122529   2.591   4.370   6.335 -0.7463  2.9310  3.0621
 3632SOL    HW222530   2.517   4.277   6.431 -1.9334 -4.3178 -2.8608
 3633SOL     OW22531   4.551   4.573   4.478  0.5806 -0.1522  0.3763
 3633SOL    HW122532   4.597   4.493   4.453  0.7154 -0.4614  1.6219
 3633SOL    HW222533   4.541   4.569   4.573  0.5238 -2.5407  0.2626
 3634SOL     OW22534   0.010   0.911  17.110  0.1735  0.2234 -0.7319
 3634SOL    HW122535   0.006   0.935  17.203 -0.8879 -0.1925 -0.6663
 3634SOL    HW222536   0.055   0.827  17.118  1.3671  0.5876 -3.5974
 3635SOL     OW22537   3.676   0.773   6.585 -0.8214  0.0357 -0.3859
 3635SOL    HW122538   3.612   0.762   6.514  0.0654 -0.3615 -1.1190
 3635SOL    HW222539   3.705   0.863   6.567 -0.3145 -0.1432 -0.4619
 3636SOL     OW22540   3.137   2.620   6.720  0.1615 -0.3173 -0.2864
 3636SOL    HW122541   3.145   2.590   6.810 -1.1902 -0.1295 -0.1071
 3636SOL    HW222542   3.130   2.537   6.672 -1.2581 -1.0928  1.2456
 3637SOL     OW22543   3.539   3.382   8.472 -0.1036 -0.9452  0.7044
 3637SOL    HW122544   3.611   3.354   8.528  0.1728 -0.2767  0.6803
 3637SOL    HW222545   3.576   3.422   8.394  2.5788 -0.6950  2.1298
 3638SOL     OW22546   3.740   3.055   5.936 -0.2771  0.1102 -0.1387
 3638SOL    HW122547   3.807   3.099   5.989  1.1233 -0.5720 -1.3328
 3638SOL    HW222548   3.655   3.091   5.959  0.2272 -0.3446  2.4941
 3639SOL     OW22549   2.019   0.995   3.487  0.2925  0.1858  0.6284
 3639SOL    HW122550   2.073   1.065   3.525 -0.5919  0.6924  0.9415
 3639SOL    HW222551   2.088   0.940   3.450 -1.2136 -0.9220 -0.5134
 3640SOL     OW22552   0.789   1.700   6.003  0.4009  0.4204  0.2346
 3640SOL    HW122553   0.839   1.623   5.977  0.8427  1.9631 -3.4547
 3640SOL    HW222554   0.781   1.678   6.096  0.5281  1.3341  0.4617
 3641SOL     OW22555   0.026   2.656   3.806 -0.6874 -0.1234 -0.0859
 3641SOL    HW122556   4.720   2.733   3.843 -0.2129  0.4640 -0.7561
 3641SOL    HW222557   4.693   2.616   3.755 -0.2052 -0.5432 -0.4177
 3642SOL     OW22558   1.104   1.661  10.266 -0.3124 -0.4111 -0.0837
 3642SOL    HW122559   1.043   1.595  10.235 -0.0493 -1.8796  2.5463
 3642SOL    HW222560   1.182   1.632  10.219 -0.6054 -0.1731 -0.7204
 3643SOL     OW22561   2.075   2.291   8.008  0.2346  0.1461  0.1854
 3643SOL    HW122562   2.076   2.220   8.072  0.5962 -1.0981 -1.1944
 3643SOL    HW222563   1.995   2.336   8.037  0.8415  1.1121  0.3558
 3644SOL     OW22564   3.989   1.281   4.112 -0.0644  0.1706 -0.2294
 3644SOL    HW122565   4.056   1.333   4.067  0.5803 -0.9458 -0.5687
 3644SOL    HW222566   4.041   1.250   4.186  0.7973 -0.0428 -0.9277
 3645SOL     OW22567   2.723   0.516   6.558  0.0305  0.0446  0.5391
 3645SOL    HW122568   2.700   0.478   6.474  0.7550  0.4514  0.1653
 3645SOL    HW222569   2.818   0.521   6.562  0.1521 -0.9581 -1.0825
 3646SOL     OW22570   1.284   4.192   4.609  0.6228 -0.3231  0.3220
 3646SOL    HW122571   1.311   4.117   4.555  1.6032  2.1187 -2.5577
 3646SOL    HW222572   1.254   4.138   4.682  1.9906 -2.0304 -0.3800
 3647SOL     OW22573   3.184   1.573   6.713  0.3211  0.2016  0.4978
 3647SOL    HW122574   3.095   1.555   6.745 -0.4646 -1.1208 -2.4298
 3647SOL    HW222575   3.199   1.645   6.774  1.2612  1.3003 -1.0250
 3648SOL     OW22576   0.487   1.320   3.846  0.3352  0.6487  0.2666
 3648SOL    HW122577   0.429   1.381   3.892 -1.2311 -1.8525  1.6620
 3648SOL    HW222578   0.571   1.361   3.863  0.1419  1.0139  0.3349
 3649SOL     OW22579   2.740   4.266   3.928 -0.1374 -0.4400  0.0684
 3649SOL    HW122580   2.829   4.254   3.961  0.6439  0.3239 -1.7867
 3649SOL    HW222581   2.761   4.283   3.836  0.5536 -0.8759  0.1425
 3650SOL     OW22582   3.853   4.083   1.008 -0.4534 -0.6676 -0.1776
 3650SOL    HW122583   3.821   3.993   1.010  0.8075 -1.1491 -2.0345
 3650SOL    HW222584   3.784   4.126   0.958  0.0853  0.6860  0.2390
 3651SOL     OW22585   4.102   1.771   2.979 -0.0382  0.2335  0.2973
 3651SOL    HW122586   4.082   1.858   3.015 -1.3811  1.6326 -3.7647
 3651SOL    HW222587   4.024   1.716   2.989 -0.4288 -0.0082 -3.8002
 3652SOL     OW22588   1.994   4.554   3.241  0.0916  0.6430  0.0993
 3652SOL    HW122589   1.986   4.488   3.310  1.7997 -1.9230 -2.1946
 3652SOL    HW222590   2.013   4.487   3.175 -1.1944 -0.2340  0.6118
 3653SOL     OW22591   0.913   2.792   5.036 -0.3295  0.0714 -0.1322
 3653SOL    HW122592   0.955   2.864   5.084  1.0818  0.0363 -1.3559
 3653SOL    HW222593   0.865   2.754   5.110 -0.0703 -1.6754 -0.8700
 3654SOL     OW22594   3.403   2.976  12.733  0.3248  0.4349 -0.3096
 3654SOL    HW122595   3.392   2.990  12.827  3.5489 -2.1596  0.4171
 3654SOL    HW222596   3.489   2.936  12.725 -0.6062 -1.9555  1.5111
 3655SOL     OW22597   3.900   0.696   6.939 -0.1530 -0.8258 -0.1609
 3655SOL    HW122598   3.807   0.680   6.922 -0.3849 -0.9276  1.1958
 3655SOL    HW222599   3.928   0.707   6.849 -1.8799  1.6444 -0.3981
 3656SOL     OW22600   3.305   3.461   2.343 -0.7924 -0.4337 -0.8546
 3656SOL    HW122601   3.395   3.442   2.369 -1.3050 -1.8129 -0.1095
 3656SOL    HW222602   3.260   3.390   2.387 -1.3126 -0.2634 -1.1129
 3657SOL     OW22603   1.099   0.693  11.930  0.1169 -0.1289  0.0605
 3657SOL    HW122604   1.114   0.758  11.998 -1.9754  0.7821 -0.3462
 3657SOL    HW222605   1.005   0.707  11.926  0.1182 -0.9918 -2.8473
 3658SOL     OW22606   4.525   2.864   1.317 -0.1791  0.4029  0.2106
 3658SOL    HW122607   4.527   2.825   1.404  1.6826 -0.0690 -0.0393
 3658SOL    HW222608   4.448   2.920   1.320  0.3283  0.9865  2.2525
 3659SOL     OW22609   3.628   3.944   0.823 -0.3795 -0.5905 -0.0026
 3659SOL    HW122610   3.636   3.849   0.832  1.9162 -0.3908 -0.0239
 3659SOL    HW222611   3.627   3.959   0.728 -2.6486 -2.6132 -0.3323
 3660SOL     OW22612   2.739   3.634   7.640  0.4556  0.8957  0.2037
 3660SOL    HW122613   2.722   3.692   7.565 -1.9887  1.4107  1.1663
 3660SOL    HW222614   2.767   3.696   7.706  1.1233  0.5051  0.2850
 3661SOL     OW22615   3.463   4.170   5.156  0.4668  0.0737  0.0754
 3661SOL    HW122616   3.439   4.095   5.210  2.2466 -1.6576 -1.5297
 3661SOL    HW222617   3.422   4.140   5.075  1.5987 -0.2826 -0.3739
 3662SOL     OW22618   2.421   3.826   4.058 -0.0342  0.0577  0.3595
 3662SOL    HW122619   2.445   3.748   4.007 -1.3772  0.3327 -0.6805
 3662SOL    HW222620   2.504   3.874   4.057  0.1525 -0.3157 -1.1632
 3663SOL     OW22621   0.890   4.071   5.782  0.6501  0.0923  0.0459
 3663SOL    HW122622   0.848   4.001   5.833 -1.6208  1.4510  0.0565
 3663SOL    HW222623   0.865   4.039   5.695  1.3828  0.2918 -0.2380
 3664SOL     OW22624   4.078   0.732   8.631 -0.5012 -0.5861 -0.1913
 3664SOL    HW122625   4.033   0.670   8.688  2.1806 -0.4449  2.0958
 3664SOL    HW222626   4.016   0.720   8.559 -4.7820 -1.1436  3.5657
 3665SOL     OW22627   3.572   3.109   3.758 -0.3615  0.1229 -0.1386
 3665SOL    HW122628   3.565   3.079   3.667 -0.6948  1.3172 -0.5059
 3665SOL    HW222629   3.523   3.191   3.761 -2.3539 -1.1492  1.9127
 3666SOL     OW22630   1.594   1.077   6.118 -0.1350  0.5639  0.7314
 3666SOL    HW122631   1.625   1.096   6.207  0.4379 -0.7156  0.8034
 3666SOL    HW222632   1.587   1.164   6.079 -2.5481 -0.9261 -2.1566
 3667SOL     OW22633   0.175   3.582   8.556  0.2060 -0.1185 -0.3525
 3667SOL    HW122634   0.150   3.620   8.640  1.1196 -0.1745 -0.0634
 3667SOL    HW222635   0.192   3.666   8.512  0.3206 -0.7520 -1.5236
 3668SOL     OW22636   0.285   0.573   1.659 -0.1459 -0.2864 -0.0545
 3668SOL    HW122637   0.305   0.587   1.751  0.7894 -1.2204 -0.1175
 3668SOL    HW222638   0.269   0.660   1.622 -3.1853 -0.5281  0.7145
 3669SOL     OW22639   3.275   3.006   1.749  0.1571 -0.4625  0.3143
 3669SOL    HW122640   3.235   3.009   1.662 -2.6312  1.3543  1.6654
 3669SOL    HW222641   3.196   2.993   1.802 -1.4090  1.0368 -1.6802
 3670SOL     OW22642   1.381   2.212  11.487 -0.3869  0.0020  0.5493
 3670SOL    HW122643   1.336   2.171  11.562 -1.2613 -0.7551 -0.3897
 3670SOL    HW222644   1.463   2.163  11.489  0.5963  1.7521  3.2793
 3671SOL     OW22645   2.156   0.014   3.658  0.0187 -0.6643  0.5187
 3671SOL    HW122646   2.149   0.073   3.733  2.2761  0.1618  0.0990
 3671SOL    HW222647   2.206   4.679   3.696  2.7876 -0.4162 -2.6100
 3672SOL     OW22648   2.278   4.011   4.706  0.6304  0.4259  0.8666
 3672SOL    HW122649   2.184   3.997   4.695  1.2246 -0.5056 -3.1014
 3672SOL    HW222650   2.314   3.931   4.667  0.8465 -0.4561  2.8873
 3673SOL     OW22651   3.114   3.137   8.744  0.4577 -0.2972 -0.1758
 3673SOL    HW122652   3.173   3.088   8.801 -1.1092 -0.1811  1.5682
 3673SOL    HW222653   3.176   3.155   8.674  1.2938  1.4402  1.0165
 3674SOL     OW22654   1.818   0.203  14.278  0.0715  0.1503 -0.8163
 3674SOL    HW122655   1.849   0.130  14.332  2.1800  1.0606 -0.8069
 3674SOL    HW222656   1.839   0.280  14.332  2.9034 -0.2654 -1.3454
 3675SOL     OW22657   1.498   3.070  10.504  0.0699 -0.1425  0.2649
 3675SOL    HW122658   1.427   3.006  10.498 -1.5591  1.6394  0.3044
 3675SOL    HW222659   1.468   3.113  10.584  0.2072 -0.1608  0.3265
 3676SOL     OW22660   0.088   2.892   4.911  0.5092 -0.1188 -0.0099
 3676SOL    HW122661   0.167   2.838   4.921 -0.3600 -1.0745  1.6860
 3676SOL    HW222662   0.040   2.850   4.839  0.2006 -0.4990  0.4210
 3677SOL     OW22663   2.694   4.465   9.210 -0.4016  0.3359  0.2044
 3677SOL    HW122664   2.603   4.454   9.239 -0.3713  1.1933  0.6201
 3677SOL    HW222665   2.738   4.442   9.292 -1.5476  0.0881  0.7567
 3678SOL     OW22666   1.427   4.391   6.319  0.3362  0.0562  0.4446
 3678SOL    HW122667   1.488   4.421   6.252 -2.5337  0.1935 -2.0856
 3678SOL    HW222668   1.491   4.376   6.389 -0.2749  0.4849  1.1037
 3679SOL     OW22669   1.696   4.717   7.406  0.0005 -0.5526  0.4179
 3679SOL    HW122670   1.674   0.042   7.338  1.5382 -1.1004 -0.5872
 3679SOL    HW222671   1.791   4.722   7.396  0.1374 -1.3500  1.3003
 3680SOL     OW22672   1.127   3.600   0.178 -0.6425 -0.3558 -0.2048
 3680SOL    HW122673   1.047   3.553   0.154 -2.0688  1.8014  0.3127
 3680SOL    HW222674   1.164   3.623   0.093  0.0929 -0.3941  0.1044
 3681SOL     OW22675   2.961   0.869   8.692 -0.0549 -0.9691 -0.4064
 3681SOL    HW122676   3.024   0.832   8.631  1.2278  2.4026 -1.0818
 3681SOL    HW222677   2.909   0.790   8.708 -0.1497 -1.0716 -1.2127
 3682SOL     OW22678   2.364   0.202   6.631 -0.0588 -0.1845 -0.0606
 3682SOL    HW122679   2.331   0.200   6.541 -0.4844 -0.6232  0.1102
 3682SOL    HW222680   2.345   0.294   6.651  2.8549  0.7385 -1.5018
 3683SOL     OW22681   3.241   0.033   9.848 -0.1139  0.6523  0.1318
 3683SOL    HW122682   3.190   4.724   9.781 -0.4950 -0.5168  1.2340
 3683SOL    HW222683   3.192   0.005   9.925  0.7101 -1.4356 -0.1170
 3684SOL     OW22684   1.781   2.377  11.452 -0.1796 -0.1101 -0.3006
 3684SOL    HW122685   1.846   2.320  11.493 -0.9437  1.4130  3.0391
 3684SOL    HW222686   1.830   2.438  11.397 -1.2981  0.4218 -0.7142
 3685SOL     OW22687   1.815   3.979   7.193  0.1533  0.6335 -0.4192
 3685SOL    HW122688   1.740   3.950   7.244  0.1151  0.1296 -0.7626
 3685SOL    HW222689   1.880   3.979   7.263  2.2540 -2.0544 -2.3868
 3686SOL     OW22690   0.260   2.158  12.613 -0.0806 -0.1812 -0.3734
 3686SOL    HW122691   0.355   2.151  12.624 -0.1437 -0.7585 -0.2299
 3686SOL    HW222692   0.256   2.225  12.545  0.1501  0.1627 -0.0499
 3687SOL     OW22693   2.805   2.447   7.236  0.2489  0.2649 -0.6387
 3687SOL    HW122694   2.860   2.408   7.304 -0.7556 -0.4452 -0.2206
 3687SOL    HW222695   2.785   2.532   7.276  0.3527  1.1797 -2.5555
 3688SOL     OW22696   1.831   4.135   2.875  0.0270 -0.2334 -0.3378
 3688SOL    HW122697   1.914   4.182   2.876  0.3556 -0.8068 -0.8374
 3688SOL    HW222698   1.810   4.139   2.782 -1.9763  2.8392  0.2401
 3689SOL     OW22699   3.137   4.124   5.138 -0.2154  0.2617  0.3129
 3689SOL    HW122700   3.133   4.206   5.188  0.0689  0.5004 -0.0502
 3689SOL    HW222701   3.150   4.170   5.055  1.0047  0.7180  0.7575
 3690SOL     OW22702   0.476   2.251   6.626 -0.1302 -0.1929  0.2130
 3690SOL    HW122703   0.506   2.324   6.572  1.8202  0.0099  1.5630
 3690SOL    HW222704   0.451   2.186   6.560  2.7448 -0.7595 -0.3123
 3691SOL     OW22705   3.316   0.972   9.271  0.5922  0.6107  0.0118
 3691SOL    HW122706   3.392   0.923   9.238  0.3115 -0.8410  1.5547
 3691SOL    HW222707   3.317   1.048   9.213  0.2512  2.0535  1.9326
 3692SOL     OW22708   3.894   1.642   3.920 -0.0429 -0.9466 -0.1663
 3692SOL    HW122709   3.963   1.634   3.986  2.2637  1.3647 -2.2668
 3692SOL    HW222710   3.942   1.646   3.837 -1.4721 -2.8144 -1.0701
 3693SOL     OW22711   0.805   0.300   0.206 -0.0045 -0.3501  0.3651
 3693SOL    HW122712   0.879   0.264   0.255  0.8249  0.8667 -0.0046
 3693SOL    HW222713   0.799   0.388   0.243 -0.0783 -1.6752  3.4398
 3694SOL     OW22714   3.794   3.897   8.966 -0.2626  0.5127  0.2504
 3694SOL    HW122715   3.739   3.962   9.010  0.7879  1.3973  0.2494
 3694SOL    HW222716   3.798   3.827   9.031  0.9073  1.6563  1.4010
 3695SOL     OW22717   3.391   0.224  11.756 -0.4124  0.0398 -0.0795
 3695SOL    HW122718   3.424   0.197  11.842 -1.0535 -0.8792 -0.1198
 3695SOL    HW222719   3.388   0.140  11.710 -4.2459 -0.6692  1.4550
 3696SOL     OW22720   3.189   2.388   3.472 -0.0844 -0.0039 -0.4031
 3696SOL    HW122721   3.192   2.483   3.460 -4.1565  0.3329  1.3000
 3696SOL    HW222722   3.269   2.360   3.427 -0.3185  2.4003 -2.3469
 3697SOL     OW22723   2.652   0.968   3.642 -0.5962 -0.3170  0.0161
 3697SOL    HW122724   2.566   1.009   3.631  1.2206  2.5490 -3.3725
 3697SOL    HW222725   2.618   0.879   3.656  0.3198 -0.8931 -1.3244
 3698SOL     OW22726   2.169   0.565   8.959  0.2339 -0.5657 -0.0399
 3698SOL    HW122727   2.098   0.534   9.015 -1.5419  1.1768 -1.3119
 3698SOL    HW222728   2.154   0.511   8.881  1.8312 -2.6288  1.1091
 3699SOL     OW22729   4.103   2.574   3.177  0.6796 -0.4817  0.0016
 3699SOL    HW122730   4.129   2.658   3.215  2.7459 -0.5586 -1.2535
 3699SOL    HW222731   4.049   2.545   3.251 -0.1654  0.5162 -0.2189
 3700SOL     OW22732   3.099   2.392   5.964  0.4382 -0.1680  0.7467
 3700SOL    HW122733   3.144   2.446   5.900  0.1962 -2.4718 -1.3687
 3700SOL    HW222734   3.033   2.451   6.002  0.2876 -1.2562  2.1977
 3701SOL     OW22735   2.213   3.216   2.444  0.3172 -1.1656  0.1652
 3701SOL    HW122736   2.123   3.207   2.411  0.6492  1.7507 -1.5604
 3701SOL    HW222737   2.256   3.147   2.395  1.2046  0.4039 -1.2624
 3702SOL     OW22738   2.797   1.523   3.547 -0.2419  0.4186  0.1743
 3702SOL    HW122739   2.702   1.514   3.560 -0.3189  0.4181 -0.3881
 3702SOL    HW222740   2.826   1.445   3.498 -0.0432  0.7403 -0.2189
 3703SOL     OW22741   0.274   3.700   0.935 -0.6329  0.4378  0.1308
 3703SOL    HW122742   0.275   3.781   0.986  0.2235 -1.1459  2.6635
 3703SOL    HW222743   0.346   3.642   0.962 -1.2738 -0.5779 -0.3497
 3704SOL     OW22744   3.047   1.189   3.677  0.2280  0.0386 -0.2863
 3704SOL    HW122745   3.052   1.095   3.694  1.1345  0.1024 -0.2078
 3704SOL    HW222746   3.141   1.205   3.667  0.5916 -0.7329  1.9582
 3705SOL     OW22747   0.017   1.285   8.264 -0.5306  0.4429 -0.0888
 3705SOL    HW122748   0.086   1.303   8.200 -0.1083  2.4960  0.9616
 3705SOL    HW222749   4.681   1.334   8.228 -0.0563  2.1925  1.3175
 3706SOL     OW22750   3.598   0.874   9.452  0.5407 -0.1352 -0.5938
 3706SOL    HW122751   3.550   0.811   9.398 -0.0354  0.0017 -0.2377
 3706SOL    HW222752   3.609   0.823   9.532 -1.2669 -2.3309 -1.7414
 3707SOL     OW22753   1.985   2.802  11.753  0.0760 -0.2105 -0.2898
 3707SOL    HW122754   2.003   2.715  11.718 -1.7613 -1.2378  1.2686
 3707SOL    HW222755   1.893   2.789  11.776  0.0873 -3.3850 -2.0473
 3708SOL     OW22756   4.626   3.347   3.129  0.3877  0.0229 -0.4926
 3708SOL    HW122757   4.545   3.360   3.080 -0.0836  0.8642  0.5088
 3708SOL    HW222758   4.683   3.413   3.091  0.4577 -0.4606 -1.2185
 3709SOL     OW22759   3.899   2.284   0.297 -0.5675  0.2572  0.2130
 3709SOL    HW122760   3.812   2.246   0.282  0.8475 -2.2859 -1.4382
 3709SOL    HW222761   3.947   2.269   0.216 -0.0841 -0.9772  0.7312
 3710SOL     OW22762   1.293   1.222   8.276 -0.7815 -0.4593 -0.1575
 3710SOL    HW122763   1.366   1.272   8.311 -1.6632  0.3071  0.6168
 3710SOL    HW222764   1.282   1.165   8.352 -0.0944 -1.0060 -0.4727
 3711SOL     OW22765   4.166   1.126   5.586 -0.2941  0.4037 -0.3629
 3711SOL    HW122766   4.129   1.172   5.510 -1.1360  1.3107  0.5846
 3711SOL    HW222767   4.118   1.043   5.592 -2.5786  1.8861  1.8917
 3712SOL     OW22768   3.024   3.431   0.162 -0.2218 -0.2197  0.0668
 3712SOL    HW122769   3.056   3.368   0.227  2.0342  1.7464  0.8628
 3712SOL    HW222770   2.938   3.389   0.152  0.6236 -1.8205 -0.3846
 3713SOL     OW22771   3.911   4.063  12.638 -0.1707 -0.3059 -0.9638
 3713SOL    HW122772   3.972   3.991  12.619  0.8654  0.3525 -0.0985
 3713SOL    HW222773   3.830   4.044  12.589 -2.9354  3.8105  2.0516
 3714SOL     OW22774   0.918   1.731   7.233 -0.0946 -0.2938 -0.2301
 3714SOL    HW122775   0.996   1.775   7.266 -0.3471 -0.5655  0.7255
 3714SOL    HW222776   0.954   1.643   7.243 -0.4588 -0.5604 -1.1560
 3715SOL     OW22777   0.998   4.561   5.179  0.0060 -0.2314 -0.2526
 3715SOL    HW122778   0.941   4.629   5.213  1.3967 -0.2171  2.0781
 3715SOL    HW222779   1.068   4.559   5.245  1.3391  0.8502 -1.6529
 3716SOL     OW22780   4.128   2.377   7.448  0.3077  0.1494 -0.1568
 3716SOL    HW122781   4.148   2.470   7.437  1.3653 -0.1625 -0.8780
 3716SOL    HW222782   4.207   2.336   7.482 -1.6833 -2.2320  1.6305
 3717SOL     OW22783   2.331   1.088   8.413  0.0952 -0.5936 -0.1151
 3717SOL    HW122784   2.387   1.049   8.346 -0.5465  0.8674 -1.5010
 3717SOL    HW222785   2.391   1.140   8.466  0.8989 -0.8520 -0.7656
 3718SOL     OW22786   2.302   2.315   2.519  0.1373 -0.3674 -0.2746
 3718SOL    HW122787   2.295   2.237   2.464  2.7417 -1.4782  0.9985
 3718SOL    HW222788   2.295   2.277   2.607 -1.5058  0.8114  0.1140
 3719SOL     OW22789   2.571   0.195  14.756 -0.8307  0.0386 -0.5959
 3719SOL    HW122790   2.663   0.219  14.749 -0.5399 -1.3716 -1.4698
 3719SOL    HW222791   2.550   0.257  14.826  0.3938  0.9854 -1.0682
 3720SOL     OW22792   1.376   2.492   2.588  0.4331  0.1013  0.0781
 3720SOL    HW122793   1.319   2.429   2.631  0.6428  0.8911  1.5147
 3720SOL    HW222794   1.356   2.462   2.499  2.8467 -1.5490  0.0778
 3721SOL     OW22795   3.826   2.357  10.387  0.0230  0.3615 -0.0188
 3721SOL    HW122796   3.868   2.271  10.386  2.8481  1.7288 -0.7507
 3721SOL    HW222797   3.756   2.349  10.452 -1.2286 -1.8041 -1.6301
 3722SOL     OW22798   1.346   3.159   8.802 -0.6338 -0.0034 -0.1116
 3722SOL    HW122799   1.388   3.103   8.866 -2.1612 -1.0631 -0.0503
 3722SOL    HW222800   1.326   3.095   8.734  0.9931 -1.6598  0.9986
 3723SOL     OW22801   1.443   4.612   3.418  0.6012  1.0997 -0.8069
 3723SOL    HW122802   1.512   4.553   3.390  0.9570  1.8167 -1.4653
 3723SOL    HW222803   1.360   4.573   3.390  0.3001 -0.0577  1.7321
 3724SOL     OW22804   0.350   3.075   3.863 -0.0758 -0.1623  0.3611
 3724SOL    HW122805   0.414   3.089   3.793  1.1982 -2.8491  0.9881
 3724SOL    HW222806   0.278   3.034   3.816 -1.2366  1.3524  0.8503
 3725SOL     OW22807   3.642   4.196   7.551 -0.2684 -0.7226 -0.4532
 3725SOL    HW122808   3.648   4.111   7.594  1.8481 -1.0558 -1.3790
 3725SOL    HW222809   3.666   4.162   7.465 -1.3351  0.4306 -1.1899
 3726SOL     OW22810   1.753   3.821  15.383  0.3217  0.0624  0.1187
 3726SOL    HW122811   1.706   3.905  15.380 -0.8666 -0.6377 -0.9095
 3726SOL    HW222812   1.733   3.793  15.293  0.1936  0.5074  0.0071
 3727SOL     OW22813   2.336   1.982  13.144 -0.0313  0.1790  0.3469
 3727SOL    HW122814   2.332   1.923  13.069 -1.8201 -0.7220  1.1527
 3727SOL    HW222815   2.375   2.054  13.094 -0.5677 -0.6521 -1.2560
 3728SOL     OW22816   4.209   3.933   3.605 -0.1620  0.0760  0.4421
 3728SOL    HW122817   4.159   3.859   3.572 -0.3442  0.3808  0.0219
 3728SOL    HW222818   4.297   3.899   3.588  0.6190  2.2697  0.0738
 3729SOL     OW22819   1.204   1.318  17.679  0.5045 -0.5449  0.2386
 3729SOL    HW122820   1.243   1.294   0.015  0.6171  0.2900  0.4284
 3729SOL    HW222821   1.217   1.232  17.639  0.6884  0.5345 -2.0168
 3730SOL     OW22822   1.410   1.387   2.343 -0.0706  0.2919  0.3080
 3730SOL    HW122823   1.466   1.465   2.346 -0.7217  0.7207  1.1491
 3730SOL    HW222824   1.331   1.418   2.298 -0.2507 -1.4475 -0.6012
 3731SOL     OW22825   4.350   2.509  17.570  0.6585  0.1796  0.6877
 3731SOL    HW122826   4.264   2.512  17.611 -0.5790  0.1254 -1.9072
 3731SOL    HW222827   4.408   2.540  17.639  0.5336  2.2696 -0.1473
 3732SOL     OW22828   3.179   0.149  16.251 -0.3669 -0.0745 -0.0938
 3732SOL    HW122829   3.117   0.185  16.187 -0.6507 -2.0265 -0.8994
 3732SOL    HW222830   3.217   0.083  16.194 -1.9537  1.0610 -2.4912
 3733SOL     OW22831   0.251   3.579  13.963  0.2534  0.3579 -0.0195
 3733SOL    HW122832   0.320   3.523  13.927  0.1085  0.2302 -0.0981
 3733SOL    HW222833   0.193   3.520  14.010  1.2396 -1.7439 -1.4322
 3734SOL     OW22834   4.647   1.193   7.568  0.0966 -0.4491  0.6630
 3734SOL    HW122835   4.602   1.228   7.645 -1.8601 -2.6483  0.4969
 3734SOL    HW222836   4.596   1.218   7.491  1.4425  1.8557  0.5189
 3735SOL     OW22837   0.761   4.078   3.437 -0.4568 -0.3726  0.3429
 3735SOL    HW122838   0.694   4.013   3.414  0.2597 -0.5856 -1.1608
 3735SOL    HW222839   0.744   4.090   3.530 -0.6553 -1.0165  0.3904
 3736SOL     OW22840   2.720   1.683  14.003  0.3017  0.2125 -0.7474
 3736SOL    HW122841   2.646   1.691  14.063  1.4475  0.3451  0.6481
 3736SOL    HW222842   2.775   1.613  14.040  1.2263  1.0173 -0.6075
 3737SOL     OW22843   1.858   2.162   9.261 -0.0780 -0.2075  0.0059
 3737SOL    HW122844   1.949   2.192   9.254  0.2328 -1.1843 -0.1943
 3737SOL    HW222845   1.811   2.239   9.230  1.5147  1.7720  2.5150
 3738SOL     OW22846   0.503   1.341   9.510  0.3676 -0.5723 -0.1921
 3738SOL    HW122847   0.582   1.314   9.462  0.7514 -0.1857  0.2200
 3738SOL    HW222848   0.435   1.306   9.452 -0.9109  1.1793  0.2920
 3739SOL     OW22849   4.575   0.968   4.755  0.3173  0.6313  0.5899
 3739SOL    HW122850   4.618   0.883   4.743  0.4124  0.4502  2.2129
 3739SOL    HW222851   4.616   0.995   4.837  1.2813  2.2586 -0.4397
 3740SOL     OW22852   3.005   4.716   6.765 -0.2186 -0.4971 -0.2721
 3740SOL    HW122853   3.100   4.722   6.763 -0.2855  0.7256  0.4673
 3740SOL    HW222854   2.989   4.671   6.682  0.9428  0.3734 -0.9635
 3741SOL     OW22855   0.610   1.627  12.229  0.0651  0.2620 -0.4109
 3741SOL    HW122856   0.688   1.572  12.219 -1.4430 -1.7657 -1.0492
 3741SOL    HW222857   0.628   1.673  12.311 -1.6422  2.0106 -1.0289
 3742SOL     OW22858   0.745   2.300  14.268  0.6461  0.0339  0.5579
 3742SOL    HW122859   0.769   2.236  14.201 -0.2290  1.4653 -1.1294
 3742SOL    HW222860   0.811   2.369  14.261  0.7453 -0.0190  0.9529
 3743SOL     OW22861   4.653   0.876   1.078 -0.2977 -0.6572 -0.2022
 3743SOL    HW122862   4.667   0.882   1.172 -2.1910  1.8677 -0.0711
 3743SOL    HW222863   4.712   0.803   1.059  2.4578  1.8284 -1.2241
 3744SOL     OW22864   4.066   1.367   6.112 -0.3847 -0.1184  0.6582
 3744SOL    HW122865   4.129   1.437   6.125 -1.1040  0.1855  2.6306
 3744SOL    HW222866   4.039   1.397   6.026  0.7636 -0.3842  0.2032
 3745SOL     OW22867   2.563   1.548   2.938 -0.4958 -0.8373  0.0658
 3745SOL    HW122868   2.583   1.558   2.845 -0.6193  2.7669  0.4183
 3745SOL    HW222869   2.643   1.578   2.983 -0.5492  0.3247 -0.5967
 3746SOL     OW22870   4.054   3.601   7.562 -0.4197 -0.4060 -0.2200
 3746SOL    HW122871   4.004   3.568   7.636 -0.8792  0.4782 -0.1369
 3746SOL    HW222872   4.094   3.522   7.525 -1.1612 -0.0722 -1.7549
 3747SOL     OW22873   4.155   3.457   2.435 -0.7886  0.6069  0.5332
 3747SOL    HW122874   4.059   3.461   2.434 -0.8336 -0.8345 -0.4517
 3747SOL    HW222875   4.169   3.399   2.361  2.0927 -1.0316  2.3829
 3748SOL     OW22876   2.400   3.396   4.298  0.4579 -0.2509  0.2713
 3748SOL    HW122877   2.453   3.318   4.315  0.3729 -0.2640  0.4801
 3748SOL    HW222878   2.423   3.404   4.206 -1.9727 -2.7115 -0.5627
 3749SOL     OW22879   2.336   0.329  15.046 -0.0668  0.1791 -0.6750
 3749SOL    HW122880   2.306   0.243  15.078 -1.5557  0.4913 -1.2484
 3749SOL    HW222881   2.428   0.326  15.071 -0.4712  1.2971  0.9519
 3750SOL     OW22882   0.404   3.596   5.233 -0.2765  0.0111  0.4460
 3750SOL    HW122883   0.315   3.570   5.207  0.0278 -0.5763 -0.0111
 3750SOL    HW222884   0.415   3.677   5.185  1.1145  0.4740  1.5599
 3751SOL     OW22885   2.782   1.021   3.881  0.2171  0.3944 -0.2030
 3751SOL    HW122886   2.865   0.973   3.869 -0.7607 -1.8485  1.9789
 3751SOL    HW222887   2.730   0.994   3.805  1.8209  0.3016 -1.2917
 3752SOL     OW22888   4.354   3.915  16.089  0.3187 -0.1330 -0.4494
 3752SOL    HW122889   4.363   3.979  16.159 -0.2473 -0.0780 -0.4267
 3752SOL    HW222890   4.442   3.918  16.049  1.4127  0.4154  2.0272
 3753SOL     OW22891   2.728   4.641  13.885  0.2739 -0.4988 -0.0923
 3753SOL    HW122892   2.706   4.641  13.792  0.1502 -1.1181 -0.0631
 3753SOL    HW222893   2.819   4.620  13.866  0.0996 -0.9162 -0.4476
 3754SOL     OW22894   1.677   2.301   2.912  0.2135  0.4889  0.1822
 3754SOL    HW122895   1.715   2.256   2.987 -2.2601 -0.9877  0.5444
 3754SOL    HW222896   1.604   2.245   2.887  0.2734  0.4893  0.0080
 3755SOL     OW22897   0.331   4.062   6.814 -0.5199 -0.0429 -0.0354
 3755SOL    HW122898   0.256   4.115   6.840 -0.2891 -0.6766  1.9736
 3755SOL    HW222899   0.349   4.106   6.731 -0.0726 -0.2468 -0.0476
 3756SOL     OW22900   3.819   0.094   1.278  0.0959 -0.0920  0.0432
 3756SOL    HW122901   3.868   0.016   1.305 -0.2214 -0.1326  0.5003
 3756SOL    HW222902   3.837   0.156   1.348  1.2371 -0.1084 -0.2327
 3757SOL     OW22903   0.515   0.207   4.519  0.0334  0.2184  0.1643
 3757SOL    HW122904   0.448   0.264   4.483  1.9264  1.5887 -1.2153
 3757SOL    HW222905   0.538   0.250   4.602  0.1390  0.1669  0.1627
 3758SOL     OW22906   4.546   3.595   9.456  0.5158 -0.5296  0.8022
 3758SOL    HW122907   4.528   3.627   9.544 -0.2193  3.5275 -0.8267
 3758SOL    HW222908   4.571   3.503   9.466 -0.9642 -0.8801  1.2620
 3759SOL     OW22909   4.106   2.979   4.797  0.0010 -0.4419 -0.4410
 3759SOL    HW122910   4.012   2.978   4.816  0.1850  0.0271  0.4624
 3759SOL    HW222911   4.121   2.890   4.765  0.2208 -0.4408 -0.3404
 3760SOL     OW22912   2.560   2.659   6.432  0.5105 -0.0136  0.4993
 3760SOL    HW122913   2.602   2.582   6.472  0.0558 -0.9904 -0.8963
 3760SOL    HW222914   2.616   2.730   6.464  0.0880  0.7762 -0.5275
 3761SOL     OW22915   4.374   3.109   4.570  0.2237  0.4147 -0.2371
 3761SOL    HW122916   4.311   3.179   4.587  0.5026  0.5363  0.3045
 3761SOL    HW222917   4.422   3.108   4.653  0.1432 -1.4182 -0.2187
 3762SOL     OW22918   4.592   0.035  11.510 -0.5522  0.4913 -0.4482
 3762SOL    HW122919   4.610   4.687  11.472  0.5159  0.7499 -0.5108
 3762SOL    HW222920   4.514   0.018  11.564 -2.0546  1.9498 -2.1725
 3763SOL     OW22921   0.172   1.414   5.239  0.7299 -0.3754 -0.3879
 3763SOL    HW122922   0.154   1.493   5.188  2.5465 -1.0155 -2.0044
 3763SOL    HW222923   0.103   1.423   5.305 -0.0856 -0.6229 -1.1974
 3764SOL     OW22924   3.541   2.146   8.919 -0.2261  0.0890 -0.6750
 3764SOL    HW122925   3.578   2.233   8.933 -1.1603  0.1406  1.4824
 3764SOL    HW222926   3.453   2.185   8.923  0.6459  1.8284  1.4478
 3765SOL     OW22927   2.745   0.675   6.803  0.4653  0.0930  0.0438
 3765SOL    HW122928   2.799   0.685   6.882  1.0570  1.7485 -0.5675
 3765SOL    HW222929   2.807   0.697   6.733 -2.2483 -0.3655 -2.4929
 3766SOL     OW22930   0.454   4.706  12.969 -0.0241 -0.6315 -0.1583
 3766SOL    HW122931   0.493   0.036  12.913 -1.2784 -0.8578 -1.2969
 3766SOL    HW222932   0.524   4.686  13.031  0.0871 -0.8911 -0.3697
 3767SOL     OW22933   0.690   2.460   9.811  0.1550 -0.0752 -0.4653
 3767SOL    HW122934   0.671   2.550   9.782 -0.0145 -0.1981 -0.7430
 3767SOL    HW222935   0.722   2.477   9.899 -1.2480  0.4066 -0.0378
 3768SOL     OW22936   1.862   0.890  13.207  0.2978  0.0320 -0.5962
 3768SOL    HW122937   1.796   0.831  13.171  1.2485 -1.0598 -0.5604
 3768SOL    HW222938   1.934   0.830  13.227 -0.0988 -0.4572 -0.6327
 3769SOL     OW22939   0.258   2.200   6.753 -0.2276  0.4537 -0.1418
 3769SOL    HW122940   0.330   2.178   6.811 -1.5048  2.3095  2.1629
 3769SOL    HW222941   0.318   2.242   6.691  1.2188 -1.3804  0.0038
 3770SOL     OW22942   4.734   1.621   7.466 -0.3163  0.0918  0.1998
 3770SOL    HW122943   0.050   1.552   7.505  1.6188  0.1582 -2.3547
 3770SOL    HW222944   0.008   1.617   7.371  1.6593 -0.5431  0.4527
 3771SOL     OW22945   1.694   3.416   3.694  0.4385 -0.3796 -0.0761
 3771SOL    HW122946   1.757   3.486   3.714 -0.3962 -0.4896  3.0411
 3771SOL    HW222947   1.746   3.356   3.641  1.7293 -0.6003  1.4457
 3772SOL     OW22948   2.279   0.699   2.779 -0.4393 -0.1324 -0.1610
 3772SOL    HW122949   2.267   0.735   2.867  1.5281 -0.5546  0.2869
 3772SOL    HW222950   2.287   0.605   2.798  0.7730 -0.0777 -0.3740
 3773SOL     OW22951   0.201   2.805   8.376 -0.1273 -0.4595  0.1622
 3773SOL    HW122952   0.222   2.712   8.381  1.0259 -0.1854  0.3772
 3773SOL    HW222953   0.249   2.842   8.302 -0.1028  1.3224  1.0538
 3774SOL     OW22954   3.820   3.497   4.486 -0.5105  0.2771 -0.1171
 3774SOL    HW122955   3.780   3.528   4.567 -0.5634 -1.6975  0.5980
 3774SOL    HW222956   3.850   3.414   4.523 -2.8255  0.2379  1.6540
 3775SOL     OW22957   4.302   4.070   4.423  0.3460 -0.3276  0.4670
 3775SOL    HW122958   4.217   4.049   4.386  1.5226 -1.9427 -1.3288
 3775SOL    HW222959   4.365   4.008   4.384  0.0076  0.6433 -1.5749
 3776SOL     OW22960   2.654   1.075   0.411  0.4439 -0.4304  0.0218
 3776SOL    HW122961   2.670   0.988   0.449  1.7616 -1.4185 -2.8043
 3776SOL    HW222962   2.640   1.134   0.484 -1.6410 -1.8513  0.7957
 3777SOL     OW22963   0.998   3.409   7.952  0.2125  0.3469 -0.0642
 3777SOL    HW122964   0.912   3.370   7.937  1.2157 -2.0286  0.2760
 3777SOL    HW222965   1.005   3.469   7.879 -1.0451  0.6657  0.0934
 3778SOL     OW22966   2.434   0.142   3.874  0.1409 -0.9395  0.3743
 3778SOL    HW122967   2.339   0.135   3.878  0.0067  1.0571  0.9293
 3778SOL    HW222968   2.452   0.119   3.965 -0.4565 -1.3679  0.3773
 3779SOL     OW22969   4.504   0.449   0.180 -0.2065  0.1098 -0.0982
 3779SOL    HW122970   4.421   0.412   0.149  0.2344  0.2284 -1.4123
 3779SOL    HW222971   4.463   0.504   0.246  2.2146  0.5641  1.0202
 3780SOL     OW22972   0.250   4.141  16.314 -0.3973 -0.2232  0.0670
 3780SOL    HW122973   0.222   4.159  16.224 -3.1450 -1.3006  0.6906
 3780SOL    HW222974   0.268   4.047  16.319 -0.9933 -0.2623  1.4521
 3781SOL     OW22975   1.117   4.016   3.196  0.1984  0.1012  0.2234
 3781SOL    HW122976   1.068   4.008   3.115 -1.0642  0.2892  0.9645
 3781SOL    HW222977   1.202   3.981   3.171  0.3069  1.1855 -0.8749
 3782SOL     OW22978   4.005   2.889   8.028 -0.1693 -0.3615  0.4450
 3782SOL    HW122979   3.927   2.944   8.034 -0.1803 -0.2413 -0.8260
 3782SOL    HW222980   4.074   2.955   8.042 -0.3218  0.3858 -2.4104
 3783SOL     OW22981   2.977   2.252   7.412 -0.3098 -0.5085  0.0088
 3783SOL    HW122982   2.940   2.306   7.482  1.0961  0.1129  0.2687
 3783SOL    HW222983   3.038   2.197   7.461  1.5791  1.6568  0.1120
 3784SOL     OW22984   1.696   3.963   5.589 -0.1122 -0.1765  0.3974
 3784SOL    HW122985   1.631   3.923   5.647 -1.5476 -0.5214 -1.4220
 3784SOL    HW222986   1.689   4.053   5.622 -0.6191  0.2841 -0.9139
 3785SOL     OW22987   1.943   4.047   3.525 -0.1469  0.3276 -0.3378
 3785SOL    HW122988   1.943   4.112   3.594 -1.8730 -0.1956  0.1676
 3785SOL    HW222989   1.944   3.964   3.572 -0.3093  1.4745  1.6541
 3786SOL     OW22990   4.178   3.539   8.056  0.2153  0.1874  0.5694
 3786SOL    HW122991   4.165   3.492   8.139  0.7537  0.4993  0.8312
 3786SOL    HW222992   4.219   3.615   8.098  0.0036 -0.0207  1.1609
 3787SOL     OW22993   0.460   2.897  16.146  0.1172 -0.5937 -0.2042
 3787SOL    HW122994   0.479   2.944  16.065 -2.2520  2.4883  1.0245
 3787SOL    HW222995   0.523   2.825  16.141  0.9946  0.2549 -1.3652
 3788SOL     OW22996   0.988   3.020   5.788  0.4684  0.0432 -0.9535
 3788SOL    HW122997   0.925   3.049   5.854 -0.8583 -2.8421 -0.9321
 3788SOL    HW222998   1.030   3.104   5.770  3.3326 -1.0295  0.7620
 3789SOL     OW22999   0.154   2.724   7.610 -0.6961 -0.5609 -0.1552
 3789SOL    HW123000   0.204   2.771   7.543 -0.7312 -1.8605 -1.1090
 3789SOL    HW223001   0.213   2.732   7.685  1.4701  0.6590 -1.9934
 3790SOL     OW23002   3.174   3.491   6.734 -0.2639  0.5314  0.6541
 3790SOL    HW123003   3.266   3.514   6.720 -0.1162 -1.5675 -1.9267
 3790SOL    HW223004   3.141   3.525   6.650 -0.0570 -1.3765 -0.1992
 3791SOL     OW23005   1.765   0.720  16.693  0.1128 -0.0841  0.2056
 3791SOL    HW123006   1.790   0.760  16.610  0.0571  0.0163  0.2379
 3791SOL    HW223007   1.672   0.737  16.709 -0.1871  1.1121 -2.7548
 3792SOL     OW23008   3.799   0.752   4.965 -0.1651  0.5740 -0.3806
 3792SOL    HW123009   3.772   0.688   5.030 -0.9692  2.1441  0.8338
 3792SOL    HW223010   3.806   0.694   4.889  1.0084 -0.2963  0.4000
 3793SOL     OW23011   0.493   1.809   5.683 -0.2274 -0.1333 -0.1270
 3793SOL    HW123012   0.560   1.869   5.651 -0.1953 -0.1441 -0.0797
 3793SOL    HW223013   0.415   1.831   5.631  0.0510  1.2368  0.0214
 3794SOL     OW23014   4.692   2.462   6.983 -0.0468 -0.4541  0.1752
 3794SOL    HW123015   4.651   2.394   6.929 -0.6946  1.4511 -1.7156
 3794SOL    HW223016   4.688   2.542   6.931 -1.4049 -1.2115 -0.8828
 3795SOL     OW23017   2.779   0.330   7.836 -0.0583 -0.3802 -0.4395
 3795SOL    HW123018   2.782   0.322   7.741  0.4039 -0.0525 -0.4537
 3795SOL    HW223019   2.870   0.361   7.839  0.0143 -0.7408  0.9212
 3796SOL     OW23020   1.313   4.256  16.077 -1.2830 -0.2436  0.2583
 3796SOL    HW123021   1.300   4.306  15.996  0.5864 -0.5427 -0.2435
 3796SOL    HW223022   1.357   4.182  16.036 -1.6773 -0.6687  0.6070
 3797SOL     OW23023   2.659   2.146   7.884 -0.0688 -0.2108  0.5380
 3797SOL    HW123024   2.752   2.150   7.906  0.3386 -0.6888 -1.0544
 3797SOL    HW223025   2.622   2.079   7.941 -3.3131  0.8142 -0.3723
 3798SOL     OW23026   2.080   2.677   5.213  0.3319 -0.2873 -0.3284
 3798SOL    HW123027   1.984   2.678   5.214  0.3645  3.7649  1.4573
 3798SOL    HW223028   2.098   2.771   5.225  0.2078 -0.1722 -1.0797
 3799SOL     OW23029   0.556   1.429   5.138 -0.6488 -0.2997 -0.2038
 3799SOL    HW123030   0.545   1.487   5.063 -0.9564  0.3935  0.3710
 3799SOL    HW223031   0.481   1.371   5.128 -0.5128 -0.7276  1.1608
 3800SOL     OW23032   1.243   3.416   7.388 -0.3814 -0.2556 -0.0036
 3800SOL    HW123033   1.303   3.478   7.429 -0.0785 -0.3382 -0.3236
 3800SOL    HW223034   1.303   3.347   7.358  0.1260 -0.6860  1.9942
 3801SOL     OW23035   3.083   1.826   6.148 -0.9280 -0.2982  0.0188
 3801SOL    HW123036   3.061   1.734   6.142 -0.2713 -0.4825  0.4675
 3801SOL    HW223037   2.997   1.866   6.136 -1.0161 -0.4490  0.1453
 3802SOL     OW23038   3.856   1.952   4.258  0.0409  0.1824  0.1944
 3802SOL    HW123039   3.814   1.966   4.174  2.3818  1.2085 -0.7846
 3802SOL    HW223040   3.776   1.940   4.311 -0.4126 -1.2910 -0.8142
 3803SOL     OW23041   2.042   2.442   4.018 -0.2253 -0.4015  0.1989
 3803SOL    HW123042   2.037   2.470   3.926 -0.7697  0.3791  0.4702
 3803SOL    HW223043   2.107   2.372   4.013  0.2032  0.0508 -0.6941
 3804SOL     OW23044   1.657   4.707   2.693  0.1948  0.2193 -0.0905
 3804SOL    HW123045   1.690   0.004   2.776  2.5508  1.2292 -1.4655
 3804SOL    HW223046   1.734   4.672   2.648  0.2997  0.6329 -0.2367
 3805SOL     OW23047   2.272   4.274   3.928  0.5059  0.4615 -0.2858
 3805SOL    HW123048   2.215   4.277   4.005  1.6368  1.1600  0.5375
 3805SOL    HW223049   2.351   4.248   3.976 -0.2322  0.6977  1.0620
 3806SOL     OW23050   0.890   3.116   2.269  0.2017  0.0119  0.1176
 3806SOL    HW123051   0.977   3.098   2.303  0.1227 -2.0828 -0.7701
 3806SOL    HW223052   0.844   3.150   2.345  0.0265 -2.2939  1.0296
 3807SOL     OW23053   2.027   4.581   5.209  0.4258  0.7077 -0.4183
 3807SOL    HW123054   1.943   4.562   5.250  0.5328  0.8860 -0.1122
 3807SOL    HW223055   2.027   4.510   5.144  1.8609 -1.7627  2.2720
 3808SOL     OW23056   1.079   1.569  11.018 -0.3761 -0.3490 -0.3376
 3808SOL    HW123057   1.087   1.662  10.994 -0.0400 -0.3995 -0.4285
 3808SOL    HW223058   1.169   1.536  11.017 -1.5673 -3.6175  0.3542
 3809SOL     OW23059   3.284   4.697  14.365 -0.2714  0.4627 -0.0315
 3809SOL    HW123060   3.327   0.026  14.311 -0.5309 -0.7654 -1.7780
 3809SOL    HW223061   3.283   4.622  14.305  1.7076 -0.3233  0.9339
 3810SOL     OW23062   1.661   3.486   7.465 -0.1032 -0.4615 -0.1523
 3810SOL    HW123063   1.648   3.416   7.400  1.0585 -0.1386 -0.7414
 3810SOL    HW223064   1.597   3.471   7.534 -1.3289 -1.1481 -1.4251
 3811SOL     OW23065   1.849   4.265   0.941  0.2991  0.0504 -0.5374
 3811SOL    HW123066   1.917   4.199   0.949  2.1354  2.1147  0.9770
 3811SOL    HW223067   1.778   4.212   0.905  0.0030 -0.2785  0.5383
 3812SOL     OW23068   4.622   4.126   3.336 -0.2927 -0.0393 -0.2749
 3812SOL    HW123069   4.629   4.129   3.240 -2.0242  0.8385 -0.3753
 3812SOL    HW223070   4.578   4.205   3.369  1.7381  1.8734 -2.0809
 3813SOL     OW23071   3.584   4.031   5.694 -0.0087 -0.1492  0.5748
 3813SOL    HW123072   3.516   4.064   5.752  0.3339  1.0172  0.3147
 3813SOL    HW223073   3.539   4.010   5.612  1.3289  0.3164 -0.2972
 3814SOL     OW23074   1.910   3.505   5.463  0.2130 -0.5051 -0.1210
 3814SOL    HW123075   1.875   3.568   5.526 -1.2866 -2.5465  1.0930
 3814SOL    HW223076   1.928   3.571   5.396 -4.0425  0.3510 -0.4027
 3815SOL     OW23077   4.515   0.522   1.415 -0.7849 -0.0397  0.4081
 3815SOL    HW123078   4.556   0.442   1.384 -1.4136 -0.2838  0.2086
 3815SOL    HW223079   4.551   0.533   1.503  1.1241 -0.6070 -0.2987
 3816SOL     OW23080   4.656   0.958   0.263 -0.1035 -0.0568 -0.2902
 3816SOL    HW123081   4.581   0.911   0.227  1.4619 -0.6632 -2.7286
 3816SOL    HW223082   4.612   1.003   0.335 -0.8490  2.3870 -2.2515
 3817SOL     OW23083   0.582   2.554   8.689 -0.1286  0.5915  0.3170
 3817SOL    HW123084   0.550   2.500   8.761  0.0064  0.0911  0.0039
 3817SOL    HW223085   0.567   2.641   8.725  0.4841  0.3935  1.0582
 3818SOL     OW23086   0.472   3.787   5.060  0.1620  0.4183 -0.0193
 3818SOL    HW123087   0.429   3.846   4.999  0.4060 -0.0063 -0.6022
 3818SOL    HW223088   0.551   3.766   5.009 -0.2893  0.9388 -0.9269
 3819SOL     OW23089   2.664   2.863   1.937  0.0243 -0.1941  0.3037
 3819SOL    HW123090   2.751   2.827   1.918  0.4370  1.2404 -0.5572
 3819SOL    HW223091   2.633   2.890   1.851  1.7013 -0.5321 -0.4083
 3820SOL     OW23092   3.080   3.639   8.663  0.5258  0.2480  0.2259
 3820SOL    HW123093   3.137   3.712   8.685  2.8091 -1.9230  1.4668
 3820SOL    HW223094   3.142   3.566   8.667  0.4774  0.1991  0.0973
 3821SOL     OW23095   0.995   0.853  12.455 -0.4611 -0.0994 -0.1564
 3821SOL    HW123096   0.933   0.848  12.382 -2.7892  1.4007  1.7263
 3821SOL    HW223097   0.989   0.763  12.488  0.4384 -0.2130 -0.3151
 3822SOL     OW23098   0.891   3.339   8.947  0.6174  0.1099  0.2874
 3822SOL    HW123099   0.980   3.373   8.939  0.4221  0.9808  1.8646
 3822SOL    HW223100   0.874   3.338   8.852 -1.5863 -0.8710  0.7083
 3823SOL     OW23101   3.550   0.519   4.342  0.1086 -0.5608  0.5789
 3823SOL    HW123102   3.548   0.614   4.328  1.7153 -0.7234 -0.6923
 3823SOL    HW223103   3.491   0.492   4.272  0.1227  0.6689  0.0937
 3824SOL     OW23104   2.535   2.773   3.909  0.0834  0.2764 -0.5365
 3824SOL    HW123105   2.552   2.865   3.889  2.2936  0.3781  1.7980
 3824SOL    HW223106   2.482   2.749   3.833 -0.4821 -0.4496  0.0887
 3825SOL     OW23107   3.932   2.716   7.653  0.9270 -0.7719  0.0576
 3825SOL    HW123108   3.893   2.629   7.652 -3.2583  1.0734  2.0643
 3825SOL    HW223109   3.872   2.762   7.712 -0.8248 -1.7810 -0.9723
 3826SOL     OW23110   4.272   1.409   3.641  0.1318 -0.0232 -0.1555
 3826SOL    HW123111   4.299   1.320   3.663  2.0295  0.3250 -1.0911
 3826SOL    HW223112   4.192   1.385   3.594  0.0386  0.8013 -0.4199
 3827SOL     OW23113   1.827   2.660   9.697 -0.1425 -0.7000 -0.4886
 3827SOL    HW123114   1.837   2.629   9.607  1.6594  0.0229 -0.5341
 3827SOL    HW223115   1.888   2.734   9.692  0.4381 -0.9509  2.7639
 3828SOL     OW23116   1.305   2.369   8.611 -0.3171  0.3461 -0.2103
 3828SOL    HW123117   1.397   2.344   8.606 -0.0321  1.8580 -2.4223
 3828SOL    HW223118   1.293   2.359   8.706  2.1220  0.4039  0.1042
 3829SOL     OW23119   2.631   1.661  13.612 -0.0555  0.1649 -0.0415
 3829SOL    HW123120   2.610   1.745  13.654 -1.9816  0.3448 -1.3621
 3829SOL    HW223121   2.588   1.680  13.529  0.0798 -1.6245 -0.5064
 3830SOL     OW23122   1.327   1.590  10.142  0.1552  0.3232  0.4704
 3830SOL    HW123123   1.402   1.545  10.181 -0.3299  0.4565  1.5382
 3830SOL    HW223124   1.357   1.670  10.099  1.2882 -0.3010  0.0981
 3831SOL     OW23125   1.040   0.623   3.927 -1.0270 -0.0926 -0.4562
 3831SOL    HW123126   1.125   0.662   3.948 -2.1333  2.4088 -0.6070
 3831SOL    HW223127   1.025   0.648   3.836 -0.1027 -1.3762 -0.9523
 3832SOL     OW23128   4.255   2.090   7.405 -0.2296  0.5472 -0.5488
 3832SOL    HW123129   4.228   2.036   7.330 -0.0397  0.1574 -0.3377
 3832SOL    HW223130   4.190   2.160   7.401 -2.0976 -1.3191 -3.1274
 3833SOL     OW23131   3.796   0.677   5.353  0.4700  0.2371 -0.2600
 3833SOL    HW123132   3.807   0.747   5.289 -0.6638  0.4100 -0.2738
 3833SOL    HW223133   3.740   0.617   5.304  1.4599 -0.4109 -0.5975
 3834SOL     OW23134   4.697   3.743  15.030 -0.3358  0.0182  0.2543
 3834SOL    HW123135   4.676   3.756  14.937 -0.3833 -1.3652  0.0722
 3834SOL    HW223136   4.712   3.837  15.043  0.3337 -0.0053 -0.3934
 3835SOL     OW23137   1.039   4.030  15.924  0.5395  0.0780  0.0436
 3835SOL    HW123138   0.995   3.999  15.845 -0.3129 -1.3795  1.0746
 3835SOL    HW223139   1.108   4.076  15.876  0.2527 -2.2581 -2.6220
 3836SOL     OW23140   3.202   1.766   7.698 -0.1346 -0.0648  0.2139
 3836SOL    HW123141   3.130   1.717   7.657 -0.5340  0.7942 -0.1151
 3836SOL    HW223142   3.223   1.826   7.626 -0.0512  0.2846  0.5293
 3837SOL     OW23143   3.913   2.406   5.425 -0.9184  0.3379 -0.1023
 3837SOL    HW123144   4.008   2.406   5.411 -1.2921 -0.0667 -2.6878
 3837SOL    HW223145   3.899   2.331   5.483  1.5919 -1.2623 -1.5212
 3838SOL     OW23146   0.147   2.066   5.407 -0.8309  0.7542  0.2920
 3838SOL    HW123147   0.197   2.010   5.347 -0.9487 -0.1754  1.0815
 3838SOL    HW223148   0.070   2.012   5.420  0.3983 -0.9467  0.5437
 3839SOL     OW23149   2.154   4.245   9.704  0.1346 -0.5144 -1.0581
 3839SOL    HW123150   2.104   4.327   9.705 -3.9267 -2.9383 -1.9685
 3839SOL    HW223151   2.220   4.283   9.647  1.0974  1.0429  1.0826
 3840SOL     OW23152   1.035   1.050   8.811 -0.5781  0.6004 -0.3243
 3840SOL    HW123153   1.031   0.974   8.752  1.1091  0.1119  0.1910
 3840SOL    HW223154   1.078   1.113   8.754 -0.3085 -1.8998 -2.8834
 3841SOL     OW23155   2.725   1.476  14.203  0.1632 -0.0998 -0.1508
 3841SOL    HW123156   2.778   1.548  14.237 -0.7860  0.4019  0.2606
 3841SOL    HW223157   2.638   1.517  14.204 -0.2134 -0.8633 -1.5842
 3842SOL     OW23158   3.669   0.712   8.767 -0.0211 -0.1299 -0.0712
 3842SOL    HW123159   3.758   0.684   8.747  0.0284  0.1013 -0.1750
 3842SOL    HW223160   3.677   0.729   8.861 -1.1701  0.7077 -0.1339
 3843SOL     OW23161   3.089   3.385   1.969 -0.4050 -0.0262 -0.1174
 3843SOL    HW123162   3.113   3.388   2.062 -1.5632 -0.8807  0.2075
 3843SOL    HW223163   3.080   3.477   1.946 -2.6661 -0.1975  0.0435
 3844SOL     OW23164   2.499   3.777  10.284 -0.6283  0.6941 -0.0199
 3844SOL    HW123165   2.495   3.758  10.377 -2.1469 -2.9975 -0.8250
 3844SOL    HW223166   2.436   3.709  10.258 -1.4168  1.7089 -0.7629
 3845SOL     OW23167   2.600   4.504   8.226 -0.0753 -0.5094 -0.2664
 3845SOL    HW123168   2.641   4.418   8.230 -1.7030 -1.2750 -0.2041
 3845SOL    HW223169   2.616   4.532   8.317 -1.3237  0.0987 -0.2313
 3846SOL     OW23170   4.409   2.002   4.304 -0.0145 -0.7140  0.0426
 3846SOL    HW123171   4.319   1.989   4.277  0.5957  1.8531 -3.1670
 3846SOL    HW223172   4.418   2.086   4.260  0.9057 -0.5139  0.6076
 3847SOL     OW23173   2.252   0.034   5.165 -0.3235 -0.4830 -0.1580
 3847SOL    HW123174   2.260   0.106   5.227  0.4740 -0.2491 -0.5371
 3847SOL    HW223175   2.173   4.727   5.196 -0.1943 -0.1577  0.6287
 3848SOL     OW23176   1.582   4.355   7.998 -0.2565  0.1147  0.3548
 3848SOL    HW123177   1.566   4.429   7.939 -1.5779  0.6779  1.4112
 3848SOL    HW223178   1.520   4.369   8.070 -0.1828  6.5817 -0.8130
 3849SOL     OW23179   1.724   3.064   3.102 -0.2058 -0.0019  0.0695
 3849SOL    HW123180   1.768   3.084   3.019 -1.0024  3.2033  0.4279
 3849SOL    HW223181   1.691   2.977   3.079 -0.5149  0.2751 -0.5549
 3850SOL     OW23182   3.816   1.577   9.235 -0.2284 -0.5864  0.1514
 3850SOL    HW123183   3.908   1.600   9.219 -1.2618  1.6318 -2.5348
 3850SOL    HW223184   3.800   1.611   9.324 -0.6013  0.8017 -0.4384
 3851SOL     OW23185   2.164   4.126  11.965  0.2401 -0.1563 -0.2810
 3851SOL    HW123186   2.183   4.098  11.875 -0.3947  1.0762 -0.7982
 3851SOL    HW223187   2.167   4.221  11.965  1.5854 -0.2054 -1.3771
 3852SOL     OW23188   3.338   4.192   9.760 -0.0737 -0.2274  0.8154
 3852SOL    HW123189   3.246   4.212   9.778  0.8100  1.4074  3.4309
 3852SOL    HW223190   3.333   4.103   9.795  0.9538 -1.0656 -1.1739
 3853SOL     OW23191   1.153   2.947   4.795 -0.4429 -0.3458  0.1425
 3853SOL    HW123192   1.202   2.972   4.873  3.1186  0.7521 -2.4443
 3853SOL    HW223193   1.090   2.886   4.833 -0.2144 -1.6612 -1.5633
 3854SOL     OW23194   1.458   2.485   2.009  0.2796 -0.4256  0.5016
 3854SOL    HW123195   1.547   2.465   1.979  0.4474  0.5303  0.3623
 3854SOL    HW223196   1.464   2.472   2.104 -0.5087 -1.7380  0.3732
 3855SOL     OW23197   3.750   3.926  10.324  0.1319  0.1509 -0.1425
 3855SOL    HW123198   3.837   3.949  10.357  0.1228 -1.1583  0.8002
 3855SOL    HW223199   3.692   3.981  10.376  0.2838 -1.2715  1.5484
 3856SOL     OW23200   3.143   2.169   2.135  0.6369  0.6010  0.3227
 3856SOL    HW123201   3.160   2.086   2.091 -0.1889 -0.4543  2.0069
 3856SOL    HW223202   3.224   2.179   2.186  0.0340  0.3084  1.3468
 3857SOL     OW23203   2.243   2.741   6.354  0.1218 -0.4749  0.2573
 3857SOL    HW123204   2.295   2.821   6.356 -1.7491  0.7309  0.9583
 3857SOL    HW223205   2.195   2.756   6.435  1.2465 -2.1513  1.2254
 3858SOL     OW23206   1.571   4.696   2.317 -0.0374 -0.7117  0.0155
 3858SOL    HW123207   1.666   4.701   2.328  0.0358 -2.8932  0.4158
 3858SOL    HW223208   1.563   0.023   2.247  0.6990 -1.8583 -1.1362
 3859SOL     OW23209   4.432   0.367   2.851  0.1659  0.6580 -0.4189
 3859SOL    HW123210   4.496   0.307   2.888  0.3256  1.8744  1.2969
 3859SOL    HW223211   4.359   0.307   2.836  1.4930 -0.5434 -2.1026
 3860SOL     OW23212   2.169   0.608   4.238 -0.2250 -0.1150  0.0524
 3860SOL    HW123213   2.180   0.620   4.332 -0.8126 -1.8596  0.3550
 3860SOL    HW223214   2.259   0.582   4.217 -0.1983  0.0084  0.0165
 3861SOL     OW23215   0.947   2.903   3.346  0.4143 -0.3784 -0.0058
 3861SOL    HW123216   1.029   2.868   3.313  0.1790 -2.2459  1.3845
 3861SOL    HW223217   0.878   2.860   3.296 -1.3995  0.9830  1.3159
 3862SOL     OW23218   3.196   1.814   4.176 -0.4508  0.1791 -0.4245
 3862SOL    HW123219   3.290   1.809   4.159 -0.3049 -0.5602  0.5627
 3862SOL    HW223220   3.206   1.833   4.270  4.8758 -2.8988 -0.4106
 3863SOL     OW23221   2.833   1.868  17.495  0.0557 -0.2755  0.2401
 3863SOL    HW123222   2.839   1.806  17.567  2.4122 -0.5307 -0.1766
 3863SOL    HW223223   2.746   1.849  17.460 -0.0206 -0.4754  0.5441
 3864SOL     OW23224   4.035   2.332  17.377  0.2928 -0.1322 -0.0046
 3864SOL    HW123225   4.094   2.380  17.319  0.1725  1.6200  1.3244
 3864SOL    HW223226   3.966   2.399  17.379 -1.0425 -1.5925  3.3714
 3865SOL     OW23227   3.011   2.142   8.295 -0.0921  0.0516  0.0054
 3865SOL    HW123228   2.932   2.191   8.274 -0.9850 -0.6810  1.6189
 3865SOL    HW223229   3.008   2.115   8.387 -1.5754 -0.0325 -0.0649
 3866SOL     OW23230   4.594   4.381   2.981  0.0308 -0.2145  0.5441
 3866SOL    HW123231   4.605   4.462   3.030 -0.1445  0.9802 -1.3764
 3866SOL    HW223232   4.683   4.379   2.947  0.0750  0.8927  0.5897
 3867SOL     OW23233   1.294   4.067   5.699  0.0797  0.8150 -0.6015
 3867SOL    HW123234   1.348   4.049   5.775 -1.5255  2.6613  0.9553
 3867SOL    HW223235   1.242   4.140   5.730 -0.3813  0.6062 -0.8740
 3868SOL     OW23236   0.196   4.567   4.259  0.3674  0.0539 -0.3040
 3868SOL    HW123237   0.157   4.629   4.198  1.1424  0.5185 -0.3183
 3868SOL    HW223238   0.259   4.628   4.297  0.8833 -1.0635  0.6547
 3869SOL     OW23239   0.741   0.437   3.971 -0.0864  0.0463  0.0957
 3869SOL    HW123240   0.755   0.344   3.955  2.5330  0.3503  0.5316
 3869SOL    HW223241   0.776   0.476   3.891 -0.5512  0.2375 -0.0173
 3870SOL     OW23242   3.774   2.051  12.318 -0.2798 -0.1661 -0.3090
 3870SOL    HW123243   3.781   2.043  12.413  0.5296 -1.0341 -0.4416
 3870SOL    HW223244   3.680   2.066  12.307 -0.5196 -2.1344 -1.0137
 3871SOL     OW23245   3.466   1.957   5.383 -0.0335  0.2962  0.2612
 3871SOL    HW123246   3.404   1.888   5.361 -0.0204  0.7767 -1.2579
 3871SOL    HW223247   3.403   2.029   5.383  1.0511  1.2498 -3.3042
 3872SOL     OW23248   2.156   4.358  10.079  0.1828  0.2791 -0.1269
 3872SOL    HW123249   2.223   4.411  10.034  0.9839 -2.2531 -1.9366
 3872SOL    HW223250   2.077   4.412  10.071  0.4485  0.5174 -1.2142
 3873SOL     OW23251   4.700   1.940   2.823 -0.0145 -0.2792  0.3429
 3873SOL    HW123252   4.618   1.891   2.817 -0.4188  0.4418 -0.2006
 3873SOL    HW223253   4.663   2.028   2.811  2.5727  0.9838  1.6445
 3874SOL     OW23254   1.546   3.634   4.442  0.6552  0.2536 -0.2685
 3874SOL    HW123255   1.627   3.585   4.429  0.3081 -0.6359  0.9143
 3874SOL    HW223256   1.478   3.578   4.405  0.0751  1.2603 -0.7308
 3875SOL     OW23257   2.357   0.642  16.907 -0.5081 -0.3757  0.3239
 3875SOL    HW123258   2.395   0.726  16.882 -0.3519 -0.9701 -1.4382
 3875SOL    HW223259   2.284   0.631  16.847  0.3212  0.7745 -0.8961
 3876SOL     OW23260   3.996   3.717   9.744 -0.8868 -0.2466  0.0751
 3876SOL    HW123261   3.970   3.625   9.746  0.2733 -0.5703  0.3909
 3876SOL    HW223262   4.073   3.714   9.802 -0.2475  0.7583 -0.7278
 3877SOL     OW23263   1.681   1.558   4.291 -0.2154 -0.4833  0.1485
 3877SOL    HW123264   1.761   1.591   4.333 -0.3024  0.0178 -0.0771
 3877SOL    HW223265   1.708   1.467   4.281 -1.8618 -1.1867  2.2100
 3878SOL     OW23266   3.529   2.414  15.781 -0.0055  0.7873  0.0168
 3878SOL    HW123267   3.458   2.367  15.739  1.0656 -2.8498  2.3045
 3878SOL    HW223268   3.571   2.341  15.827  0.4255  1.2788  0.4062
 3879SOL     OW23269   0.947   2.154   7.834  0.0588  0.1497 -0.5264
 3879SOL    HW123270   1.012   2.090   7.862  0.5500 -0.0128 -2.0355
 3879SOL    HW223271   0.967   2.165   7.741  0.5701 -3.5695 -0.8492
 3880SOL     OW23272   3.128   0.239  16.525  0.1721  0.4058 -0.4361
 3880SOL    HW123273   3.183   0.213  16.451  0.0267  0.3088 -0.5100
 3880SOL    HW223274   3.053   0.183  16.508  1.4730 -2.1025  2.0984
 3881SOL     OW23275   3.443   0.117   8.425  0.8812 -0.0405 -0.1784
 3881SOL    HW123276   3.439   0.021   8.418  3.2597  0.0230 -2.6516
 3881SOL    HW223277   3.387   0.128   8.502 -1.0180 -3.3427 -1.0903
 3882SOL     OW23278   0.254   3.346   1.842  0.2803 -0.1522  0.1191
 3882SOL    HW123279   0.271   3.434   1.876  0.9403 -0.2606  0.0678
 3882SOL    HW223280   0.163   3.359   1.816  0.0694 -0.9034  0.4675
 3883SOL     OW23281   1.765   3.810   3.635 -0.0349  0.3763  0.3143
 3883SOL    HW123282   1.788   3.754   3.709 -0.2738  1.1318  0.9662
 3883SOL    HW223283   1.676   3.837   3.659 -0.9505 -0.5887 -1.9673
 3884SOL     OW23284   3.521   3.767   9.655  1.0065  1.0413  0.4515
 3884SOL    HW123285   3.493   3.845   9.605  1.0089 -1.2175 -3.1005
 3884SOL    HW223286   3.523   3.694   9.593  0.6521  1.8720 -0.5523
 3885SOL     OW23287   0.577   1.226  15.694  0.2461 -0.2247 -0.3946
 3885SOL    HW123288   0.601   1.158  15.630 -1.1517 -0.3326 -0.8173
 3885SOL    HW223289   0.523   1.289  15.646 -0.1990  0.1819  0.6523
 3886SOL     OW23290   3.796   0.076   6.283  0.5492  0.0804  0.7356
 3886SOL    HW123291   3.861   0.138   6.248  0.3462  0.0117  0.2462
 3886SOL    HW223292   3.822   4.732   6.241  0.8996  0.2663  0.5838
 3887SOL     OW23293   2.584   3.215   6.469  0.0291 -0.3616  0.5983
 3887SOL    HW123294   2.549   3.304   6.471 -1.0992 -0.8623  3.1385
 3887SOL    HW223295   2.525   3.166   6.412 -1.1565  0.7311  0.9011
 3888SOL     OW23296   4.566   0.513   1.693  0.0590  0.7252 -0.2869
 3888SOL    HW123297   4.618   0.452   1.746  3.3153  1.6226 -2.4115
 3888SOL    HW223298   4.481   0.509   1.736 -0.5139 -0.8477 -1.5983
 3889SOL     OW23299   3.075   3.634  14.115  0.4089 -0.1308  0.0852
 3889SOL    HW123300   3.151   3.608  14.063  0.4239 -0.8969  0.4780
 3889SOL    HW223301   3.080   3.591  14.201  1.0740  0.4282  0.3278
 3890SOL     OW23302   4.340   2.000   0.948  0.0397 -0.0799 -0.6761
 3890SOL    HW123303   4.334   1.919   0.998 -1.5204  1.8646  2.3331
 3890SOL    HW223304   4.270   1.982   0.885 -0.7161 -1.7867  0.6585
 3891SOL     OW23305   1.260   0.495  11.899  0.4182 -0.4733  0.0494
 3891SOL    HW123306   1.250   0.480  11.993  0.1134  1.9892  0.4157
 3891SOL    HW223307   1.196   0.566  11.886  2.1502  1.1501  0.3677
 3892SOL     OW23308   3.071   4.422   7.609 -0.4592  0.6268  0.2141
 3892SOL    HW123309   3.054   4.345   7.555  0.6192 -0.5698  1.5552
 3892SOL    HW223310   2.986   4.466   7.600 -0.8986 -0.4564 -0.9121
 3893SOL     OW23311   2.369   0.057   8.005 -0.4261 -0.0744  0.0146
 3893SOL    HW123312   2.309   4.721   7.997 -0.8864  0.2063  0.8283
 3893SOL    HW223313   2.344   0.119   7.936  0.2820 -0.5144 -0.6337
 3894SOL     OW23314   3.511   3.200  16.673 -0.4378  0.1345 -0.2916
 3894SOL    HW123315   3.422   3.218  16.702 -0.5251 -5.0016  2.6080
 3894SOL    HW223316   3.550   3.153  16.746 -0.6917 -2.3262 -1.7485
 3895SOL     OW23317   3.883   4.370   9.349 -0.1351 -0.0900 -0.1369
 3895SOL    HW123318   3.931   4.318   9.414  0.4851 -0.0238 -0.5383
 3895SOL    HW223319   3.792   4.345   9.363 -0.2342 -0.1594 -0.8733
 3896SOL     OW23320   2.503   3.708   6.293 -0.0417  0.3385  0.2641
 3896SOL    HW123321   2.464   3.756   6.366  0.6495  1.3252 -0.0114
 3896SOL    HW223322   2.557   3.777   6.254 -2.6905  1.6222 -1.1269
 3897SOL     OW23323   0.828   1.917   4.418 -0.1649  0.3113 -0.2598
 3897SOL    HW123324   0.901   1.973   4.444  1.3763 -1.8108 -0.1109
 3897SOL    HW223325   0.785   1.886   4.498  0.3841 -3.0245 -1.2856
 3898SOL     OW23326   4.172   3.075   9.159  0.3055  0.3792  0.4206
 3898SOL    HW123327   4.240   3.128   9.117  0.9536 -0.0103  0.9775
 3898SOL    HW223328   4.144   3.122   9.238  0.0340  1.7731 -0.4889
 3899SOL     OW23329   0.752   3.669   2.873  0.5655 -0.4447 -0.0791
 3899SOL    HW123330   0.769   3.762   2.861 -1.1309  0.3270  3.5100
 3899SOL    HW223331   0.846   3.651   2.884  0.4433 -0.7724  0.4170
 3900SOL     OW23332   2.997   4.022   2.352  0.1169 -0.7513  0.1221
 3900SOL    HW123333   2.953   4.063   2.427  1.4132 -1.4639  1.2707
 3900SOL    HW223334   3.079   3.994   2.394 -1.3514 -3.3077  1.2825
 3901SOL     OW23335   3.110   4.387  10.925 -0.3636  0.4726  0.1969
 3901SOL    HW123336   3.129   4.296  10.948 -0.0440  0.4421 -0.1970
 3901SOL    HW223337   3.105   4.369  10.831  2.5057 -1.4946  0.4035
 3902SOL     OW23338   0.076   4.527   8.640 -0.0540  0.3778 -0.3029
 3902SOL    HW123339   0.087   4.497   8.730  0.1233 -0.0536 -0.4657
 3902SOL    HW223340   4.723   4.555   8.649  0.2756  1.3354 -0.0129
 3903SOL     OW23341   4.480   4.523   1.652 -0.1617 -0.1301 -0.0540
 3903SOL    HW123342   4.440   4.521   1.739  1.2825  0.2743  0.6183
 3903SOL    HW223343   4.572   4.537   1.677  0.0469  0.7949 -1.3120
 3904SOL     OW23344   2.045   0.850   2.700  0.0416  0.2357  0.3173
 3904SOL    HW123345   2.066   0.776   2.757  0.1136  1.9847  2.5061
 3904SOL    HW223346   1.996   0.902   2.763  0.6398  1.7274 -0.4373
 3905SOL     OW23347   3.955   4.643   5.590  0.5145 -0.6912  0.0596
 3905SOL    HW123348   4.037   4.594   5.596  0.9035 -0.2884 -2.0472
 3905SOL    HW223349   3.881   4.582   5.595 -0.8224  0.7375 -2.1082
 3906SOL     OW23350   2.309   3.119   6.068 -0.0166 -0.1132  0.4294
 3906SOL    HW123351   2.258   3.078   6.138 -0.3063  1.0825  0.9342
 3906SOL    HW223352   2.247   3.188   6.041 -0.4482 -0.2844  0.9829
 3907SOL     OW23353   3.608   4.199   5.391 -0.6371  0.1333 -0.2550
 3907SOL    HW123354   3.571   4.210   5.303 -1.1010  2.9974  0.2695
 3907SOL    HW223355   3.540   4.142   5.426 -0.8808  0.2465 -0.5439
 3908SOL     OW23356   1.289   0.477  17.298  0.1311  0.3658  0.6290
 3908SOL    HW123357   1.297   0.455  17.390  0.7306 -0.1013  0.4630
 3908SOL    HW223358   1.201   0.514  17.303 -0.7311 -1.8458  1.8459
 3909SOL     OW23359   3.030   2.050   1.081 -0.1134  0.1742  0.5569
 3909SOL    HW123360   3.028   1.986   1.153 -0.7982 -1.5611 -1.0034
 3909SOL    HW223361   2.939   2.079   1.080 -0.2932 -0.2749  3.2444
 3910SOL     OW23362   3.681   2.883   6.592  0.7355  0.0071  0.0553
 3910SOL    HW123363   3.593   2.917   6.574  0.9690 -0.8256 -2.6946
 3910SOL    HW223364   3.724   2.968   6.601 -0.2664  0.6197 -0.8501
 3911SOL     OW23365   1.974   3.198  16.805  0.4450  0.2771 -0.5935
 3911SOL    HW123366   1.992   3.111  16.769  0.1776 -1.0009  2.3845
 3911SOL    HW223367   1.879   3.208  16.799  0.4649 -0.0978 -1.6122
 3912SOL     OW23368   2.137   3.174  10.957  0.0025 -0.4112  0.5754
 3912SOL    HW123369   2.095   3.167  10.871 -1.2293  0.7755  1.0689
 3912SOL    HW223370   2.058   3.175  11.012 -1.5297  2.7161 -1.6758
 3913SOL     OW23371   1.968   2.699   2.158  0.5244 -0.2917  0.3832
 3913SOL    HW123372   1.981   2.740   2.073  2.7986 -0.8694  0.4382
 3913SOL    HW223373   1.907   2.628   2.142 -1.1397  1.4242 -0.9226
 3914SOL     OW23374   0.444   1.598   6.600  0.3545 -0.2751 -0.1990
 3914SOL    HW123375   0.527   1.645   6.612 -1.8838  3.6019  0.2581
 3914SOL    HW223376   0.408   1.630   6.517 -0.5898 -0.1990  0.2428
 3915SOL     OW23377   0.521   3.821   4.358  0.5301  0.5633 -0.0905
 3915SOL    HW123378   0.512   3.727   4.374 -3.1554  0.8066 -0.8574
 3915SOL    HW223379   0.560   3.842   4.444  1.3686  2.5583 -0.9727
 3916SOL     OW23380   0.309   2.292   5.480  0.2575  0.7402 -0.2009
 3916SOL    HW123381   0.307   2.290   5.575  2.7080  2.2725 -0.0945
 3916SOL    HW223382   0.240   2.230   5.457 -1.2315  2.2657  0.1786
 3917SOL     OW23383   3.982   3.609  15.955  0.5160 -0.3840 -0.4699
 3917SOL    HW123384   3.931   3.655  15.888  0.7569  0.8652  0.2023
 3917SOL    HW223385   3.987   3.521  15.918  0.6720 -1.3159  1.7698
 3918SOL     OW23386   0.463   3.184   2.441  0.3022 -0.3336 -0.2375
 3918SOL    HW123387   0.417   3.226   2.513 -0.5228  0.1598 -1.0510
 3918SOL    HW223388   0.437   3.094   2.461 -1.5225  0.0580 -0.8383
 3919SOL     OW23389   1.584   1.080  12.908  0.0537 -0.4068 -0.2430
 3919SOL    HW123390   1.556   1.153  12.853  1.4772  1.1730  1.0910
 3919SOL    HW223391   1.540   1.011  12.858  1.0253 -1.2196  0.0334
 3920SOL     OW23392   2.887   2.065   7.216  0.4692 -0.3657 -0.0698
 3920SOL    HW123393   2.893   2.120   7.138 -3.3985  0.0451 -0.0771
 3920SOL    HW223394   2.907   2.124   7.289 -0.3770  0.4016 -0.4591
 3921SOL     OW23395   3.081   4.640  10.036  0.3394 -1.1850 -0.1024
 3921SOL    HW123396   2.993   4.660  10.005 -0.2133 -1.1478  1.4606
 3921SOL    HW223397   3.063   4.551  10.064 -2.5128 -0.1897  1.1843
 3922SOL     OW23398   3.210   1.888   1.515 -0.1159  0.2322 -0.3120
 3922SOL    HW123399   3.167   1.836   1.584 -1.0144  2.9387  1.1716
 3922SOL    HW223400   3.226   1.971   1.560 -1.0206  0.5033 -0.4854
 3923SOL     OW23401   2.251   3.745   6.954 -0.0551 -0.0781  0.7289
 3923SOL    HW123402   2.227   3.837   6.948 -1.9933 -0.4645  2.6094
 3923SOL    HW223403   2.195   3.729   7.030 -0.2529  1.1756  0.8385
 3924SOL     OW23404   3.362   2.180   9.137 -0.0889  0.1050  0.3674
 3924SOL    HW123405   3.319   2.111   9.188  1.6131 -2.4629 -1.6560
 3924SOL    HW223406   3.330   2.262   9.174 -0.5762  0.2798 -0.4332
 3925SOL     OW23407   1.746   2.066   8.911  0.2396  0.6825  0.0928
 3925SOL    HW123408   1.780   2.062   9.001  0.3658  0.9526  0.0579
 3925SOL    HW223409   1.803   1.998   8.876 -2.3036 -1.2824 -0.2898
 3926SOL     OW23410   2.501   1.940   9.557 -0.2173  0.1895 -0.2542
 3926SOL    HW123411   2.451   2.022   9.559 -1.3739 -0.5496  0.3998
 3926SOL    HW223412   2.433   1.875   9.572 -0.0905  0.3121  0.8729
 3927SOL     OW23413   2.289   0.918   9.037  0.3150 -0.2767  0.5098
 3927SOL    HW123414   2.324   0.830   9.032  0.1277 -0.3121 -0.2792
 3927SOL    HW223415   2.337   0.964   9.106 -0.3832 -1.2288  1.6145
 3928SOL     OW23416   2.031   1.263   6.216  0.2246  0.3223  0.1986
 3928SOL    HW123417   1.996   1.352   6.222  0.7450  0.3548  2.8540
 3928SOL    HW223418   2.024   1.241   6.309 -2.7812 -1.7227 -0.5205
 3929SOL     OW23419   0.591   0.017  15.316  0.5213 -0.0357  0.6646
 3929SOL    HW123420   0.605   4.666  15.285  1.6436  0.5948 -0.6339
 3929SOL    HW223421   0.502   0.040  15.289  0.5184 -1.4607 -0.5269
 3930SOL     OW23422   2.074   1.258   8.068  0.1868  0.3173 -0.1428
 3930SOL    HW123423   2.039   1.347   8.080 -0.6717 -0.3478  2.2499
 3930SOL    HW223424   1.991   1.211   8.072  1.5120 -1.9123  1.1603
 3931SOL     OW23425   3.646   0.336   4.014 -0.0885 -0.0747  0.1050
 3931SOL    HW123426   3.589   0.281   3.960 -1.0291  1.5143 -0.4912
 3931SOL    HW223427   3.682   0.393   3.946 -1.8539 -1.6511 -2.1410
 3932SOL     OW23428   0.149   4.322   9.167 -0.6348  0.3256  0.2330
 3932SOL    HW123429   0.130   4.236   9.129  0.3745 -0.6598  1.9530
 3932SOL    HW223430   0.154   4.303   9.261  0.1797  1.0259  0.3353
 3933SOL     OW23431   4.430   0.025   2.049 -0.0605 -0.2331 -0.8843
 3933SOL    HW123432   4.430   0.120   2.037  2.3526 -0.1002  0.0890
 3933SOL    HW223433   4.410   0.019   2.142 -1.1222 -2.2159 -1.2348
 3934SOL     OW23434   2.044   3.390   8.464  0.0140 -0.7449 -0.0743
 3934SOL    HW123435   2.033   3.302   8.500  2.7402 -1.5162 -1.0918
 3934SOL    HW223436   2.101   3.430   8.530  0.7673 -0.8197 -0.6769
 3935SOL     OW23437   4.447   1.514  17.063  0.0445 -0.0738 -0.0557
 3935SOL    HW123438   4.419   1.427  17.036 -2.5072  1.1567 -1.3654
 3935SOL    HW223439   4.371   1.558  17.100  1.7500  1.9045  1.0983
 3936SOL     OW23440   4.068   2.648   5.931 -0.0892 -0.8372  0.1690
 3936SOL    HW123441   4.034   2.636   6.020 -1.5954 -2.4131 -0.6362
 3936SOL    HW223442   4.159   2.671   5.950  0.1149 -0.1948 -1.5965
 3937SOL     OW23443   2.252   4.545   6.600  0.6353 -0.3929  0.4221
 3937SOL    HW123444   2.336   4.581   6.574  0.7115 -1.2666 -0.4958
 3937SOL    HW223445   2.194   4.578   6.531  0.9945  0.9280  0.7417
 3938SOL     OW23446   2.450   3.901  10.753 -0.5008  0.4092 -0.1792
 3938SOL    HW123447   2.373   3.866  10.799 -1.4574  1.1612 -1.2345
 3938SOL    HW223448   2.446   3.988  10.793 -1.5329  0.1747  0.2294
 3939SOL     OW23449   2.158   0.108  16.203  0.5072  0.8595  0.0974
 3939SOL    HW123450   2.076   0.151  16.228 -0.2170 -0.6690  0.3555
 3939SOL    HW223451   2.213   0.178  16.168  2.4680 -0.2576  0.9409
 3940SOL     OW23452   2.916   4.235   7.189  0.2537 -0.0633  0.0879
 3940SOL    HW123453   2.942   4.145   7.172  1.5518  0.0130  1.6488
 3940SOL    HW223454   2.824   4.228   7.165  1.3488 -0.0408 -4.1650
 3941SOL     OW23455   0.077   1.465   2.000 -0.7516 -0.2659 -0.0975
 3941SOL    HW123456   0.158   1.495   1.959 -1.2557  4.0674  2.0652
 3941SOL    HW223457   0.034   1.551   2.003 -0.4839 -0.1614  0.8282
 3942SOL     OW23458   4.300   4.333   4.503 -0.4204 -0.1323 -0.5542
 3942SOL    HW123459   4.287   4.242   4.477  0.6917 -0.4249 -0.0681
 3942SOL    HW223460   4.322   4.376   4.420 -0.5790  2.0585  0.5481
 3943SOL     OW23461   3.085   3.073   8.064 -0.2090 -0.7401  0.0121
 3943SOL    HW123462   2.997   3.056   8.029 -0.0769  0.9686 -1.1167
 3943SOL    HW223463   3.078   3.063   8.159  1.8517 -3.5979 -0.1412
 3944SOL     OW23464   4.245   4.591   0.066  0.8908 -0.1696  0.3145
 3944SOL    HW123465   4.298   4.659   0.108  0.6360  0.4732 -0.3921
 3944SOL    HW223466   4.219   4.537   0.141  1.7389 -1.6994 -0.5213
 3945SOL     OW23467   3.196   2.590   5.799 -0.6050 -0.4810  0.3082
 3945SOL    HW123468   3.225   2.681   5.791  1.3739 -1.0560  0.8701
 3945SOL    HW223469   3.151   2.582   5.715 -1.5791  0.5573  0.7367
 3946SOL     OW23470   4.334   0.248   6.282 -0.1135 -0.0497 -0.1630
 3946SOL    HW123471   4.378   0.295   6.353 -0.2599  0.3049 -0.3106
 3946SOL    HW223472   4.403   0.183   6.271 -1.5855 -1.5154 -0.7708
 3947SOL     OW23473   4.251   0.673   7.140  0.0172  0.9392 -0.2393
 3947SOL    HW123474   4.314   0.625   7.194 -1.1366  1.5013  1.6118
 3947SOL    HW223475   4.294   0.758   7.145 -0.1084  1.0114 -0.4057
 3948SOL     OW23476   0.096   3.260   8.860  0.2475  0.0056  0.8201
 3948SOL    HW123477   0.120   3.303   8.942 -0.9884 -1.2299  1.8327
 3948SOL    HW223478   0.019   3.309   8.833 -0.3302 -1.2084  0.2403
 3949SOL     OW23479   1.330   3.089   5.752 -0.2944  0.0112 -0.7860
 3949SOL    HW123480   1.414   3.132   5.767 -0.7639  0.9951 -0.9615
 3949SOL    HW223481   1.278   3.169   5.757 -1.9129 -1.1279  1.1086
 3950SOL     OW23482   3.264   0.165   7.894 -0.1609  0.2543 -0.5078
 3950SOL    HW123483   3.289   0.157   7.986  0.8278  0.9782 -0.7111
 3950SOL    HW223484   3.323   0.233   7.862 -1.6828  1.3110 -1.0618
 3951SOL     OW23485   0.847   2.076  10.170  0.0963  0.0462  0.0831
 3951SOL    HW123486   0.772   2.119  10.210 -0.6777 -0.2764 -1.0326
 3951SOL    HW223487   0.881   2.010  10.230 -1.3418 -0.2842  0.5306
 3952SOL     OW23488   0.024   4.561   0.173  0.7722 -0.5539  0.1899
 3952SOL    HW123489   4.705   4.539   0.247  1.1942 -0.9260  0.4080
 3952SOL    HW223490   0.105   4.598   0.210 -0.5824  1.7144  0.9039
 3953SOL     OW23491   3.224   3.672  17.503  0.1694 -0.0775  0.0300
 3953SOL    HW123492   3.234   3.585  17.542  2.6021  0.2851  0.2045
 3953SOL    HW223493   3.241   3.727  17.579 -1.0551  1.0787 -0.5281
 3954SOL     OW23494   1.946   3.288   1.526  0.4493  0.2134 -0.4933
 3954SOL    HW123495   1.994   3.209   1.552  1.8685  0.4538 -2.3533
 3954SOL    HW223496   1.970   3.349   1.596 -0.3875  0.6569 -0.5894
 3955SOL     OW23497   0.567   2.558   5.855 -0.2555 -0.8144 -0.1217
 3955SOL    HW123498   0.658   2.573   5.879 -0.8439 -0.2993  1.7460
 3955SOL    HW223499   0.543   2.633   5.799  0.7843  0.3218  0.9635
 3956SOL     OW23500   3.837   1.498   0.622 -0.0877 -0.2858 -0.0549
 3956SOL    HW123501   3.808   1.566   0.683 -0.8706 -1.2249  0.6250
 3956SOL    HW223502   3.932   1.504   0.629 -0.1916 -0.8380  1.8488
 3957SOL     OW23503   3.663   3.145   2.440  0.1623  0.0118  0.3020
 3957SOL    HW123504   3.631   3.103   2.520 -1.5870  1.6735  0.4658
 3957SOL    HW223505   3.749   3.104   2.428 -0.4122 -0.9828 -0.4243
 3958SOL     OW23506   3.160   1.974   9.000  0.0622  0.5483  0.1967
 3958SOL    HW123507   3.241   2.014   8.968 -0.6103  2.1191  0.4807
 3958SOL    HW223508   3.192   1.953   9.088  1.0944 -0.1820 -0.3440
 3959SOL     OW23509   3.859   4.221  13.531  0.0332 -0.2810 -0.7991
 3959SOL    HW123510   3.910   4.260  13.459  0.0906 -0.0863 -0.6542
 3959SOL    HW223511   3.778   4.272  13.533  0.0430 -0.4128  2.8356
 3960SOL     OW23512   3.918   3.171   6.088  0.0984  0.0974 -0.1063
 3960SOL    HW123513   4.000   3.144   6.128 -0.3400 -0.3035  0.5334
 3960SOL    HW223514   3.865   3.186   6.166  0.9753  0.4399  0.4086
 3961SOL     OW23515   4.054   1.072   6.055  0.1132 -0.2872  0.2275
 3961SOL    HW123516   4.046   1.167   6.045 -2.2074 -0.5654 -0.6512
 3961SOL    HW223517   4.025   1.061   6.146  1.3730  1.8671  0.8755
 3962SOL     OW23518   1.972   3.168   2.349 -0.3284  0.8928 -0.0464
 3962SOL    HW123519   1.887   3.197   2.382 -0.1496 -0.4474  1.6107
 3962SOL    HW223520   1.950   3.134   2.263  0.4361 -0.2604  0.2083
 3963SOL     OW23521   2.091   1.328   0.888 -0.3002 -0.6082  0.0395
 3963SOL    HW123522   2.010   1.375   0.904 -0.8414 -1.4332 -0.2746
 3963SOL    HW223523   2.102   1.324   0.793 -0.7318 -0.3543 -0.0172
 3964SOL     OW23524   2.773   3.297   5.630  0.4409  0.0789 -0.2864
 3964SOL    HW123525   2.860   3.280   5.593  0.3868 -3.1354  1.0374
 3964SOL    HW223526   2.737   3.365   5.573 -0.4328 -0.8141 -0.8050
 3965SOL     OW23527   3.222   2.440   8.359 -0.4213 -0.3085 -0.2161
 3965SOL    HW123528   3.214   2.384   8.282 -0.1854 -0.5792 -0.0401
 3965SOL    HW223529   3.311   2.472   8.346 -1.2944  1.8226 -1.0807
 3966SOL     OW23530   0.723   1.101   2.983 -0.0596  0.2146 -0.1101
 3966SOL    HW123531   0.770   1.179   3.010  2.5033 -1.7570  1.2086
 3966SOL    HW223532   0.680   1.101   3.069 -3.2455  3.3703 -1.7021
 3967SOL     OW23533   0.738   4.092   2.630  0.3989 -0.1424 -0.0805
 3967SOL    HW123534   0.682   4.122   2.558  0.1667 -1.0381 -0.2768
 3967SOL    HW223535   0.674   4.102   2.700  1.0195  0.1604  0.4487
 3968SOL     OW23536   4.331   0.058   7.719  0.2009  0.1245  0.0755
 3968SOL    HW123537   4.416   0.063   7.763  0.6127  0.1839 -0.7209
 3968SOL    HW223538   4.345   0.099   7.634 -1.7390  1.1561  0.2619
 3969SOL     OW23539   4.193   1.777  12.656  0.1980  0.5092  0.2248
 3969SOL    HW123540   4.110   1.742  12.688 -0.7744  3.2559  0.7440
 3969SOL    HW223541   4.179   1.788  12.562  0.8919 -2.9023 -0.2761
 3970SOL     OW23542   2.386   1.044   3.617 -0.5625  0.0970 -0.1199
 3970SOL    HW123543   2.323   1.001   3.674 -0.0271  1.1797  1.2747
 3970SOL    HW223544   2.347   1.130   3.631  1.4716  0.7272  1.6181
 3971SOL     OW23545   0.897   3.272   4.488  0.1556 -0.5697 -0.0124
 3971SOL    HW123546   0.812   3.309   4.464  0.8820  0.8619 -0.3443
 3971SOL    HW223547   0.876   3.179   4.487  0.3820 -0.6234  0.1326
 3972SOL     OW23548   2.215   3.516   0.049 -0.4657 -0.0251 -0.0280
 3972SOL    HW123549   2.159   3.453   0.004  1.6567 -1.0724 -1.1817
 3972SOL    HW223550   2.272   3.460   0.101  0.1784 -0.8457 -1.6147
 3973SOL     OW23551   3.498   0.868  15.230  0.0984 -0.4909  0.1121
 3973SOL    HW123552   3.460   0.882  15.317  1.3671 -0.7151  0.6979
 3973SOL    HW223553   3.453   0.930  15.172 -1.2624 -1.0768  0.5270
 3974SOL     OW23554   0.078   2.073   6.005 -0.1785 -0.5694  0.1956
 3974SOL    HW123555   0.018   1.999   6.021 -0.0266 -0.8835 -0.6921
 3974SOL    HW223556   0.047   2.139   6.067 -1.3764 -0.6549 -0.3063
 3975SOL     OW23557   1.425   4.553   5.441  0.1634 -0.1361 -0.0300
 3975SOL    HW123558   1.435   4.471   5.391  1.3859  1.3087 -2.1926
 3975SOL    HW223559   1.503   4.608   5.440 -0.1200  0.2780  0.7120
 3976SOL     OW23560   2.567   2.925   0.443  0.4317 -0.4772  0.6044
 3976SOL    HW123561   2.571   2.900   0.535  2.4971  0.1963  0.6986
 3976SOL    HW223562   2.536   3.015   0.448 -2.3124 -1.4604  1.2959
 3977SOL     OW23563   0.151   1.256   3.702  0.2174  0.4275  0.1258
 3977SOL    HW123564   0.083   1.306   3.658 -3.7317 -3.8559  1.4134
 3977SOL    HW223565   0.126   1.266   3.794 -0.2303 -0.2906  0.0803
 3978SOL     OW23566   1.713   3.309   9.213 -0.3556 -0.3994 -0.5689
 3978SOL    HW123567   1.668   3.249   9.154 -1.6715 -1.1907  1.2422
 3978SOL    HW223568   1.693   3.273   9.299  0.8776 -0.5829 -0.3589
 3979SOL     OW23569   2.426   1.085  14.949  0.2534 -0.0811  1.0178
 3979SOL    HW123570   2.476   1.119  15.024  1.5176 -1.7830  0.9671
 3979SOL    HW223571   2.341   1.122  14.975 -1.1723 -1.8712 -1.1056
 3980SOL     OW23572   3.959   3.977   9.323  0.1904  0.0240 -0.2371
 3980SOL    HW123573   3.891   4.012   9.266 -0.4363  0.1235  0.5761
 3980SOL    HW223574   3.903   3.942   9.392  0.4858  0.3382  0.1620
 3981SOL     OW23575   2.439   2.245   6.046 -0.2118  0.0183  0.0208
 3981SOL    HW123576   2.520   2.293   6.032 -0.1604  0.1202  0.7057
 3981SOL    HW223577   2.372   2.313   6.058 -0.2484  0.1352 -0.7930
 3982SOL     OW23578   4.141   3.968   3.860  0.2181  0.4991  0.8584
 3982SOL    HW123579   4.157   3.984   3.767 -0.4899 -2.4625  0.2428
 3982SOL    HW223580   4.069   3.905   3.858  1.4827 -0.8794 -1.5651
 3983SOL     OW23581   0.689   2.680   3.375 -0.3611 -0.3944  0.3143
 3983SOL    HW123582   0.706   2.590   3.404 -0.0496 -0.3294  0.3372
 3983SOL    HW223583   0.732   2.683   3.289 -0.4051 -1.3477  0.2549
 3984SOL     OW23584   0.745   4.517   7.742  0.2549 -0.2810 -0.0923
 3984SOL    HW123585   0.725   4.470   7.823  0.6127  1.1666  0.8390
 3984SOL    HW223586   0.751   4.610   7.765 -0.5606  0.1048 -1.4147
 3985SOL     OW23587   4.145   1.279   4.999  0.2286  0.4714 -0.0418
 3985SOL    HW123588   4.161   1.351   5.059  2.2922 -0.0485  0.0155
 3985SOL    HW223589   4.115   1.320   4.918 -2.4623  2.0427  1.7496
 3986SOL     OW23590   1.870   4.106   4.256  0.6259  0.8145  0.1834
 3986SOL    HW123591   1.848   4.192   4.219 -0.7500  0.5226  0.3009
 3986SOL    HW223592   1.844   4.121   4.347 -2.5979 -0.6916 -0.4868
 3987SOL     OW23593   1.412   3.371  13.705  0.1206  0.1318 -0.6043
 3987SOL    HW123594   1.355   3.416  13.643  1.2556 -1.4347 -2.7932
 3987SOL    HW223595   1.372   3.399  13.787  0.4206 -1.3529  0.0434
 3988SOL     OW23596   0.299   1.483   3.980 -0.1538 -0.3110  0.2460
 3988SOL    HW123597   0.265   1.572   3.980  0.8970  0.0871 -1.0754
 3988SOL    HW223598   0.221   1.428   3.981 -0.8397  0.6000 -1.6960
 3989SOL     OW23599   1.934   3.327  13.625 -0.6854 -0.6363  0.4249
 3989SOL    HW123600   1.954   3.340  13.718  0.4555  3.1729 -0.3517
 3989SOL    HW223601   1.840   3.317  13.637 -0.5134 -2.0845  0.5659
 3990SOL     OW23602   2.262   2.983   1.777  0.0889 -0.4030 -0.0476
 3990SOL    HW123603   2.227   2.933   1.850 -0.4148  0.2343  0.1466
 3990SOL    HW223604   2.179   3.014   1.741  1.7812  2.0859 -1.8726
 3991SOL     OW23605   2.706   1.173  14.186 -0.3289 -0.4019 -0.2175
 3991SOL    HW123606   2.718   1.268  14.184 -2.2682 -0.1792 -1.7642
 3991SOL    HW223607   2.783   1.148  14.236 -1.7485 -0.6632  1.8495
 3992SOL     OW23608   4.598   3.928  11.201 -0.0079  0.5764 -0.0266
 3992SOL    HW123609   4.597   4.012  11.247  0.8433 -0.2900  1.5727
 3992SOL    HW223610   4.506   3.919  11.176  0.1558 -0.4089 -0.2893
 3993SOL     OW23611   2.775   3.008  15.057 -0.3302 -0.2634 -0.5615
 3993SOL    HW123612   2.801   3.099  15.072 -0.3695 -0.4698  0.7260
 3993SOL    HW223613   2.830   2.972  15.126 -0.2054 -0.4461 -0.7569
 3994SOL     OW23614   4.665   3.466   4.514 -0.5948 -0.1302  0.2155
 3994SOL    HW123615   0.014   3.428   4.500 -0.1283  1.6143 -1.6084
 3994SOL    HW223616   4.664   3.520   4.593  1.4578  0.8324 -0.4210
 3995SOL     OW23617   3.131   1.481  13.366 -0.0636  0.1943  0.5062
 3995SOL    HW123618   3.053   1.536  13.375 -1.7806 -2.3711  1.2845
 3995SOL    HW223619   3.173   1.525  13.292  0.0827 -0.8877 -0.0474
 3996SOL     OW23620   4.101   3.745  15.632  0.2396 -1.1392 -0.1661
 3996SOL    HW123621   4.147   3.661  15.640  2.9838  0.3255 -0.7387
 3996SOL    HW223622   4.012   3.716  15.653 -0.1448 -0.5155 -0.9511
 3997SOL     OW23623   2.144   0.518   5.189 -0.3974 -0.1132 -0.3783
 3997SOL    HW123624   2.075   0.535   5.253 -1.3247 -2.1457 -0.8518
 3997SOL    HW223625   2.098   0.506   5.105 -0.1293 -0.0945 -0.5287
 3998SOL     OW23626   4.360   3.102   5.311 -0.6692  0.3362 -0.1861
 3998SOL    HW123627   4.341   3.125   5.220 -3.7174  0.3131  0.4555
 3998SOL    HW223628   4.276   3.079   5.350  0.3876 -1.1153  1.2218
 3999SOL     OW23629   4.123   3.873   0.757 -0.3238 -0.4543 -0.4657
 3999SOL    HW123630   4.124   3.846   0.849 -0.1459  1.2006  0.0299
 3999SOL    HW223631   4.032   3.846   0.747 -1.0782  1.4694  1.0331
 4000SOL     OW23632   0.162   4.229   8.433  0.3423 -0.6433  0.5037
 4000SOL    HW123633   0.199   4.317   8.422  0.4541 -0.8469 -0.7053
 4000SOL    HW223634   0.147   4.219   8.527 -2.8196  1.6016  0.2174
 4001SOL     OW23635   2.657   0.471   5.248  0.1451  0.1597 -0.5197
 4001SOL    HW123636   2.617   0.536   5.189 -2.3816 -0.8081  0.1156
 4001SOL    HW223637   2.590   0.483   5.315  0.7674  1.1691 -0.0882
 4002SOL     OW23638   1.925   0.477  16.397  0.2107 -0.4293  0.2283
 4002SOL    HW123639   1.946   0.387  16.371  2.4907 -0.2078  1.3335
 4002SOL    HW223640   1.923   0.520  16.311 -1.8970 -1.1492 -0.0916
 4003SOL     OW23641   0.165   3.320   4.462 -0.2662 -0.1955  0.0863
 4003SOL    HW123642   0.206   3.369   4.390  0.1328 -1.0625 -0.2751
 4003SOL    HW223643   0.233   3.271   4.508 -0.6588 -1.3443 -0.5648
 4004SOL     OW23644   1.164   4.608   6.124  0.3206 -0.4077  0.1794
 4004SOL    HW123645   1.175   4.703   6.112 -0.2488 -0.0881  2.2561
 4004SOL    HW223646   1.156   4.606   6.219  0.7700  0.1685  0.2262
 4005SOL     OW23647   2.868   2.948  13.166  0.0309 -0.2536  0.7466
 4005SOL    HW123648   2.915   3.001  13.101  0.5266 -1.5051  0.0904
 4005SOL    HW223649   2.934   2.927  13.232  0.9917 -1.0075 -0.4475
 4006SOL     OW23650   1.949   1.414   7.273 -0.3539  0.1900 -0.0786
 4006SOL    HW123651   1.891   1.436   7.346  1.0319  0.9255  0.7957
 4006SOL    HW223652   1.960   1.504   7.242 -1.3782  0.2230 -0.3552
 4007SOL     OW23653   4.479   1.179   5.112 -0.3900  0.2474 -0.6990
 4007SOL    HW123654   4.404   1.197   5.056 -2.2038  0.0005  1.6693
 4007SOL    HW223655   4.494   1.085   5.118 -0.2190  0.2277 -1.3781
 4008SOL     OW23656   3.675   1.281   9.772 -0.3190 -0.1831 -0.1890
 4008SOL    HW123657   3.763   1.309   9.749 -0.9333  2.1194  0.2251
 4008SOL    HW223658   3.694   1.187   9.773  2.1003  0.3401  2.0095
 4009SOL     OW23659   3.090   4.717   5.022 -0.0718  0.0026  0.2112
 4009SOL    HW123660   3.037   0.029   4.959 -0.1692 -2.7713 -1.8929
 4009SOL    HW223661   3.061   4.627   5.007 -1.3651  0.2733  1.0228
 4010SOL     OW23662   2.917   0.622   2.122  0.1941  0.2297 -0.1745
 4010SOL    HW123663   2.856   0.668   2.064  1.2695 -1.5808 -2.7803
 4010SOL    HW223664   3.004   0.645   2.090 -0.3715  3.4208  0.6034
 4011SOL     OW23665   0.408   3.130  16.814  0.3296  0.0851  0.2562
 4011SOL    HW123666   0.372   3.102  16.729  0.1127 -2.3420  1.1413
 4011SOL    HW223667   0.350   3.087  16.877  2.0564 -2.7884 -0.1361
 4012SOL     OW23668   3.761   0.179   8.933 -0.2708 -0.0932  0.3135
 4012SOL    HW123669   3.688   0.140   8.983 -1.3917  0.5019 -0.8684
 4012SOL    HW223670   3.708   0.223   8.867 -1.0468  0.4896  1.3259
 4013SOL     OW23671   2.459   3.457   6.465 -0.4593  0.4907 -0.0463
 4013SOL    HW123672   2.468   3.550   6.447 -2.5453  0.7373  0.2201
 4013SOL    HW223673   2.371   3.459   6.504 -0.9286 -0.5138 -1.0603
 4014SOL     OW23674   1.764   0.079   9.995 -0.1095 -0.3316  0.2035
 4014SOL    HW123675   1.774   0.173  10.011  1.4498 -0.2293 -1.3052
 4014SOL    HW223676   1.776   0.049  10.085 -2.9181  1.4105  1.1633
 4015SOL     OW23677   3.630   3.506   4.265 -0.3411  0.5291  0.1321
 4015SOL    HW123678   3.567   3.438   4.288 -3.0183  2.3093 -2.0480
 4015SOL    HW223679   3.713   3.475   4.303  0.2530  0.8330 -0.9134
 4016SOL     OW23680   3.502   0.648   6.377 -0.6372  0.1137 -0.2699
 4016SOL    HW123681   3.427   0.593   6.400 -1.7704  1.8888  0.3118
 4016SOL    HW223682   3.456   0.730   6.359  0.7683  1.6077  2.9577
 4017SOL     OW23683   2.446   3.280   7.368  0.3618 -0.4098  0.0490
 4017SOL    HW123684   2.362   3.240   7.387  1.4552 -1.7528  2.1467
 4017SOL    HW223685   2.500   3.215   7.414 -0.6892 -1.6661 -0.5204
 4018SOL     OW23686   4.110   0.204   5.645 -0.1521 -0.4732 -0.0303
 4018SOL    HW123687   4.171   0.134   5.623 -0.0756 -0.9467  1.6938
 4018SOL    HW223688   4.054   0.211   5.568 -0.6971 -2.3894  0.1890
 4019SOL     OW23689   3.703   1.495  13.774  0.2726  0.6441 -0.3562
 4019SOL    HW123690   3.770   1.517  13.708 -1.3130 -0.0151 -2.1971
 4019SOL    HW223691   3.743   1.535  13.851 -0.8693 -1.1324  1.1585
 4020SOL     OW23692   4.321   4.179   8.171  0.8092 -0.3254 -0.3782
 4020SOL    HW123693   4.345   4.111   8.109  0.5426 -0.8189  0.0566
 4020SOL    HW223694   4.359   4.256   8.128  0.1705  0.1238 -0.1451
 4021SOL     OW23695   2.438   2.646   9.889 -0.0575 -0.1710  0.4288
 4021SOL    HW123696   2.446   2.551   9.884  0.0838 -0.0438 -1.5742
 4021SOL    HW223697   2.396   2.656   9.975  2.4129 -0.6155  1.6761
 4022SOL     OW23698   1.636   1.556   8.104  0.0992 -0.3883 -0.3561
 4022SOL    HW123699   1.606   1.627   8.160  0.5600  1.5722 -2.6074
 4022SOL    HW223700   1.583   1.483   8.137 -0.1551 -0.2584 -0.4799
 4023SOL     OW23701   1.417   1.436  17.006  0.8408  0.0227 -0.6687
 4023SOL    HW123702   1.482   1.386  16.956  2.4309  2.2376 -0.8429
 4023SOL    HW223703   1.348   1.374  17.029 -0.9609  1.5692 -1.9234
 4024SOL     OW23704   4.548   0.110   7.919  0.0461  0.2719 -0.0106
 4024SOL    HW123705   4.558   0.178   7.985 -1.3950 -0.9282  1.4381
 4024SOL    HW223706   4.635   0.115   7.879 -0.7740  1.4978 -1.6349
 4025SOL     OW23707   2.754   2.261   4.475 -0.5154 -0.2875  0.1661
 4025SOL    HW123708   2.751   2.352   4.445  1.0642  0.3442  1.9999
 4025SOL    HW223709   2.690   2.260   4.546 -0.0813 -1.0832  0.5416
 4026SOL     OW23710   3.044   1.439   3.846  0.6557 -0.2378  0.2060
 4026SOL    HW123711   3.043   1.344   3.835  1.3632 -0.3176  0.8292
 4026SOL    HW223712   3.119   1.452   3.904  2.3188  0.1042 -2.0129
 4027SOL     OW23713   2.687   3.725   1.409  0.4223 -0.2717  0.0802
 4027SOL    HW123714   2.640   3.681   1.480 -0.1845  2.9109  1.6694
 4027SOL    HW223715   2.719   3.647   1.364  0.4835 -0.0384 -0.2812
 4028SOL     OW23716   3.597   3.696   7.457 -0.6657  0.1901 -0.2161
 4028SOL    HW123717   3.538   3.739   7.394  0.3929  0.4634 -1.0191
 4028SOL    HW223718   3.651   3.639   7.403 -0.2509  1.5140 -1.1897
 4029SOL     OW23719   3.108   2.507   4.457  1.1588  0.3428 -0.4084
 4029SOL    HW123720   3.081   2.483   4.368 -0.4890 -1.8788  0.6678
 4029SOL    HW223721   3.184   2.564   4.448 -0.7262  2.8013 -1.0437
 4030SOL     OW23722   0.809   0.820   5.156 -0.2339 -0.4480 -0.5529
 4030SOL    HW123723   0.811   0.736   5.202  1.0837  0.6597  1.3762
 4030SOL    HW223724   0.789   0.795   5.066 -1.8834 -1.2686  0.0340
 4031SOL     OW23725   3.901   2.917   9.871  0.3644  0.1072  0.2867
 4031SOL    HW123726   3.865   3.004   9.855  3.1126  1.1108 -0.3743
 4031SOL    HW223727   3.974   2.934   9.931  1.0526  1.9582 -1.0737
 4032SOL     OW23728   0.725   1.251   1.866 -0.2477 -0.1710  0.2392
 4032SOL    HW123729   0.718   1.306   1.788 -2.9004 -1.5701 -0.5190
 4032SOL    HW223730   0.680   1.314   1.921  0.1721 -0.6428  1.1174
 4033SOL     OW23731   3.414   1.809   1.031 -0.4390  0.6151  0.5979
 4033SOL    HW123732   3.395   1.813   1.125 -1.5300 -0.1799  0.4042
 4033SOL    HW223733   3.353   1.879   1.008 -1.9937 -0.4955  1.3387
 4034SOL     OW23734   3.593   4.360   8.405 -0.0017  0.6656  0.1917
 4034SOL    HW123735   3.499   4.342   8.399 -0.4587  3.4073 -0.8820
 4034SOL    HW223736   3.602   4.447   8.443  1.7977  0.8148 -0.5686
 4035SOL     OW23737   0.800   3.612  14.845  0.1321 -0.5311 -0.1621
 4035SOL    HW123738   0.830   3.601  14.754 -2.4589 -0.5398 -0.9989
 4035SOL    HW223739   0.877   3.651  14.886 -0.3871  0.9366 -0.6060
 4036SOL     OW23740   2.229   4.186  14.478 -0.3015  0.0968 -0.1215
 4036SOL    HW123741   2.289   4.132  14.428  0.9351  1.5696 -0.2408
 4036SOL    HW223742   2.143   4.158  14.447 -0.1232  2.7617 -3.0482
 4037SOL     OW23743   1.850   3.085   2.865  0.5016  0.2572 -0.6000
 4037SOL    HW123744   1.940   3.114   2.856  0.6611  0.2493  0.8349
 4037SOL    HW223745   1.831   3.058   2.776  0.5784  0.3939 -0.6571
 4038SOL     OW23746   3.910   0.337  13.739  0.2731  0.0968 -0.0877
 4038SOL    HW123747   3.988   0.304  13.783  0.0653 -0.8177 -0.3932
 4038SOL    HW223748   3.918   0.430  13.756  1.6299 -0.4190  2.0229
 4039SOL     OW23749   3.604   2.713  10.738  0.0333  0.4045 -0.8186
 4039SOL    HW123750   3.546   2.691  10.811  0.9938 -0.5539 -0.3504
 4039SOL    HW223751   3.650   2.785  10.781  1.6503 -0.0670 -1.7725
 4040SOL     OW23752   4.281   0.157   7.475  0.4511 -0.6525  0.1014
 4040SOL    HW123753   4.230   0.237   7.487  0.8994 -0.0538 -1.9699
 4040SOL    HW223754   4.222   0.097   7.429 -0.2799 -1.3587  1.9705
 4041SOL     OW23755   4.035   0.109  12.054 -0.2083  0.4620  0.4081
 4041SOL    HW123756   4.069   0.179  12.110 -1.0055 -1.6097  3.5017
 4041SOL    HW223757   3.958   0.085  12.106 -0.1920 -2.4963 -0.9384
 4042SOL     OW23758   0.063   1.251   8.532 -0.7109 -0.2117  0.3322
 4042SOL    HW123759   0.044   1.273   8.440 -2.2468 -2.7849  0.0366
 4042SOL    HW223760   0.081   1.157   8.534 -1.9732 -0.4928 -1.3897
 4043SOL     OW23761   2.801   2.119   6.328 -0.4339 -0.2570  0.4387
 4043SOL    HW123762   2.710   2.143   6.309 -1.4264 -2.8308  1.9029
 4043SOL    HW223763   2.839   2.201   6.360  0.1229 -0.8726  1.3495
 4044SOL     OW23764   3.045   4.316   8.212  0.2041 -0.0693 -0.1478
 4044SOL    HW123765   3.098   4.395   8.219 -1.0831  0.9411 -1.8382
 4044SOL    HW223766   2.969   4.345   8.162 -1.8214 -3.0415  1.2010
 4045SOL     OW23767   3.031   2.412   9.047  0.5291 -0.2694  0.1209
 4045SOL    HW123768   3.005   2.493   9.091  0.8233 -0.7708  1.2166
 4045SOL    HW223769   3.120   2.394   9.078  0.8178  0.8644 -0.0664
 4046SOL     OW23770   4.368   0.484   3.492 -1.0282  0.0591  0.4548
 4046SOL    HW123771   4.418   0.475   3.573  0.2755 -1.2785 -0.4978
 4046SOL    HW223772   4.371   0.579   3.479  1.4394  0.0464  0.8751
 4047SOL     OW23773   1.382   2.924  11.107 -0.3109  0.4618 -0.4582
 4047SOL    HW123774   1.301   2.887  11.143 -2.3450  1.2710 -4.1749
 4047SOL    HW223775   1.431   2.944  11.186  1.6612 -0.5274 -1.4090
 4048SOL     OW23776   4.593   4.308   4.396 -0.2344 -0.0450  0.5017
 4048SOL    HW123777   4.514   4.321   4.345  0.9985 -0.6269 -1.5560
 4048SOL    HW223778   4.648   4.278   4.323 -2.9171 -0.2834 -1.4062
 4049SOL     OW23779   4.064   0.067  13.091 -0.1103 -0.1461  0.1085
 4049SOL    HW123780   4.115   0.120  13.029 -1.3871 -0.3887 -1.1599
 4049SOL    HW223781   4.144   0.048  13.141  0.6603  2.6654 -0.0233
 4050SOL     OW23782   4.322   2.399   1.708 -0.4709  0.4955 -0.4863
 4050SOL    HW123783   4.285   2.417   1.621  2.4575 -1.0475 -2.0497
 4050SOL    HW223784   4.378   2.323   1.696 -1.8841 -0.3249 -1.8481
 4051SOL     OW23785   3.615   0.581   4.598  0.4424  0.2676 -0.8759
 4051SOL    HW123786   3.586   0.553   4.511 -0.2811 -1.0451 -0.2155
 4051SOL    HW223787   3.531   0.598   4.640  0.5735  0.4790 -0.6961
 4052SOL     OW23788   3.122   4.398   6.914 -0.4078 -0.1718  0.5448
 4052SOL    HW123789   3.112   4.420   7.006 -0.1127 -1.2923  0.8514
 4052SOL    HW223790   3.030   4.420   6.900 -0.0902  1.2567  0.7454
 4053SOL     OW23791   2.191   2.151  15.770 -0.1107  0.2888 -0.6374
 4053SOL    HW123792   2.195   2.204  15.691 -1.1930 -0.1735 -0.9923
 4053SOL    HW223793   2.158   2.214  15.834  1.7656 -1.5985  2.1827
 4054SOL     OW23794   0.047   0.732  16.773  0.2356  0.3055  0.1661
 4054SOL    HW123795   0.009   0.817  16.796 -0.6119 -0.6722  2.3695
 4054SOL    HW223796   4.735   0.717  16.693 -2.9642  2.4946  1.7316
 4055SOL     OW23797   2.694   3.905   4.017  0.1859 -0.5764  0.4412
 4055SOL    HW123798   2.777   3.889   3.973 -0.0782  2.0802 -1.0327
 4055SOL    HW223799   2.714   3.893   4.110  3.8044  0.8935 -0.1627
 4056SOL     OW23800   3.332   2.202   1.801  0.2051 -0.1359 -0.4593
 4056SOL    HW123801   3.416   2.176   1.839 -1.3643  1.1269  3.9664
 4056SOL    HW223802   3.317   2.290   1.834 -0.9408  0.0522 -1.4548
 4057SOL     OW23803   3.413   1.181   2.498 -0.2170  0.1719  0.8115
 4057SOL    HW123804   3.328   1.188   2.453 -0.1066 -0.9241  0.4322
 4057SOL    HW223805   3.482   1.233   2.457 -1.4885  0.9385 -0.3540
 4058SOL     OW23806   0.706   2.220   3.630 -0.2600 -0.5617 -0.2091
 4058SOL    HW123807   0.786   2.170   3.615 -0.6640 -1.9377  2.2633
 4058SOL    HW223808   0.741   2.294   3.680 -0.1310 -1.4578  1.0044
 4059SOL     OW23809   0.992   4.720   0.422  0.3530 -0.0487 -0.1038
 4059SOL    HW123810   1.008   0.077   0.421  2.0284 -0.3186  1.6047
 4059SOL    HW223811   1.008   4.692   0.332  0.6799  1.5577 -0.5496
 4060SOL     OW23812   1.148   3.968   4.723 -0.4840  0.1033  0.0924
 4060SOL    HW123813   1.141   3.947   4.630 -0.3979 -0.0791  0.1281
 4060SOL    HW223814   1.148   3.885   4.772  0.7085 -0.3972 -0.7865
 4061SOL     OW23815   3.842   4.409   9.911  0.4390 -0.1659  0.5254
 4061SOL    HW123816   3.823   4.457   9.830 -2.6698 -0.5348  1.0394
 4061SOL    HW223817   3.800   4.323   9.904 -0.8125  0.4871  0.0795
 4062SOL     OW23818   2.375   0.792   8.504  0.5656  0.6168  0.1854
 4062SOL    HW123819   2.325   0.870   8.527  0.1468  0.8923 -1.7105
 4062SOL    HW223820   2.464   0.818   8.478  0.3511 -0.0967 -1.2521
 4063SOL     OW23821   4.610   2.479  16.926  0.1028  0.0477 -0.1646
 4063SOL    HW123822   4.574   2.548  16.981  0.9087  0.3531 -0.0155
 4063SOL    HW223823   4.699   2.461  16.955 -0.8779 -0.0528  2.7221
 4064SOL     OW23824   1.797   0.555   0.816  0.7116  0.4048  0.1633
 4064SOL    HW123825   1.829   0.497   0.747  1.2893 -0.4562  1.1509
 4064SOL    HW223826   1.742   0.509   0.879  2.5959  1.8488  2.8645
 4065SOL     OW23827   3.037   2.397  11.490 -0.6405  0.2947 -0.2276
 4065SOL    HW123828   3.044   2.390  11.586 -2.0700 -1.3681 -0.2286
 4065SOL    HW223829   3.016   2.306  11.467 -0.6334  0.1473  0.3342
 4066SOL     OW23830   1.156   4.091  13.030  0.1858 -0.3854 -0.0199
 4066SOL    HW123831   1.119   4.104  13.117 -2.3779 -0.0038 -1.1426
 4066SOL    HW223832   1.157   4.182  13.000  0.2420 -0.6375 -0.7819
 4067SOL     OW23833   3.189   2.666   2.753  0.4789 -0.1643  0.4676
 4067SOL    HW123834   3.244   2.744   2.759  0.8720 -0.5555  1.8510
 4067SOL    HW223835   3.169   2.653   2.845 -0.4019  0.4432  0.3574
 4068SOL     OW23836   3.056   0.408   8.799 -0.4611 -0.2159 -0.1827
 4068SOL    HW123837   3.038   0.357   8.719 -1.8392  1.7368 -1.1358
 4068SOL    HW223838   2.966   0.420   8.829 -0.7488 -1.4458 -0.5357
 4069SOL     OW23839   0.992   0.248   2.909 -0.0825 -0.3607 -0.2519
 4069SOL    HW123840   0.977   0.198   2.989  1.4334  0.7447  0.7064
 4069SOL    HW223841   0.968   0.339   2.929  1.7048 -0.3072  1.6149
 4070SOL     OW23842   4.730   4.133  17.388 -0.3531  0.4803  0.3377
 4070SOL    HW123843   0.055   4.171  17.449  0.6791  0.6674 -0.8366
 4070SOL    HW223844   4.650   4.127  17.439  0.7465 -3.9918  1.5758
 4071SOL     OW23845   4.688   1.669   9.136  0.3508  0.8630  0.4006
 4071SOL    HW123846   4.598   1.688   9.165  1.6941  2.5815  3.4539
 4071SOL    HW223847   4.719   1.758   9.153 -2.0117  2.1683 -2.1333
 4072SOL     OW23848   3.958   3.496   3.064 -0.3764 -0.4268  0.3560
 4072SOL    HW123849   3.869   3.469   3.088  0.0794 -1.0107  1.3546
 4072SOL    HW223850   3.934   3.511   2.972  0.7075  1.3600  0.3596
 4073SOL     OW23851   2.448   2.709  10.364 -0.2796 -0.3884 -0.2167
 4073SOL    HW123852   2.489   2.753  10.438 -2.6845  0.3104  0.7197
 4073SOL    HW223853   2.420   2.634  10.416  1.1658  0.1051  1.2642
 4074SOL     OW23854   4.677   2.825  10.374 -0.1974  0.7588  0.4194
 4074SOL    HW123855   4.621   2.776  10.434  1.5575 -1.2365  0.3971
 4074SOL    HW223856   0.006   2.762  10.349 -0.0341  0.3426  1.9273
 4075SOL     OW23857   3.803   4.020   6.896 -0.5541 -1.1467 -0.5251
 4075SOL    HW123858   3.712   4.000   6.920 -0.5984  0.9503  1.1195
 4075SOL    HW223859   3.790   4.115   6.906  0.1066 -1.0810 -0.2500
 4076SOL     OW23860   4.664   0.236   5.107  0.7398  0.1869 -0.2400
 4076SOL    HW123861   4.734   0.171   5.102  1.5744  1.3016 -2.6883
 4076SOL    HW223862   4.665   0.258   5.201  2.8816  0.5146 -0.3448
 4077SOL     OW23863   0.149   0.371  11.524  0.3045  0.2844  0.3570
 4077SOL    HW123864   0.218   0.372  11.590 -1.0961 -3.0940  1.8908
 4077SOL    HW223865   0.136   0.276  11.515 -1.6143  0.4656  1.0749
 4078SOL     OW23866   3.522   3.366   9.505  0.0442 -0.7240 -0.4467
 4078SOL    HW123867   3.518   3.283   9.553 -1.2336 -1.0105 -1.0394
 4078SOL    HW223868   3.460   3.340   9.437 -2.7292  0.8166  1.5058
 4079SOL     OW23869   2.436   3.520   6.121 -0.4063  0.4341 -0.0567
 4079SOL    HW123870   2.341   3.530   6.131 -0.2476  1.2178  0.7052
 4079SOL    HW223871   2.470   3.564   6.199 -4.5212  1.8256  0.9681
 4080SOL     OW23872   0.577   2.013   1.436  0.2288  0.4318  0.1503
 4080SOL    HW123873   0.665   1.989   1.465  0.9558 -0.8357 -3.1071
 4080SOL    HW223874   0.520   1.982   1.506  0.2159  0.0849 -0.0130
 4081SOL     OW23875   4.319   3.150   5.758 -0.1141  0.2772 -0.5668
 4081SOL    HW123876   4.274   3.201   5.690  0.3074 -0.7798 -1.6520
 4081SOL    HW223877   4.400   3.124   5.713 -0.9236 -1.4361 -1.0490
 4082SOL     OW23878   0.769   1.845   5.620 -0.7252 -0.3398 -0.5509
 4082SOL    HW123879   0.798   1.776   5.560  0.5553 -1.2832  1.1278
 4082SOL    HW223880   0.843   1.856   5.680 -1.2427 -1.2009  0.2530
 4083SOL     OW23881   1.253   1.748   3.103 -0.0203  0.3113  0.1971
 4083SOL    HW123882   1.200   1.826   3.122 -1.1685  0.1483 -2.3196
 4083SOL    HW223883   1.276   1.714   3.189 -0.7149 -0.6700 -0.0118
 4084SOL     OW23884   0.525   3.048  15.942 -0.2257  0.0204 -0.1027
 4084SOL    HW123885   0.564   3.041  15.855 -0.8705 -1.0034 -0.3036
 4084SOL    HW223886   0.575   3.116  15.987  1.3092 -0.8653 -0.4605
 4085SOL     OW23887   2.283   4.230   7.715 -0.3878 -0.1569 -0.3657
 4085SOL    HW123888   2.290   4.156   7.776  0.5476 -0.5961 -0.9943
 4085SOL    HW223889   2.214   4.282   7.755 -1.5460 -1.8881 -0.1179
 4086SOL     OW23890   2.624   0.019   4.354  0.6848  0.1602  0.1792
 4086SOL    HW123891   2.593   0.043   4.441  0.2998  0.7442 -0.1173
 4086SOL    HW223892   2.690   4.695   4.384  0.1021  0.3304  1.7913
 4087SOL     OW23893   4.027   2.801   2.143  0.1511  0.6330 -0.0402
 4087SOL    HW123894   4.072   2.819   2.060 -0.9077  0.2895 -0.7036
 4087SOL    HW223895   4.092   2.828   2.207 -0.3685  1.8717 -0.0383
 4088SOL     OW23896   0.353   1.086  11.135 -0.6973  0.0752 -0.0769
 4088SOL    HW123897   0.305   1.169  11.143  1.1010  1.3156 -1.8413
 4088SOL    HW223898   0.353   1.064  11.228  0.4809 -3.1017 -0.8396
 4089SOL     OW23899   1.024   2.095   5.601  0.0032 -0.3410  0.2895
 4089SOL    HW123900   1.019   2.020   5.660  1.7111 -1.0757 -0.5116
 4089SOL    HW223901   0.979   2.158   5.658 -0.0665  1.6583 -1.9765
 4090SOL     OW23902   4.272   4.627   2.790 -0.2716 -0.2109 -0.2295
 4090SOL    HW123903   4.192   4.587   2.757 -0.9857  0.5266  0.5992
 4090SOL    HW223904   4.303   4.677   2.714 -0.8698 -2.1633 -1.7307
 4091SOL     OW23905   1.138   2.076  11.040 -0.1641  0.3581  0.6418
 4091SOL    HW123906   1.188   2.095  11.119  1.2753  2.8638 -0.8869
 4091SOL    HW223907   1.176   2.139  10.979  2.6512 -0.0789  1.9645
 4092SOL     OW23908   2.412   1.264   1.761  0.4276  0.2455  0.2738
 4092SOL    HW123909   2.404   1.202   1.833 -0.4786  0.5173  0.4075
 4092SOL    HW223910   2.483   1.221   1.714  0.4675 -0.4702  0.9842
 4093SOL     OW23911   1.074   0.798   8.065  0.4675 -0.0201 -0.7015
 4093SOL    HW123912   1.047   0.824   7.977 -1.0226 -1.6583 -0.7515
 4093SOL    HW223913   0.998   0.832   8.113  1.0595  0.2013  0.0758
 4094SOL     OW23914   2.571   0.222   9.440  0.0983  0.1559 -0.1563
 4094SOL    HW123915   2.552   0.264   9.525  1.8191 -1.4289  1.0218
 4094SOL    HW223916   2.543   0.293   9.382 -0.1668  0.1477 -0.0366
 4095SOL     OW23917   2.104   0.058   8.660  0.3392  0.4615 -0.2567
 4095SOL    HW123918   2.110   4.714   8.610  3.1303 -1.5358  3.3604
 4095SOL    HW223919   2.145   0.106   8.589 -0.0797  1.2423  0.0340
 4096SOL     OW23920   2.930   0.235   4.067 -0.0958  0.1862  0.0307
 4096SOL    HW123921   2.860   0.250   4.004  1.4676 -0.9950 -1.9841
 4096SOL    HW223922   2.881   0.222   4.148  0.6655 -0.5180  0.3775
 4097SOL     OW23923   4.497   1.437   4.026  0.1886  0.3239 -0.0075
 4097SOL    HW123924   4.529   1.352   4.055  1.1279  1.0457  1.0995
 4097SOL    HW223925   4.532   1.496   4.093 -2.1651  1.3096  0.3513
 4098SOL     OW23926   1.522   0.223   2.037  0.1473  0.2940  0.1365
 4098SOL    HW123927   1.548   0.315   2.045  1.4121 -0.2765  2.5992
 4098SOL    HW223928   1.558   0.184   1.957  0.0228  0.8620 -0.1979
 4099SOL     OW23929   3.862   4.692   7.150  0.0438  0.1173 -0.3628
 4099SOL    HW123930   3.937   0.014   7.144 -0.5081  0.7897 -0.5450
 4099SOL    HW223931   3.809   4.720   7.225 -0.6856 -2.8477  0.2242
 4100SOL     OW23932   1.226   2.120  13.786 -0.4687 -0.7728 -0.9918
 4100SOL    HW123933   1.291   2.120  13.856 -1.2096  1.7738 -0.3157
 4100SOL    HW223934   1.150   2.090  13.836  0.1877  0.2635  0.6344
 4101SOL     OW23935   1.468   2.939   4.944 -0.1038 -0.1899 -0.1745
 4101SOL    HW123936   1.521   2.938   5.024  2.3020 -0.2757 -1.7674
 4101SOL    HW223937   1.391   2.899   4.983 -1.3340  0.1380 -2.2837
 4102SOL     OW23938   1.330   2.494   5.200 -0.2832  0.0866 -0.0379
 4102SOL    HW123939   1.403   2.501   5.137 -0.4718  0.6660 -0.1902
 4102SOL    HW223940   1.360   2.558   5.264 -0.4621  0.5364 -0.4120
 4103SOL     OW23941   3.136   2.973   1.500  0.0262  0.2638  0.2566
 4103SOL    HW123942   3.085   2.931   1.431  0.3103  0.3148  0.0101
 4103SOL    HW223943   3.071   2.977   1.569 -0.2910  0.1451 -0.0357
 4104SOL     OW23944   4.275   0.883  13.896 -0.0136  0.2118 -0.4823
 4104SOL    HW123945   4.203   0.943  13.916  0.4351  0.3470  0.7034
 4104SOL    HW223946   4.223   0.817  13.849 -0.2794  1.0565 -1.3820
 4105SOL     OW23947   1.749   3.782   9.781 -0.0149 -0.3223 -0.3560
 4105SOL    HW123948   1.762   3.819   9.868  1.5114 -1.6304 -0.0274
 4105SOL    HW223949   1.826   3.737   9.745  0.9216  0.2376  0.9813
 4106SOL     OW23950   1.447   3.626  12.412 -0.1118  0.4616  0.0055
 4106SOL    HW123951   1.402   3.679  12.347  0.4223  0.7599 -0.1230
 4106SOL    HW223952   1.409   3.660  12.493 -1.5912  1.5272 -1.1449
 4107SOL     OW23953   1.199   0.101   7.714  0.3393 -0.1812  0.0526
 4107SOL    HW123954   1.176   0.138   7.800 -1.8016  0.8756 -0.9500
 4107SOL    HW223955   1.294   0.108   7.719  0.5163 -1.7705 -0.9913
 4108SOL     OW23956   3.042   3.270  17.531  0.6621  0.4304  0.3379
 4108SOL    HW123957   3.104   3.258  17.459  2.0612 -0.6764  1.7255
 4108SOL    HW223958   3.005   3.356  17.511  0.5422 -0.4642 -3.2222
 4109SOL     OW23959   1.422   2.732   5.302  0.6702 -0.0990  0.5779
 4109SOL    HW123960   1.413   2.823   5.329  0.3826 -0.6611  2.3705
 4109SOL    HW223961   1.431   2.744   5.207 -1.6948  2.3906  0.6749
 4110SOL     OW23962   1.538   1.601   2.055 -0.2258 -0.6676  0.1689
 4110SOL    HW123963   1.499   1.651   2.126  0.6434 -1.2047  1.0217
 4110SOL    HW223964   1.459   1.586   2.003  0.2209  0.6312 -0.8864
 4111SOL     OW23965   0.661   1.173  15.956 -0.1315 -0.0359 -0.0533
 4111SOL    HW123966   0.650   1.201  15.865 -2.0136 -3.1324 -0.7856
 4111SOL    HW223967   0.582   1.124  15.978 -0.4858  0.8198  0.5783
 4112SOL     OW23968   3.699   3.586   6.651  0.2696 -0.3405 -0.1536
 4112SOL    HW123969   3.690   3.680   6.637  2.6043 -0.4364 -2.2546
 4112SOL    HW223970   3.782   3.577   6.604  1.2995  2.9802  1.0467
 4113SOL     OW23971   1.234   1.542   3.547  0.2277 -0.1227  0.2251
 4113SOL    HW123972   1.248   1.514   3.457 -0.4130 -0.4416  0.2307
 4113SOL    HW223973   1.303   1.609   3.557 -2.9595  3.0433  1.0616
 4114SOL     OW23974   2.860   4.040   9.981 -0.2092 -0.5197  0.0572
 4114SOL    HW123975   2.830   3.984   9.909  0.1977 -2.9659  1.7982
 4114SOL    HW223976   2.876   3.968  10.042  1.0318 -0.3208 -0.0173
 4115SOL     OW23977   2.493   1.073   0.116  0.3497  0.0788 -0.2610
 4115SOL    HW123978   2.514   1.163   0.141 -0.1951  0.7233 -2.1349
 4115SOL    HW223979   2.401   1.065   0.141  0.2765 -0.8445 -0.8140
 4116SOL     OW23980   2.437   0.387  11.807  0.4858 -0.2487 -0.0624
 4116SOL    HW123981   2.463   0.479  11.808 -0.1820 -0.0708  0.4253
 4116SOL    HW223982   2.360   0.391  11.863  0.4753  1.6907 -0.2113
 4117SOL     OW23983   4.016   1.085   5.194  0.0460 -0.5291 -0.0347
 4117SOL    HW123984   4.049   1.128   5.115  0.1950 -0.0919  0.2622
 4117SOL    HW223985   4.052   1.136   5.267  0.2711  1.9221 -1.8406
 4118SOL     OW23986   0.324   1.460  16.913 -0.0025 -0.1829 -0.0835
 4118SOL    HW123987   0.404   1.480  16.864 -0.8991  1.1344 -1.0201
 4118SOL    HW223988   0.283   1.399  16.851 -0.9782  0.0097  0.3732
 4119SOL     OW23989   2.886   0.731  10.030 -0.1338 -0.0613  0.2290
 4119SOL    HW123990   2.876   0.746  10.124 -1.0532  0.7770  0.0002
 4119SOL    HW223991   2.910   0.819  10.000  1.0581 -0.3437  0.3332
 4120SOL     OW23992   2.061   0.821   7.241 -0.2110 -0.0233  0.2935
 4120SOL    HW123993   2.100   0.748   7.289  1.1766  1.6821  1.7383
 4120SOL    HW223994   2.065   0.881   7.315  1.3194  1.6292 -1.1025
 4121SOL     OW23995   0.714   3.759  10.551 -0.0247  0.0294  0.2711
 4121SOL    HW123996   0.708   3.818  10.626 -0.9435  0.5225 -0.2013
 4121SOL    HW223997   0.723   3.811  10.471  1.5590 -0.8200 -0.1049
 4122SOL     OW23998   1.482   1.338   9.587 -0.0646  0.5969 -0.5145
 4122SOL    HW123999   1.436   1.276   9.644 -0.6394  0.0080 -1.6343
 4122SOL    HW224000   1.414   1.375   9.531 -2.3105 -0.1071  1.7170
 4123SOL     OW24001   0.032   1.113   0.702  0.0141  0.2225 -0.4691
 4123SOL    HW124002   4.690   1.141   0.657 -1.5719 -1.9773  0.9518
 4123SOL    HW224003   0.021   1.145   0.792  0.9868 -0.8718  0.0569
 4124SOL     OW24004   0.872   4.621   1.495 -0.4544 -0.0903  0.8518
 4124SOL    HW124005   0.857   4.715   1.499 -1.7620 -0.3341  1.7545
 4124SOL    HW224006   0.963   4.600   1.475  0.0188 -0.2280  3.0981
 4125SOL     OW24007   2.856   3.262  14.990 -0.1756 -0.2158  0.0035
 4125SOL    HW124008   2.936   3.209  14.990  1.3537  2.0755 -0.3207
 4125SOL    HW224009   2.883   3.350  15.019 -1.2412  0.0905  0.0475
 4126SOL     OW24010   2.166   1.429  12.681 -0.4153 -0.3550 -0.1609
 4126SOL    HW124011   2.213   1.356  12.721  1.3611  0.7461 -0.2089
 4126SOL    HW224012   2.074   1.414  12.699 -0.3238  0.5480  1.0679
 4127SOL     OW24013   1.015   3.609   2.923  0.0026 -0.5616 -0.2660
 4127SOL    HW124014   1.041   3.552   2.995  0.2622 -0.6724 -0.4498
 4127SOL    HW224015   1.080   3.582   2.859 -0.1485  2.9186 -1.8887
 4128SOL     OW24016   4.458   2.854   4.927  0.4936  0.3040  0.1191
 4128SOL    HW124017   4.368   2.867   4.954 -0.1094  1.0089 -2.1693
 4128SOL    HW224018   4.504   2.865   5.010  2.0184 -1.7127 -0.4470
 4129SOL     OW24019   0.257   4.364   2.157 -0.0859  0.5400 -0.5639
 4129SOL    HW124020   0.191   4.298   2.176  0.0831  0.1380 -1.3609
 4129SOL    HW224021   0.273   4.402   2.243 -0.3002  0.2975 -0.4185
 4130SOL     OW24022   1.805   2.689   5.468 -0.0824  0.0001 -0.0421
 4130SOL    HW124023   1.826   2.598   5.492  0.7536  0.5344  1.2303
 4130SOL    HW224024   1.858   2.726   5.539 -0.3637 -0.1907  0.2657
 4131SOL     OW24025   2.475   1.821   1.804 -0.3301 -0.2224  0.1757
 4131SOL    HW124026   2.424   1.742   1.786  0.2297 -0.0629 -2.1148
 4131SOL    HW224027   2.553   1.819   1.748 -1.8136  1.9397 -1.9610
 4132SOL     OW24028   3.286   3.342  10.383 -0.0049 -0.0907  0.2104
 4132SOL    HW124029   3.351   3.274  10.401 -0.9347 -0.2101  2.9870
 4132SOL    HW224030   3.204   3.324  10.428 -1.4306  2.1377 -1.4887
 4133SOL     OW24031   0.649   3.508   5.911 -0.0429 -0.0367  0.3792
 4133SOL    HW124032   0.588   3.560   5.858  0.7475 -0.9737 -1.4366
 4133SOL    HW224033   0.686   3.442   5.853 -0.0725 -0.5939  1.0045
 4134SOL     OW24034   2.010   3.002   9.175  0.1453 -0.2270 -0.5144
 4134SOL    HW124035   1.972   2.964   9.254 -1.2417  0.4517 -0.8529
 4134SOL    HW224036   2.012   3.094   9.201 -1.6557  0.8401 -4.0848
 4135SOL     OW24037   1.690   4.296  14.282  0.3070 -0.1579  0.0828
 4135SOL    HW124038   1.764   4.300  14.221  0.1330  1.2723 -0.0348
 4135SOL    HW224039   1.712   4.213  14.325  1.6744 -0.3696 -1.0290
 4136SOL     OW24040   1.338   3.438  11.916  0.4796  0.4150 -0.1127
 4136SOL    HW124041   1.422   3.396  11.932  2.1946  3.7875 -0.2532
 4136SOL    HW224042   1.312   3.450  12.007 -0.2832  0.1099 -0.2859
 4137SOL     OW24043   2.606   4.374   3.069  0.8087  0.0342 -0.1720
 4137SOL    HW124044   2.642   4.298   3.114 -1.0718 -0.9939 -0.4380
 4137SOL    HW224045   2.554   4.405   3.143  2.7868  1.8804  0.4686
 4138SOL     OW24046   1.695   3.970   9.570 -0.0051 -0.1902 -0.3887
 4138SOL    HW124047   1.701   3.927   9.655 -0.9611  0.8839  0.2307
 4138SOL    HW224048   1.787   3.996   9.559  0.0196  0.3809  1.2352
 4139SOL     OW24049   3.791   3.630  15.734 -0.8479 -0.2620 -0.1005
 4139SOL    HW124050   3.738   3.710  15.737 -0.8779 -0.2385 -1.0756
 4139SOL    HW224051   3.783   3.610  15.640  2.2384  1.0649 -0.6623
 4140SOL     OW24052   0.925   0.948   2.888 -0.6415 -0.1622 -0.4227
 4140SOL    HW124053   0.999   1.001   2.859  0.1302 -1.7000 -1.2484
 4140SOL    HW224054   0.857   1.007   2.919  1.8605  2.3326  0.2513
 4141SOL     OW24055   0.453   0.238   1.764  0.1005 -0.0216  0.5039
 4141SOL    HW124056   0.433   0.277   1.678  2.6633  0.7670  0.2710
 4141SOL    HW224057   0.390   0.167   1.755 -0.4243  0.7631 -2.2154
 4142SOL     OW24058   1.080   3.120  10.915  0.0273  0.2506 -0.7272
 4142SOL    HW124059   1.173   3.110  10.935  0.0151 -1.1155 -1.4338
 4142SOL    HW224060   1.078   3.216  10.911  1.8189  0.3080 -0.0443
 4143SOL     OW24061   0.359   4.294  17.153 -0.1490 -0.0036 -0.2584
 4143SOL    HW124062   0.365   4.390  17.159  0.1171 -0.0797  0.6454
 4143SOL    HW224063   0.431   4.278  17.092  0.2610 -0.7079  0.4092
 4144SOL     OW24064   0.905   3.231   3.174  0.0388 -0.4322 -0.5217
 4144SOL    HW124065   0.887   3.188   3.091 -0.6136  0.7265 -0.9865
 4144SOL    HW224066   0.856   3.314   3.181 -1.5695 -1.3567 -0.8444
 4145SOL     OW24067   3.024   1.296  14.266 -0.1218 -0.3138 -0.1767
 4145SOL    HW124068   3.073   1.376  14.248 -1.9648  1.4445  2.5834
 4145SOL    HW224069   2.971   1.332  14.337 -1.3782  1.0122 -1.7732
 4146SOL     OW24070   1.268   2.231  11.893  0.2730  0.2228 -0.5182
 4146SOL    HW124071   1.237   2.180  11.967 -1.5035  4.2363  1.5015
 4146SOL    HW224072   1.226   2.314  11.915  0.5155 -0.0774  1.0889
 4147SOL     OW24073   3.531   1.563   0.211  0.7678 -0.1526 -0.0340
 4147SOL    HW124074   3.575   1.492   0.258 -1.6128 -2.2248 -0.9793
 4147SOL    HW224075   3.455   1.524   0.168  0.1744 -2.5644  3.2411
 4148SOL     OW24076   4.577   2.099   4.505 -0.1035  0.3412  0.2387
 4148SOL    HW124077   4.533   2.077   4.423  0.6748  2.1397 -0.6521
 4148SOL    HW224078   4.650   2.038   4.504 -0.2670  0.1647 -0.6481
 4149SOL     OW24079   3.765   3.714   2.687 -0.3171 -0.4374  0.0393
 4149SOL    HW124080   3.779   3.698   2.594  1.8668  1.8690 -0.0270
 4149SOL    HW224081   3.673   3.688   2.697 -0.8632  1.2416 -0.5067
 4150SOL     OW24082   1.824   0.580   4.082 -0.2036 -0.0801  0.1673
 4150SOL    HW124083   1.907   0.607   4.041 -1.0653 -2.2005 -2.9793
 4150SOL    HW224084   1.753   0.611   4.026 -1.1591 -1.7790  0.4265
 4151SOL     OW24085   0.537   3.045  11.996  0.1799 -0.0079 -0.5535
 4151SOL    HW124086   0.521   3.106  11.924 -0.4631  2.7302  1.9106
 4151SOL    HW224087   0.575   2.967  11.955 -1.0899 -1.7802  1.6547
 4152SOL     OW24088   0.658   4.289   1.879  0.2697 -0.7266 -0.3388
 4152SOL    HW124089   0.691   4.215   1.828  1.3724 -1.6035  1.6677
 4152SOL    HW224090   0.623   4.243   1.956  3.1976 -0.4988  1.1069
 4153SOL     OW24091   4.367   1.722   8.980 -0.4157 -0.0559 -0.1318
 4153SOL    HW124092   4.323   1.744   8.898 -0.5436 -3.0080 -0.8413
 4153SOL    HW224093   4.385   1.632   8.955 -1.3696  0.1649 -1.5935
 4154SOL     OW24094   3.453   4.361  16.415  0.2575 -0.1090  0.1076
 4154SOL    HW124095   3.372   4.312  16.430 -1.1338  2.1222 -0.2001
 4154SOL    HW224096   3.503   4.316  16.484 -2.1401 -1.1157  1.1939
 4155SOL     OW24097   1.591   3.836   6.900 -0.3816  0.5856 -0.5899
 4155SOL    HW124098   1.574   3.793   6.984 -0.3738 -0.9988 -1.3937
 4155SOL    HW224099   1.644   3.911   6.924  1.5528 -1.5547  1.7687
 4156SOL     OW24100   4.333   2.736   5.755  0.2394  0.0627 -0.1803
 4156SOL    HW124101   4.332   2.688   5.672 -1.7163  2.1352 -1.3605
 4156SOL    HW224102   4.421   2.711   5.782  0.3735  0.5698 -0.1622
 4157SOL     OW24103   3.397   0.382   9.328  0.1172 -0.4135  0.5427
 4157SOL    HW124104   3.486   0.383   9.365 -0.1706 -1.8169  1.2633
 4157SOL    HW224105   3.348   0.405   9.407  1.9979 -0.9802  1.8843
 4158SOL     OW24106   2.985   0.853   3.928 -0.1068 -0.2607  0.0239
 4158SOL    HW124107   3.014   0.847   4.019  1.3174  0.8522 -0.3708
 4158SOL    HW224108   3.064   0.871   3.878  0.4492 -0.8122  0.7162
 4159SOL     OW24109   1.983   4.644   5.504 -0.3443  0.2067  0.7696
 4159SOL    HW124110   2.025   4.628   5.589 -2.0767  2.0764  2.0101
 4159SOL    HW224111   1.977   4.556   5.467 -0.3005 -0.2438  1.8256
 4160SOL     OW24112   1.279   1.371   6.992  0.2174 -0.4514 -0.7363
 4160SOL    HW124113   1.231   1.363   6.910 -1.9496 -0.1645  0.5202
 4160SOL    HW224114   1.277   1.466   6.979  3.2389 -0.2043  0.5177
 4161SOL     OW24115   2.518   4.059   0.158  0.2013  0.6572 -0.6147
 4161SOL    HW124116   2.485   4.120   0.224  0.7247 -0.4945  0.6997
 4161SOL    HW224117   2.465   4.087   0.084 -0.8272  0.7190  0.1536
 4162SOL     OW24118   2.989   2.199  14.423 -0.1549 -0.2099 -0.4434
 4162SOL    HW124119   2.935   2.242  14.357  0.6753  0.8029 -0.4638
 4162SOL    HW224120   3.006   2.279  14.472 -0.8411 -0.5927  0.4092
 4163SOL     OW24121   4.061   0.604   2.717 -0.4037 -0.7886 -0.9093
 4163SOL    HW124122   3.980   0.647   2.744 -0.0918  1.4344 -3.5298
 4163SOL    HW224123   4.026   0.547   2.649 -1.0688  0.8627 -1.9402
 4164SOL     OW24124   2.945   1.558   7.306 -0.1827 -0.3019 -0.1546
 4164SOL    HW124125   2.965   1.498   7.234 -2.6931 -1.6008  0.2027
 4164SOL    HW224126   2.909   1.631   7.257  2.3079  0.7407 -0.4280
 4165SOL     OW24127   4.501   3.024   8.952 -0.1852  0.8490  0.4424
 4165SOL    HW124128   4.471   2.948   8.902  1.6029  0.6963 -0.3887
 4165SOL    HW224129   4.545   2.979   9.025  0.4805 -0.9030 -1.0490
 4166SOL     OW24130   3.567   1.324  11.673 -0.4361 -0.3934  0.5287
 4166SOL    HW124131   3.532   1.289  11.591  3.0493 -0.3269 -1.0034
 4166SOL    HW224132   3.607   1.244  11.708  0.7124 -0.3896 -0.7986
 4167SOL     OW24133   3.923   2.370   9.402 -0.1323  0.0884  0.1735
 4167SOL    HW124134   3.836   2.357   9.440 -0.6887  3.9529  0.1912
 4167SOL    HW224135   3.906   2.449   9.352 -2.3534 -0.5267 -0.0487
 4168SOL     OW24136   2.034   0.293   6.216 -0.2032  0.0788 -0.0952
 4168SOL    HW124137   2.035   0.288   6.121 -0.7335  1.0603 -0.1542
 4168SOL    HW224138   2.001   0.203   6.222  1.1488 -0.3029  1.7838
 4169SOL     OW24139   4.557   3.065   4.809  0.5643 -0.2799 -0.0764
 4169SOL    HW124140   4.633   3.015   4.779  0.8178 -0.4244  0.8110
 4169SOL    HW224141   4.515   2.998   4.863  0.8842 -2.2789 -2.3191
 4170SOL     OW24142   4.734   3.800   9.296  0.1005 -0.2705 -0.0529
 4170SOL    HW124143   4.719   3.889   9.328  1.1164 -0.1130 -0.0109
 4170SOL    HW224144   4.676   3.743   9.347 -0.1347  0.6153  0.6685
 4171SOL     OW24145   1.530   2.400   4.019 -0.6413  0.0736 -0.2137
 4171SOL    HW124146   1.484   2.461   4.077 -3.0065 -0.4794 -1.4901
 4171SOL    HW224147   1.458   2.356   3.973 -1.0763  1.2553 -0.6827
 4172SOL     OW24148   3.365   1.758   3.783  0.4936 -0.0748  0.0789
 4172SOL    HW124149   3.456   1.735   3.760 -0.0522 -2.0310 -0.1101
 4172SOL    HW224150   3.342   1.691   3.847 -0.3452  1.0074  0.8744
 4173SOL     OW24151   4.011   4.181   9.497 -0.2117 -1.1833  0.9433
 4173SOL    HW124152   4.016   4.110   9.432 -1.9070  1.6976 -2.3383
 4173SOL    HW224153   4.089   4.173   9.551  0.2293  0.2735  0.5202
 4174SOL     OW24154   2.743   0.995  15.814 -0.1677 -0.3290 -0.1077
 4174SOL    HW124155   2.664   0.946  15.836 -0.2453 -0.1343  0.0483
 4174SOL    HW224156   2.718   1.048  15.738 -0.5813  1.2581  1.1465
 4175SOL     OW24157   0.417   2.331   3.254  0.1766 -0.0184 -0.0904
 4175SOL    HW124158   0.493   2.295   3.300 -0.8615 -2.0342  0.0616
 4175SOL    HW224159   0.432   2.425   3.265 -1.0014  0.1544 -0.0280
 4176SOL     OW24160   4.715   2.307   3.462  0.4769 -0.3742 -0.5494
 4176SOL    HW124161   0.006   2.384   3.510  0.7769 -0.1634 -1.0664
 4176SOL    HW224162   0.030   2.237   3.501 -1.0973 -1.1215  0.2309
 4177SOL     OW24163   2.630   2.278  14.594  0.1980  0.3650  0.7212
 4177SOL    HW124164   2.695   2.316  14.534  0.8928  0.8020  1.7362
 4177SOL    HW224165   2.684   2.218  14.645 -0.7266 -0.5950  0.5611
 4178SOL     OW24166   1.830   4.075   7.658 -0.0085  0.5403 -0.3723
 4178SOL    HW124167   1.818   4.052   7.751  3.4837 -1.2878 -0.3907
 4178SOL    HW224168   1.776   4.154   7.655 -0.6367  0.1552  0.7763
 4179SOL     OW24169   3.986   1.089   7.461  0.2717  0.1789  0.1184
 4179SOL    HW124170   3.941   1.014   7.500 -2.1824  0.9623 -1.1657
 4179SOL    HW224171   4.071   1.046   7.467 -0.1451 -0.6901 -0.2391
 4180SOL     OW24172   0.766   0.148   7.615  0.2943  0.1099  0.4858
 4180SOL    HW124173   0.786   0.115   7.703  0.1690 -0.7586  0.1796
 4180SOL    HW224174   0.759   0.068   7.564  4.5853  0.7377 -1.0908
 4181SOL     OW24175   2.711   2.538   1.449  0.8126 -0.2701 -0.0946
 4181SOL    HW124176   2.701   2.462   1.392  0.6996 -0.7485  0.5621
 4181SOL    HW224177   2.650   2.509   1.517  0.4557 -0.7685 -0.6303
 4182SOL     OW24178   4.286   1.911  15.296  0.0557 -0.5537  0.3396
 4182SOL    HW124179   4.205   1.866  15.275 -0.8351  2.1138 -1.8776
 4182SOL    HW224180   4.316   1.938  15.210 -0.4937 -0.2173  0.2532
 4183SOL     OW24181   1.938   1.769   5.077 -0.4980 -0.0870 -0.1350
 4183SOL    HW124182   1.907   1.757   4.987  1.1928  1.3229 -0.8973
 4183SOL    HW224183   2.018   1.718   5.072 -1.8557 -1.9293 -3.1362
 4184SOL     OW24184   2.104   4.471   8.868  0.2732  0.0809 -0.0152
 4184SOL    HW124185   2.129   4.411   8.798  1.0282  1.4860 -0.9355
 4184SOL    HW224186   2.189   4.493   8.907  0.3951 -0.7413  0.1960
 4185SOL     OW24187   2.482   1.316  10.587 -0.2461 -0.0734 -0.4705
 4185SOL    HW124188   2.487   1.296  10.493  1.8498 -0.7141 -0.2304
 4185SOL    HW224189   2.574   1.335  10.605 -0.2954 -0.9453  0.6722
 4186SOL     OW24190   2.326   2.487   5.767  0.0125 -0.0498 -0.0518
 4186SOL    HW124191   2.287   2.503   5.681  0.4130 -1.6835 -0.5342
 4186SOL    HW224192   2.253   2.470   5.827 -1.2633  0.2956 -1.5214
 4187SOL     OW24193   0.945   1.833   2.996  0.4059  0.2469 -0.5591
 4187SOL    HW124194   0.868   1.868   2.950  0.3353  1.5293  0.5477
 4187SOL    HW224195   1.009   1.902   2.978  0.8378 -0.1192 -0.4082
 4188SOL     OW24196   1.810   0.952  14.035 -0.0160 -0.4108  0.7011
 4188SOL    HW124197   1.878   0.989  13.979 -0.9295 -0.5608 -0.5172
 4188SOL    HW224198   1.863   0.915  14.105 -0.7760  0.4255  1.7254
 4189SOL     OW24199   0.343   0.997   6.445 -0.2428 -0.0290 -0.3852
 4189SOL    HW124200   0.347   1.075   6.390  0.0659  0.9480  0.9971
 4189SOL    HW224201   0.370   1.028   6.532  0.9764  0.9014 -1.1080
 4190SOL     OW24202   0.278   1.751  12.519  0.2870  0.2263  0.2808
 4190SOL    HW124203   0.328   1.826  12.487  1.1937 -0.6561 -0.3798
 4190SOL    HW224204   0.203   1.747  12.460  0.2969 -1.2138  0.3562
 4191SOL     OW24205   3.361   2.868  10.031 -0.2543  0.2084  0.0439
 4191SOL    HW124206   3.435   2.822  10.069 -0.5071  0.3195  0.6665
 4191SOL    HW224207   3.339   2.928  10.103 -0.0990 -0.4850  0.6680
 4192SOL     OW24208   4.040   3.011   3.110 -0.1444  0.1731  0.2210
 4192SOL    HW124209   4.046   2.955   3.033  2.4368 -0.2280  0.6955
 4192SOL    HW224210   4.093   3.085   3.079  1.0874 -0.3050  1.1480
 4193SOL     OW24211   2.387   0.043   1.015 -0.8987  0.3687 -0.3578
 4193SOL    HW124212   2.453   0.021   0.949  0.7120  0.1412  1.3063
 4193SOL    HW224213   2.425   4.735   1.090  0.7901  0.7617 -0.9545
 4194SOL     OW24214   1.618   2.954   5.148 -0.0329  0.0580  0.4975
 4194SOL    HW124215   1.679   2.920   5.212  1.4877 -0.6897 -1.3579
 4194SOL    HW224216   1.679   2.995   5.087  0.2842  3.0778  2.8578
 4195SOL     OW24217   4.461   3.508   8.415  0.4619  0.3892  0.3057
 4195SOL    HW124218   4.395   3.447   8.446 -0.9981  2.5704  1.4748
 4195SOL    HW224219   4.545   3.475   8.448  0.8002 -0.3804 -1.3300
 4196SOL     OW24220   0.857   3.851   4.340  0.5961 -0.5897 -0.4461
 4196SOL    HW124221   0.902   3.828   4.259  1.8884 -0.2600  0.1803
 4196SOL    HW224222   0.805   3.772   4.361  1.6821 -0.3355  3.2309
 4197SOL     OW24223   4.221   2.507   2.257  0.0169  0.7104 -0.6515
 4197SOL    HW124224   4.208   2.597   2.226  1.0053  0.8975 -0.5407
 4197SOL    HW224225   4.317   2.507   2.258  0.0196  2.5138 -0.7140
 4198SOL     OW24226   1.773   3.474   4.457 -0.1257 -0.4469  0.4966
 4198SOL    HW124227   1.850   3.466   4.400  0.3267 -2.6786  1.4277
 4198SOL    HW224228   1.735   3.387   4.443 -0.3742 -0.1977 -0.4164
 4199SOL     OW24229   2.638   2.541   9.497  0.6124  0.1951 -0.0023
 4199SOL    HW124230   2.586   2.618   9.475 -1.3275 -0.4946  2.1906
 4199SOL    HW224231   2.724   2.582   9.510  0.3695  0.9980 -0.9110
 4200SOL     OW24232   3.875   4.036   4.048 -0.4946 -0.7774  0.2532
 4200SOL    HW124233   3.965   4.039   4.013 -1.2728 -2.8003 -1.9070
 4200SOL    HW224234   3.818   4.023   3.972  1.2233 -0.8691 -1.0471
 4201SOL     OW24235   1.575   4.454   1.943 -0.6570  0.3437  0.0310
 4201SOL    HW124236   1.567   4.550   1.945 -1.1469  0.2506  2.6433
 4201SOL    HW224237   1.539   4.425   1.859 -1.0839 -0.4682  0.4986
 4202SOL     OW24238   0.804   3.313  17.255 -0.1297  1.0631 -0.1144
 4202SOL    HW124239   0.810   3.353  17.169  0.0074  0.8136 -0.2195
 4202SOL    HW224240   0.834   3.223  17.240 -1.1788  0.5450  0.7995
 4203SOL     OW24241   3.079   1.312   9.791  0.7488 -0.0785  0.9137
 4203SOL    HW124242   3.102   1.229   9.749  0.6215  0.7439 -0.8128
 4203SOL    HW224243   3.160   1.328   9.839  2.2684  1.6650 -2.2447
 4204SOL     OW24244   3.083   1.079   6.565 -0.8520 -0.7400 -0.2558
 4204SOL    HW124245   3.044   1.148   6.619  0.0522 -0.9059  0.6106
 4204SOL    HW224246   3.158   1.130   6.533  0.0767 -1.2418  1.1451
 4205SOL     OW24247   1.950   3.435   4.239  0.6762  0.1643  0.2700
 4205SOL    HW124248   1.943   3.379   4.162  0.6843  0.0701  0.3376
 4205SOL    HW224249   1.995   3.510   4.201 -0.2251  1.2882  1.4029
 4206SOL     OW24250   0.130   1.655   2.656  0.5775  0.0551 -0.6665
 4206SOL    HW124251   0.117   1.684   2.566  0.7339 -0.2623 -0.7900
 4206SOL    HW224252   0.222   1.630   2.652  0.6300 -0.1048  1.3503
 4207SOL     OW24253   2.488   0.156   7.250 -0.3839 -0.0764  0.0379
 4207SOL    HW124254   2.508   0.191   7.163  1.1851  1.2907  0.9388
 4207SOL    HW224255   2.554   0.086   7.246 -1.2899 -0.8702 -1.1226
 4208SOL     OW24256   1.164   4.049  10.485  0.4511  0.3261  0.1619
 4208SOL    HW124257   1.152   3.981  10.419  0.0543  0.1473  0.4192
 4208SOL    HW224258   1.118   4.005  10.555 -1.5432 -0.1305 -1.4407
 4209SOL     OW24259   0.289   3.093   7.060 -0.0983  0.5321  0.4253
 4209SOL    HW124260   0.216   3.138   7.018 -0.9385  1.0988  2.4467
 4209SOL    HW224261   0.239   3.013   7.078  0.2753 -0.0987 -1.4112
 4210SOL     OW24262   3.825   0.530   7.633 -0.2892  0.0347 -0.3950
 4210SOL    HW124263   3.869   0.561   7.712  0.5268 -0.4446 -0.6648
 4210SOL    HW224264   3.898   0.498   7.581 -0.1534  0.5273 -0.5063
 4211SOL     OW24265   2.466   2.467   4.405 -0.3104 -0.2409  0.2276
 4211SOL    HW124266   2.549   2.512   4.393 -1.1007  1.1409 -0.1660
 4211SOL    HW224267   2.467   2.405   4.332 -3.3123  0.7844 -0.7094
 4212SOL     OW24268   0.056   4.402  13.526  0.3261 -0.5174 -0.4773
 4212SOL    HW124269   0.090   4.459  13.457  0.6895 -0.3750 -0.1755
 4212SOL    HW224270   0.103   4.436  13.601  0.1500 -1.2310 -0.0408
 4213SOL     OW24271   3.731   3.143   9.845  0.4345  0.3753  0.4621
 4213SOL    HW124272   3.726   3.185   9.759  0.5274  2.2271  1.3592
 4213SOL    HW224273   3.679   3.198   9.903 -2.7037 -1.4562 -0.5864
 4214SOL     OW24274   0.531   2.024  17.730 -0.4492 -0.4828  0.2768
 4214SOL    HW124275   0.450   1.990  17.690 -1.1263  1.6433 -0.1543
 4214SOL    HW224276   0.580   1.947   0.011 -0.7801  0.0735  2.2134
 4215SOL     OW24277   2.164   1.676   7.620 -0.4396 -0.3906 -0.0385
 4215SOL    HW124278   2.099   1.608   7.603 -0.3623 -0.6644  0.7992
 4215SOL    HW224279   2.119   1.743   7.671  0.3012  0.4512 -0.4797
 4216SOL     OW24280   1.147   3.933   4.437  0.1085  0.3404 -0.0813
 4216SOL    HW124281   1.052   3.920   4.430  0.0165  1.9960 -1.7850
 4216SOL    HW224282   1.179   3.919   4.348  2.5740  0.9017  0.7247
 4217SOL     OW24283   0.587   3.941   7.484 -0.4691 -0.3052 -0.3684
 4217SOL    HW124284   0.679   3.935   7.456 -0.1703 -0.0685  0.5492
 4217SOL    HW224285   0.545   3.993   7.416  0.0641  2.6648  1.5583
 4218SOL     OW24286   1.872   0.104   5.261  0.0697  0.2822 -0.0689
 4218SOL    HW124287   1.841   0.146   5.342 -0.5193  2.8982 -1.6611
 4218SOL    HW224288   1.938   0.041   5.290 -0.6336  0.6720  2.3529
 4219SOL     OW24289   4.150   0.060   2.252 -0.1817 -0.6104 -0.1687
 4219SOL    HW124290   4.113   4.719   2.213 -2.0396 -0.0771  0.4802
 4219SOL    HW224291   4.229   0.013   2.278  0.7619  0.1000 -1.7549
 4220SOL     OW24292   3.599   4.699   7.890  0.4664  0.2118  0.4275
 4220SOL    HW124293   3.609   0.014   7.811 -2.3866 -1.5586 -1.0800
 4220SOL    HW224294   3.521   4.647   7.873  0.1182  0.8631  0.0425
 4221SOL     OW24295   0.758   2.720   9.916 -0.1851 -0.4716  0.0677
 4221SOL    HW124296   0.693   2.749   9.853  0.4957  0.2211 -0.3155
 4221SOL    HW224297   0.828   2.685   9.861  0.6164  0.4402  0.5106
 4222SOL     OW24298   0.952   3.166   1.452  0.7196 -0.5209 -0.1226
 4222SOL    HW124299   0.980   3.164   1.543  0.7148 -0.2702 -0.1179
 4222SOL    HW224300   0.897   3.088   1.440 -0.3541  0.2965 -0.4603
 4223SOL     OW24301   2.450   3.879   6.699 -0.1502 -0.5280 -0.9149
 4223SOL    HW124302   2.359   3.896   6.674 -0.2142  1.5840  0.7977
 4223SOL    HW224303   2.456   3.788   6.670 -1.1034 -0.8560 -0.0841
 4224SOL     OW24304   4.695   4.671  10.276  0.4250 -0.1444  0.2935
 4224SOL    HW124305   4.703   4.635  10.364  2.6279  1.7721  0.8951
 4224SOL    HW224306   4.611   4.640  10.244  0.4698  0.4671 -0.4343
 4225SOL     OW24307   3.630   1.522   1.958  0.0506 -0.2815  0.1507
 4225SOL    HW124308   3.660   1.588   1.897  1.2770 -1.8250 -0.9170
 4225SOL    HW224309   3.634   1.436   1.916 -1.5026 -0.1262 -0.3070
 4226SOL     OW24310   3.734   1.641   7.255 -0.0325  0.2161  0.4552
 4226SOL    HW124311   3.749   1.547   7.257  3.4664  0.7584 -1.5255
 4226SOL    HW224312   3.664   1.656   7.319 -1.2700 -3.3784 -0.0505
 4227SOL     OW24313   0.916   0.626   1.298 -0.3151  0.0996  0.0377
 4227SOL    HW124314   0.845   0.681   1.264 -0.8015 -0.8023 -0.3933
 4227SOL    HW224315   0.863   0.549   1.320  2.1245 -1.0944  1.7622
 4228SOL     OW24316   2.831   2.322   0.897  0.3788  0.2596  0.7558
 4228SOL    HW124317   2.890   2.285   0.831  0.4901 -1.2150  1.7007
 4228SOL    HW224318   2.809   2.405   0.853 -2.0532 -1.0956 -0.5524
 4229SOL     OW24319   2.619   4.619   0.903  0.0379  0.4505  0.4434
 4229SOL    HW124320   2.672   4.578   0.971  0.1077  0.4564  0.3924
 4229SOL    HW224321   2.687   4.659   0.849 -1.0555 -0.4226 -1.6315
 4230SOL     OW24322   0.798   1.368   6.626  0.1857 -0.2615 -0.0322
 4230SOL    HW124323   0.866   1.341   6.565  1.3781  0.1781  1.0975
 4230SOL    HW224324   0.851   1.433   6.673 -3.9382  1.5720  2.1363
 4231SOL     OW24325   4.201   2.859   5.046  0.1733 -0.2034 -0.4713
 4231SOL    HW124326   4.138   2.789   5.066  3.2619 -2.0045  3.0258
 4231SOL    HW224327   4.147   2.917   4.993  0.9531 -0.7679 -1.8634
 4232SOL     OW24328   1.079   2.709   7.618  0.5693 -0.3853 -0.1616
 4232SOL    HW124329   1.165   2.747   7.604  0.3912  0.0577 -0.0528
 4232SOL    HW224330   1.037   2.782   7.664 -1.7509 -0.2313 -2.5157
 4233SOL     OW24331   4.453   4.309   4.967 -0.4891  0.0378  0.9797
 4233SOL    HW124332   4.527   4.316   4.907  0.3291  0.3455  2.0272
 4233SOL    HW224333   4.492   4.338   5.050  0.8402 -1.5813  0.9215
 4234SOL     OW24334   4.449   2.218  12.158 -0.1540 -0.1844 -0.5433
 4234SOL    HW124335   4.441   2.280  12.230 -0.7945  0.2068 -0.9541
 4234SOL    HW224336   4.356   2.202  12.141 -0.5143  0.6648  0.6273
 4235SOL     OW24337   1.557   1.097   6.630 -0.0253 -0.0011  0.0446
 4235SOL    HW124338   1.539   1.029   6.695  2.0131  0.0360  0.6435
 4235SOL    HW224339   1.476   1.113   6.581 -0.4654  1.6342  1.3128
 4236SOL     OW24340   0.832   4.573  17.323  0.2114  0.5209  0.7888
 4236SOL    HW124341   0.884   4.539  17.395  1.0029  0.9386  0.4147
 4236SOL    HW224342   0.898   4.616  17.268  1.4406 -2.5879 -0.1865
 4237SOL     OW24343   3.496   1.998   7.355 -0.1850 -0.4262 -0.0249
 4237SOL    HW124344   3.529   2.036   7.273 -0.3448  1.0208  0.5824
 4237SOL    HW224345   3.453   1.922   7.316 -0.6422  0.2722 -0.8747
 4238SOL     OW24346   2.467   1.377   7.162 -0.1658 -0.6360  0.0322
 4238SOL    HW124347   2.393   1.330   7.126 -0.2120  0.8730 -1.8193
 4238SOL    HW224348   2.409   1.407   7.232  0.7772 -2.7379  1.7270
 4239SOL     OW24349   2.514   1.305   3.866  0.0562  0.5572  0.2645
 4239SOL    HW124350   2.499   1.381   3.809 -0.3889  1.5466  1.7055
 4239SOL    HW224351   2.603   1.273   3.847 -1.0925 -2.4607  0.0425
 4240SOL     OW24352   4.096   3.260   3.850  0.3129 -0.0397  0.5140
 4240SOL    HW124353   4.017   3.207   3.847  0.0637  0.3587 -0.0497
 4240SOL    HW224354   4.158   3.206   3.899  0.8113  0.9302  0.9658
 4241SOL     OW24355   0.059   0.866   8.064  0.5070  0.0956  0.0395
 4241SOL    HW124356   0.070   0.956   8.031  2.1463 -0.6048 -1.3236
 4241SOL    HW224357   0.057   0.883   8.158  0.4576 -1.2904  0.2862
 4242SOL     OW24358   3.920   0.996   1.609  0.0929 -0.5580 -0.3237
 4242SOL    HW124359   3.898   0.943   1.685  0.5091 -0.1011  0.1085
 4242SOL    HW224360   3.848   1.059   1.608  1.7509  1.3479  1.5014
 4243SOL     OW24361   0.467   1.642   9.252  0.2806 -0.0051  0.2862
 4243SOL    HW124362   0.453   1.723   9.202  0.3124 -1.0912 -1.4842
 4243SOL    HW224363   0.518   1.589   9.191 -0.0245  0.7223 -0.5927
 4244SOL     OW24364   0.582   1.750   1.718  1.0641 -0.2892  0.0122
 4244SOL    HW124365   0.662   1.799   1.699  1.0092  0.8681  2.7316
 4244SOL    HW224366   0.524   1.825   1.713  2.0031  0.3053 -1.7900
 4245SOL     OW24367   0.427   1.147   3.361  1.1675  0.7015 -0.5961
 4245SOL    HW124368   0.350   1.122   3.309  0.6940 -1.0521  0.9405
 4245SOL    HW224369   0.386   1.150   3.448  1.0940  1.1499 -0.6483
 4246SOL     OW24370   3.160   1.741  11.310 -0.3198  0.3363 -0.0447
 4246SOL    HW124371   3.240   1.689  11.314  1.2538  2.6964 -0.9104
 4246SOL    HW224372   3.108   1.662  11.321  1.1630 -0.7305 -0.6421
 4247SOL     OW24373   2.037   3.796   5.925  0.3012 -0.3312 -0.3493
 4247SOL    HW124374   2.109   3.794   5.988  1.1283 -0.2480 -1.2889
 4247SOL    HW224375   2.002   3.884   5.941 -1.2936 -1.0966  0.3761
 4248SOL     OW24376   3.541   0.714   3.957  0.1423  0.2154  0.1700
 4248SOL    HW124377   3.487   0.766   4.015 -2.1165 -4.7806  2.5607
 4248SOL    HW224378   3.628   0.730   3.993  0.7681 -1.8158 -0.4309
 4249SOL     OW24379   3.474   0.095   3.890 -0.0833 -0.2048  0.8070
 4249SOL    HW124380   3.411   0.098   3.819 -0.4902 -1.3817  1.1244
 4249SOL    HW224381   3.561   0.095   3.850 -1.2908 -0.4480 -1.8122
 4250SOL     OW24382   2.202   2.769   4.242 -0.0232  0.5459  0.4587
 4250SOL    HW124383   2.146   2.820   4.301 -0.9405 -0.4578  0.4572
 4250SOL    HW224384   2.139   2.746   4.174 -4.4701  1.4213  4.1973
 4251SOL     OW24385   3.511   1.580   6.137  0.3730  0.0113 -0.5468
 4251SOL    HW124386   3.509   1.616   6.226 -1.4032 -1.0207 -0.1616
 4251SOL    HW224387   3.464   1.653   6.096  0.6522  0.5997  0.1685
 4252SOL     OW24388   0.331   0.603  17.189 -0.2274 -1.1168 -0.1819
 4252SOL    HW124389   0.318   0.629  17.098  2.9340  0.2302 -0.2358
 4252SOL    HW224390   0.300   0.686  17.225 -0.3166 -0.9729 -0.5947
 4253SOL     OW24391   2.850   1.264   9.632  0.4913  0.6445  0.2293
 4253SOL    HW124392   2.925   1.295   9.683 -0.2453  0.9651  1.1150
 4253SOL    HW224393   2.885   1.233   9.548 -1.6181 -0.8896 -0.0960
 4254SOL     OW24394   0.977   0.887   1.181 -0.6996  0.1261 -0.8440
 4254SOL    HW124395   0.890   0.849   1.169 -1.0842  0.4999  0.6770
 4254SOL    HW224396   0.966   0.906   1.274 -1.9570  2.0322 -1.3837
 4255SOL     OW24397   3.795   4.434  10.339  0.4060 -0.4838  0.3375
 4255SOL    HW124398   3.875   4.434  10.392  0.7945 -0.7989 -0.2498
 4255SOL    HW224399   3.766   4.525  10.343 -1.4293 -1.0708  0.1407
 4256SOL     OW24400   0.927   4.499   6.925 -0.2556  0.1619  0.1597
 4256SOL    HW124401   0.973   4.541   6.998  1.3340 -1.4664  0.0810
 4256SOL    HW224402   0.944   4.558   6.851  2.0337  1.3668  1.6410
 4257SOL     OW24403   0.994   1.875   6.098 -0.1855  0.2423  0.8366
 4257SOL    HW124404   0.928   1.835   6.041  0.4814  0.8179 -0.3532
 4257SOL    HW224405   0.962   1.849   6.184  0.5717 -2.0742  0.4243
 4258SOL     OW24406   3.674   4.571  14.466 -0.0306  0.5783  0.0125
 4258SOL    HW124407   3.730   4.527  14.401  0.6516 -2.0024  2.3561
 4258SOL    HW224408   3.618   4.496  14.485  0.3738  0.3701  0.3886
 4259SOL     OW24409   2.092   2.446  17.156  0.2043 -0.0546  0.1976
 4259SOL    HW124410   2.118   2.423  17.067 -3.7979 -0.8169 -0.7951
 4259SOL    HW224411   2.103   2.360  17.196 -2.8331 -0.4327  0.2267
 4260SOL     OW24412   3.190   0.309   1.851  0.1086  0.1663 -0.0928
 4260SOL    HW124413   3.138   0.230   1.867 -0.5406  0.7026  0.4039
 4260SOL    HW224414   3.276   0.269   1.838 -0.3323 -0.7063 -0.3102
 4261SOL     OW24415   2.810   3.048   7.645  0.6929  0.4818 -0.1846
 4261SOL    HW124416   2.886   3.106   7.641  0.6663  0.2771 -3.7066
 4261SOL    HW224417   2.808   3.029   7.738 -1.4485  0.9645 -0.1252
 4262SOL     OW24418   4.516   3.120  13.825  0.9103  1.0446  0.0207
 4262SOL    HW124419   4.591   3.151  13.876  0.9613 -1.7399  1.6863
 4262SOL    HW224420   4.469   3.080  13.899 -0.3714  0.8335 -0.9058
 4263SOL     OW24421   4.021   4.018   8.829 -0.1291  0.1266 -0.1399
 4263SOL    HW124422   4.072   3.938   8.839  1.0251  0.6675 -1.6366
 4263SOL    HW224423   3.938   3.986   8.866  0.6859 -0.6314  0.9983
 4264SOL     OW24424   2.877   0.111   4.839 -0.2568  0.0811  0.5638
 4264SOL    HW124425   2.837   0.173   4.900 -0.6002  1.0334 -0.6451
 4264SOL    HW224426   2.803   0.070   4.794 -0.6936 -1.0805  2.3591
 4265SOL     OW24427   1.542   3.163   2.144  0.2558  0.4992  0.5855
 4265SOL    HW124428   1.511   3.170   2.054  1.7032  0.0430  0.0493
 4265SOL    HW224429   1.547   3.067   2.151  0.7051  0.4987  0.2546
 4266SOL     OW24430   0.144   2.875   5.282  0.6270 -0.1647  0.7048
 4266SOL    HW124431   0.224   2.868   5.230  1.4133 -1.1136  2.0527
 4266SOL    HW224432   0.157   2.956   5.331  0.1093 -0.5036  1.3927
 4267SOL     OW24433   3.096   4.642   6.511 -0.1764 -0.0772 -0.2650
 4267SOL    HW124434   3.155   4.705   6.469  0.3392 -1.5813 -1.8078
 4267SOL    HW224435   3.153   4.567   6.528  0.1560  0.1565 -0.3522
 4268SOL     OW24436   4.673   2.482   8.165 -0.5835 -0.3354 -0.0317
 4268SOL    HW124437   4.724   2.448   8.239 -1.4404  1.3846  1.3480
 4268SOL    HW224438   4.600   2.420   8.161 -0.9775  0.1260 -0.0716
 4269SOL     OW24439   3.240   4.430  15.794 -0.1444  0.0281  0.9838
 4269SOL    HW124440   3.335   4.435  15.800 -0.1480  2.1136 -0.6542
 4269SOL    HW224441   3.233   4.467  15.706 -1.4613 -1.0589  0.6267
 4270SOL     OW24442   0.558   3.646   9.430 -0.1851 -0.3372 -0.0036
 4270SOL    HW124443   0.630   3.648   9.367 -0.2308  0.9477 -0.0224
 4270SOL    HW224444   0.570   3.731   9.472  1.3321 -1.4043  1.7412
 4271SOL     OW24445   0.530   3.813   3.886  0.1275  0.0516  0.3839
 4271SOL    HW124446   0.620   3.842   3.876 -0.1354  0.2187 -1.4350
 4271SOL    HW224447   0.488   3.864   3.817  0.9752  0.5453  0.2338
 4272SOL     OW24448   3.789   2.759   7.885  0.2150  0.0168 -0.3194
 4272SOL    HW124449   3.723   2.782   7.950  0.8275  0.7034  0.0543
 4272SOL    HW224450   3.870   2.782   7.930  0.4128 -0.8260 -0.2433
 4273SOL     OW24451   0.443   4.362   0.762 -0.6346  0.3658  0.0841
 4273SOL    HW124452   0.427   4.456   0.770  1.4881  0.7970 -0.5225
 4273SOL    HW224453   0.363   4.325   0.798 -0.9976 -0.3416 -1.4622
 4274SOL     OW24454   0.456   3.128   7.290 -0.2554  0.7561 -0.5051
 4274SOL    HW124455   0.447   3.219   7.316 -1.1417  0.6444 -0.4379
 4274SOL    HW224456   0.404   3.118   7.211 -2.0908  1.7547  0.5811
 4275SOL     OW24457   4.441   4.491   3.778  0.5000 -0.1276  0.3108
 4275SOL    HW124458   4.509   4.439   3.735 -1.1694 -1.4772 -0.7218
 4275SOL    HW224459   4.466   4.477   3.870  0.2917  1.3149  0.5833
 4276SOL     OW24460   4.008   3.973   8.020  0.0716 -0.1842  0.2265
 4276SOL    HW124461   3.962   3.891   8.040  2.4762 -1.6202 -0.1249
 4276SOL    HW224462   4.098   3.951   7.998 -0.3181 -0.4475 -1.0964
 4277SOL     OW24463   2.314   4.564   3.124  0.5216  0.4241  0.0905
 4277SOL    HW124464   2.329   4.479   3.165 -0.9035 -1.4014 -3.1893
 4277SOL    HW224465   2.301   4.531   3.035  3.1673  0.2913 -0.2498
 4278SOL     OW24466   1.946   0.600   5.363  0.0586 -0.4742 -0.6066
 4278SOL    HW124467   2.003   0.662   5.407  0.5014 -1.1546 -0.2260
 4278SOL    HW224468   1.914   0.543   5.433  2.2699 -0.3923  0.4734
 4279SOL     OW24469   3.402   1.054   6.763  0.3050 -0.0224  0.1284
 4279SOL    HW124470   3.477   1.027   6.815 -0.6946  0.2591  1.7240
 4279SOL    HW224471   3.369   1.126   6.817 -0.7448 -0.3029 -0.1249
 4280SOL     OW24472   2.044   3.251   4.413  0.1608  0.2146  0.2981
 4280SOL    HW124473   1.993   3.180   4.373  0.1772  1.1930 -1.4460
 4280SOL    HW224474   2.023   3.316   4.346 -2.4658 -1.7580 -0.8109
 4281SOL     OW24475   2.492   3.908   7.705  0.3839 -0.2417 -0.0782
 4281SOL    HW124476   2.562   3.895   7.769  0.5854  1.2601  0.0021
 4281SOL    HW224477   2.432   3.958   7.760  1.6404  1.3605 -0.1596
 4282SOL     OW24478   0.860   0.523   2.969  0.4614  0.4982 -0.0863
 4282SOL    HW124479   0.886   0.596   3.027 -0.5967  1.9877 -1.4895
 4282SOL    HW224480   0.856   0.575   2.889  1.0723  1.4674  0.5028
 4283SOL     OW24481   1.514   3.267   7.619  0.6811 -0.3274  0.0782
 4283SOL    HW124482   1.497   3.307   7.705  1.6116  0.9315 -0.3278
 4283SOL    HW224483   1.610   3.273   7.625  0.6991  0.5441 -1.0185
 4284SOL     OW24484   0.095   3.814   1.722  0.1305  0.1104  0.3432
 4284SOL    HW124485   0.188   3.821   1.700  0.0008  0.4821 -0.1115
 4284SOL    HW224486   0.056   3.878   1.662  0.9621  0.1568 -0.1477
 4285SOL     OW24487   3.367   2.512  17.309  0.3213 -0.1454  0.5827
 4285SOL    HW124488   3.272   2.500  17.303  0.3216 -0.7036  1.5699
 4285SOL    HW224489   3.375   2.507  17.405 -0.8622 -0.0240  0.6822
 4286SOL     OW24490   0.175   1.980   8.462  0.3670 -0.2778  0.2163
 4286SOL    HW124491   0.226   2.000   8.383  0.6065  1.8395  0.8854
 4286SOL    HW224492   0.113   2.053   8.471  0.6150  0.2956 -2.9465
 4287SOL     OW24493   4.556   2.025   6.936  0.1428 -0.1530 -0.5415
 4287SOL    HW124494   4.589   2.015   7.025 -0.8790  1.1144 -0.0336
 4287SOL    HW224495   4.536   1.932   6.925 -0.7325 -0.1230  0.8425
 4288SOL     OW24496   3.535   3.003   3.515 -0.7659  0.2389 -0.2839
 4288SOL    HW124497   3.445   2.975   3.498 -0.8659  1.7113 -2.1951
 4288SOL    HW224498   3.570   2.913   3.521  0.5975  0.8164  0.4581
 4289SOL     OW24499   3.648   2.443   6.392  0.3733 -0.0109  0.6589
 4289SOL    HW124500   3.559   2.476   6.381  0.7341  0.1357 -1.9170
 4289SOL    HW224501   3.685   2.444   6.304 -2.5108  0.6302 -0.5571
 4290SOL     OW24502   0.908   2.211   8.506 -0.1571 -0.5524  0.0798
 4290SOL    HW124503   0.836   2.204   8.569 -0.7739 -0.1614 -0.5794
 4290SOL    HW224504   0.938   2.120   8.509  0.2298 -0.3535  1.9741
 4291SOL     OW24505   3.075   4.519   0.381  0.0081 -0.5001  0.3256
 4291SOL    HW124506   3.066   4.450   0.315  1.4560 -0.1230 -0.2435
 4291SOL    HW224507   3.168   4.538   0.371 -0.0005 -0.8925 -0.5461
 4292SOL     OW24508   1.024   0.823   8.638  0.2578 -0.0372  0.0804
 4292SOL    HW124509   1.089   0.760   8.607  0.2240 -0.4531  0.8464
 4292SOL    HW224510   1.016   0.880   8.562  2.3430 -0.8632 -0.7543
 4293SOL     OW24511   2.464   1.011  16.389  0.3085 -0.0357 -0.2690
 4293SOL    HW124512   2.474   0.942  16.455  1.5138  0.1491 -0.2497
 4293SOL    HW224513   2.556   1.031  16.371  0.1008  0.2906 -0.9793
 4294SOL     OW24514   0.161   1.872  16.350 -0.0080 -0.2482 -0.7811
 4294SOL    HW124515   0.080   1.870  16.299 -0.5531  0.9783  0.0274
 4294SOL    HW224516   0.223   1.815  16.304  1.4684 -0.8394  1.9142
 4295SOL     OW24517   1.368   4.531   1.100  0.2564 -0.3312 -0.3891
 4295SOL    HW124518   1.450   4.489   1.073 -0.1342  1.0794 -3.7016
 4295SOL    HW224519   1.366   4.496   1.190  0.9210  0.5986 -0.0141
 4296SOL     OW24520   2.479   4.667  17.089  0.1485  0.1159 -0.5963
 4296SOL    HW124521   2.565   4.625  17.086 -0.8902 -1.9311 -2.0548
 4296SOL    HW224522   2.506   0.019  17.072 -1.1565  0.5228 -0.5613
 4297SOL     OW24523   2.163   0.706   9.521  0.4375  0.1292  0.8637
 4297SOL    HW124524   2.178   0.800   9.508 -0.1610 -0.0435 -1.0578
 4297SOL    HW224525   2.216   0.680   9.446 -2.4618  0.8621 -1.4126
 4298SOL     OW24526   0.780   4.078   9.238 -1.0100  0.3274  0.0754
 4298SOL    HW124527   0.705   4.036   9.280  0.9623 -1.8127  1.4684
 4298SOL    HW224528   0.845   4.076   9.308 -0.5983 -0.8967 -0.3437
 4299SOL     OW24529   1.056   3.792  17.436 -0.1143  0.1245 -0.0831
 4299SOL    HW124530   1.109   3.863  17.402 -0.1950 -1.0480 -2.6798
 4299SOL    HW224531   1.036   3.742  17.357  0.0450  1.0508 -0.7028
 4300SOL     OW24532   2.879   4.280   8.485  0.4863  0.0653 -0.4365
 4300SOL    HW124533   2.784   4.291   8.477  0.0539 -1.9453  1.9810
 4300SOL    HW224534   2.913   4.301   8.398 -2.0163 -0.5044 -1.5671
 4301SOL     OW24535   3.352   0.088   8.164  0.5452 -0.0879  0.3126
 4301SOL    HW124536   3.263   0.055   8.173  0.5631 -0.0946  0.4686
 4301SOL    HW224537   3.358   0.130   8.250 -0.1923  1.0419 -0.1823
 4302SOL     OW24538   3.110   1.966   5.922 -0.5561 -0.0320  0.0182
 4302SOL    HW124539   3.092   1.930   6.009 -1.6261  2.2622  0.7561
 4302SOL    HW224540   3.045   2.033   5.903 -1.2322 -0.2766  1.5348
 4303SOL     OW24541   4.100   0.368   8.921  0.5670 -0.3490  0.3366
 4303SOL    HW124542   4.132   0.296   8.866  1.0107  1.5915 -1.9251
 4303SOL    HW224543   4.074   0.315   8.996  0.5549  1.0835  1.3416
 4304SOL     OW24544   3.292   0.475   9.554  0.6350 -0.4565  0.1535
 4304SOL    HW124545   3.303   0.563   9.591  0.1241 -0.9833  1.5743
 4304SOL    HW224546   3.297   0.430   9.639  1.8987 -1.3166 -0.3883
 4305SOL     OW24547   0.469   2.822   2.011 -0.5661 -0.2679 -0.5062
 4305SOL    HW124548   0.534   2.873   2.059 -0.5968  0.0815 -0.8347
 4305SOL    HW224549   0.491   2.730   2.027  0.3735 -0.5091 -3.2626
 4306SOL     OW24550   4.341   0.481   8.649  0.5542 -0.5238 -0.8183
 4306SOL    HW124551   4.246   0.475   8.657  0.5214  0.2357 -0.6584
 4306SOL    HW224552   4.365   0.470   8.742 -1.8984  0.8672 -0.0210
 4307SOL     OW24553   0.900   1.994  10.888 -0.6178  0.1706  0.3523
 4307SOL    HW124554   0.986   2.020  10.920 -0.9389  0.1255  1.2705
 4307SOL    HW224555   0.888   1.912  10.936  0.4853  0.1095  0.5217
 4308SOL     OW24556   1.439   2.272   3.684  0.0202 -0.0601  0.2736
 4308SOL    HW124557   1.367   2.322   3.721  0.0122  0.4965 -0.5049
 4308SOL    HW224558   1.391   2.247   3.605 -0.3443  1.5898 -0.0193
 4309SOL     OW24559   2.730   1.183   2.047  0.6143  0.7890  0.1049
 4309SOL    HW124560   2.794   1.118   2.019  0.1225 -0.4387  1.7865
 4309SOL    HW224561   2.758   1.193   2.138  1.5500 -1.5661  0.0635
 4310SOL     OW24562   1.413   3.222   2.595 -0.0602 -0.0559  0.5994
 4310SOL    HW124563   1.357   3.237   2.519 -1.2960 -0.1574  1.4843
 4310SOL    HW224564   1.369   3.148   2.637 -0.1322 -0.3944 -0.0732
 4311SOL     OW24565   1.368   2.214  14.733  0.1626 -0.0355  0.5438
 4311SOL    HW124566   1.326   2.252  14.656 -0.1866  0.3263  0.9087
 4311SOL    HW224567   1.308   2.247  14.800 -1.6713  2.1980 -2.2232
 4312SOL     OW24568   1.427   0.016  17.132  0.1463  0.4324 -0.2921
 4312SOL    HW124569   1.430   0.108  17.159 -0.2458  0.3144  0.1576
 4312SOL    HW224570   1.519   4.733  17.118  0.0395  0.1106 -0.5241
 4313SOL     OW24571   1.801   0.169   4.779 -0.2627 -0.1548  0.4391
 4313SOL    HW124572   1.750   0.231   4.831 -0.5409 -0.2079  0.2259
 4313SOL    HW224573   1.836   0.102   4.838 -1.4321  0.4937  1.8751
 4314SOL     OW24574   0.828   0.658   3.685 -0.3481  0.4424 -0.0652
 4314SOL    HW124575   0.770   0.705   3.745 -0.2683  0.5052 -0.0370
 4314SOL    HW224576   0.903   0.718   3.680 -0.0558  0.0855  0.0025
 4315SOL     OW24577   2.097   4.301   4.470  0.3857 -0.6371  0.8924
 4315SOL    HW124578   2.144   4.218   4.461  0.0604 -0.6981 -0.2535
 4315SOL    HW224579   2.155   4.370   4.436  1.2969 -1.1578  1.3952
 4316SOL     OW24580   2.790   3.212   9.380  0.4017 -0.5330  0.3957
 4316SOL    HW124581   2.877   3.249   9.390  1.9370 -3.5501 -1.8030
 4316SOL    HW224582   2.791   3.129   9.430  0.7701 -1.0922 -0.5502
 4317SOL     OW24583   4.633   1.760  11.047  0.0249 -0.2420  0.4133
 4317SOL    HW124584   4.591   1.739  10.964  2.0985 -0.8243 -0.4844
 4317SOL    HW224585   4.669   1.846  11.025 -0.7717  0.3179  1.2877
 4318SOL     OW24586   1.189   2.613   5.585  0.0873  0.0812 -0.4568
 4318SOL    HW124587   1.135   2.578   5.515  1.3169  0.1078 -1.4178
 4318SOL    HW224588   1.130   2.605   5.660  2.3356  3.5363  1.6843
 4319SOL     OW24589   1.322   1.576   9.748  0.6518  0.2611  0.1280
 4319SOL    HW124590   1.312   1.554   9.655  2.9620  0.6074 -0.2131
 4319SOL    HW224591   1.404   1.626   9.748  0.0355  1.2660  0.6748
 4320SOL     OW24592   3.549   1.315   1.781 -0.4257  0.2395 -0.2879
 4320SOL    HW124593   3.522   1.338   1.692  3.1616 -1.1636 -1.7327
 4320SOL    HW224594   3.462   1.305   1.820  0.1728 -1.7001  0.5602
 4321SOL     OW24595   1.411   4.128   6.891  0.3156  0.3571 -0.2979
 4321SOL    HW124596   1.408   4.208   6.943 -0.4147  0.3995 -0.4165
 4321SOL    HW224597   1.355   4.070   6.943  0.5832 -1.5483 -2.1381
 4322SOL     OW24598   4.308   2.693   2.461  0.3333  0.7204  0.3100
 4322SOL    HW124599   4.311   2.700   2.366  1.4693 -1.1406  0.1959
 4322SOL    HW224600   4.240   2.754   2.488 -1.2054  0.1916 -2.3827
 4323SOL     OW24601   2.215   0.830  12.187 -0.5619  0.4480 -0.2579
 4323SOL    HW124602   2.138   0.784  12.220  1.3724 -1.2900  1.8704
 4323SOL    HW224603   2.171   0.901  12.141 -1.2246  1.3280  1.7628
 4324SOL     OW24604   4.417   4.083   1.386  0.1190  0.0261 -0.0792
 4324SOL    HW124605   4.378   4.035   1.312 -0.5152  0.1845  0.1471
 4324SOL    HW224606   4.433   4.010   1.445  2.8077  0.1013 -0.7359
 4325SOL     OW24607   1.839   4.208   9.581 -0.1633  0.0558 -0.3845
 4325SOL    HW124608   1.844   4.205   9.486  0.8195 -1.4010 -0.3010
 4325SOL    HW224609   1.923   4.249   9.601  0.3536 -1.1466 -0.0793
 4326SOL     OW24610   0.535   2.361   7.355 -0.7135  0.3080  0.0380
 4326SOL    HW124611   0.472   2.397   7.292 -3.1036 -1.4450  1.4281
 4326SOL    HW224612   0.468   2.309   7.400 -0.3638 -2.7889 -2.9816
 4327SOL     OW24613   0.662   3.490  10.282 -0.5920  0.1035  0.0124
 4327SOL    HW124614   0.732   3.542  10.321 -1.2499  1.0354 -0.0540
 4327SOL    HW224615   0.600   3.481  10.355 -1.7242  2.0515 -0.6996
 4328SOL     OW24616   4.237   0.925   3.948 -0.4053 -0.3127  0.1200
 4328SOL    HW124617   4.161   0.926   4.007  0.6854 -2.5996  1.5543
 4328SOL    HW224618   4.296   0.879   4.008  0.5388  2.1520  1.1218
 4329SOL     OW24619   0.975   1.989   8.159 -0.6251  0.3039 -0.8304
 4329SOL    HW124620   1.048   1.977   8.097 -1.4854  0.6463 -1.8991
 4329SOL    HW224621   0.919   2.050   8.111  1.0163 -0.5611 -3.8788
 4330SOL     OW24622   2.765   0.650  12.889  0.2145 -0.2319  0.2234
 4330SOL    HW124623   2.803   0.646  12.801  0.1150 -2.8242  0.2966
 4330SOL    HW224624   2.740   0.558  12.899 -1.2930  0.1115 -0.3248
 4331SOL     OW24625   2.424   2.974  14.819 -0.0444  0.2209  0.1140
 4331SOL    HW124626   2.426   2.879  14.819 -2.4280  0.1613 -1.6139
 4331SOL    HW224627   2.383   2.984  14.905  0.3411  1.3096  0.1767
 4332SOL     OW24628   2.480   4.018   8.615  0.0621 -0.1072  0.0823
 4332SOL    HW124629   2.406   4.020   8.555 -0.8644 -1.3537  1.1809
 4332SOL    HW224630   2.522   3.934   8.595  0.8288  0.5655 -1.1157
 4333SOL     OW24631   0.582   1.854   6.910  0.3911 -0.2687  0.6445
 4333SOL    HW124632   0.487   1.846   6.904  0.5355 -0.4056 -1.5917
 4333SOL    HW224633   0.593   1.841   6.816  1.0152 -2.4510  1.0370
 4334SOL     OW24634   0.459   0.866   2.153 -0.2080 -0.3971  0.5897
 4334SOL    HW124635   0.482   0.939   2.211 -1.4998 -0.6720  1.4609
 4334SOL    HW224636   0.538   0.816   2.174  1.1688  1.2213 -0.8297
 4335SOL     OW24637   0.187   1.050   1.482  0.2015 -0.0811 -0.2746
 4335SOL    HW124638   0.246   0.975   1.479 -1.1461 -1.0690 -1.8152
 4335SOL    HW224639   0.137   1.035   1.562  2.0901  1.5438  1.2301
 4336SOL     OW24640   1.940   1.631   8.597  0.8331  0.4054 -0.4288
 4336SOL    HW124641   1.975   1.542   8.594  2.1721  0.9180  0.4384
 4336SOL    HW224642   1.998   1.662   8.666 -0.8490  3.4637 -0.3753
 4337SOL     OW24643   3.373   4.573   1.736 -0.0422  0.0998 -0.1069
 4337SOL    HW124644   3.433   4.622   1.680  0.0899  1.6359  1.3841
 4337SOL    HW224645   3.356   4.648   1.793 -0.3163  0.5322 -0.7509
 4338SOL     OW24646   0.282   2.563   5.937  0.0784 -0.1792 -0.5474
 4338SOL    HW124647   0.237   2.572   6.022 -0.4873 -0.5748 -0.8048
 4338SOL    HW224648   0.371   2.537   5.960 -0.4828 -1.9606 -0.4089
 4339SOL     OW24649   4.385   0.883   5.462  0.0101 -0.0409 -0.3562
 4339SOL    HW124650   4.363   0.903   5.553 -2.9535 -0.5016 -0.9772
 4339SOL    HW224651   4.301   0.852   5.431  0.1587 -1.1260  0.3548
 4340SOL     OW24652   3.039   2.815  10.702  0.0368 -0.1143 -0.4147
 4340SOL    HW124653   3.121   2.827  10.654  0.7735  0.5322  1.0087
 4340SOL    HW224654   3.050   2.879  10.773 -3.8815 -0.4824  0.5310
 4341SOL     OW24655   4.632   2.390   4.451  0.0223 -0.2944 -0.1381
 4341SOL    HW124656   4.725   2.392   4.426 -1.2832  0.2528 -4.9614
 4341SOL    HW224657   4.624   2.294   4.454 -1.2898 -0.1833 -0.3051
 4342SOL     OW24658   0.820   1.782  15.583 -0.0640  0.3761  0.3634
 4342SOL    HW124659   0.907   1.747  15.599  0.0358 -0.6967 -2.6444
 4342SOL    HW224660   0.828   1.821  15.496  0.7934 -2.5085 -0.8402
 4343SOL     OW24661   3.208   4.559   8.231 -0.6528  0.6623 -0.4083
 4343SOL    HW124662   3.190   4.652   8.219  0.8997  1.1866  1.3013
 4343SOL    HW224663   3.276   4.559   8.298  0.4221  0.2787 -1.4962
 4344SOL     OW24664   3.773   2.039  14.203 -0.3701  0.0412 -0.1929
 4344SOL    HW124665   3.718   2.017  14.278 -1.2880 -3.8061 -2.0084
 4344SOL    HW224666   3.705   2.042  14.136  1.3031 -0.5116 -1.9141
 4345SOL     OW24667   1.610   4.083  15.420 -0.1527 -0.2876  0.5267
 4345SOL    HW124668   1.544   4.022  15.453 -0.2753 -0.0315  0.7540
 4345SOL    HW224669   1.543   4.140  15.381  1.1848  0.9217  0.0268
 4346SOL     OW24670   3.814   1.104   4.197  0.3876 -0.3523 -0.6433
 4346SOL    HW124671   3.768   1.187   4.187  0.0535 -0.3888  0.6630
 4346SOL    HW224672   3.903   1.141   4.195  0.0004  0.6227  0.1288
 4347SOL     OW24673   2.443   4.153   0.407 -0.3053 -0.0699  0.0904
 4347SOL    HW124674   2.391   4.085   0.451 -0.4632  0.2261  0.3614
 4347SOL    HW224675   2.526   4.129   0.448  0.5264  0.9967 -0.9676
 4348SOL     OW24676   3.605   4.571   9.159  0.3344 -0.4817 -0.3886
 4348SOL    HW124677   3.615   4.487   9.205  1.0995  0.7692  1.7215
 4348SOL    HW224678   3.642   4.554   9.072 -1.5707 -2.6585 -0.7648
 4349SOL     OW24679   2.721   1.162   4.955  0.5773 -0.6649  0.2924
 4349SOL    HW124680   2.676   1.124   4.880 -0.1474  2.7312 -0.9962
 4349SOL    HW224681   2.807   1.120   4.949  0.0694 -1.2774 -2.5771
 4350SOL     OW24682   0.936   2.672  13.604 -0.3010 -0.5036 -0.2685
 4350SOL    HW124683   0.953   2.579  13.617 -0.8057 -0.3230  1.7682
 4350SOL    HW224684   1.018   2.699  13.562  0.4224 -4.1523 -1.1603
 4351SOL     OW24685   3.277   1.589   3.984 -0.4439 -0.1762  0.4199
 4351SOL    HW124686   3.366   1.584   4.018  0.4438  1.2943 -1.6765
 4351SOL    HW224687   3.224   1.583   4.063 -1.1078 -1.6032 -0.1297
 4352SOL     OW24688   2.709   1.467   9.032  0.1081 -0.4143 -0.2902
 4352SOL    HW124689   2.655   1.527   9.082  1.4831 -0.0167  0.7091
 4352SOL    HW224690   2.643   1.418   8.983  0.7999 -0.8616 -0.7855
 4353SOL     OW24691   1.385   1.791   9.224  1.0263  0.6050  0.3520
 4353SOL    HW124692   1.449   1.817   9.290 -1.1071  1.4672  2.0547
 4353SOL    HW224693   1.363   1.869   9.172 -0.2300  0.7819  1.1515
 4354SOL     OW24694   3.561   0.889   6.970  0.1371  0.5772 -0.7670
 4354SOL    HW124695   3.480   0.891   7.021 -0.6993 -0.1820 -2.0663
 4354SOL    HW224696   3.607   0.965   7.008 -1.3667  0.7320  0.7136
 4355SOL     OW24697   4.082   3.723  17.079  0.1948  0.2931 -0.0922
 4355SOL    HW124698   4.117   3.745  16.993  0.9428  3.2352  0.9718
 4355SOL    HW224699   4.063   3.629  17.082  1.8951 -0.0304  0.6727
 4356SOL     OW24700   1.285   4.188   6.597  0.8488  0.0515 -0.3058
 4356SOL    HW124701   1.264   4.108   6.549 -0.6527  2.1390 -3.1344
 4356SOL    HW224702   1.339   4.164   6.672 -0.6920 -2.8019 -0.0832
 4357SOL     OW24703   2.315   4.362  16.455  0.1038  0.3284 -0.0797
 4357SOL    HW124704   2.250   4.423  16.420 -0.5183 -0.5254 -0.4170
 4357SOL    HW224705   2.287   4.335  16.543  0.2739 -2.2537 -0.8163
 4358SOL     OW24706   4.196   2.407   1.946 -0.0835  0.7298  0.1784
 4358SOL    HW124707   4.237   2.330   1.985 -0.5148  1.1114  1.4026
 4358SOL    HW224708   4.249   2.413   1.867 -0.0739  0.9119  0.2009
 4359SOL     OW24709   3.980   1.360   2.088 -0.1172  0.9123  0.2687
 4359SOL    HW124710   4.026   1.288   2.132 -1.0469 -0.7124 -1.4431
 4359SOL    HW224711   3.898   1.311   2.093 -1.1033  2.4959 -0.8202
 4360SOL     OW24712   0.505   0.480   2.549  0.1323 -0.0898  0.3390
 4360SOL    HW124713   0.576   0.543   2.563 -1.2047  1.0178  2.1174
 4360SOL    HW224714   0.433   0.542   2.542  0.3595  0.1349 -0.0237
 4361SOL     OW24715   3.304   1.725  12.932 -0.3464  0.2305  0.0028
 4361SOL    HW124716   3.363   1.797  12.910  1.0845 -0.8038  0.5074
 4361SOL    HW224717   3.230   1.729  12.871 -0.2639 -0.6525 -0.1433
 4362SOL     OW24718   1.134   0.504   3.110 -0.5312 -0.1805  0.3693
 4362SOL    HW124719   1.045   0.500   3.146 -0.2426 -0.2478  1.0694
 4362SOL    HW224720   1.139   0.590   3.068 -0.3973 -0.6694 -0.6320
 4363SOL     OW24721   2.972   3.799   4.012  0.0361  0.7437 -0.1625
 4363SOL    HW124722   3.039   3.734   3.992  0.0178  1.1704 -1.6859
 4363SOL    HW224723   3.015   3.857   4.075  1.0896 -0.6804  0.3987
 4364SOL     OW24724   0.284   1.931  17.613 -0.0938  0.0164  0.4500
 4364SOL    HW124725   0.192   1.953  17.629 -0.0167  1.1766 -0.6952
 4364SOL    HW224726   0.264   1.837  17.613 -1.9506  0.4046 -0.8437
 4365SOL     OW24727   2.230   3.055   7.178  0.4391  0.1252 -0.0493
 4365SOL    HW124728   2.278   3.117   7.123  0.4700  0.2671  0.1389
 4365SOL    HW224729   2.189   3.102   7.250  1.8638 -1.1718  1.5967
 4366SOL     OW24730   4.271   3.819   3.329  0.3565  0.0027  0.3989
 4366SOL    HW124731   4.322   3.874   3.389 -0.7017  0.9481  0.4108
 4366SOL    HW224732   4.254   3.737   3.376 -0.0961  1.1880  2.2851
 4367SOL     OW24733   2.270   3.465  10.574  0.8935 -0.2704  0.0092
 4367SOL    HW124734   2.340   3.480  10.510  0.1572 -2.1391 -1.2502
 4367SOL    HW224735   2.190   3.501  10.535  0.6670 -1.5606 -0.7221
 4368SOL     OW24736   0.979   1.806  12.542 -0.3445  0.3150 -0.1054
 4368SOL    HW124737   0.966   1.764  12.627  1.6923 -1.9274 -0.9156
 4368SOL    HW224738   1.071   1.789  12.522 -0.1615 -0.8185  1.6908
 4369SOL     OW24739   0.376   3.939   2.804 -0.3096 -0.0335  0.0809
 4369SOL    HW124740   0.295   3.890   2.796  0.1040 -0.8929  1.1913
 4369SOL    HW224741   0.419   3.936   2.718 -1.2400 -0.7231 -0.3625
 4370SOL     OW24742   1.993   0.444  13.568 -0.5189  0.2686  0.9641
 4370SOL    HW124743   1.922   0.484  13.620 -1.1565  0.1702  0.1710
 4370SOL    HW224744   2.016   0.379  13.634 -0.6663 -0.9364 -0.1844
 4371SOL     OW24745   4.386   1.710  10.442  0.3378 -0.6630  0.6712
 4371SOL    HW124746   4.343   1.692  10.525 -0.6881 -2.8241 -0.3181
 4371SOL    HW224747   4.470   1.741  10.475  1.2701 -1.1930 -1.1588
 4372SOL     OW24748   3.131   1.406   2.653 -0.0538 -0.1404 -0.1440
 4372SOL    HW124749   3.084   1.398   2.737  0.9737 -0.1876  0.4202
 4372SOL    HW224750   3.212   1.449   2.679 -0.6136  0.5389  0.4967
 4373SOL     OW24751   2.322   0.998   6.587 -0.5190  0.8489  0.4532
 4373SOL    HW124752   2.281   0.913   6.569 -0.7392  1.2108 -0.7692
 4373SOL    HW224753   2.332   1.025   6.496  0.3701  0.4799  0.4477
 4374SOL     OW24754   2.533   0.536   2.523  0.2150 -0.3270  0.4214
 4374SOL    HW124755   2.504   0.590   2.449 -0.7364  1.6222  2.2378
 4374SOL    HW224756   2.621   0.525   2.486  0.8129  0.7558  1.5435
 4375SOL     OW24757   3.519   0.488   4.971 -0.5539  0.0333  0.1124
 4375SOL    HW124758   3.524   0.504   4.877 -1.7267 -1.2845 -0.1792
 4375SOL    HW224759   3.433   0.446   4.978 -0.0654 -0.9426  0.3370
 4376SOL     OW24760   1.896   2.478   8.174  0.0201 -0.3618  0.5640
 4376SOL    HW124761   1.967   2.461   8.236 -0.0957 -3.9334 -0.3025
 4376SOL    HW224762   1.932   2.557   8.133  0.3677 -0.7088  0.1919
 4377SOL     OW24763   2.790   3.742   1.778 -0.2855  0.3183  0.5890
 4377SOL    HW124764   2.779   3.691   1.858  0.5154  0.5885  0.8712
 4377SOL    HW224765   2.733   3.687   1.725  0.8612 -1.2570  1.0151
 4378SOL     OW24766   3.386   0.139   7.329 -0.1681 -0.1631  0.3332
 4378SOL    HW124767   3.343   0.161   7.412 -1.2528  0.3035 -0.3546
 4378SOL    HW224768   3.354   0.215   7.280  0.7314  0.1557  0.2328
 4379SOL     OW24769   3.259   2.215  12.535 -0.0814 -0.1163 -0.1929
 4379SOL    HW124770   3.176   2.262  12.531 -1.4942 -2.4510  1.9666
 4379SOL    HW224771   3.313   2.276  12.485  1.4943  0.6943  2.5338
 4380SOL     OW24772   4.486   4.536  17.683 -0.4199 -0.6518  0.6676
 4380SOL    HW124773   4.518   4.490   0.012  3.2815 -0.6159 -0.8259
 4380SOL    HW224774   4.393   4.523  17.703 -0.5334 -0.9084 -0.0310
 4381SOL     OW24775   0.792   4.556  10.505 -0.2379  0.5462 -0.3803
 4381SOL    HW124776   0.725   4.547  10.573  1.6241 -1.8641  1.1372
 4381SOL    HW224777   0.784   4.651  10.496 -1.0903  0.4794 -0.3000
 4382SOL     OW24778   1.022   0.263  17.138  0.3056  0.1561 -0.3068
 4382SOL    HW124779   1.065   0.215  17.209  1.0982  1.9326  0.3867
 4382SOL    HW224780   1.002   0.201  17.068  0.9076 -1.5364  1.0151
 4383SOL     OW24781   1.166   1.894   7.030 -0.0061 -0.2210  0.4935
 4383SOL    HW124782   1.173   1.918   7.123 -0.6307  2.5754 -0.1684
 4383SOL    HW224783   1.200   1.971   6.985 -1.4603  0.2216  0.1258
 4384SOL     OW24784   0.476   1.042   4.569  0.7760 -0.1656  0.0777
 4384SOL    HW124785   0.438   1.115   4.618  1.7639 -1.0337  2.1397
 4384SOL    HW224786   0.570   1.061   4.566  0.5754  0.7924 -0.0619
 4385SOL     OW24787   3.584   3.128   8.135  0.4695 -0.3612 -0.2685
 4385SOL    HW124788   3.522   3.055   8.130 -0.8024  0.7082 -0.1320
 4385SOL    HW224789   3.534   3.206   8.161 -1.0950 -1.4930  0.0854
 4386SOL     OW24790   1.856   2.934  14.270  0.1357 -0.1127  0.2121
 4386SOL    HW124791   1.931   2.935  14.331  0.4873  3.9027 -0.3189
 4386SOL    HW224792   1.789   2.883  14.315 -0.5343 -0.1051 -0.7989
 4387SOL     OW24793   3.130   2.885   6.722 -0.8241 -0.3313  0.6097
 4387SOL    HW124794   3.116   2.792   6.739 -2.9923 -0.1009  0.0796
 4387SOL    HW224795   3.222   2.887   6.746 -0.8017 -1.4586  0.6450
 4388SOL     OW24796   0.102   1.244   3.972  0.3049  0.4730 -0.0616
 4388SOL    HW124797   0.105   1.150   3.954  0.7661  0.2050  1.4570
 4388SOL    HW224798   0.033   1.247   4.039  1.1033 -0.0909  0.7700
 4389SOL     OW24799   4.481   1.419   1.005 -0.6426 -0.1614 -0.2060
 4389SOL    HW124800   4.388   1.398   0.998 -0.8539  0.1382  1.6874
 4389SOL    HW224801   4.491   1.445   1.097 -5.1489  0.0304  0.2196
 4390SOL     OW24802   0.130   2.257   4.378 -0.0316  0.0656  0.7195
 4390SOL    HW124803   0.189   2.196   4.423 -0.6400 -0.3004  1.0313
 4390SOL    HW224804   0.163   2.244   4.290 -0.9424 -4.0615  0.9837
 4391SOL     OW24805   0.945   0.636  16.552 -0.6278 -0.4278  0.0312
 4391SOL    HW124806   0.988   0.648  16.637 -0.8206 -0.2241  0.0987
 4391SOL    HW224807   0.962   0.543  16.532  0.8849 -0.7941  2.9638
 4392SOL     OW24808   3.375   3.964   4.165 -0.5071 -0.2254  0.2199
 4392SOL    HW124809   3.451   3.910   4.188 -0.1249  0.3066  0.2149
 4392SOL    HW224810   3.392   4.032   4.230 -2.7735 -0.2331  0.8103
 4393SOL     OW24811   1.439   3.660   3.894  0.3205 -0.0143 -0.6611
 4393SOL    HW124812   1.500   3.590   3.917 -0.3726  0.1948  1.7805
 4393SOL    HW224813   1.363   3.610   3.864  2.0185 -1.3328 -2.8302
 4394SOL     OW24814   1.031   3.266   3.558 -0.3432 -0.5074  0.0825
 4394SOL    HW124815   0.997   3.355   3.569  0.9061 -0.2304  1.6938
 4394SOL    HW224816   0.951   3.222   3.529  1.8179 -4.1816 -0.3349
 4395SOL     OW24817   3.980   3.990  15.525  0.0796  0.0159  1.0769
 4395SOL    HW124818   4.056   4.042  15.554 -0.1287 -0.4322  2.4080
 4395SOL    HW224819   4.009   3.900  15.538  0.8056 -0.1693 -1.7773
 4396SOL     OW24820   1.892   2.065   5.757  0.1334 -0.2864  0.6096
 4396SOL    HW124821   1.799   2.049   5.776 -0.2654  0.1145 -1.0632
 4396SOL    HW224822   1.910   1.984   5.710 -0.3235 -0.4316  0.6777
 4397SOL     OW24823   1.752   0.837   1.780  0.7262  0.2509  0.2779
 4397SOL    HW124824   1.669   0.881   1.794  0.1937 -0.7408  0.2597
 4397SOL    HW224825   1.798   0.835   1.864 -0.2283 -0.3044  0.7841
 4398SOL     OW24826   3.796   2.436  15.660 -0.1460  0.1536 -0.3736
 4398SOL    HW124827   3.825   2.491  15.733 -0.3980  3.2305 -2.5802
 4398SOL    HW224828   3.700   2.438  15.663 -0.1291 -1.7510  1.1858
 4399SOL     OW24829   4.432   4.304   5.434  0.1292 -0.0481 -0.1286
 4399SOL    HW124830   4.462   4.254   5.510  1.6484  0.4420 -0.4019
 4399SOL    HW224831   4.386   4.242   5.378 -1.3297  0.7445  0.1665
 4400SOL     OW24832   2.226   1.915   3.137  0.0470  0.2889 -0.6371
 4400SOL    HW124833   2.314   1.890   3.167  0.7320  2.0278 -1.1892
 4400SOL    HW224834   2.237   2.010   3.135 -0.5898  0.4022  1.3448
 4401SOL     OW24835   0.104   0.079   3.247  0.3583  0.3694 -0.2922
 4401SOL    HW124836   0.066   0.147   3.303  0.8651 -1.4822  2.3012
 4401SOL    HW224837   0.196   0.108   3.242  0.4816 -0.1334 -0.9800
 4402SOL     OW24838   0.255   4.042   9.712 -0.2926  0.6195 -0.2216
 4402SOL    HW124839   0.254   3.947   9.701  0.6024  0.5641  0.2201
 4402SOL    HW224840   0.165   4.066   9.737  0.0723  1.5370  0.2426
 4403SOL     OW24841   1.866   0.345  10.052  0.4918  0.0066  0.3172
 4403SOL    HW124842   1.829   0.423  10.012 -0.1469 -1.0449 -1.1186
 4403SOL    HW224843   1.937   0.388  10.101  1.9931 -0.1219 -1.7566
 4404SOL     OW24844   0.967   0.057  16.959 -0.7579  0.4360  0.2567
 4404SOL    HW124845   0.989   0.115  16.886  1.3884  1.7159  1.9043
 4404SOL    HW224846   0.879   0.023  16.942 -0.9276  2.3455 -2.6797
 4405SOL     OW24847   3.923   2.496   4.430 -0.6141  0.3386  0.1447
 4405SOL    HW124848   3.923   2.403   4.453 -1.1954  0.2157 -0.3511
 4405SOL    HW224849   3.864   2.523   4.500 -3.0508 -0.9609 -1.4247
 4406SOL     OW24850   1.815   3.177   8.710 -0.1239 -0.0428 -0.6111
 4406SOL    HW124851   1.802   3.099   8.765  1.1748  1.0531  1.2696
 4406SOL    HW224852   1.882   3.145   8.649 -0.9149 -1.4454 -0.7315
 4407SOL     OW24853   0.373   1.918  14.047 -0.0287  0.3174  0.5225
 4407SOL    HW124854   0.449   1.862  14.062 -1.1845 -0.1692  4.3622
 4407SOL    HW224855   0.418   1.980  13.988 -0.4714 -0.4225 -0.5871
 4408SOL     OW24856   0.162   3.807   2.707  0.7211  0.0057 -0.2716
 4408SOL    HW124857   0.165   3.745   2.634  0.1608  1.0977 -1.2280
 4408SOL    HW224858   0.077   3.783   2.744  0.4234  0.3793 -0.7025
 4409SOL     OW24859   4.357   4.474   6.923 -0.6641  1.0772 -0.3502
 4409SOL    HW124860   4.261   4.466   6.922 -0.4411 -1.6174  0.6644
 4409SOL    HW224861   4.368   4.401   6.983 -3.6077  0.3253 -0.7210
 4410SOL     OW24862   3.625   0.727   5.759 -0.0338 -0.6552  0.6699
 4410SOL    HW124863   3.647   0.788   5.688  2.5555 -3.8163 -1.2221
 4410SOL    HW224864   3.690   0.658   5.748  2.0509  1.7094 -2.0880
 4411SOL     OW24865   1.683   1.803  17.744  0.2414  0.1549 -0.0087
 4411SOL    HW124866   1.640   1.728   0.036  2.9953 -0.2990  2.0735
 4411SOL    HW224867   1.657   1.877   0.050 -0.8459 -0.0605 -0.2292
 4412SOL     OW24868   3.588   3.187   4.043  0.0141 -0.2976  0.4225
 4412SOL    HW124869   3.638   3.269   4.042  1.7513 -1.3416  1.2493
 4412SOL    HW224870   3.579   3.180   3.948  1.1826  2.1324  0.1248
 4413SOL     OW24871   0.202   2.126  16.510  0.1836 -0.4948 -0.3307
 4413SOL    HW124872   0.214   2.055  16.447 -0.2722 -0.4082 -0.5117
 4413SOL    HW224873   0.256   2.194  16.471  1.2439  0.9062  3.5215
 4414SOL     OW24874   4.647   4.358   0.527 -0.2161 -0.5524 -0.4772
 4414SOL    HW124875   4.712   4.288   0.521  1.1192  0.5989  0.8608
 4414SOL    HW224876   4.561   4.315   0.531  0.3019 -1.6738 -1.3280
 4415SOL     OW24877   0.048   2.364   2.862  0.0600  0.1989  0.6812
 4415SOL    HW124878   0.008   2.407   2.787  0.0822 -1.0055 -0.0135
 4415SOL    HW224879   4.708   2.340   2.912 -0.8896  1.2931 -0.2824
 4416SOL     OW24880   1.837   0.011   2.439 -0.1067  0.0174  0.2215
 4416SOL    HW124881   1.893   0.080   2.403  1.7901 -2.5197 -1.6661
 4416SOL    HW224882   1.890   4.672   2.459 -3.3017 -2.7045 -1.6901
 4417SOL     OW24883   3.473   3.245  12.705  0.3928  0.2570 -0.2013
 4417SOL    HW124884   3.456   3.151  12.719 -0.1839  0.3964  0.0380
 4417SOL    HW224885   3.439   3.256  12.616 -1.2685  2.5341  0.7162
 4418SOL     OW24886   0.691   2.406   2.495 -0.0717  0.6594 -0.4135
 4418SOL    HW124887   0.668   2.325   2.541 -0.3773  1.5713  1.0107
 4418SOL    HW224888   0.770   2.426   2.546 -0.2846  2.5630 -0.8430
 4419SOL     OW24889   1.989   1.660   2.628 -0.4370  0.5255 -0.1626
 4419SOL    HW124890   2.008   1.658   2.534 -2.3317 -1.1251 -0.5017
 4419SOL    HW224891   2.049   1.733   2.641  3.1550 -2.0754 -2.2414
 4420SOL     OW24892   1.853   1.324  12.540 -0.4189 -0.0505  0.0544
 4420SOL    HW124893   1.759   1.345  12.541 -0.4954 -0.2741 -2.0801
 4420SOL    HW224894   1.848   1.230  12.560  1.0723 -0.0220  0.5612
 4421SOL     OW24895   1.756   0.213   3.346 -0.5200 -0.1253 -0.1539
 4421SOL    HW124896   1.698   0.180   3.277  0.3144 -1.6163 -0.1276
 4421SOL    HW224897   1.707   0.187   3.424  0.1146 -0.1614  0.2259
 4422SOL     OW24898   0.760   4.694   9.663 -0.1296 -0.0795 -0.0829
 4422SOL    HW124899   0.688   4.701   9.600  1.9106  1.4878 -2.2321
 4422SOL    HW224900   0.797   4.607   9.647 -0.3932 -0.3362  0.7123
 4423SOL     OW24901   3.419   4.534   3.087  0.1283  0.1721  0.2167
 4423SOL    HW124902   3.359   4.460   3.081  0.7247 -0.4086  1.2849
 4423SOL    HW224903   3.368   4.613   3.072  0.7892  0.3832 -0.8810
 4424SOL     OW24904   3.488   4.342   1.785  0.0309 -0.4994  0.3525
 4424SOL    HW124905   3.449   4.425   1.759 -0.7167 -0.6116  1.1229
 4424SOL    HW224906   3.536   4.363   1.865  0.3764  1.5501 -0.4123
 4425SOL     OW24907   2.555   0.557   2.839  0.0144 -0.1748 -0.5778
 4425SOL    HW124908   2.569   0.528   2.749 -1.8662  0.7481 -1.1673
 4425SOL    HW224909   2.537   0.651   2.834 -1.9155 -0.3990  1.5492
 4426SOL     OW24910   2.414   0.742   5.865  0.1057  0.4021 -0.3004
 4426SOL    HW124911   2.427   0.650   5.889  0.6762  0.0361 -1.9634
 4426SOL    HW224912   2.440   0.789   5.943 -1.5038 -2.0812  1.7192
 4427SOL     OW24913   0.916   2.498   2.648 -0.1467 -0.3394  0.5906
 4427SOL    HW124914   0.985   2.480   2.713 -0.5093  1.0343  1.3514
 4427SOL    HW224915   0.899   2.592   2.656  0.2183 -0.2996  0.9209
 4428SOL     OW24916   2.770   1.667  16.030 -0.1300 -0.5795  0.3847
 4428SOL    HW124917   2.773   1.761  16.012 -0.2116 -1.1720 -2.7396
 4428SOL    HW224918   2.713   1.655  16.106  1.7493  0.0392  1.8816
 4429SOL     OW24919   3.308   2.467   9.098  0.5850  0.0095 -0.4051
 4429SOL    HW124920   3.318   2.556   9.132 -3.6143  0.0331  0.7103
 4429SOL    HW224921   3.340   2.483   9.009  0.2641  0.0239 -0.5147
 4430SOL     OW24922   3.112   1.652  15.225  0.1167 -0.3685  0.2265
 4430SOL    HW124923   3.200   1.629  15.255 -0.8861 -2.6089  1.3816
 4430SOL    HW224924   3.111   1.596  15.148 -0.8670 -0.7587  0.5269
 4431SOL     OW24925   2.121   1.274  11.901  0.2351  0.3675  0.2240
 4431SOL    HW124926   2.136   1.272  11.996  0.9057 -1.3341  0.0850
 4431SOL    HW224927   2.084   1.361  11.886 -1.7382 -0.4021  0.6893
 4432SOL     OW24928   2.731   1.436   7.089  0.4334  0.4487 -0.1558
 4432SOL    HW124929   2.712   1.495   7.162  2.1394 -1.1005  1.5505
 4432SOL    HW224930   2.661   1.376   7.115  0.3944  0.8438  0.6548
 4433SOL     OW24931   2.133   1.471   5.265  0.2367 -0.3541  0.0492
 4433SOL    HW124932   2.058   1.429   5.223  0.7332  0.3922 -1.5674
 4433SOL    HW224933   2.166   1.532   5.200  1.5430 -1.4363 -0.3124
 4434SOL     OW24934   3.376   1.865   2.374  0.0471  0.4656 -0.5529
 4434SOL    HW124935   3.417   1.780   2.361  2.3679  1.3463  0.9336
 4434SOL    HW224936   3.384   1.909   2.290  0.6393 -0.7433 -1.1200
 4435SOL     OW24937   1.572   0.411   7.891 -0.4730  0.0049  0.4659
 4435SOL    HW124938   1.495   0.415   7.834  0.8536  1.2190 -1.2181
 4435SOL    HW224939   1.533   0.362   7.964  1.0888 -1.1561  0.5312
 4436SOL     OW24940   2.215   3.806   5.513 -0.0524 -0.0001 -0.3723
 4436SOL    HW124941   2.138   3.788   5.460 -0.1180 -1.7546  0.3250
 4436SOL    HW224942   2.227   3.718   5.549  2.8821  0.1666 -0.9380
 4437SOL     OW24943   3.552   3.528   2.137 -0.6432 -0.4994  0.5856
 4437SOL    HW124944   3.497   3.535   2.059 -0.5165  1.1077  0.6541
 4437SOL    HW224945   3.556   3.433   2.147 -1.1448 -0.6294 -0.4564
 4438SOL     OW24946   4.304   3.371  17.050 -0.5284  0.9864 -0.0689
 4438SOL    HW124947   4.227   3.427  17.041 -1.9276 -1.0827 -1.1315
 4438SOL    HW224948   4.353   3.404  17.125  0.1161 -0.1273  0.0004
 4439SOL     OW24949   4.154   3.428   8.317 -0.3375  0.1359 -0.2915
 4439SOL    HW124950   4.080   3.461   8.369  0.6741 -1.4990  2.2221
 4439SOL    HW224951   4.214   3.408   8.388 -1.0333 -1.0544 -0.0364
 4440SOL     OW24952   0.083   3.689   3.685 -0.3261  0.5346  0.3603
 4440SOL    HW124953   0.152   3.641   3.731 -0.2726  0.5000  0.2460
 4440SOL    HW224954   0.023   3.729   3.747 -0.7745  2.1878 -1.1209
 4441SOL     OW24955   2.123   2.105  16.815  0.2582  0.6154 -0.7321
 4441SOL    HW124956   2.101   2.181  16.868  0.4250 -0.6676  1.1526
 4441SOL    HW224957   2.219   2.102  16.810  0.3194  0.0966  0.7268
 4442SOL     OW24958   3.978   0.421   8.026  0.1693 -0.6657  0.0753
 4442SOL    HW124959   3.911   0.407   8.092  0.2454  0.1421  0.3195
 4442SOL    HW224960   4.057   0.388   8.068 -0.9531 -0.2660  2.5336
 4443SOL     OW24961   2.886   1.074  10.600  0.7769  0.0320 -0.0617
 4443SOL    HW124962   2.833   1.117  10.667 -0.2631  0.3126 -1.0808
 4443SOL    HW224963   2.932   1.007  10.650 -2.4279 -1.8849  0.2914
 4444SOL     OW24964   0.617   3.830   6.700 -0.6346  0.1608 -0.2287
 4444SOL    HW124965   0.671   3.904   6.728 -0.4979  0.2846 -0.8322
 4444SOL    HW224966   0.591   3.803   6.788 -1.7619 -0.1776 -0.6701
 4445SOL     OW24967   1.650   1.720   5.529 -0.1584 -0.6609  0.3574
 4445SOL    HW124968   1.583   1.658   5.561 -0.8746 -0.9676 -1.7415
 4445SOL    HW224969   1.696   1.671   5.461  0.6517  0.2638  0.2486
 4446SOL     OW24970   3.732   1.830   8.186 -0.2805 -0.0139  0.0509
 4446SOL    HW124971   3.800   1.842   8.120 -0.8030 -2.4475 -0.9213
 4446SOL    HW224972   3.654   1.870   8.148  1.9170  2.0987 -2.1468
 4447SOL     OW24973   0.234   0.493   1.316 -0.4626 -0.2012 -0.2627
 4447SOL    HW124974   0.269   0.425   1.374  1.3071  1.5862  0.7893
 4447SOL    HW224975   0.172   0.441   1.266 -1.8722  1.1547  0.0446
 4448SOL     OW24976   0.460   4.606  17.701 -0.1239 -0.4640 -0.5841
 4448SOL    HW124977   0.544   4.625  17.660 -0.5455 -1.6976 -2.0409
 4448SOL    HW224978   0.484   4.527  17.749 -1.5522 -0.1972  0.5808
 4449SOL     OW24979   2.864   1.252   1.664  0.2658 -0.1634  0.2658
 4449SOL    HW124980   2.825   1.327   1.708  1.2964  0.6357 -0.1884
 4449SOL    HW224981   2.855   1.270   1.571 -1.4887 -0.2322  0.4205
 4450SOL     OW24982   0.286   2.803   9.818 -0.2326 -0.1575 -0.3253
 4450SOL    HW124983   0.230   2.761   9.752 -0.9627  3.3239 -1.9244
 4450SOL    HW224984   0.291   2.888   9.774 -1.7532 -1.0449 -2.2191
 4451SOL     OW24985   2.960   4.678   5.613  0.0525  0.0303 -0.3844
 4451SOL    HW124986   3.052   4.667   5.637 -0.4123  0.5999  1.7238
 4451SOL    HW224987   2.962   4.700   5.520 -0.4026  1.1058 -0.1343
 4452SOL     OW24988   3.280   1.654   9.954 -0.0534  0.2458 -0.1195
 4452SOL    HW124989   3.262   1.612  10.037  3.0539  0.7547  0.8016
 4452SOL    HW224990   3.375   1.651   9.955 -0.0479 -0.2975 -2.3552
 4453SOL     OW24991   3.799   3.118   9.074 -0.4601 -0.3147 -0.7107
 4453SOL    HW124992   3.788   3.094   9.166  0.2218 -0.1387 -0.5789
 4453SOL    HW224993   3.834   3.207   9.074 -2.3558  0.4259  1.4582
 4454SOL     OW24994   2.544   3.006   2.540  0.4695  0.0381 -0.0394
 4454SOL    HW124995   2.608   3.063   2.497  0.3746 -0.2253 -0.5338
 4454SOL    HW224996   2.567   2.920   2.505  0.0490  0.6827 -1.9102
 4455SOL     OW24997   2.631   0.588   7.609  0.0754 -0.4296  0.8389
 4455SOL    HW124998   2.679   0.655   7.560 -1.0056  0.2510  0.7106
 4455SOL    HW224999   2.691   0.517   7.628  0.2050 -0.8889 -1.3730
 4456SOL     OW25000   3.952   0.775  16.889  0.3907  0.4683  0.1150
 4456SOL    HW125001   4.010   0.816  16.953 -0.3653  2.4584 -0.4474
 4456SOL    HW225002   3.879   0.838  16.887 -0.8333 -0.9105  1.1594
 4457SOL     OW25003   3.011   0.535   5.375  0.4343 -0.5066  0.4915
 4457SOL    HW125004   2.951   0.518   5.447  0.5796  2.9187  1.4450
 4457SOL    HW225005   2.978   0.621   5.350 -2.1304 -2.2908 -2.2393
 4458SOL     OW25006   1.112   1.247  16.965 -0.1895  0.1064 -0.0645
 4458SOL    HW125007   1.095   1.155  16.946  0.6575 -0.1642  0.4780
 4458SOL    HW225008   1.034   1.292  16.930  1.3363  3.0608  0.3188
 4459SOL     OW25009   3.786   0.973  17.733 -0.4166 -0.3722 -0.2406
 4459SOL    HW125010   3.754   0.890   0.020  0.7448 -0.7866 -0.1401
 4459SOL    HW225011   3.759   1.037   0.049  1.0255 -1.6301  1.5905
 4460SOL     OW25012   4.629   3.863   4.888 -0.4420  0.1366  0.7084
 4460SOL    HW125013   4.652   3.877   4.979  0.8360  2.3360  0.0362
 4460SOL    HW225014   4.536   3.841   4.891 -0.3717 -0.3722 -0.7935
 4461SOL     OW25015   0.170   1.211  17.486  0.4034  0.3769 -0.0039
 4461SOL    HW125016   0.126   1.241  17.406  1.5603  0.3011 -0.6611
 4461SOL    HW225017   0.258   1.207  17.450  0.2725  0.3372 -0.3221
 4462SOL     OW25018   1.722   2.296   8.318 -0.2133  0.4454 -0.0441
 4462SOL    HW125019   1.635   2.296   8.358 -1.0798 -0.7070 -1.9438
 4462SOL    HW225020   1.723   2.371   8.259 -1.3862  0.6256  0.1708
 4463SOL     OW25021   1.136   0.054   4.034 -0.0176  0.3406 -0.0898
 4463SOL    HW125022   1.054   0.017   4.000 -0.3526  2.0348 -1.1392
 4463SOL    HW225023   1.121   0.144   4.008  0.0711 -0.3643 -2.5844
 4464SOL     OW25024   3.002   3.509   3.365 -0.7328  0.4388 -0.1207
 4464SOL    HW125025   3.003   3.413   3.363 -1.5597  0.4052  1.0023
 4464SOL    HW225026   3.060   3.530   3.438  1.1513 -0.7353 -1.2857
 4465SOL     OW25027   1.169   3.247   2.119 -0.0813  0.3377 -0.0487
 4465SOL    HW125028   1.192   3.323   2.065 -1.4833 -0.6777 -2.0732
 4465SOL    HW225029   1.092   3.211   2.075 -0.1934 -0.5364  0.8761
 4466SOL     OW25030   1.278   4.165   6.266  0.7427 -0.6197 -0.0782
 4466SOL    HW125031   1.246   4.217   6.192 -2.0002 -1.7691  0.2923
 4466SOL    HW225032   1.351   4.223   6.286 -0.2801  0.6991 -0.1485
 4467SOL     OW25033   2.342   2.713  10.134  0.2165  0.2533 -0.0133
 4467SOL    HW125034   2.375   2.698  10.223  1.7437  1.4933 -0.3815
 4467SOL    HW225035   2.280   2.785  10.144 -0.3503 -0.3388  0.7484
 4468SOL     OW25036   1.693   3.526  16.769 -0.3021 -0.0715  0.1100
 4468SOL    HW125037   1.760   3.488  16.712 -0.8299 -2.2904  0.9576
 4468SOL    HW225038   1.747   3.575  16.831  0.4837  2.5449 -2.6584
 4469SOL     OW25039   0.536   3.301  12.813  0.2812 -0.1539 -0.2716
 4469SOL    HW125040   0.506   3.214  12.840  2.5467 -0.9509 -0.3458
 4469SOL    HW225041   0.460   3.348  12.847 -0.7310 -1.9908  0.0216
 4470SOL     OW25042   0.969   0.546   5.203  0.3748 -0.3236  0.1820
 4470SOL    HW125043   1.008   0.631   5.222  1.7222 -1.0286  0.5160
 4470SOL    HW225044   1.034   0.480   5.223 -0.1329  0.3373  4.0321
 4471SOL     OW25045   4.118   2.114   6.445 -0.5378  0.0198  0.6067
 4471SOL    HW125046   4.125   2.201   6.485  0.4363  0.5454 -0.7033
 4471SOL    HW225047   4.053   2.077   6.505 -2.7337  1.6428 -0.7860
 4472SOL     OW25048   3.285   0.364   4.988  0.1335 -0.8420  0.2879
 4472SOL    HW125049   3.243   0.328   4.910 -0.2590  1.0607 -0.3758
 4472SOL    HW225050   3.287   0.289   5.048 -0.3409 -2.2045 -1.3808
 4473SOL     OW25051   3.952   3.563   2.812 -0.1043 -0.6888  0.4836
 4473SOL    HW125052   3.894   3.619   2.760  1.4147  1.4735  1.1554
 4473SOL    HW225053   4.035   3.593   2.776 -1.5527  2.2006 -0.4081
 4474SOL     OW25054   0.011   3.384  11.432  0.2109  0.4582 -0.0230
 4474SOL    HW125055   0.081   3.326  11.402  0.0835 -0.3797  1.2821
 4474SOL    HW225056   4.728   3.343  11.516  1.6658 -0.4322 -0.1058
 4475SOL     OW25057   4.065   1.641   4.151 -0.3114 -0.4275 -0.0850
 4475SOL    HW125058   4.107   1.606   4.230  2.4190 -1.1316 -1.8509
 4475SOL    HW225059   4.108   1.578   4.093 -0.2600  1.0927 -1.6914
 4476SOL     OW25060   0.298   2.152   8.922 -1.2889 -0.2166  0.3343
 4476SOL    HW125061   0.265   2.095   8.853  0.4902 -0.2127 -0.5363
 4476SOL    HW225062   0.335   2.085   8.980  0.9427  2.5388  2.1301
 4477SOL     OW25063   4.434   0.296   2.057  0.6417  0.1839 -0.0873
 4477SOL    HW125064   4.509   0.304   2.116 -0.1171  0.4844  0.8316
 4477SOL    HW225065   4.438   0.377   2.007 -0.9658  1.0195  1.1890
 4478SOL     OW25066   1.051   1.267   2.128 -0.5888  0.4909  0.5390
 4478SOL    HW125067   0.986   1.272   2.199 -0.4009  0.3713  0.7201
 4478SOL    HW225068   1.100   1.348   2.140  0.6930 -0.2917  0.5547
 4479SOL     OW25069   3.696   0.338  15.147  0.4103  0.0055  0.2993
 4479SOL    HW125070   3.767   0.377  15.096  1.5873  0.9864  2.6375
 4479SOL    HW225071   3.713   0.366  15.238 -1.4616  0.0140  0.6441
 4480SOL     OW25072   3.062   1.259   7.254  0.2105 -0.1170 -0.3145
 4480SOL    HW125073   3.034   1.312   7.179  1.6806  2.2109  0.7890
 4480SOL    HW225074   3.133   1.315   7.287  0.0862 -0.0984 -0.0771
 4481SOL     OW25075   3.099   2.881   4.403  0.0365  0.3527  0.0565
 4481SOL    HW125076   3.033   2.812   4.397 -0.1130  0.3552  1.7070
 4481SOL    HW225077   3.152   2.836   4.336  0.4936  2.6041 -1.1007
 4482SOL     OW25078   0.003   1.651  12.132  0.2023  0.3305 -0.5785
 4482SOL    HW125079   0.053   1.594  12.190 -0.7923 -0.9191 -0.9711
 4482SOL    HW225080   4.698   1.705  12.199  3.0891  1.1333  0.6239
 4483SOL     OW25081   2.221   3.810   2.327  0.0400 -0.1563  0.1300
 4483SOL    HW125082   2.141   3.858   2.304  1.2611  0.9457 -1.8964
 4483SOL    HW225083   2.188   3.724   2.300 -0.5622 -0.4500  1.7818
 4484SOL     OW25084   0.283   3.257   3.485  0.0990 -0.3623  0.4000
 4484SOL    HW125085   0.366   3.297   3.510 -0.7458  0.8327  1.2858
 4484SOL    HW225086   0.225   3.273   3.559  0.2921 -1.3736  0.7708
 4485SOL     OW25087   4.591   2.019   7.841 -0.2566  0.4957 -0.2352
 4485SOL    HW125088   4.597   1.979   7.755 -0.8619  0.2717 -0.1765
 4485SOL    HW225089   4.670   1.982   7.880 -1.0308 -0.8452  0.0339
 4486SOL     OW25090   0.843   0.013   8.240 -0.0443 -0.5623 -0.1388
 4486SOL    HW125091   0.909   0.025   8.172 -0.2269  0.9373 -0.0496
 4486SOL    HW225092   0.898   0.019   8.318 -0.7739 -2.2039  0.4921
 4487SOL     OW25093   4.092   3.568   5.425 -0.0518 -0.5903  0.5656
 4487SOL    HW125094   4.179   3.575   5.464  0.9957 -1.4797 -1.6321
 4487SOL    HW225095   4.082   3.651   5.377  1.0537 -0.4841  0.5295
 4488SOL     OW25096   1.868   4.649   3.490 -0.1691 -0.2377  0.4561
 4488SOL    HW125097   1.941   4.606   3.446 -0.6661  0.0752 -0.6629
 4488SOL    HW225098   1.799   4.584   3.480 -2.7056  2.2756  1.5253
 4489SOL     OW25099   3.665   1.220   5.228 -0.1229 -0.1781  0.3523
 4489SOL    HW125100   3.728   1.178   5.286  1.6242  1.0440 -0.6686
 4489SOL    HW225101   3.611   1.273   5.286 -2.4646 -1.0813 -0.9781
 4490SOL     OW25102   1.184   1.707  17.536  0.2619 -0.1423 -0.6213
 4490SOL    HW125103   1.200   1.758  17.615 -0.3769  0.6845 -1.0199
 4490SOL    HW225104   1.254   1.646  17.558  0.7306  1.0369  1.2163
 4491SOL     OW25105   2.787   0.534   5.565  0.1687 -0.5194  0.0467
 4491SOL    HW125106   2.749   0.468   5.622  0.0186 -0.6965 -0.2583
 4491SOL    HW225107   2.736   0.615   5.577 -0.2960 -1.1486  2.3117
 4492SOL     OW25108   1.234   4.347   6.048  0.0873  0.5794 -0.1227
 4492SOL    HW125109   1.214   4.437   6.071  0.0306  0.5527 -0.0676
 4492SOL    HW225110   1.227   4.336   5.953 -0.5570 -0.8389  0.0866
 4493SOL     OW25111   1.603   4.707   8.732 -0.1792  0.5006 -0.0268
 4493SOL    HW125112   1.530   0.003   8.783 -1.8805 -0.5945 -1.7675
 4493SOL    HW225113   1.679   0.026   8.744  1.0563 -1.8845  3.3470
 4494SOL     OW25114   1.430   1.793   4.319  0.1771  0.4536  0.4929
 4494SOL    HW125115   1.470   1.837   4.395  0.6812  2.4002 -0.8870
 4494SOL    HW225116   1.507   1.771   4.267  0.2385 -2.1208  1.6782
 4495SOL     OW25117   2.986   2.507   9.779  0.2819 -0.4197 -0.3073
 4495SOL    HW125118   3.077   2.517   9.753  1.4867 -0.5103  3.8659
 4495SOL    HW225119   2.955   2.417   9.777  0.0699 -0.3416 -0.7180
 4496SOL     OW25120   4.092   0.592  12.157 -0.2752  0.4767 -0.0297
 4496SOL    HW125121   4.010   0.547  12.137  0.6236 -0.8696 -0.6912
 4496SOL    HW225122   4.153   0.518  12.166 -0.6303  0.1331 -0.4726
 4497SOL     OW25123   0.039   3.772   3.031  0.3896  0.2502 -0.2764
 4497SOL    HW125124   0.060   3.697   2.976 -0.5370 -0.9328  0.9907
 4497SOL    HW225125   4.686   3.751   3.053  1.2807  0.0431  3.2925
 4498SOL     OW25126   2.262   2.655   8.815  0.1352 -0.4417  0.2836
 4498SOL    HW125127   2.239   2.724   8.878 -1.3826  0.2177 -0.9851
 4498SOL    HW225128   2.181   2.606   8.801 -1.4649  2.1703  0.3675
 4499SOL     OW25129   0.421   1.356   9.759 -0.1576 -0.5546  0.2536
 4499SOL    HW125130   0.460   1.336   9.674  1.4658  0.2835  0.8080
 4499SOL    HW225131   0.408   1.267   9.793  1.1336 -0.3865  1.1926
 4500SOL     OW25132   1.293   2.468   7.381 -0.4190  0.3960 -0.4519
 4500SOL    HW125133   1.316   2.552   7.340  0.1087  0.9399  0.9330
 4500SOL    HW225134   1.353   2.415   7.329  0.1611  0.7519 -0.1487
 4501SOL     OW25135   2.981   0.109   2.793 -0.4800  0.2928  0.0143
 4501SOL    HW125136   2.898   0.074   2.823  0.8702 -1.5484  1.6467
 4501SOL    HW225137   2.964   0.113   2.699 -0.0594 -0.3539 -0.0906
 4502SOL     OW25138   3.118   1.294   4.382  0.0842 -0.6093 -0.0158
 4502SOL    HW125139   3.171   1.264   4.457  0.2634  0.3358  0.2417
 4502SOL    HW225140   3.183   1.335   4.324 -1.2364 -0.4621 -1.3641
 4503SOL     OW25141   3.419   1.243  11.163 -0.3727  0.0960  0.3094
 4503SOL    HW125142   3.489   1.308  11.163 -0.1888 -0.0806  2.1528
 4503SOL    HW225143   3.424   1.225  11.069 -2.2477 -0.6175  0.3378
 4504SOL     OW25144   4.405   0.200  16.461 -0.1777 -1.0145  0.2085
 4504SOL    HW125145   4.384   0.255  16.385 -1.6800 -1.2584  0.4465
 4504SOL    HW225146   4.457   0.135  16.416 -1.4975 -2.1392  0.3145
 4505SOL     OW25147   2.187   3.600   4.876  0.1648 -0.1841 -0.0047
 4505SOL    HW125148   2.225   3.598   4.788 -0.3425  1.3386 -0.2663
 4505SOL    HW225149   2.114   3.539   4.865  1.7409 -2.1221  0.2460
 4506SOL     OW25150   4.272   4.090   4.696  0.5346  0.2227 -0.0905
 4506SOL    HW125151   4.366   4.082   4.679  0.3942  3.2634 -2.1862
 4506SOL    HW225152   4.241   4.084   4.606 -2.2421 -1.1660  0.9679
 4507SOL     OW25153   2.031   2.448   9.676  0.5837 -0.1749 -0.5333
 4507SOL    HW125154   1.989   2.477   9.757  1.1572 -0.7121 -0.0489
 4507SOL    HW225155   1.966   2.449   9.606 -0.6563  0.2250  0.6389
 4508SOL     OW25156   4.614   4.441   9.065 -0.1684 -0.7074  0.3301
 4508SOL    HW125157   4.639   4.380   9.134  1.7025 -0.0029  0.2623
 4508SOL    HW225158   4.532   4.397   9.041 -0.3644  0.5313 -1.2925
 4509SOL     OW25159   3.012   2.394   4.216  0.0574 -0.0706 -0.2488
 4509SOL    HW125160   3.077   2.387   4.146  0.8330 -2.2702  0.7134
 4509SOL    HW225161   3.005   2.306   4.252 -1.7258 -0.7200 -2.1739
 4510SOL     OW25162   2.635   2.994  10.307 -0.3068  0.3385  0.1551
 4510SOL    HW125163   2.571   3.011  10.376 -0.1823 -0.1407  0.3900
 4510SOL    HW225164   2.573   2.994  10.233  0.6363  0.4746 -0.6409
 4511SOL     OW25165   2.274   0.937  17.034 -0.4184  0.3566  0.5274
 4511SOL    HW125166   2.213   0.938  16.960 -0.9783 -0.8362  0.9553
 4511SOL    HW225167   2.236   0.999  17.096  0.3627  0.8067  0.5576
 4512SOL     OW25168   1.921   3.512   6.278  0.2923  0.3914  0.1222
 4512SOL    HW125169   1.967   3.485   6.357 -1.5175 -1.0765  0.6889
 4512SOL    HW225170   1.832   3.516   6.313 -0.1336  0.1379 -0.9347
 4513SOL     OW25171   1.288   0.016   3.777 -0.4388 -0.0325  0.1342
 4513SOL    HW125172   1.246   4.707   3.705  0.9938  0.3936 -0.9809
 4513SOL    HW225173   1.215   0.023   3.838 -0.1147 -0.3091  0.5543
 4514SOL     OW25174   1.730   2.664   4.477 -0.2042 -0.0726 -0.1863
 4514SOL    HW125175   1.757   2.715   4.401  0.3928  0.6284  0.5013
 4514SOL    HW225176   1.813   2.617   4.486  0.8072  2.1078  1.7166
 4515SOL     OW25177   4.308   1.593   5.393 -0.6159 -0.4756  0.2430
 4515SOL    HW125178   4.270   1.558   5.474 -0.1382 -2.4705 -0.3772
 4515SOL    HW225179   4.338   1.674   5.434  1.0437 -1.2413  0.5552
 4516SOL     OW25180   4.612   0.610   4.085 -0.4305 -0.1866  0.3254
 4516SOL    HW125181   4.525   0.621   4.123 -0.0641  0.1916  1.0431
 4516SOL    HW225182   4.589   0.657   4.005  2.5333 -1.7275 -1.4725
 4517SOL     OW25183   0.870   0.839  11.894  0.0829 -0.0849 -0.5035
 4517SOL    HW125184   0.804   0.774  11.871  0.0985 -0.6851  1.1459
 4517SOL    HW225185   0.863   0.905  11.825 -2.1689  0.8088  0.5865
 4518SOL     OW25186   2.573   3.396   4.937 -0.2970  0.1376  0.3742
 4518SOL    HW125187   2.516   3.378   4.862  0.0061 -0.7092  0.3508
 4518SOL    HW225188   2.571   3.491   4.927 -0.4579 -0.0025 -0.9779
 4519SOL     OW25189   1.273   3.670   2.204 -0.3877 -0.3133 -0.2663
 4519SOL    HW125190   1.352   3.714   2.236 -1.0504  1.4361 -1.0243
 4519SOL    HW225191   1.207   3.698   2.268 -1.8386  0.1177 -1.9511
 4520SOL     OW25192   2.081   1.638  12.181  0.8899  0.0702  0.4610
 4520SOL    HW125193   2.171   1.621  12.209  1.4938  0.9493 -0.9204
 4520SOL    HW225194   2.035   1.564  12.221 -0.3500  0.4906 -0.1876
 4521SOL     OW25195   1.742   1.545   2.639  0.3033  0.3747  0.8263
 4521SOL    HW125196   1.785   1.480   2.583 -1.5860  0.1961 -0.4003
 4521SOL    HW225197   1.827   1.589   2.648  0.5717 -0.2940  1.5360
 4522SOL     OW25198   3.504   3.804  14.038 -0.3571  0.6917  0.3873
 4522SOL    HW125199   3.491   3.710  14.026  1.4022  0.3779  0.8241
 4522SOL    HW225200   3.441   3.829  14.105  0.0652  2.4473  0.1295
 4523SOL     OW25201   3.208   0.857   2.621  0.4567 -0.1810 -0.2518
 4523SOL    HW125202   3.259   0.832   2.545 -0.0350  2.3048 -1.3914
 4523SOL    HW225203   3.229   0.780   2.674  0.9367  0.0996 -0.0298
 4524SOL     OW25204   4.445   0.154   4.520 -0.4107  0.4263  0.0698
 4524SOL    HW125205   4.402   0.097   4.583 -0.0427  0.3626  0.2661
 4524SOL    HW225206   4.442   0.233   4.575 -0.6055  0.6909 -0.3195
 4525SOL     OW25207   4.406   4.725   0.211  0.8775  1.0318  1.0763
 4525SOL    HW125208   4.347   0.044   0.261  0.5848  0.1488  1.7347
 4525SOL    HW225209   4.490   0.033   0.213  0.8417  1.0411  2.4115
 4526SOL     OW25210   0.600   2.932   3.442  0.4622  0.6422 -0.7144
 4526SOL    HW125211   0.627   2.984   3.366 -0.8630  0.1368 -1.5258
 4526SOL    HW225212   0.637   2.846   3.423 -0.3118 -0.0970  1.0773
 4527SOL     OW25213   0.666   0.586   6.850 -0.0065 -0.4908  1.0975
 4527SOL    HW125214   0.739   0.629   6.804  0.7237 -1.0555  1.7217
 4527SOL    HW225215   0.689   0.618   6.938  0.9640  0.6498  0.4313
 4528SOL     OW25216   0.491   0.915   7.110  0.1993 -0.1054 -0.8004
 4528SOL    HW125217   0.478   0.860   7.188  2.8606  2.1214  1.2300
 4528SOL    HW225218   0.441   0.868   7.044 -0.8668  0.6605 -0.5358
 4529SOL     OW25219   1.621   0.283  17.470  0.4248 -0.9772 -0.2507
 4529SOL    HW125220   1.696   0.225  17.480  0.0496 -1.0404  2.3549
 4529SOL    HW225221   1.660   0.369  17.489 -0.8446 -0.3605 -0.4449
 4530SOL     OW25222   2.808   3.355  11.966  0.3744 -0.2025  0.5675
 4530SOL    HW125223   2.803   3.430  12.025  0.1810 -1.5599  2.2681
 4530SOL    HW225224   2.788   3.393  11.880 -1.9913 -1.5865  0.5268
 4531SOL     OW25225   2.397   2.177  12.971  0.4060 -0.2972  0.2204
 4531SOL    HW125226   2.351   2.178  12.887 -1.0926 -0.6891  1.0364
 4531SOL    HW225227   2.479   2.220  12.947  0.8786 -1.3260 -0.0588
 4532SOL     OW25228   3.073   3.980   4.198 -0.0571 -0.2508 -0.5700
 4532SOL    HW125229   3.058   3.947   4.287 -0.2175 -1.9456 -1.2329
 4532SOL    HW225230   3.167   3.971   4.188  0.0793 -0.1409  0.6374
 4533SOL     OW25231   2.723   3.366   9.035 -0.2945  0.1930 -0.3390
 4533SOL    HW125232   2.692   3.277   9.047  1.8964 -0.7376 -1.6305
 4533SOL    HW225233   2.793   3.371   9.100 -1.5447  1.0252  0.9500
 4534SOL     OW25234   1.941   0.025  13.817  0.0928  0.6088 -0.0464
 4534SOL    HW125235   1.995   0.103  13.802 -1.1770  2.0582  3.0660
 4534SOL    HW225236   1.899   0.059  13.896 -2.5924 -2.8500 -0.0011
 4535SOL     OW25237   2.195   0.117   5.762 -0.0597  0.3067 -0.0384
 4535SOL    HW125238   2.172   0.207   5.787  0.1473  0.6760 -1.1614
 4535SOL    HW225239   2.276   0.137   5.714 -0.3392 -0.3805 -0.8112
 4536SOL     OW25240   1.525   1.792   4.978 -0.0400  0.1361  0.2531
 4536SOL    HW125241   1.567   1.877   4.985  0.8786 -0.4126  1.5608
 4536SOL    HW225242   1.461   1.818   4.912  0.9057  0.5852 -0.4808
 4537SOL     OW25243   3.484   2.852   0.775 -0.4936  0.2246  1.0481
 4537SOL    HW125244   3.453   2.943   0.772 -1.3890 -0.1380 -0.6036
 4537SOL    HW225245   3.548   2.856   0.704  0.1480 -0.4895  1.5907
 4538SOL     OW25246   2.893   3.371   4.301  0.0859  0.1929  0.1779
 4538SOL    HW125247   2.838   3.442   4.334  0.5976 -0.2659  2.0116
 4538SOL    HW225248   2.958   3.355   4.369 -2.1476 -1.3949  1.9394
 4539SOL     OW25249   4.066   2.781   2.519 -0.0635  0.6890  0.2011
 4539SOL    HW125250   4.010   2.712   2.555  1.6083 -0.9256 -0.2955
 4539SOL    HW225251   4.023   2.823   2.445  1.6264  1.5225 -0.2993
 4540SOL     OW25252   2.541   3.033   3.811  0.1881  0.5906  0.0068
 4540SOL    HW125253   2.481   3.082   3.868  0.8219  0.1278  1.0838
 4540SOL    HW225254   2.483   3.009   3.739  0.1243  2.6315 -0.6243
 4541SOL     OW25255   0.995   3.660   4.942  0.5353 -0.1818  0.3291
 4541SOL    HW125256   1.055   3.592   4.913  0.6986  0.0784  0.0482
 4541SOL    HW225257   1.047   3.738   4.965  0.1179  0.1216  0.2492
 4542SOL     OW25258   2.484   0.812  16.580  0.2317 -1.1513  0.2183
 4542SOL    HW125259   2.450   0.729  16.547 -0.9241 -1.5470  2.4221
 4542SOL    HW225260   2.422   0.844  16.644 -0.8861 -2.4556 -0.2183
 4543SOL     OW25261   1.299   0.647   0.070  0.2435 -0.7994  0.6660
 4543SOL    HW125262   1.354   0.721   0.095 -0.7799  0.5876 -1.2131
 4543SOL    HW225263   1.217   0.678   0.111  0.0488  0.3745 -0.5947
 4544SOL     OW25264   1.321   2.722   3.869 -0.1148  0.1638  0.4912
 4544SOL    HW125265   1.310   2.763   3.955 -2.1739  2.1987 -0.7253
 4544SOL    HW225266   1.335   2.793   3.806 -1.5008 -1.4046 -1.5772
 4545SOL     OW25267   1.401   0.231   9.963 -0.3263 -0.1984 -0.6920
 4545SOL    HW125268   1.462   0.234   9.890 -1.5292  1.6790 -1.6026
 4545SOL    HW225269   1.395   0.136   9.980  0.9634 -0.2857 -0.7574
 4546SOL     OW25270   1.225   1.310  13.800 -0.1427 -0.5999 -0.1627
 4546SOL    HW125271   1.205   1.276  13.887 -1.6555  1.6476  0.3740
 4546SOL    HW225272   1.313   1.342  13.824 -0.9406  1.4284  0.0777
 4547SOL     OW25273   1.709   2.587  10.396 -0.1098 -0.0831  1.1366
 4547SOL    HW125274   1.733   2.640  10.319  0.8568  0.0806  1.5455
 4547SOL    HW225275   1.637   2.633  10.440 -0.5513  0.8847 -0.5882
 4548SOL     OW25276   1.257   3.327   7.804 -0.6493 -0.2099 -0.2539
 4548SOL    HW125277   1.188   3.280   7.852 -2.1554  0.1624 -2.0291
 4548SOL    HW225278   1.208   3.405   7.776 -1.3363 -0.4959  0.1289
 4549SOL     OW25279   3.573   2.339   7.744  0.2324  0.3338 -0.3861
 4549SOL    HW125280   3.551   2.247   7.752 -0.4778  0.9035  4.1053
 4549SOL    HW225281   3.507   2.363   7.678  1.4361 -0.6967 -1.9518
 4550SOL     OW25282   0.232   1.502  10.237 -0.3584 -0.0645  0.3537
 4550SOL    HW125283   0.165   1.560  10.200  1.0816  0.4757 -1.4098
 4550SOL    HW225284   0.177   1.426  10.253 -0.1881 -0.0513  0.9800
 4551SOL     OW25285   3.551   4.617  14.172  0.3612 -0.4404 -0.4681
 4551SOL    HW125286   3.546   4.711  14.187 -0.0967  0.0834 -3.8055
 4551SOL    HW225287   3.469   4.598  14.126  0.4818  0.3348 -0.9979
 4552SOL     OW25288   2.430   1.649   5.240  0.2264 -0.3710  0.1356
 4552SOL    HW125289   2.518   1.685   5.233  0.4746 -1.0850 -0.3436
 4552SOL    HW225290   2.433   1.592   5.163  0.2594 -2.4451  1.6862
 4553SOL     OW25291   2.309   4.072   3.129 -0.7001 -0.1824 -0.1145
 4553SOL    HW125292   2.364   3.993   3.126 -0.2006  0.1012  1.9421
 4553SOL    HW225293   2.265   4.055   3.045  1.5607  0.6464 -1.4499
 4554SOL     OW25294   2.706   2.645  11.844  0.6180 -0.9318 -0.3547
 4554SOL    HW125295   2.747   2.707  11.782 -2.3969 -0.4789 -1.8802
 4554SOL    HW225296   2.634   2.625  11.785 -1.2473  1.4505  1.1130
 4555SOL     OW25297   4.184   1.626   6.103  0.4630  0.1732 -0.0138
 4555SOL    HW125298   4.129   1.636   6.026 -1.4900 -1.0692  1.2068
 4555SOL    HW225299   4.146   1.691   6.163  0.4831  0.4805 -0.3365
 4556SOL     OW25300   2.559   2.890   4.446  0.1011  0.0052  0.1952
 4556SOL    HW125301   2.535   2.830   4.376 -0.7956 -0.3782  0.8348
 4556SOL    HW225302   2.654   2.893   4.434  0.0765 -0.5012 -0.1201
 4557SOL     OW25303   3.427   2.601   5.093  0.4535  0.5309 -0.2750
 4557SOL    HW125304   3.445   2.516   5.054 -1.0409  1.1755 -2.4240
 4557SOL    HW225305   3.493   2.593   5.162  1.0241  0.3750 -0.8442
 4558SOL     OW25306   3.857   0.845   4.439 -0.0142  0.5764 -0.1116
 4558SOL    HW125307   3.940   0.845   4.487  0.9090  1.2885 -1.6908
 4558SOL    HW225308   3.817   0.925   4.472 -1.6278  0.0056 -0.7050
 4559SOL     OW25309   3.670   1.375   6.755 -0.1043  0.0106 -0.3910
 4559SOL    HW125310   3.613   1.366   6.679  1.1994  0.4982 -1.4212
 4559SOL    HW225311   3.631   1.459   6.780 -0.2582 -0.2344  0.1862
 4560SOL     OW25312   3.784   2.723   9.490 -0.1169 -0.2527  0.1572
 4560SOL    HW125313   3.705   2.682   9.455  0.6264  0.1247 -1.9263
 4560SOL    HW225314   3.831   2.708   9.408  0.2993  0.3154  0.2948
 4561SOL     OW25315   0.952   4.071   5.034 -0.0763  0.1449 -0.1454
 4561SOL    HW125316   1.048   4.068   5.025 -0.1434 -0.2956 -0.6937
 4561SOL    HW225317   0.934   4.154   4.991 -1.0181  0.8765  1.6913
 4562SOL     OW25318   4.292   2.854  13.490  0.1088 -0.1162 -0.1586
 4562SOL    HW125319   4.257   2.811  13.411 -0.3410 -0.4232  0.2062
 4562SOL    HW225320   4.249   2.939  13.486 -1.7045 -0.9877  0.5806
 4563SOL     OW25321   3.853   0.610   4.723 -0.4327  0.3439 -0.1629
 4563SOL    HW125322   3.766   0.603   4.683  0.6910  0.3759 -2.6279
 4563SOL    HW225323   3.892   0.529   4.691 -1.4769  0.4363 -1.6421
 4564SOL     OW25324   4.368   0.997   8.889 -0.3258 -0.1458 -0.2515
 4564SOL    HW125325   4.457   1.027   8.870 -0.2695 -0.1093  0.0673
 4564SOL    HW225326   4.375   0.906   8.860 -0.7762 -0.1725 -0.2716
 4565SOL     OW25327   1.357   3.697   6.838  0.2686 -0.3917 -0.5077
 4565SOL    HW125328   1.426   3.763   6.829  1.1829 -1.2530  0.2895
 4565SOL    HW225329   1.282   3.745   6.873  0.4755  0.4794 -1.2484
 4566SOL     OW25330   2.603   3.043   8.842 -0.6200 -0.0060  0.1894
 4566SOL    HW125331   2.633   3.059   8.931  1.2757  0.1180 -0.4794
 4566SOL    HW225332   2.520   3.090   8.835 -0.4875  0.0580 -0.9863
 4567SOL     OW25333   3.671   3.185  14.130  0.5567  0.3886 -0.5337
 4567SOL    HW125334   3.703   3.178  14.220  0.2908  0.1258 -0.4588
 4567SOL    HW225335   3.587   3.141  14.144  0.2817  1.0016 -0.2613
 4568SOL     OW25336   2.634   2.307  12.949  0.0836  0.5425 -0.1140
 4568SOL    HW125337   2.709   2.355  12.983 -1.0118  1.3828  1.1088
 4568SOL    HW225338   2.602   2.368  12.883 -1.9541  0.4220  0.7813
 4569SOL     OW25339   3.190   2.827  13.737  0.7251 -0.4085 -0.4957
 4569SOL    HW125340   3.152   2.848  13.823 -1.1715 -2.0912 -0.8930
 4569SOL    HW225341   3.148   2.741  13.730  0.7319 -0.5303  0.9107
 4570SOL     OW25342   0.113   1.711   8.133 -0.0026  0.6637 -0.4851
 4570SOL    HW125343   0.094   1.618   8.122  1.2935  0.1940  1.1982
 4570SOL    HW225344   0.061   1.732   8.211  1.0178  0.4993  0.2470
 4571SOL     OW25345   2.209   4.182   0.013  0.3202 -0.3673  0.3216
 4571SOL    HW125346   2.247   4.234   0.083  0.3786  0.3500 -0.2419
 4571SOL    HW225347   2.120   4.165   0.043  0.9131 -2.7870  0.7154
 4572SOL     OW25348   1.031   3.293   5.725 -0.4866 -0.1087  0.6056
 4572SOL    HW125349   1.063   3.306   5.636  0.6359  0.3642  1.0902
 4572SOL    HW225350   1.104   3.335   5.770  0.4515 -0.8691 -0.2251
 4573SOL     OW25351   2.101   4.245   2.832 -0.2592 -0.6802 -0.0806
 4573SOL    HW125352   2.110   4.312   2.763  2.1279 -3.0590 -2.0745
 4573SOL    HW225353   2.180   4.192   2.838 -0.8029 -1.2150  2.1241
 4574SOL     OW25354   0.055   1.180   5.968  0.1302  0.2599  0.0763
 4574SOL    HW125355   4.733   1.246   5.933  0.3962  0.3899 -0.1361
 4574SOL    HW225356   0.109   1.167   5.889  1.9458  1.0212  1.1814
 4575SOL     OW25357   3.747   0.590   9.066 -0.0454  0.7502 -0.4026
 4575SOL    HW125358   3.700   0.507   9.055  1.0678  0.3353 -2.1322
 4575SOL    HW225359   3.839   0.568   9.078  0.2579  1.2424 -1.8116
 4576SOL     OW25360   1.367   4.463   3.722  0.4211 -0.2503 -0.0481
 4576SOL    HW125361   1.272   4.456   3.712  0.6642 -1.0322 -1.8872
 4576SOL    HW225362   1.398   4.394   3.663  0.1625  0.2736 -0.7974
 4577SOL     OW25363   0.138   0.140  13.494 -0.1831  0.3030 -0.4404
 4577SOL    HW125364   0.188   0.059  13.482 -2.0930 -1.0971  1.0310
 4577SOL    HW225365   0.060   0.091  13.521  0.6334 -1.2706 -0.9002
 4578SOL     OW25366   2.118   2.256   3.491  0.0277  0.3327 -0.2541
 4578SOL    HW125367   2.194   2.199   3.480 -0.7459 -0.2802 -2.4202
 4578SOL    HW225368   2.131   2.322   3.424 -1.1317 -2.1623 -2.9543
 4579SOL     OW25369   2.851   2.421   7.567 -0.5316 -0.1517  0.0660
 4579SOL    HW125370   2.858   2.390   7.657 -2.2749  0.1166  0.2920
 4579SOL    HW225371   2.842   2.515   7.578  1.3108  0.1465 -0.9011
 4580SOL     OW25372   0.335   1.198   6.202  0.1046 -0.0291 -0.6268
 4580SOL    HW125373   0.408   1.260   6.205  0.3226 -0.2807 -0.7394
 4580SOL    HW225374   0.259   1.247   6.233  1.6731 -0.5082  4.1142
 4581SOL     OW25375   4.331   2.190   1.974  1.0468 -0.1590  0.3423
 4581SOL    HW125376   4.375   2.126   1.919  2.4929  1.9154 -0.8827
 4581SOL    HW225377   4.353   2.153   2.060  2.1715 -0.8503 -0.2457
 4582SOL     OW25378   4.449   3.959   3.489 -0.2491 -0.3178  0.2140
 4582SOL    HW125379   4.521   4.005   3.446  1.0925 -2.0473  0.6245
 4582SOL    HW225380   4.494   3.884   3.528  0.2396 -0.4332 -0.5603
 4583SOL     OW25381   2.564   2.151   7.046 -0.2395 -0.1717  0.1034
 4583SOL    HW125382   2.471   2.139   7.068 -0.5173  2.0130  0.1398
 4583SOL    HW225383   2.555   2.164   6.952 -1.0704  0.0756  0.2122
 4584SOL     OW25384   3.748   2.592   5.530  0.2989 -0.0935 -0.0721
 4584SOL    HW125385   3.808   2.521   5.509  0.1311 -0.6431  1.2685
 4584SOL    HW225386   3.799   2.639   5.596  0.4563  0.0508 -0.2981
 4585SOL     OW25387   2.046   0.302   5.939  0.2598  0.1565  0.0208
 4585SOL    HW125388   1.975   0.270   5.882  2.8740 -0.7953 -2.7085
 4585SOL    HW225389   2.035   0.397   5.939 -2.1493 -0.1048  0.7037
 4586SOL     OW25390   4.616   0.138  15.330 -0.1718 -0.5431 -0.1293
 4586SOL    HW125391   4.592   0.198  15.400 -3.4776 -0.0839 -1.6299
 4586SOL    HW225392   4.530   0.110  15.298  0.4951  0.6413 -2.9261
 4587SOL     OW25393   0.469   0.440   1.493  0.1024  0.0890 -0.6137
 4587SOL    HW125394   0.466   0.509   1.426 -1.1913  1.0833  0.4834
 4587SOL    HW225395   0.417   0.469   1.568  0.6260  1.8879 -0.9365
 4588SOL     OW25396   4.282   1.264  13.924  0.3909  0.1707  0.5042
 4588SOL    HW125397   4.207   1.208  13.899 -0.3496  1.5625 -0.3918
 4588SOL    HW225398   4.344   1.207  13.878  0.6321  0.8366  0.0149
 4589SOL     OW25399   0.875   0.488  16.224 -0.0138 -0.3036 -0.4643
 4589SOL    HW125400   0.847   0.467  16.135  1.7707  1.3009 -1.3956
 4589SOL    HW225401   0.968   0.499  16.205  0.1403 -0.5466  0.1414
 4590SOL     OW25402   3.113   3.002  14.267 -0.3073  0.7866  0.5393
 4590SOL    HW125403   3.163   2.952  14.332  2.8097  0.1578 -2.3407
 4590SOL    HW225404   3.060   3.060  14.321  2.0326  2.6367  0.8669
 4591SOL     OW25405   3.576   4.168   8.671 -0.6533  0.3108 -0.0597
 4591SOL    HW125406   3.551   4.237   8.610 -2.4955 -1.7587 -1.6145
 4591SOL    HW225407   3.594   4.111   8.597 -0.9553 -3.0384  2.3994
 4592SOL     OW25408   3.042   2.080   3.655 -0.2102  0.1126  0.1378
 4592SOL    HW125409   2.987   2.002   3.664  1.9316 -1.5696 -1.3940
 4592SOL    HW225410   3.099   2.058   3.728  0.9596  0.4828 -0.6647
 4593SOL     OW25411   1.744   3.701   6.693 -0.2308 -0.3333 -0.1266
 4593SOL    HW125412   1.709   3.749   6.768  2.8217  0.0808  1.0318
 4593SOL    HW225413   1.700   3.757   6.629 -1.4937 -0.2343  0.8139
 4594SOL     OW25414   3.796   1.846  12.544  0.4691  0.2714  0.5752
 4594SOL    HW125415   3.831   1.772  12.494 -0.1878  1.5665 -1.8044
 4594SOL    HW225416   3.800   1.808  12.632 -0.6232  2.3752  1.5111
 4595SOL     OW25417   2.480   3.446   8.950 -0.2418  0.5557  0.5291
 4595SOL    HW125418   2.572   3.426   8.969 -0.7428 -2.5527 -0.4362
 4595SOL    HW225419   2.428   3.397   9.014 -1.7295  0.3174 -0.8747
 4596SOL     OW25420   4.713   2.918   3.884 -0.0784  0.3350  0.5779
 4596SOL    HW125421   4.709   2.877   3.970  2.9293 -0.1491  0.5005
 4596SOL    HW225422   4.704   3.010   3.911 -0.8015  0.2098  0.7455
 4597SOL     OW25423   3.380   4.124  16.817  0.2476 -0.8147  0.1964
 4597SOL    HW125424   3.423   4.136  16.732 -1.0697 -1.4189 -0.5528
 4597SOL    HW225425   3.325   4.047  16.800  1.5660 -2.1285  1.8813
 4598SOL     OW25426   0.591   2.690   2.497  0.5923 -0.6568 -0.1313
 4598SOL    HW125427   0.588   2.594   2.500  0.3670 -0.6157  0.7899
 4598SOL    HW225428   0.603   2.707   2.590  2.0391  0.9749 -0.6299
 4599SOL     OW25429   1.608   0.044   3.163 -0.3944 -0.0631 -0.6704
 4599SOL    HW125430   1.521   0.074   3.136  0.0189  1.9775  0.2479
 4599SOL    HW225431   1.588   4.701   3.211  1.5389 -0.2095 -0.1440
 4600SOL     OW25432   0.010   1.317   8.892 -0.0919  0.0034  0.2602
 4600SOL    HW125433   4.700   1.372   8.829  0.1917  0.5811  0.5593
 4600SOL    HW225434   0.077   1.373   8.931  2.3748 -2.1588 -0.8656
 4601SOL     OW25435   3.635   3.075   6.886 -0.5934  0.0944 -0.3005
 4601SOL    HW125436   3.672   3.012   6.948 -0.9424  0.3515  0.1753
 4601SOL    HW225437   3.715   3.085   6.833  0.1282 -0.4167  0.6952
 4602SOL     OW25438   1.566   0.154  13.421  0.1735 -0.0899 -0.1716
 4602SOL    HW125439   1.604   0.098  13.489 -2.0305 -1.0568  0.2461
 4602SOL    HW225440   1.625   0.229  13.435  1.2208 -1.0706  0.7145
 4603SOL     OW25441   3.275   0.046   3.716  0.0326 -0.1851 -0.2011
 4603SOL    HW125442   3.291   4.720   3.646 -1.5426  0.1171 -0.8592
 4603SOL    HW225443   3.179   0.051   3.717 -0.0001 -1.3247  0.9113
 4604SOL     OW25444   2.904   2.303   3.731  0.1735  0.0190 -0.0203
 4604SOL    HW125445   2.921   2.254   3.812 -0.7376 -0.5581 -0.1813
 4604SOL    HW225446   2.944   2.245   3.666  1.1164 -0.5314  1.0526
 4605SOL     OW25447   4.718   3.233  11.730 -0.0583  0.1518  0.0030
 4605SOL    HW125448   4.676   3.257  11.813 -0.6392 -2.2626  0.4140
 4605SOL    HW225449   4.705   3.138  11.735 -0.5330  0.2679  0.8366
 4606SOL     OW25450   0.082   2.340   5.705 -0.0031 -0.0742  0.0224
 4606SOL    HW125451   0.041   2.348   5.791 -1.6432  0.8932 -0.8591
 4606SOL    HW225452   0.174   2.331   5.730  0.2678  2.4779 -0.1024
 4607SOL     OW25453   1.165   2.459   4.960 -0.3216  0.0534  0.1181
 4607SOL    HW125454   1.170   2.366   4.983 -2.5959 -0.6121 -2.0292
 4607SOL    HW225455   1.222   2.507   5.019  1.0115 -3.0183  1.3382
 4608SOL     OW25456   2.641   4.447   2.225 -0.4462 -0.0444  0.1860
 4608SOL    HW125457   2.683   4.423   2.143 -0.5519  1.8509 -0.4016
 4608SOL    HW225458   2.619   4.536   2.200  0.3151 -0.1143 -0.7267
 4609SOL     OW25459   1.502   0.126   1.146  0.4225 -0.0021  0.0692
 4609SOL    HW125460   1.587   0.169   1.134  1.0188 -1.0887  0.3078
 4609SOL    HW225461   1.497   0.062   1.075  0.4207  1.1164 -0.9389
 4610SOL     OW25462   0.369   1.145   5.094  0.5994 -0.2430  0.4030
 4610SOL    HW125463   0.284   1.102   5.104 -0.0090  1.3239  2.1233
 4610SOL    HW225464   0.403   1.108   5.013 -1.4904 -1.7900  0.2208
 4611SOL     OW25465   0.991   3.862   2.239  0.0476 -0.1980  0.5940
 4611SOL    HW125466   1.070   3.915   2.246 -1.5205  2.3174 -0.8639
 4611SOL    HW225467   0.954   3.887   2.324  0.0709 -1.5735  1.0086
 4612SOL     OW25468   3.634   2.660   7.505 -0.1004 -0.7213  0.5593
 4612SOL    HW125469   3.561   2.635   7.449 -0.4738 -0.0032  0.7319
 4612SOL    HW225470   3.680   2.728   7.457  2.6244 -2.2639  0.9798
 4613SOL     OW25471   4.252   1.571   2.628  0.4966 -0.1788 -0.3419
 4613SOL    HW125472   4.277   1.573   2.721 -2.4905 -2.1728  0.4705
 4613SOL    HW225473   4.186   1.504   2.617  0.3478 -0.2046  0.6758
 4614SOL     OW25474   3.012   2.175   4.356 -0.3489 -0.2190 -0.1935
 4614SOL    HW125475   2.950   2.206   4.423 -0.1732 -1.9678  0.7864
 4614SOL    HW225476   2.968   2.095   4.327 -0.0132  0.1702 -1.7499
 4615SOL     OW25477   2.105   1.245   9.125  0.1614 -0.4725 -0.1706
 4615SOL    HW125478   2.038   1.178   9.141  2.5172 -2.4848  1.1935
 4615SOL    HW225479   2.066   1.332   9.135 -2.2809 -1.7418  1.4446
 4616SOL     OW25480   4.581   0.854   4.317 -0.1281 -0.2901  0.5658
 4616SOL    HW125481   4.662   0.888   4.356 -0.3943  0.6703  0.3022
 4616SOL    HW225482   4.570   0.772   4.363 -0.1686 -0.4654  0.2425
 4617SOL     OW25483   0.220   1.625   4.490 -0.2354 -0.2630  0.1400
 4617SOL    HW125484   0.247   1.539   4.523  1.5640 -0.0622 -0.8569
 4617SOL    HW225485   0.130   1.611   4.519 -0.8381 -1.7995 -2.4829
 4618SOL     OW25486   3.795   4.163   0.015  0.0126  0.2932  0.0630
 4618SOL    HW125487   3.880   4.119   0.009 -0.9889 -1.1994 -3.0076
 4618SOL    HW225488   3.808   4.245  17.716  0.5512 -0.4304 -1.0407
 4619SOL     OW25489   1.436   2.764   2.679 -0.7104 -0.1240  0.2346
 4619SOL    HW125490   1.420   2.675   2.648 -1.7192  0.2995 -0.4594
 4619SOL    HW225491   1.519   2.784   2.636 -1.4745  0.6528 -0.8849
 4620SOL     OW25492   4.205   0.571   6.353 -0.0105 -0.3627 -0.6690
 4620SOL    HW125493   4.119   0.609   6.333  0.2368 -0.0056 -1.0496
 4620SOL    HW225494   4.251   0.583   6.270  0.2409 -1.5586 -0.7019
 4621SOL     OW25495   2.674   1.471   5.044  0.0270  0.2852 -0.2540
 4621SOL    HW125496   2.704   1.401   4.987  1.7285 -0.0255  1.0329
 4621SOL    HW225497   2.663   1.432   5.130 -1.2800 -2.5709 -1.7136
 4622SOL     OW25498   2.165   3.438  16.497 -0.1688 -0.2546 -0.7207
 4622SOL    HW125499   2.170   3.494  16.574 -0.6188 -1.4355  0.1570
 4622SOL    HW225500   2.217   3.360  16.516  2.3249  1.8894  1.2770
 4623SOL     OW25501   1.002   3.833   0.296  0.0593  0.1129 -0.7383
 4623SOL    HW125502   0.947   3.816   0.219 -0.4804  0.0233 -0.3292
 4623SOL    HW225503   1.057   3.755   0.298 -1.2330 -0.7824  0.1742
 4624SOL     OW25504   2.086   4.680   4.131  0.1307 -0.5962  0.3659
 4624SOL    HW125505   2.163   4.623   4.125  0.8780  0.3930  0.5397
 4624SOL    HW225506   2.121   0.028   4.156 -1.3920 -0.2493  1.3121
 4625SOL     OW25507   1.915   2.071   2.643 -0.0788  0.1140 -0.3158
 4625SOL    HW125508   1.932   2.161   2.616 -1.6809  0.0941 -1.3663
 4625SOL    HW225509   1.865   2.031   2.571 -0.0338  1.3462 -1.0287
 4626SOL     OW25510   3.216   3.314   4.373 -0.1410  0.0887  0.4330
 4626SOL    HW125511   3.306   3.313   4.404  0.2819  1.1065 -0.7552
 4626SOL    HW225512   3.173   3.243   4.420 -0.2352  0.6677  1.2330
 4627SOL     OW25513   0.838   3.502   6.653  0.1390 -0.2792 -0.0316
 4627SOL    HW125514   0.834   3.496   6.749 -0.8759 -0.5462 -0.0909
 4627SOL    HW225515   0.887   3.421   6.640 -1.9480 -2.2819  4.4774
 4628SOL     OW25516   4.217   0.970   7.997 -0.3296 -0.3301 -0.2865
 4628SOL    HW125517   4.217   0.988   8.091  0.1846 -2.5317  0.1231
 4628SOL    HW225518   4.126   0.967   7.966 -0.5835 -1.5260  0.5772
 4629SOL     OW25519   3.572   1.822   7.600  0.4700  0.1204 -0.0518
 4629SOL    HW125520   3.664   1.833   7.575  0.3340 -0.5791 -0.8941
 4629SOL    HW225521   3.537   1.765   7.531 -0.6430  0.2516  0.4147
 4630SOL     OW25522   2.166   4.365   6.751 -0.0809  0.5010 -0.0838
 4630SOL    HW125523   2.078   4.358   6.713 -0.9077 -1.0281  2.1736
 4630SOL    HW225524   2.201   4.425   6.685 -0.9684  2.6714  1.4237
 4631SOL     OW25525   2.888   0.497  10.437 -0.2934 -0.3512 -0.4082
 4631SOL    HW125526   2.835   0.418  10.444  0.0894 -0.6348 -0.7399
 4631SOL    HW225527   2.831   0.570  10.413 -0.4123 -0.8661 -1.6801
 4632SOL     OW25528   2.405   4.355  17.244  0.1378  0.4136  0.8033
 4632SOL    HW125529   2.339   4.405  17.196 -0.1466 -0.7387  0.0279
 4632SOL    HW225530   2.358   4.333  17.324  0.9564  1.3332  1.5524
 4633SOL     OW25531   2.422   4.474   9.289 -0.0851  0.0220  0.3164
 4633SOL    HW125532   2.430   4.559   9.332  1.8596  0.4686 -0.9334
 4633SOL    HW225533   2.327   4.478   9.276 -0.2928 -1.3866  1.3656
 4634SOL     OW25534   0.163   4.254  17.607 -0.1371  0.7375  0.0955
 4634SOL    HW125535   0.244   4.290  17.571  1.2473 -1.3663  1.0515
 4634SOL    HW225536   0.197   4.204  17.682  1.2979 -0.3149 -1.2382
 4635SOL     OW25537   2.242   1.993   1.734 -0.0398  0.5447  0.6217
 4635SOL    HW125538   2.318   2.048   1.754  2.1552 -1.6055 -1.8228
 4635SOL    HW225539   2.274   1.909   1.767 -1.1463 -0.0402  0.1898
 4636SOL     OW25540   0.392   1.596   6.089 -0.0957  0.2820  0.9400
 4636SOL    HW125541   0.455   1.662   6.060 -1.5821  1.7026  1.0041
 4636SOL    HW225542   0.323   1.620   6.027  2.1821 -0.9422 -2.0786
 4637SOL     OW25543   4.528   0.199   2.427 -0.1088 -0.0166 -0.1708
 4637SOL    HW125544   4.543   0.277   2.374 -2.4043  0.8549  0.4599
 4637SOL    HW225545   4.581   0.217   2.505  0.5144  2.3068 -1.1465
 4638SOL     OW25546   4.198   3.562   2.693  0.7705  0.5578 -0.2019
 4638SOL    HW125547   4.212   3.538   2.601  4.9092  1.1245  0.2960
 4638SOL    HW225548   4.267   3.513   2.737 -3.0855 -3.2851  1.5718
 4639SOL     OW25549   1.553   2.874   2.130  0.7329  0.3055 -0.5259
 4639SOL    HW125550   1.635   2.832   2.107  1.3719  2.1710 -1.6975
 4639SOL    HW225551   1.490   2.827   2.075  2.3630 -1.2412 -1.0474
 4640SOL     OW25552   4.019   1.113   2.958 -0.3997 -0.1716  0.2653
 4640SOL    HW125553   4.092   1.057   2.981 -2.8825 -3.9487 -1.0363
 4640SOL    HW225554   3.967   1.111   3.039  1.1787 -0.7210  1.2453
 4641SOL     OW25555   3.565   0.374   3.363  0.0168  0.1451 -0.0763
 4641SOL    HW125556   3.470   0.369   3.369  0.0219 -0.1458 -0.2299
 4641SOL    HW225557   3.579   0.313   3.290 -1.6363 -1.6253  1.0949
 4642SOL     OW25558   0.301   2.640   1.459  0.2420  0.0444  0.1722
 4642SOL    HW125559   0.312   2.683   1.375 -1.6725  2.9156  1.3649
 4642SOL    HW225560   0.222   2.685   1.491  0.6505  1.4241 -0.7599
 4643SOL     OW25561   4.465   3.193  13.570 -0.5801  0.3001  0.0786
 4643SOL    HW125562   4.458   3.176  13.664  0.3484 -0.7330 -0.0435
 4643SOL    HW225563   4.400   3.263  13.563  0.7739  1.5719  0.2441
 4644SOL     OW25564   0.131   4.665   0.936 -0.0959 -0.2527  0.2569
 4644SOL    HW125565   0.180   0.003   0.968  0.1547 -0.3118  0.0080
 4644SOL    HW225566   0.146   4.604   1.008 -0.4656  0.8640  1.2940
 4645SOL     OW25567   3.876   0.003  11.853  0.1130  0.3741 -0.0797
 4645SOL    HW125568   3.807   4.683  11.884  1.2149  0.6360  2.9234
 4645SOL    HW225569   3.917   0.016  11.939  1.2919 -0.6064 -0.4858
 4646SOL     OW25570   1.927   3.033   2.094 -0.0811  0.3816 -0.3886
 4646SOL    HW125571   1.945   3.068   2.007 -0.7134 -2.0301 -1.5102
 4646SOL    HW225572   1.878   2.957   2.062 -1.3937  1.0435  0.0448
 4647SOL     OW25573   1.055   1.487   7.646  0.0812 -0.4113  0.0230
 4647SOL    HW125574   1.027   1.413   7.700  1.5593 -0.4151  0.7700
 4647SOL    HW225575   1.148   1.505   7.656 -0.5191  2.0838  1.2988
 4648SOL     OW25576   4.513   2.026   5.606 -0.2876 -0.3926 -0.2173
 4648SOL    HW125577   4.596   2.041   5.652 -1.4597  0.7881  1.5135
 4648SOL    HW225578   4.475   2.111   5.631 -0.8850 -0.4244 -1.0216
 4649SOL     OW25579   0.307   3.058   3.302  0.4132  0.0121 -0.6559
 4649SOL    HW125580   0.299   3.131   3.364 -1.5584 -0.7366 -0.0224
 4649SOL    HW225581   0.397   3.058   3.269  1.5467 -0.2879  2.4149
 4650SOL     OW25582   0.021   0.544  12.130 -0.1252  0.0132  0.4692
 4650SOL    HW125583   0.109   0.555  12.094 -0.6109  1.5292 -0.2514
 4650SOL    HW225584   4.708   0.499  12.063  1.5793 -1.0707 -0.0832
 4651SOL     OW25585   0.704   4.700  10.873 -0.1171  0.1075 -0.2070
 4651SOL    HW125586   0.651   0.035  10.842 -2.3758 -0.7645  1.5850
 4651SOL    HW225587   0.671   4.627  10.821 -0.8589  0.0743  0.3181
 4652SOL     OW25588   1.934   3.767   2.644  0.2179  0.5577  0.0837
 4652SOL    HW125589   1.904   3.776   2.553  2.6387  0.9850 -0.6849
 4652SOL    HW225590   1.855   3.800   2.686  0.6528 -0.2459  1.5026
 4653SOL     OW25591   2.505   0.234  13.251  0.3247 -0.6214  0.0912
 4653SOL    HW125592   2.579   0.282  13.212 -0.1566  0.3407  0.3701
 4653SOL    HW225593   2.436   0.291  13.216  0.6029  1.4145  2.9085
 4654SOL     OW25594   4.346   1.811  16.587 -0.2729 -0.0823  0.0010
 4654SOL    HW125595   4.434   1.842  16.610  0.7264 -3.0337  0.1441
 4654SOL    HW225596   4.321   1.886  16.533  0.9661 -0.1192 -0.6274
 4655SOL     OW25597   3.200   0.657  11.220 -0.6622 -0.2435  0.0028
 4655SOL    HW125598   3.155   0.626  11.299 -0.7209  1.6803  0.7137
 4655SOL    HW225599   3.256   0.720  11.266 -0.6940  0.7683 -1.3369
 4656SOL     OW25600   0.460   3.766  10.864 -0.0901 -0.1757 -0.0608
 4656SOL    HW125601   0.532   3.821  10.835 -0.5736  0.8480  0.6940
 4656SOL    HW225602   0.458   3.778  10.959  0.4242 -0.2485 -0.0426
 4657SOL     OW25603   2.393   3.221   9.595 -0.0816 -0.3291  0.7762
 4657SOL    HW125604   2.357   3.226   9.506 -0.0462  0.3259  0.8007
 4657SOL    HW225605   2.453   3.295   9.595 -0.6169  0.1118  0.2312
 4658SOL     OW25606   0.898   0.002   9.947 -0.2052  0.2113 -0.5592
 4658SOL    HW125607   0.828   4.732   9.882 -0.6648 -0.3816  0.0076
 4658SOL    HW225608   0.965   0.061   9.913  1.3541 -0.9559  0.4931
 4659SOL     OW25609   3.938   1.527   2.392 -0.1212 -0.1548  0.1489
 4659SOL    HW125610   3.864   1.529   2.453  0.8851 -0.0274  1.3614
 4659SOL    HW225611   3.981   1.610   2.414  0.5803  0.2111 -2.6278
 4660SOL     OW25612   0.897   0.543   8.565  0.4363 -0.2584  0.2407
 4660SOL    HW125613   0.927   0.523   8.654  1.5523 -2.1207 -0.5528
 4660SOL    HW225614   0.980   0.530   8.519  0.5089 -1.4981  0.7051
 4661SOL     OW25615   3.344   2.633   7.669  0.4220  0.1934  0.3273
 4661SOL    HW125616   3.375   2.712   7.623  2.8778 -0.2860  1.1346
 4661SOL    HW225617   3.253   2.640   7.695 -0.5040 -0.1612 -2.7557
 4662SOL     OW25618   1.160   0.345   5.447 -0.1577  0.0467  0.1048
 4662SOL    HW125619   1.175   0.365   5.539 -0.8049 -2.7060  0.8246
 4662SOL    HW225620   1.135   0.253   5.455 -1.2905  0.1350 -2.2729
 4663SOL     OW25621   3.244   3.860   8.745 -0.2602  0.1281 -0.4778
 4663SOL    HW125622   3.316   3.838   8.804 -0.6203 -0.6011 -0.3005
 4663SOL    HW225623   3.292   3.868   8.662 -0.0375  0.7565 -0.2843
 4664SOL     OW25624   1.669   4.493   3.259 -0.4977 -0.2698 -0.0514
 4664SOL    HW125625   1.689   4.399   3.251  0.8223  0.1797 -1.9900
 4664SOL    HW225626   1.708   4.525   3.177  0.4934 -0.9346  0.1603
 4665SOL     OW25627   3.198   2.630   7.008  0.1314  0.6334 -0.1501
 4665SOL    HW125628   3.272   2.682   7.038 -0.4836  1.0790  0.5916
 4665SOL    HW225629   3.129   2.685   7.045  0.0532 -1.0907  2.2705
 4666SOL     OW25630   2.743   2.366   4.088  0.6835  0.0831 -0.2603
 4666SOL    HW125631   2.732   2.443   4.033 -1.0285  0.5659  0.7486
 4666SOL    HW225632   2.819   2.391   4.142  0.8500  0.2576 -0.5768
 4667SOL     OW25633   1.288   3.105  13.807 -0.9249  0.2965  0.0545
 4667SOL    HW125634   1.317   3.195  13.793  0.5073 -0.4076 -1.5729
 4667SOL    HW225635   1.375   3.073  13.783 -0.7885  0.3036  0.5435
 4668SOL     OW25636   2.950   0.920   4.205 -0.7491 -0.0532  0.3887
 4668SOL    HW125637   2.941   1.014   4.192 -0.4988 -0.0465  0.2565
 4668SOL    HW225638   2.861   0.900   4.232 -0.0089 -2.6829  0.8768
 4669SOL     OW25639   1.908   1.651   4.421 -0.9279 -0.0986  0.5013
 4669SOL    HW125640   1.847   1.715   4.459 -0.1151  1.2305 -0.4215
 4669SOL    HW225641   1.963   1.712   4.371 -0.1547  0.4725  2.0239
 4670SOL     OW25642   3.474   4.447   7.774  0.1764 -0.1122  0.0649
 4670SOL    HW125643   3.545   4.383   7.770  1.5825  1.5274 -1.1910
 4670SOL    HW225644   3.414   4.411   7.839  1.9145  1.3616  2.4999
 4671SOL     OW25645   4.377   1.496   4.960  0.2817 -0.5402 -0.1166
 4671SOL    HW125646   4.443   1.507   5.029 -0.0677 -0.8777  0.2677
 4671SOL    HW225647   4.297   1.520   5.007  0.0243 -2.4953  0.4023
 4672SOL     OW25648   1.791   1.941   2.852  0.1089 -0.6061  0.0752
 4672SOL    HW125649   1.862   1.920   2.912  1.0295  2.4620  0.0907
 4672SOL    HW225650   1.837   1.992   2.786  0.7602  1.5093  2.1390
 4673SOL     OW25651   2.336   0.598   3.080  0.1831 -0.1239 -0.3181
 4673SOL    HW125652   2.345   0.526   3.017  1.2144 -0.5595  0.3295
 4673SOL    HW225653   2.284   0.550   3.145  1.0371  0.2658  0.6404
 4674SOL     OW25654   1.944   1.860   6.965 -0.2252  0.1294  0.2625
 4674SOL    HW125655   2.027   1.884   7.008 -0.2751 -0.9816  0.9868
 4674SOL    HW225656   1.977   1.857   6.875 -0.5303  3.4667  0.0070
 4675SOL     OW25657   2.937   1.435   9.176 -0.1630  0.3998 -0.0108
 4675SOL    HW125658   2.992   1.471   9.107  1.7404 -1.3536  0.5836
 4675SOL    HW225659   2.854   1.430   9.129  0.8036  2.2569 -1.8882
 4676SOL     OW25660   3.023   1.893   1.310  0.8593  0.1182 -0.0991
 4676SOL    HW125661   2.939   1.882   1.353 -1.1866  0.9778 -3.9010
 4676SOL    HW225662   3.078   1.873   1.386  0.1715  0.7460  0.5636
 4677SOL     OW25663   0.784   1.713   6.297 -0.2614  0.6115  0.1644
 4677SOL    HW125664   0.846   1.692   6.367 -0.4720  1.7131  0.6826
 4677SOL    HW225665   0.731   1.634   6.296  0.0678  0.3927  0.2057
 4678SOL     OW25666   2.243   0.549   1.801  0.3279  0.1728 -0.2463
 4678SOL    HW125667   2.292   0.623   1.765  1.1648 -0.1415  0.2438
 4678SOL    HW225668   2.205   0.517   1.720 -0.6159  1.0433 -0.1479
 4679SOL     OW25669   2.611   2.858  15.478  0.1241  0.2205  0.2301
 4679SOL    HW125670   2.530   2.846  15.427  1.3485  1.2917 -1.9782
 4679SOL    HW225671   2.641   2.927  15.419  1.4775 -1.7907 -1.4466
 4680SOL     OW25672   2.847   0.382   9.071  0.5528 -0.1109 -0.2806
 4680SOL    HW125673   2.762   0.340   9.054 -0.0751  1.0245  0.0518
 4680SOL    HW225674   2.822   0.449   9.134  1.9847  0.2439 -0.1046
 4681SOL     OW25675   4.179   2.544   8.162  0.1580  0.2074 -0.0330
 4681SOL    HW125676   4.122   2.476   8.198 -1.5218  2.5984  1.8536
 4681SOL    HW225677   4.241   2.494   8.109 -0.2222 -0.3694  0.0694
 4682SOL     OW25678   4.728   4.588   3.160 -0.2091 -0.1123  0.2796
 4682SOL    HW125679   0.015   4.678   3.178 -1.6597 -0.0194  1.8509
 4682SOL    HW225680   0.068   4.559   3.111  0.2484  0.7064  0.5383
 4683SOL     OW25681   4.696   0.088   7.151  0.3810 -0.0009 -0.0959
 4683SOL    HW125682   4.638   0.127   7.215 -0.4199 -1.8058  0.2839
 4683SOL    HW225683   4.626   0.031   7.120  2.7617 -1.4815 -2.8018
 4684SOL     OW25684   1.693   1.374   6.461  0.1474 -0.7103 -0.3275
 4684SOL    HW125685   1.727   1.328   6.538  0.8521  0.6515  0.1883
 4684SOL    HW225686   1.769   1.432   6.456  1.0654 -2.1156 -2.6278
 4685SOL     OW25687   0.782   2.534   6.049 -0.3420 -0.8271 -0.1688
 4685SOL    HW125688   0.710   2.530   6.112  1.1118 -0.5329  1.5059
 4685SOL    HW225689   0.807   2.444   6.029 -1.5216 -1.1180 -0.3083
 4686SOL     OW25690   2.597   1.885   7.476  0.2305  0.8607 -0.0762
 4686SOL    HW125691   2.558   1.829   7.542 -0.9133  1.1791 -0.4837
 4686SOL    HW225692   2.520   1.896   7.420 -1.3417  0.4114  2.0036
 4687SOL     OW25693   3.234   0.551   6.787 -0.5255  0.4351  0.1340
 4687SOL    HW125694   3.157   0.534   6.842 -1.7247  0.3021 -1.5645
 4687SOL    HW225695   3.216   0.634   6.744 -1.0974  0.4243  0.3397
 4688SOL     OW25696   2.265   1.351   4.762  0.4041  0.5045  0.4801
 4688SOL    HW125697   2.341   1.312   4.719 -0.4660  0.5588 -1.1064
 4688SOL    HW225698   2.214   1.272   4.781  0.6762  0.3098  0.3919
 4689SOL     OW25699   3.877   2.184   8.194  0.3277  0.3980  0.0475
 4689SOL    HW125700   3.855   2.120   8.262 -1.8618  1.9257  0.7541
 4689SOL    HW225701   3.801   2.184   8.136 -0.7466  0.0284  1.4728
 4690SOL     OW25702   1.993   0.254  15.270 -0.2507  0.1889 -0.5500
 4690SOL    HW125703   2.005   0.320  15.202  0.2164  0.7692  0.1006
 4690SOL    HW225704   2.072   0.202  15.256  0.0597  0.6361 -0.4722
 4691SOL     OW25705   2.106   1.550   1.209 -0.2536 -0.2024 -0.1809
 4691SOL    HW125706   2.057   1.595   1.277 -2.0762 -0.7097 -1.1366
 4691SOL    HW225707   2.037   1.543   1.142 -1.1545 -0.0457  0.7270
 4692SOL     OW25708   2.739   1.812   0.506 -0.5685  0.4269  0.1960
 4692SOL    HW125709   2.777   1.725   0.499  0.2689  0.7187  1.1493
 4692SOL    HW225710   2.808   1.872   0.479  0.6515 -1.3111 -0.5152
 4693SOL     OW25711   2.518   4.209  14.764  0.2141  0.1218 -0.9801
 4693SOL    HW125712   2.494   4.302  14.774 -0.9564 -0.4802  1.8616
 4693SOL    HW225713   2.613   4.222  14.772  0.1927 -1.2452  1.5795
 4694SOL     OW25714   3.071   0.012   3.936  0.3575 -0.4776 -0.4792
 4694SOL    HW125715   3.157   0.011   3.977 -0.2943  2.8370  0.9302
 4694SOL    HW225716   3.047   0.101   3.963 -1.2346 -1.1554  0.3416
 4695SOL     OW25717   1.617   3.503   3.998  0.1883 -0.2252  0.2078
 4695SOL    HW125718   1.639   3.415   4.029 -1.0566 -0.7196 -0.3298
 4695SOL    HW225719   1.645   3.563   4.067  0.8481 -1.8978  1.3934
 4696SOL     OW25720   3.454   2.456   5.711 -0.1395 -0.3599  0.1718
 4696SOL    HW125721   3.391   2.495   5.771 -0.7602 -1.0648 -0.0259
 4696SOL    HW225722   3.404   2.428   5.634 -0.0276 -3.1759  1.0992
 4697SOL     OW25723   2.009   1.361   8.560 -0.1889  0.0061  0.0152
 4697SOL    HW125724   2.003   1.315   8.644 -1.4666 -2.1807 -1.2843
 4697SOL    HW225725   2.025   1.293   8.495 -1.1701  0.1004 -0.3222
 4698SOL     OW25726   1.841   0.232  14.857 -0.8019  0.5706  0.0407
 4698SOL    HW125727   1.831   0.264  14.947  0.5452  1.8271 -0.2548
 4698SOL    HW225728   1.852   0.137  14.860  1.2862  0.7973 -1.0176
 4699SOL     OW25729   4.223   2.837  15.390 -0.3124  0.5034 -0.0325
 4699SOL    HW125730   4.283   2.892  15.341 -0.6298  1.5131  0.7086
 4699SOL    HW225731   4.240   2.868  15.479 -0.8605 -0.6503  0.4795
 4700SOL     OW25732   2.784   3.000   9.535  0.1954 -0.1655  0.2858
 4700SOL    HW125733   2.754   3.050   9.610 -0.6957 -0.3080  0.0201
 4700SOL    HW225734   2.862   2.954   9.566  0.6926  0.7939  0.4719
 4701SOL     OW25735   1.490   0.975   4.822  0.2723 -0.2092  0.1929
 4701SOL    HW125736   1.399   0.975   4.790  0.2617  1.1544  0.2028
 4701SOL    HW225737   1.511   1.063   4.792  0.3091 -0.6222 -1.0054
 4702SOL     OW25738   0.158   0.618   4.932  0.3218  1.8224 -0.6391
 4702SOL    HW125739   0.210   0.550   4.888 -1.3156  1.9306 -2.7484
 4702SOL    HW225740   0.228   0.656   4.984  0.2009  3.8423 -1.9580
 4703SOL     OW25741   3.423   0.250   7.041 -0.2376 -0.4862 -0.4172
 4703SOL    HW125742   3.510   0.229   7.005 -0.1906 -0.4921 -0.2992
 4703SOL    HW225743   3.387   0.321   6.987  0.4483 -0.2856 -0.6103
 4704SOL     OW25744   1.792   2.128  11.805  0.6431  0.4382  0.1314
 4704SOL    HW125745   1.707   2.167  11.828  0.3527 -0.5688  0.7338
 4704SOL    HW225746   1.770   2.035  11.808 -0.3590  0.7355  1.5744
 4705SOL     OW25747   1.141   2.168   4.763 -0.9090 -0.5725 -0.2621
 4705SOL    HW125748   1.117   2.098   4.701 -1.9713  1.4960 -2.1945
 4705SOL    HW225749   1.151   2.240   4.701 -0.1886 -0.3687  0.0876
 4706SOL     OW25750   4.729   3.153  14.041 -0.1069 -0.1460 -0.5310
 4706SOL    HW125751   0.038   3.076  14.072  2.1112  1.2103 -0.4718
 4706SOL    HW225752   0.048   3.170  13.966 -0.6120 -1.4395 -1.1918
 4707SOL     OW25753   3.869   2.966  11.535  0.2080  0.0989 -0.1422
 4707SOL    HW125754   3.944   3.019  11.505 -0.5840  1.5980  0.5104
 4707SOL    HW225755   3.905   2.895  11.587 -1.9123 -0.7958  0.0771
 4708SOL     OW25756   4.329   0.792   8.566  0.2375  0.2185 -0.2609
 4708SOL    HW125757   4.359   0.792   8.657 -0.0948  2.1184 -0.1584
 4708SOL    HW225758   4.234   0.789   8.582 -0.0821 -0.0117 -2.1749
 4709SOL     OW25759   0.249   0.779   9.227  0.6279 -0.2692  0.1822
 4709SOL    HW125760   0.271   0.758   9.137  1.0659 -1.1914  0.5042
 4709SOL    HW225761   0.311   0.719   9.268 -0.3300 -0.9509  0.6453
 4710SOL     OW25762   1.776   3.756   9.151  0.4461  0.0196  0.4481
 4710SOL    HW125763   1.844   3.722   9.092 -1.6655 -0.3798 -1.7560
 4710SOL    HW225764   1.750   3.835   9.104  1.2590 -0.0934 -0.1974
 4711SOL     OW25765   0.165   1.024   9.331  0.1101  0.2967  0.0985
 4711SOL    HW125766   0.077   1.013   9.293 -0.2987  1.3986  0.7342
 4711SOL    HW225767   0.198   0.935   9.318 -0.7542  0.2333 -1.7062
 4712SOL     OW25768   0.330   0.587   7.527 -0.0500 -0.1654  0.2374
 4712SOL    HW125769   0.378   0.600   7.608 -0.5750 -0.2431  0.5588
 4712SOL    HW225770   0.259   0.647   7.549 -0.9054 -0.6284 -1.1854
 4713SOL     OW25771   3.120   2.073   8.544  0.0564 -0.0534  0.1290
 4713SOL    HW125772   3.092   2.027   8.623 -0.8169  1.4509  0.6981
 4713SOL    HW225773   3.188   2.128   8.583 -0.7782  1.1332 -0.0656
 4714SOL     OW25774   2.063   1.789   3.390  0.6933 -0.2649  0.1114
 4714SOL    HW125775   2.027   1.858   3.446 -1.7250 -0.2058 -1.5474
 4714SOL    HW225776   2.084   1.848   3.318 -2.8449  2.0145  0.9455
 4715SOL     OW25777   3.423   3.548   5.156 -0.5526  0.1557 -0.1737
 4715SOL    HW125778   3.425   3.485   5.085 -0.5218 -1.7964  1.5512
 4715SOL    HW225779   3.334   3.575   5.133 -0.0800  0.8786 -1.1195
 4716SOL     OW25780   0.096   4.146  16.557  0.3989  0.9287 -0.9913
 4716SOL    HW125781   0.152   4.166  16.483  0.6267 -0.4653 -1.1934
 4716SOL    HW225782   0.030   4.085  16.524 -0.3549  1.2512 -0.0956
 4717SOL     OW25783   4.148   3.900  14.306 -0.5000 -0.3813  0.1714
 4717SOL    HW125784   4.057   3.881  14.330  0.3380 -1.2635  2.6794
 4717SOL    HW225785   4.154   3.851  14.224  0.4703  1.7989 -1.0456
 4718SOL     OW25786   1.901   1.452   7.733 -0.1246 -0.2484  0.2258
 4718SOL    HW125787   1.992   1.429   7.719 -0.7058 -0.5978 -2.9471
 4718SOL    HW225788   1.917   1.530   7.787 -1.0113 -0.0545  0.2214
 4719SOL     OW25789   1.310   4.582   9.591  0.0771 -0.2842 -0.6065
 4719SOL    HW125790   1.257   4.503   9.599 -1.7850  0.8967 -1.3504
 4719SOL    HW225791   1.347   4.560   9.506 -3.5393 -0.4928 -2.1098
 4720SOL     OW25792   3.854   4.543   3.285 -0.4116  0.2253  0.3567
 4720SOL    HW125793   3.938   4.535   3.331 -0.2206 -0.9174 -0.1935
 4720SOL    HW225794   3.885   4.595   3.211  1.4793  0.9939  1.6808
 4721SOL     OW25795   3.490   2.418   4.899 -0.0127  0.1368 -0.2851
 4721SOL    HW125796   3.443   2.442   4.818  1.4811  2.7303 -0.4092
 4721SOL    HW225797   3.557   2.355   4.874 -1.8833 -1.9848  0.0647
 4722SOL     OW25798   3.418   0.347   3.707  0.5356  0.5381  0.5472
 4722SOL    HW125799   3.439   0.390   3.625 -1.8733  1.3114  0.3237
 4722SOL    HW225800   3.362   0.272   3.686  2.0204 -0.4165 -0.0004
 4723SOL     OW25801   0.722   4.041   5.542 -0.1967 -0.0259 -0.2520
 4723SOL    HW125802   0.779   4.035   5.465  0.3535  2.0930  0.0022
 4723SOL    HW225803   0.663   3.966   5.533 -0.7173  0.4485 -0.8130
 4724SOL     OW25804   1.137   1.978   8.389 -0.0365  0.1213 -0.0657
 4724SOL    HW125805   1.067   1.963   8.326 -0.0009 -0.6200  0.0715
 4724SOL    HW225806   1.153   2.070   8.372  2.3883  0.1948  2.5240
 4725SOL     OW25807   3.761   2.104   3.791  0.1279  0.3874  0.1377
 4725SOL    HW125808   3.728   2.115   3.881 -0.6104  2.0686 -0.3448
 4725SOL    HW225809   3.691   2.059   3.744 -0.5246  1.0814  0.4441
 4726SOL     OW25810   2.693   3.076   9.113 -0.2188 -0.0182 -0.0378
 4726SOL    HW125811   2.709   3.100   9.204 -0.1963  0.7321 -0.2341
 4726SOL    HW225812   2.615   3.023   9.124 -0.1548 -0.4042 -1.4056
 4727SOL     OW25813   1.610   3.721   6.027 -0.0350  0.1901 -0.1059
 4727SOL    HW125814   1.659   3.642   6.051 -1.0456  0.1972  1.9618
 4727SOL    HW225815   1.626   3.785   6.097 -0.3642 -0.3879  0.5022
 4728SOL     OW25816   4.655   2.064  12.115  0.0146 -0.0100  0.3568
 4728SOL    HW125817   4.591   2.134  12.132  0.6871  0.6645  0.1120
 4728SOL    HW225818   4.592   2.003  12.075 -2.5086  1.1301  2.5603
 4729SOL     OW25819   1.588   0.668   2.104 -0.5404  0.1500  0.3989
 4729SOL    HW125820   1.544   0.612   2.168  1.0617 -0.1807  1.2060
 4729SOL    HW225821   1.540   0.634   2.028  0.3982  2.4604 -1.2120
 4730SOL     OW25822   4.106   4.334   3.968 -0.2580 -0.1208  0.2899
 4730SOL    HW125823   4.113   4.264   4.034  1.3108 -1.3670 -1.1879
 4730SOL    HW225824   4.165   4.399   4.005  0.6350  0.8069 -2.7598
 4731SOL     OW25825   0.655   1.306   3.398 -0.4567  0.4724 -0.0157
 4731SOL    HW125826   0.665   1.392   3.356  0.6037 -0.3602 -1.4707
 4731SOL    HW225827   0.564   1.280   3.380 -0.3125 -0.3988  0.5523
 4732SOL     OW25828   1.575   0.710  16.113 -0.5094 -0.2887 -0.3375
 4732SOL    HW125829   1.664   0.729  16.144 -0.8174 -0.4457  0.6477
 4732SOL    HW225830   1.562   0.789  16.060 -2.0374  1.7816  3.0672
 4733SOL     OW25831   1.192   0.155   5.915  0.0131  0.1522  0.1715
 4733SOL    HW125832   1.106   0.178   5.879  0.2683  0.3498 -0.3134
 4733SOL    HW225833   1.206   0.220   5.984 -0.2097  0.5378 -0.1449
 4734SOL     OW25834   1.725   2.294  16.723 -0.6642  0.0894 -0.8950
 4734SOL    HW125835   1.698   2.260  16.638 -0.1679 -1.7221 -0.3149
 4734SOL    HW225836   1.640   2.315  16.760 -1.2948 -1.3873 -1.5047
 4735SOL     OW25837   0.929   0.498  10.419  0.5660  0.2932 -0.6675
 4735SOL    HW125838   1.024   0.489  10.417  0.3276 -2.0900 -0.6499
 4735SOL    HW225839   0.909   0.496  10.513  0.2288 -1.5715 -0.7804
 4736SOL     OW25840   4.032   3.288   7.207  0.0872 -0.4277  0.1320
 4736SOL    HW125841   4.086   3.358   7.172 -3.0644  1.6322 -0.6259
 4736SOL    HW225842   3.950   3.313   7.165 -0.3410  0.1401  1.3019
 4737SOL     OW25843   2.550   0.562   6.218 -0.5625 -0.5838 -0.3252
 4737SOL    HW125844   2.473   0.610   6.251  1.5247  0.5206  2.9494
 4737SOL    HW225845   2.622   0.621   6.242  0.8767 -2.2556 -0.6243
 4738SOL     OW25846   3.813   3.909  11.601 -0.0575 -1.0482 -0.1689
 4738SOL    HW125847   3.848   3.821  11.613 -1.9858 -1.4621  2.4317
 4738SOL    HW225848   3.764   3.912  11.683 -0.6814  0.5708 -0.6042
 4739SOL     OW25849   2.136   2.146  13.397  0.3669  0.0416 -0.2179
 4739SOL    HW125850   2.053   2.152  13.444  0.8194  0.7842  0.4988
 4739SOL    HW225851   2.153   2.237  13.373  1.7336 -0.4252 -1.0296
 4740SOL     OW25852   2.664   4.114  16.200  0.2496  0.7088  0.8663
 4740SOL    HW125853   2.641   4.055  16.129 -2.1008  2.7042 -0.0078
 4740SOL    HW225854   2.601   4.093  16.269 -0.3171 -2.1319 -0.5285
 4741SOL     OW25855   3.656   1.251   8.396 -0.3154  0.0862  0.4106
 4741SOL    HW125856   3.667   1.273   8.489  2.8279  2.4573 -0.5231
 4741SOL    HW225857   3.745   1.269   8.369 -0.9047  2.6803  0.2683
 4742SOL     OW25858   0.531   2.416  11.978 -0.1226 -0.4560  0.2418
 4742SOL    HW125859   0.493   2.382  11.897 -0.1608 -0.9890  0.4865
 4742SOL    HW225860   0.624   2.399  11.959  0.0163  0.6536 -0.1238
 4743SOL     OW25861   4.661   4.198  15.352  0.0828  0.2344 -0.0292
 4743SOL    HW125862   4.572   4.169  15.335  0.7068 -2.1502  0.7837
 4743SOL    HW225863   4.641   4.291  15.357  2.1523  0.7194 -0.8553
 4744SOL     OW25864   3.254   4.595   2.063  0.4511 -0.3091 -0.2656
 4744SOL    HW125865   3.343   4.616   2.035  0.1461  2.8046  1.1615
 4744SOL    HW225866   3.262   4.613   2.156 -0.1455 -1.9484  0.1154
 4745SOL     OW25867   2.646   3.945   9.376  0.1429  0.6960  0.7412
 4745SOL    HW125868   2.731   3.902   9.363  0.4642  2.7240 -3.7823
 4745SOL    HW225869   2.669   3.983   9.461 -1.7679  0.4905  1.3464
 4746SOL     OW25870   1.479   3.335   6.595  0.3205  0.0979 -0.1627
 4746SOL    HW125871   1.443   3.325   6.507  0.9170  1.1232 -0.5288
 4746SOL    HW225872   1.449   3.252   6.632 -1.1065  0.6125 -0.1738
 4747SOL     OW25873   4.484   1.603  12.427 -0.2449  0.0980 -0.7321
 4747SOL    HW125874   4.574   1.573  12.418 -0.8638 -0.7702 -3.8120
 4747SOL    HW225875   4.474   1.683  12.376  1.1737  1.8610  1.7533
 4748SOL     OW25876   1.535   0.968   1.857  0.5092  0.3417 -0.3855
 4748SOL    HW125877   1.465   0.925   1.906  0.3704 -1.0097 -1.7813
 4748SOL    HW225878   1.522   1.058   1.888 -0.8813 -0.4975  1.4755
 4749SOL     OW25879   0.552   1.325   4.438 -0.1328  0.3477  0.0963
 4749SOL    HW125880   0.498   1.247   4.432 -0.4392  0.6113 -0.5809
 4749SOL    HW225881   0.633   1.300   4.393 -0.2623  0.1512 -0.0222
 4750SOL     OW25882   2.528   3.508   7.788 -0.0604  0.0383 -0.2062
 4750SOL    HW125883   2.470   3.582   7.769  0.8080  0.4022 -1.3827
 4750SOL    HW225884   2.609   3.543   7.752 -1.3849  2.0476 -1.2654
 4751SOL     OW25885   1.648   2.006   6.760  0.1026 -0.2949  0.1407
 4751SOL    HW125886   1.588   2.048   6.821  0.8247 -0.0577  0.6851
 4751SOL    HW225887   1.612   1.917   6.757  1.4900 -0.7308 -4.1905
 4752SOL     OW25888   0.225   0.947   5.616  0.2158  0.1146  0.1255
 4752SOL    HW125889   0.199   0.955   5.524 -0.5002  0.7922  0.3926
 4752SOL    HW225890   0.141   0.960   5.660  0.1391 -0.0190  0.0220
 4753SOL     OW25891   1.494   1.975   4.552 -0.3045  0.0036  0.5345
 4753SOL    HW125892   1.468   2.062   4.524  0.2671  0.6047  1.8781
 4753SOL    HW225893   1.435   1.947   4.622 -0.6909 -0.2130  0.1197
 4754SOL     OW25894   2.810   1.748  12.635  0.0475 -0.5561 -0.2634
 4754SOL    HW125895   2.870   1.817  12.607 -0.5371  0.3406  0.6958
 4754SOL    HW225896   2.828   1.747  12.729 -0.1023 -1.9564 -0.2514
 4755SOL     OW25897   2.673   2.012  13.071  0.0088 -0.3838  0.3199
 4755SOL    HW125898   2.617   2.061  13.010  0.4905 -2.9998 -2.2744
 4755SOL    HW225899   2.736   1.976  13.008 -0.0559 -0.0322  0.0530
 4756SOL     OW25900   1.572   1.741   6.799 -0.0616 -0.7970  0.5536
 4756SOL    HW125901   1.528   1.707   6.877  0.6027  0.7489  1.6067
 4756SOL    HW225902   1.665   1.718   6.792  0.3166  0.8826 -0.0801
 4757SOL     OW25903   1.355   0.233  17.526 -0.0274  0.4284  0.0244
 4757SOL    HW125904   1.341   0.313  17.578 -0.6468  2.2702 -2.9567
 4757SOL    HW225905   1.448   0.220  17.511  0.2725  0.8132  1.4979
 4758SOL     OW25906   0.069   3.507   6.225 -0.4920  0.0719  0.1516
 4758SOL    HW125907   0.150   3.551   6.249 -1.9247  1.7907  1.7626
 4758SOL    HW225908   0.061   3.442   6.295  0.3344 -1.0397 -0.7585
 4759SOL     OW25909   4.443   2.584   4.335  0.2940  0.1435  0.0775
 4759SOL    HW125910   4.418   2.530   4.259 -0.1248  0.3676  0.0532
 4759SOL    HW225911   4.507   2.526   4.376  0.4636  1.6281  1.8686
 4760SOL     OW25912   1.560   4.357  10.452  0.0767 -0.3501  0.3712
 4760SOL    HW125913   1.469   4.350  10.425 -0.2031  3.2274  0.4713
 4760SOL    HW225914   1.607   4.331  10.373 -2.4281  0.6022 -1.4094
 4761SOL     OW25915   0.341   3.059   2.969  0.7725  0.2100  0.2920
 4761SOL    HW125916   0.352   3.153   2.955 -3.4480  0.8344  1.3105
 4761SOL    HW225917   0.330   3.052   3.064  2.8926  0.3067  0.5451
 4762SOL     OW25918   4.496   3.294   4.970  0.6268 -0.4666 -0.6086
 4762SOL    HW125919   4.411   3.301   4.927 -0.5545 -2.3777  1.4197
 4762SOL    HW225920   4.538   3.221   4.925  1.1402 -1.0650  0.8621
 4763SOL     OW25921   3.557   0.143   9.676  0.5213 -0.0527  0.6347
 4763SOL    HW125922   3.484   0.126   9.617  0.3396 -0.3753  0.9493
 4763SOL    HW225923   3.562   0.055   9.713  0.2142  0.0778  0.9825
 4764SOL     OW25924   0.283   2.368   1.523 -0.2267 -0.2177 -0.4645
 4764SOL    HW125925   0.301   2.329   1.437 -3.7709 -0.2740 -1.1606
 4764SOL    HW225926   0.286   2.461   1.501  1.2161 -0.1032  0.2122
 4765SOL     OW25927   0.663   3.607   8.453  0.4670 -0.3850 -0.6006
 4765SOL    HW125928   0.738   3.662   8.477  0.6084 -1.4331  1.4092
 4765SOL    HW225929   0.612   3.676   8.411  2.4266 -0.4734 -3.1377
 4766SOL     OW25930   4.636   2.702   8.308 -0.7191 -0.1917  0.0669
 4766SOL    HW125931   4.670   2.655   8.384  1.7368  0.9507 -0.3172
 4766SOL    HW225932   4.633   2.634   8.242  0.5226  0.3473 -0.5489
 4767SOL     OW25933   1.230   3.840   8.200  0.1158  0.0644 -0.2110
 4767SOL    HW125934   1.220   3.746   8.189 -0.3839 -0.0765  1.3994
 4767SOL    HW225935   1.136   3.860   8.195  0.1662  0.2553 -0.4143
 4768SOL     OW25936   0.695   3.315   5.189  0.1115  0.3797  0.1518
 4768SOL    HW125937   0.625   3.362   5.143  0.0118 -0.8501 -0.9660
 4768SOL    HW225938   0.663   3.303   5.278 -0.2363  3.0791  0.3750
 4769SOL     OW25939   2.150   1.698   8.746 -0.2147 -0.0718  0.1148
 4769SOL    HW125940   2.211   1.667   8.813 -1.0970 -2.0132  0.0141
 4769SOL    HW225941   2.221   1.704   8.682 -0.9560  0.2099 -0.6833
 4770SOL     OW25942   4.671   1.539  16.113 -0.1791 -0.3762 -0.2445
 4770SOL    HW125943   4.682   1.506  16.024  1.4465 -0.8291  0.1362
 4770SOL    HW225944   4.583   1.515  16.142  0.2968 -0.1490  1.3505
 4771SOL     OW25945   0.755   3.960   1.771  0.5438  0.4294 -0.1982
 4771SOL    HW125946   0.817   3.965   1.844  1.3792 -1.1428 -0.8078
 4771SOL    HW225947   0.735   3.867   1.770 -0.9531  0.7409  1.1894
 4772SOL     OW25948   0.652   3.090   6.369 -0.5508  0.0825 -0.0996
 4772SOL    HW125949   0.651   3.155   6.298  1.6168  1.1801  0.8746
 4772SOL    HW225950   0.568   3.112   6.410 -0.9732 -1.1469 -0.3126
 4773SOL     OW25951   0.330   2.497   7.246 -0.2270 -0.3555  0.5015
 4773SOL    HW125952   0.291   2.451   7.171 -0.7955  2.9210 -1.2368
 4773SOL    HW225953   0.281   2.462   7.320  1.8053  0.6351  2.3204
 4774SOL     OW25954   0.201   2.580   9.115 -0.0385  0.0317  0.2402
 4774SOL    HW125955   0.202   2.493   9.075  0.5140  0.8448 -1.4774
 4774SOL    HW225956   0.245   2.632   9.048 -1.7351 -0.7031 -1.4319
 4775SOL     OW25957   2.676   0.394   6.808  0.0015  0.2266  0.7399
 4775SOL    HW125958   2.675   0.417   6.715  0.9802  0.4946  0.7906
 4775SOL    HW225959   2.700   0.480   6.843  1.1519  0.6930 -1.2084
 4776SOL     OW25960   2.719   4.502  12.868  0.3460 -0.2906 -0.3611
 4776SOL    HW125961   2.698   4.518  12.776 -1.5591  0.3546  0.1878
 4776SOL    HW225962   2.634   4.468  12.896 -0.1977  0.3719 -1.1980
 4777SOL     OW25963   0.670   0.934   6.492 -0.2939  0.5155  0.5032
 4777SOL    HW125964   0.598   0.879   6.462  0.7417  0.8874 -2.5875
 4777SOL    HW225965   0.744   0.912   6.435 -1.5953 -1.5490 -0.3904
 4778SOL     OW25966   4.466   3.622   6.521  0.3135  0.2002  0.8197
 4778SOL    HW125967   4.512   3.666   6.592  2.7646 -1.8363  0.5298
 4778SOL    HW225968   4.407   3.690   6.489  0.8091 -0.3973 -1.4326
 4779SOL     OW25969   2.461   4.422   5.527  0.0850  0.3307 -0.2767
 4779SOL    HW125970   2.423   4.501   5.564  2.0109  0.8414  0.6272
 4779SOL    HW225971   2.399   4.353   5.550 -0.2074 -0.0596 -2.2432
 4780SOL     OW25972   3.547   3.282   4.390  0.2721 -0.1459  0.3262
 4780SOL    HW125973   3.499   3.266   4.471  0.7005 -1.6292  0.2861
 4780SOL    HW225974   3.637   3.257   4.410  0.2250 -0.2657  0.3869
 4781SOL     OW25975   1.937   0.673   8.740 -0.5079  0.2094 -0.3525
 4781SOL    HW125976   1.859   0.728   8.740 -1.2057 -0.7788 -0.5959
 4781SOL    HW225977   1.924   0.609   8.810  3.2601 -0.0068  0.1602
 4782SOL     OW25978   3.311   0.814   0.346 -0.0463  0.1746 -0.0573
 4782SOL    HW125979   3.263   0.816   0.428  0.3756 -0.6736  0.2126
 4782SOL    HW225980   3.295   0.727   0.310 -3.0838 -0.4991  2.9628
 4783SOL     OW25981   2.798   2.550   5.263  0.3639 -0.2659  0.1232
 4783SOL    HW125982   2.795   2.459   5.233  0.4425 -0.3300  0.3076
 4783SOL    HW225983   2.877   2.572   5.213  0.3739  1.1581  0.7676
 4784SOL     OW25984   4.271   3.897  15.781 -0.5301 -0.2997 -0.0606
 4784SOL    HW125985   4.214   3.839  15.731 -0.6556  0.6565 -1.0368
 4784SOL    HW225986   4.267   3.873  15.873 -3.5076 -0.1089 -0.1610
 4785SOL     OW25987   3.939   2.904   8.697  0.1815  0.1652 -0.0320
 4785SOL    HW125988   3.860   2.940   8.738  0.3947 -0.6612  1.1156
 4785SOL    HW225989   4.003   2.933   8.763 -1.1685  3.1630 -0.0168
 4786SOL     OW25990   1.613   3.603   4.830 -0.3299 -0.0258  0.3036
 4786SOL    HW125991   1.630   3.510   4.816 -2.5590 -0.2019 -1.1160
 4786SOL    HW225992   1.531   3.620   4.784 -0.2310  0.1599  0.1954
 4787SOL     OW25993   1.041   4.239   1.432 -0.0234  0.0943 -0.2142
 4787SOL    HW125994   1.091   4.274   1.506 -0.5010 -0.0677  0.1888
 4787SOL    HW225995   1.006   4.161   1.474 -1.3567  0.2386 -1.0470
 4788SOL     OW25996   1.882   2.909  15.150  0.4410 -0.8080  0.0452
 4788SOL    HW125997   1.955   2.856  15.119 -1.3862 -2.8283 -0.7568
 4788SOL    HW225998   1.918   2.998  15.150 -0.6405 -0.3572  3.0056
 4789SOL     OW25999   3.216   0.106   4.440 -0.1877 -0.2619  0.4556
 4789SOL    HW126000   3.193   0.096   4.533 -2.7375  0.7266 -0.0804
 4789SOL    HW226001   3.177   0.190   4.414 -2.0198 -1.7825 -1.6606
 4790SOL     OW26002   0.037   2.549  13.520 -0.0090  0.0786  0.5157
 4790SOL    HW126003   4.717   2.623  13.535  0.3743  0.3572  0.6197
 4790SOL    HW226004   4.713   2.504  13.463 -1.1340 -2.2128  3.6030
 4791SOL     OW26005   3.751   2.303   3.061 -0.0648  0.2401  0.2188
 4791SOL    HW126006   3.708   2.386   3.080  2.3481  1.3638  0.8051
 4791SOL    HW226007   3.694   2.232   3.089 -1.0158  0.7795 -0.3386
 4792SOL     OW26008   1.438   0.724   2.803  0.1740 -0.2172 -0.3321
 4792SOL    HW126009   1.464   0.736   2.895  0.3646 -1.1409 -0.2676
 4792SOL    HW226010   1.372   0.657   2.818  1.5829 -1.9541 -2.0304
 4793SOL     OW26011   3.677   3.543   4.729  0.3635 -0.3788  0.0233
 4793SOL    HW126012   3.642   3.541   4.819 -2.3098 -0.0037 -1.0132
 4793SOL    HW226013   3.591   3.564   4.692  1.0019  2.2612  0.0241
 4794SOL     OW26014   0.014   4.608   3.851 -0.0634 -0.5186 -0.2647
 4794SOL    HW126015   4.676   4.560   3.885 -0.6673  0.4722 -0.2288
 4794SOL    HW226016   4.721   4.611   3.760 -1.6929 -1.1762  0.2760
 4795SOL     OW26017   3.391   4.681  11.661  0.6054 -0.1834 -0.3067
 4795SOL    HW126018   3.399   4.658  11.569  0.4861  1.9268 -0.8310
 4795SOL    HW226019   3.296   4.669  11.670  0.3674  0.5527 -1.8793
 4796SOL     OW26020   1.925   3.551  13.469 -0.1397 -0.0816 -0.4445
 4796SOL    HW126021   1.920   3.465  13.509  0.8736 -1.0078 -2.3554
 4796SOL    HW226022   1.922   3.614  13.541 -2.1809  0.7272 -1.2279
 4797SOL     OW26023   3.946   2.439   1.380 -0.2873  0.0605 -0.1478
 4797SOL    HW126024   3.897   2.499   1.436  0.3280 -1.8010  2.3959
 4797SOL    HW226025   3.969   2.496   1.307 -1.9305 -0.0893 -0.7961
 4798SOL     OW26026   2.753   3.960   5.621  0.3493 -0.2316  0.1367
 4798SOL    HW126027   2.772   3.870   5.595  0.7734 -0.4530  1.2009
 4798SOL    HW226028   2.673   3.968   5.570 -0.3319 -0.1779  1.2122
 4799SOL     OW26029   1.669   4.695  15.124  0.0647 -0.0552  0.5375
 4799SOL    HW126030   1.608   0.012  15.074  0.9909  0.0917 -0.4086
 4799SOL    HW226031   1.700   0.017  15.192  1.1668  1.4271 -1.2700
 4800SOL     OW26032   3.858   0.529  11.419 -0.2757 -0.6881 -0.7915
 4800SOL    HW126033   3.803   0.480  11.480 -0.2389  0.1977 -0.0525
 4800SOL    HW226034   3.788   0.558  11.361 -0.4313 -0.3325 -0.4247
 4801SOL     OW26035   2.280   4.419  15.053  0.1483  0.6098 -0.7484
 4801SOL    HW126036   2.311   4.394  14.965  1.9677  2.1077 -0.5525
 4801SOL    HW226037   2.262   4.513  15.042  0.2171  0.7959  0.7390
 4802SOL     OW26038   2.522   1.065   2.854 -0.3525 -0.1256  0.4307
 4802SOL    HW126039   2.514   1.003   2.781 -2.9722  0.7337 -0.0027
 4802SOL    HW226040   2.560   1.009   2.922 -1.2384 -1.2888 -0.0331
 4803SOL     OW26041   3.644   2.637   5.269  0.2094  0.0109  0.3929
 4803SOL    HW126042   3.648   2.730   5.288  1.5106  0.0993 -0.3682
 4803SOL    HW226043   3.700   2.598   5.336 -0.7174  2.4472  2.5911
 4804SOL     OW26044   1.947   4.272   2.200 -0.1958  0.0714 -0.3378
 4804SOL    HW126045   1.936   4.306   2.112 -0.6063  2.5729  0.6767
 4804SOL    HW226046   1.856   4.263   2.226 -0.6127  2.6554 -0.8640
 4805SOL     OW26047   3.039   4.033   3.156  0.5110  0.0365  0.1522
 4805SOL    HW126048   3.125   4.073   3.151  0.8201 -0.5130  1.0794
 4805SOL    HW226049   3.002   4.068   3.075 -1.4324 -0.3173  0.8678
 4806SOL     OW26050   1.579   2.908  14.088 -0.1215 -0.4232  0.1864
 4806SOL    HW126051   1.615   2.963  14.018  0.7317  1.0754  1.8088
 4806SOL    HW226052   1.662   2.878  14.124  0.3194 -0.3029 -0.7244
 4807SOL     OW26053   0.177   1.392   8.005 -0.0360  0.9902 -0.1195
 4807SOL    HW126054   0.104   1.429   7.956  1.9524  2.9440 -1.5506
 4807SOL    HW226055   0.252   1.425   7.956  0.5453 -0.6287 -0.3541
 4808SOL     OW26056   2.405   0.108   4.489  0.1061 -0.8806  0.3863
 4808SOL    HW126057   2.309   0.109   4.499  0.1819  0.6813  0.9215
 4808SOL    HW226058   2.412   0.168   4.415  0.3581 -1.7041 -0.2520
 4809SOL     OW26059   1.181   2.099  12.133 -0.0115 -0.3779 -0.2598
 4809SOL    HW126060   1.086   2.110  12.140  0.3566  1.2232  2.0933
 4809SOL    HW226061   1.213   2.167  12.192 -1.9820  0.0768  0.3040
 4810SOL     OW26062   1.707   1.464   3.171  0.2800 -0.0933 -0.3351
 4810SOL    HW126063   1.711   1.465   3.266 -0.6610  0.7842 -0.2964
 4810SOL    HW226064   1.775   1.528   3.147  0.8477 -0.4875  0.2249
 4811SOL     OW26065   2.736   1.766   6.484  0.2045  0.3439  0.7103
 4811SOL    HW126066   2.678   1.691   6.470  2.5298 -1.7197  2.1736
 4811SOL    HW226067   2.717   1.814   6.404  0.8276 -1.8579 -0.7473
 4812SOL     OW26068   2.212   2.663   9.691  0.5297  0.0682 -0.5569
 4812SOL    HW126069   2.128   2.626   9.717  0.0669  0.9935 -0.7548
 4812SOL    HW226070   2.275   2.629   9.755  0.2577  2.0393  0.7413
 4813SOL     OW26071   1.552   4.019   9.051  0.9812  0.5363 -0.3266
 4813SOL    HW126072   1.558   4.001   9.145  0.1528 -1.9296 -0.7540
 4813SOL    HW226073   1.642   4.048   9.034  0.4967  2.5875  0.6866
 4814SOL     OW26074   0.288   3.071   9.617 -0.0686  0.0249 -0.1450
 4814SOL    HW126075   0.273   3.059   9.523 -1.9603 -1.5875  0.3689
 4814SOL    HW226076   0.307   3.165   9.618 -0.2738  0.0808 -1.7163
 4815SOL     OW26077   4.615   1.035   6.855 -0.2496 -0.6822  0.2308
 4815SOL    HW126078   4.642   1.002   6.941 -0.1213 -1.0901  0.0343
 4815SOL    HW226079   4.522   1.050   6.874 -0.4487 -3.0585  1.0438
 4816SOL     OW26080   2.526   2.544   4.710 -0.2351 -0.0032  0.0285
 4816SOL    HW126081   2.493   2.592   4.786 -1.7700  1.8415 -1.8094
 4816SOL    HW226082   2.454   2.555   4.649 -2.2193  1.5326  2.6420
 4817SOL     OW26083   3.692   1.951   4.640 -0.3539 -0.3587 -0.3120
 4817SOL    HW126084   3.660   1.990   4.721  1.2850  1.4729 -0.5452
 4817SOL    HW226085   3.783   1.980   4.649 -0.9773  0.6310  2.6863
 4818SOL     OW26086   4.723   1.809   6.089  0.1279  0.0870  0.3207
 4818SOL    HW126087   4.732   1.822   6.184 -2.0754  0.6220  0.4575
 4818SOL    HW226088   4.639   1.763   6.086 -0.2236  0.6693  1.0751
 4819SOL     OW26089   0.850   0.380   3.729  0.2118  0.5797  0.0891
 4819SOL    HW126090   0.829   0.342   3.643  0.5205 -0.6354  0.5456
 4819SOL    HW226091   0.867   0.466   3.691 -0.0543  0.7104  0.2686
 4820SOL     OW26092   4.320   2.649   6.036  0.3311  0.3321  0.5243
 4820SOL    HW126093   4.361   2.702   6.105 -0.4082  1.4361  0.1160
 4820SOL    HW226094   4.263   2.592   6.087 -0.5022  2.1186  1.6042
 4821SOL     OW26095   1.216   0.607   4.994  0.0767 -0.5599  0.5172
 4821SOL    HW126096   1.304   0.598   4.959  0.4244  2.0540  0.7202
 4821SOL    HW226097   1.238   0.621   5.086  0.6914 -2.5793  0.6760
 4822SOL     OW26098   3.603   4.629   9.424 -0.3322 -0.0655 -0.1161
 4822SOL    HW126099   3.515   4.629   9.461 -0.1505 -0.0163  0.3168
 4822SOL    HW226100   3.583   4.605   9.334  0.3855 -1.4596  0.0989
 4823SOL     OW26101   0.056   2.790  17.177  0.2615  0.1655  0.3238
 4823SOL    HW126102   0.007   2.708  17.177  0.9835 -0.2579  1.9676
 4823SOL    HW226103   0.042   2.824  17.265  1.6437  2.1004 -0.2098
 4824SOL     OW26104   2.863   3.124  17.653  0.0510  0.2590 -0.0820
 4824SOL    HW126105   2.922   3.178  17.600  0.1617 -1.2994 -1.5382
 4824SOL    HW226106   2.895   3.154  17.738 -0.2683  1.0606 -0.2416
 4825SOL     OW26107   3.631   2.537   9.708  0.0392  0.2091  0.1872
 4825SOL    HW126108   3.713   2.583   9.728  0.3599 -0.6373  0.8449
 4825SOL    HW226109   3.591   2.538   9.795  1.9345 -0.0913  1.0704
 4826SOL     OW26110   3.268   4.419   5.582  0.0850 -0.1846 -0.3807
 4826SOL    HW126111   3.359   4.395   5.562  0.9355  2.4481  0.3676
 4826SOL    HW226112   3.263   4.394   5.675 -1.5617 -0.3630 -0.5237
 4827SOL     OW26113   1.656   2.876  10.705 -0.6003  0.5004  0.2419
 4827SOL    HW126114   1.723   2.808  10.714 -1.9660 -1.1334 -2.0646
 4827SOL    HW226115   1.597   2.828  10.647  2.3749 -1.4630 -1.1643
 4828SOL     OW26116   1.226   2.092   3.665  0.4233 -0.0877 -0.6558
 4828SOL    HW126117   1.236   2.078   3.759  0.6505  0.1167 -0.6470
 4828SOL    HW226118   1.175   2.014   3.646 -0.2372  0.5326 -1.4606
 4829SOL     OW26119   2.068   3.993   7.040  0.1730 -0.4146  0.1538
 4829SOL    HW126120   2.110   4.049   7.106  1.7043 -0.2746 -0.9446
 4829SOL    HW226121   2.001   3.949   7.092 -2.5066  1.9388 -1.2816
 4830SOL     OW26122   0.743   1.577  11.839  0.1087 -0.4238  0.1532
 4830SOL    HW126123   0.671   1.627  11.879  1.2628 -0.5954  2.4210
 4830SOL    HW226124   0.738   1.494  11.885  1.4006 -1.5303 -1.7196
 4831SOL     OW26125   4.709   0.351   5.865  0.1420 -0.3916 -0.6019
 4831SOL    HW126126   4.640   0.390   5.812 -1.0953 -2.9308 -0.8711
 4831SOL    HW226127   4.662   0.271   5.890  0.5377 -0.1859  0.7760
 4832SOL     OW26128   2.971   2.077   5.562 -0.2670 -0.2473 -0.1437
 4832SOL    HW126129   2.907   2.147   5.574 -2.2949 -1.6119 -3.0628
 4832SOL    HW226130   2.934   2.018   5.627 -1.0801  0.1111 -0.2870
 4833SOL     OW26131   4.514   3.103   6.596 -0.0973  0.2697  0.4123
 4833SOL    HW126132   4.552   3.190   6.583 -0.4013  0.1617 -1.2760
 4833SOL    HW226133   4.575   3.071   6.662 -0.0825 -0.5484  0.0071
 4834SOL     OW26134   3.773   3.396   3.961  0.2135 -0.5719  0.2107
 4834SOL    HW126135   3.812   3.450   4.029 -0.5749  1.3205 -0.8559
 4834SOL    HW226136   3.694   3.447   3.947 -0.0596 -0.9055  0.5323
 4835SOL     OW26137   1.815   1.339  13.440  0.2669  0.0889 -0.8413
 4835SOL    HW126138   1.732   1.359  13.483  1.0744  2.0448 -0.1662
 4835SOL    HW226139   1.765   1.291  13.374  0.4426 -0.8179 -0.3078
 4836SOL     OW26140   3.262   2.701  11.911 -0.1005 -0.6106  0.4075
 4836SOL    HW126141   3.196   2.704  11.980  0.6323  4.9660  0.8141
 4836SOL    HW226142   3.217   2.637  11.856 -1.8219  0.3616  0.6868
 4837SOL     OW26143   2.678   0.388   5.759 -0.7987  0.2509 -0.0205
 4837SOL    HW126144   2.728   0.346   5.828 -0.5393  0.2998 -0.1778
 4837SOL    HW226145   2.587   0.370   5.783 -0.4041  1.0453  1.9829
 4838SOL     OW26146   2.307   0.461  12.047  0.1216 -0.1454  0.5193
 4838SOL    HW126147   2.218   0.457  12.012  0.3537  2.6424 -0.3521
 4838SOL    HW226148   2.284   0.465  12.140  0.6445 -0.9193  0.6837
 4839SOL     OW26149   4.525   4.497   8.665 -0.0249  0.1399  0.0427
 4839SOL    HW126150   4.451   4.441   8.644  0.0220  0.8702 -2.1058
 4839SOL    HW226151   4.588   4.430   8.691  0.4403 -0.1136 -1.7624
 4840SOL     OW26152   2.204   1.179  11.659  0.0182 -0.2690  0.5451
 4840SOL    HW126153   2.287   1.222  11.676  0.7689 -1.2117 -0.7091
 4840SOL    HW226154   2.155   1.207  11.736  0.5861 -0.3359  0.9265
 4841SOL     OW26155   0.249   4.644  16.582  0.1241 -0.1460  0.0979
 4841SOL    HW126156   0.242   4.712  16.515  0.3487 -1.0471 -0.8268
 4841SOL    HW226157   0.323   4.592  16.553  2.7346  3.7869 -0.3229
 4842SOL     OW26158   4.361   4.201   7.296 -0.6672 -0.2467 -0.0181
 4842SOL    HW126159   4.321   4.115   7.310 -0.0746 -0.5427 -0.1460
 4842SOL    HW226160   4.300   4.246   7.355  0.9882  2.1177 -0.1061
 4843SOL     OW26161   1.154   1.474   3.817 -0.6104 -0.1379  0.4890
 4843SOL    HW126162   1.182   1.504   3.731  0.5712 -1.0857  0.5432
 4843SOL    HW226163   1.209   1.396   3.821  1.1659  0.9715 -2.4118
 4844SOL     OW26164   4.570   3.676   8.970 -0.0663 -0.4408 -0.3304
 4844SOL    HW126165   4.568   3.600   9.028 -0.0193 -0.3742 -0.2418
 4844SOL    HW226166   4.492   3.660   8.916 -0.0593 -1.4705 -0.0408
 4845SOL     OW26167   4.459   0.568   7.345 -0.0083  0.6143  0.0911
 4845SOL    HW126168   4.461   0.654   7.387 -0.0960 -0.0664  1.4598
 4845SOL    HW226169   4.473   0.516   7.423 -0.1595  0.0690 -0.2459
 4846SOL     OW26170   4.195   2.021   6.972  0.4754 -0.3530 -0.5822
 4846SOL    HW126171   4.210   2.013   6.878  1.2427 -0.6199 -0.4352
 4846SOL    HW226172   4.237   2.105   6.992  0.7517  0.1209 -3.1614
 4847SOL     OW26173   3.937   3.332  11.575  0.4458 -0.2040  0.0439
 4847SOL    HW126174   3.884   3.298  11.647 -0.5748  0.4037 -0.4298
 4847SOL    HW226175   3.963   3.252  11.528 -0.8889 -0.0660 -0.9300
 4848SOL     OW26176   3.878   2.575   2.531 -0.1724  0.8858  0.0561
 4848SOL    HW126177   3.913   2.568   2.620  1.0982  1.3702 -0.4070
 4848SOL    HW226178   3.926   2.504   2.487  2.0735  1.5360  1.4518
 4849SOL     OW26179   3.411   2.551   8.859  0.1892  0.3738 -0.0181
 4849SOL    HW126180   3.354   2.621   8.827  0.1786 -0.0115 -0.8321
 4849SOL    HW226181   3.497   2.590   8.852  0.7593 -0.6932  0.9568
 4850SOL     OW26182   2.439   2.947   9.205  0.0814  0.1095  0.6945
 4850SOL    HW126183   2.422   2.937   9.299 -1.1810  2.3255  0.6822
 4850SOL    HW226184   2.393   2.877   9.158 -1.9333  1.8516  0.0704
 4851SOL     OW26185   3.345   2.392   9.899  0.2727  0.3364  0.4616
 4851SOL    HW126186   3.415   2.333   9.929 -1.4048 -1.8282  0.0986
 4851SOL    HW226187   3.265   2.352   9.932 -0.0069  0.5640  0.0580
 4852SOL     OW26188   3.044   3.649   2.039 -0.0956 -0.4865 -0.5185
 4852SOL    HW126189   2.988   3.727   2.043 -0.8936 -1.1202  0.6800
 4852SOL    HW226190   3.125   3.675   2.081 -0.1497 -1.3548  0.1135
 4853SOL     OW26191   0.696   0.735   2.205 -0.0497 -0.7664 -0.4412
 4853SOL    HW126192   0.744   0.798   2.259  1.2023 -0.7588 -1.5614
 4853SOL    HW226193   0.763   0.718   2.139  1.9750  0.4637  1.2800
 4854SOL     OW26194   3.828   1.912   6.342 -0.3019 -0.0887 -0.4681
 4854SOL    HW126195   3.857   1.940   6.429  1.6487  1.5386 -1.6314
 4854SOL    HW226196   3.806   2.000   6.310 -1.2249 -1.4965 -3.7624
 4855SOL     OW26197   1.543   0.834   7.677  0.5856 -0.1149  0.2397
 4855SOL    HW126198   1.633   0.840   7.644  0.2160 -0.5105 -0.8421
 4855SOL    HW226199   1.492   0.820   7.598  1.4406  0.2597 -0.3814
 4856SOL     OW26200   3.823   0.671  13.488 -0.3771 -0.0851 -0.3920
 4856SOL    HW126201   3.752   0.615  13.517 -1.2735  1.6204  0.7191
 4856SOL    HW226202   3.781   0.706  13.410 -0.1779  2.6489  0.7151
 4857SOL     OW26203   1.290   1.466  16.563 -0.0857 -0.6030  0.5247
 4857SOL    HW126204   1.288   1.551  16.519  2.4099 -0.6235  0.3748
 4857SOL    HW226205   1.313   1.487  16.653  0.2266 -0.0141  0.3057
 4858SOL     OW26206   4.287   3.591  13.820 -0.3979  0.0482  0.2997
 4858SOL    HW126207   4.291   3.547  13.735  2.4356 -0.5624  0.7430
 4858SOL    HW226208   4.295   3.507  13.866 -0.5538  0.4267  1.0130
 4859SOL     OW26209   4.381   0.491   6.536 -0.3374 -0.6770 -0.2989
 4859SOL    HW126210   4.448   0.549   6.499 -0.7934  0.5569  0.8427
 4859SOL    HW226211   4.304   0.522   6.489  0.5924  3.1497  0.6690
 4860SOL     OW26212   1.667   2.588   6.048 -0.0153 -0.3274  0.2200
 4860SOL    HW126213   1.747   2.582   5.996 -0.1995  1.0061 -0.2249
 4860SOL    HW226214   1.609   2.630   5.983 -0.4663  0.2708  1.0157
 4861SOL     OW26215   4.310   3.371   5.938 -0.1968  0.0781 -0.4122
 4861SOL    HW126216   4.220   3.400   5.947  0.5994  1.5238  2.6935
 4861SOL    HW226217   4.302   3.311   5.864  1.3651  0.1913 -0.6902
 4862SOL     OW26218   0.141   0.179  17.379 -0.5158  0.4981 -0.2044
 4862SOL    HW126219   0.145   0.211  17.289 -0.4581  0.0682 -0.3528
 4862SOL    HW226220   0.175   0.090  17.373 -0.1497  0.5605  0.8822
 4863SOL     OW26221   1.973   2.716   4.118 -0.1735 -0.8694  0.0194
 4863SOL    HW126222   1.985   2.770   4.040 -1.9734 -1.1992 -0.4674
 4863SOL    HW226223   1.923   2.640   4.090 -0.9759 -0.9551  1.6354
 4864SOL     OW26224   0.864   4.562  10.156 -0.0627 -0.3892  0.0378
 4864SOL    HW126225   0.787   4.574  10.212  0.4221 -0.0082  0.6275
 4864SOL    HW226226   0.851   4.644  10.109  2.0848 -0.9583 -1.5635
 4865SOL     OW26227   0.644   2.139   0.969  0.1781 -0.4480 -0.2694
 4865SOL    HW126228   0.734   2.171   0.981  0.1699 -0.9394  1.1636
 4865SOL    HW226229   0.636   2.101   1.056 -3.2206  0.5662 -0.1764
 4866SOL     OW26230   2.593   4.607   6.580 -0.1994  0.4546 -0.4326
 4866SOL    HW126231   2.630   4.675   6.636  0.1312  0.8129 -1.0793
 4866SOL    HW226232   2.615   4.529   6.631  2.5367  0.1442 -2.0944
 4867SOL     OW26233   3.567   3.644   8.282  0.1209  0.4823  0.2684
 4867SOL    HW126234   3.596   3.705   8.214  0.8361  0.4851  0.5729
 4867SOL    HW226235   3.564   3.703   8.357  1.0519  0.3728  0.3858
 4868SOL     OW26236   2.826   2.982  10.997 -0.4418 -0.3284 -0.5080
 4868SOL    HW126237   2.815   3.055  11.058 -0.9385  0.4260 -1.5115
 4868SOL    HW226238   2.761   2.926  11.040  0.1380  1.0199  2.1183
 4869SOL     OW26239   3.680   1.398   4.258 -0.2260 -0.4579  0.0386
 4869SOL    HW126240   3.730   1.371   4.335  1.0456 -2.3453 -1.4368
 4869SOL    HW226241   3.599   1.438   4.289 -0.3296 -1.4918  1.1052
 4870SOL     OW26242   0.167   3.282  16.066 -0.3260  0.1399  0.0911
 4870SOL    HW126243   0.233   3.229  16.022  0.6119  0.8489  0.6592
 4870SOL    HW226244   0.096   3.219  16.072 -0.0184 -0.1586  0.5642
 4871SOL     OW26245   1.952   1.154   1.832 -0.0384 -0.0804 -0.2990
 4871SOL    HW126246   1.875   1.194   1.871  0.2020  2.4484 -2.4099
 4871SOL    HW226247   1.921   1.109   1.754 -0.0905 -0.0913 -0.2722
 4872SOL     OW26248   2.957   4.714   9.104  0.0492 -0.1025 -0.0232
 4872SOL    HW126249   3.008   0.054   9.080 -0.7726 -0.0380 -1.5477
 4872SOL    HW226250   2.866   4.734   9.082  0.2549  0.2921 -0.5251
 4873SOL     OW26251   3.126   2.993  13.542 -0.0141  0.4409 -0.0769
 4873SOL    HW126252   3.201   3.048  13.518  1.4369 -0.8709  1.5077
 4873SOL    HW226253   3.155   2.946  13.620  2.7891  0.8687 -0.8775
 4874SOL     OW26254   4.215   3.902  16.872  0.2045  0.4837  0.2341
 4874SOL    HW126255   4.170   3.986  16.859 -2.2019 -0.8076  0.2768
 4874SOL    HW226256   4.300   3.942  16.893 -0.2457  1.1278  0.8423
 4875SOL     OW26257   4.021   1.952  12.807 -0.1899 -0.3819 -0.4751
 4875SOL    HW126258   3.954   1.898  12.848 -1.8103  1.7919 -0.3007
 4875SOL    HW226259   4.098   1.939  12.862 -1.9893 -0.9646  1.8950
 4876SOL     OW26260   1.203   1.408   1.608 -0.3777  0.2360  0.3432
 4876SOL    HW126261   1.213   1.361   1.690  0.1531 -0.5090 -0.1483
 4876SOL    HW226262   1.181   1.332   1.554 -0.9178  1.4313 -1.1259
 4877SOL     OW26263   0.171   3.460   2.224  0.4834 -0.1931 -0.0784
 4877SOL    HW126264   0.253   3.464   2.174  0.5784  0.6028  0.1358
 4877SOL    HW226265   0.182   3.388   2.287  1.4164 -1.2809 -1.4839
 4878SOL     OW26266   4.656   4.530   6.719  0.0809  0.2664 -0.2796
 4878SOL    HW126267   4.687   4.441   6.701 -1.0240 -0.0982 -0.3793
 4878SOL    HW226268   4.605   4.533   6.800  0.7574  1.2645  0.1032
 4879SOL     OW26269   2.719   2.253  11.492 -0.1763 -0.3600  0.3272
 4879SOL    HW126270   2.779   2.327  11.489 -1.9517  1.1271  2.2907
 4879SOL    HW226271   2.776   2.193  11.442 -0.4180  1.7468 -2.4801
 4880SOL     OW26272   1.244   1.963  10.691  0.4081  0.3033  0.2613
 4880SOL    HW126273   1.216   1.912  10.615 -0.8837 -0.4940  1.2784
 4880SOL    HW226274   1.308   2.019  10.647  1.7935 -0.9142  0.7568
 4881SOL     OW26275   2.921   0.104   3.479  0.4276  0.5383  0.4653
 4881SOL    HW126276   2.853   0.044   3.509 -0.0490  0.7689 -0.1602
 4881SOL    HW226277   2.908   0.172   3.546  0.1497 -0.4270  1.3888
 4882SOL     OW26278   3.541   3.194   6.097 -0.3208 -0.5241 -0.1984
 4882SOL    HW126279   3.450   3.208   6.073  0.0784 -0.2434 -1.5289
 4882SOL    HW226280   3.550   3.269   6.155 -1.6716 -0.1318 -0.4897
 4883SOL     OW26281   1.606   4.029   3.017 -0.3353 -0.2664 -0.2120
 4883SOL    HW126282   1.606   4.091   3.090 -1.4900 -0.3575 -0.1287
 4883SOL    HW226283   1.678   4.063   2.965  1.5313 -1.7418  1.3947
 4884SOL     OW26284   4.278   4.152  11.625  0.3188 -0.2154  0.1427
 4884SOL    HW126285   4.185   4.133  11.619 -0.3958  4.0444 -2.1103
 4884SOL    HW226286   4.311   4.065  11.602  1.5078 -0.1968  1.8136
 4885SOL     OW26287   0.981   3.473  12.877 -0.1791 -0.0257  0.5174
 4885SOL    HW126288   0.898   3.505  12.843  0.3155  0.2712 -0.3989
 4885SOL    HW226289   0.975   3.378  12.865  0.5729  0.0173 -0.1685
 4886SOL     OW26290   3.305   0.476   2.530 -0.5020  0.2885  0.2443
 4886SOL    HW126291   3.331   0.406   2.589  0.2840 -0.9057 -1.5364
 4886SOL    HW226292   3.265   0.528   2.600 -1.5130 -1.9532  1.3292
 4887SOL     OW26293   3.780   4.536   2.537  0.6377  0.3273  0.3451
 4887SOL    HW126294   3.689   4.567   2.532  0.0732 -1.7014 -1.9624
 4887SOL    HW226295   3.813   4.593   2.606  0.1165  0.1847  0.7116
 4888SOL     OW26296   1.853   3.605  10.043  0.0664  0.4398 -0.2006
 4888SOL    HW126297   1.803   3.676  10.003  2.1892  1.3386 -1.2834
 4888SOL    HW226298   1.838   3.539   9.976 -0.7024  1.2298 -0.8135
 4889SOL     OW26299   2.378   2.658   9.152  0.7064  0.2522  0.1094
 4889SOL    HW126300   2.427   2.595   9.099  0.1909 -1.9038  2.2254
 4889SOL    HW226301   2.334   2.598   9.213  0.3155 -0.3376 -0.7457
 4890SOL     OW26302   0.866   2.895  13.771 -0.1653 -0.0395 -0.3553
 4890SOL    HW126303   0.954   2.933  13.759  0.0865 -0.5585 -0.1564
 4890SOL    HW226304   0.879   2.821  13.711  1.7028 -0.2698  0.3382
 4891SOL     OW26305   3.657   4.663   3.139  0.0478  0.6929  0.3743
 4891SOL    HW126306   3.701   4.626   3.216 -1.5216 -1.0810  0.3973
 4891SOL    HW226307   3.574   4.616   3.138  1.4854 -1.7612 -1.9367
 4892SOL     OW26308   1.462   1.175   7.043  0.0694 -0.3931  0.7134
 4892SOL    HW126309   1.396   1.245   7.034  0.7447 -0.1132 -2.0533
 4892SOL    HW226310   1.420   1.112   7.101 -1.6794  0.0167 -0.0932
 4893SOL     OW26311   3.666   4.428   6.787  0.0402  0.3109 -0.3845
 4893SOL    HW126312   3.682   4.517   6.817  1.8362 -0.1900  0.1514
 4893SOL    HW226313   3.627   4.441   6.701 -0.1265  1.6079 -0.1108
 4894SOL     OW26314   3.409   2.884   3.805  0.3009  0.2076 -0.1514
 4894SOL    HW126315   3.327   2.916   3.844  1.5761  1.3197  1.6160
 4894SOL    HW226316   3.462   2.962   3.793 -0.2729  0.7187  0.5877
 4895SOL     OW26317   0.074   3.931  16.730 -0.3883  0.2415  0.3061
 4895SOL    HW126318   0.119   3.878  16.665 -1.7803  0.5402 -0.8906
 4895SOL    HW226319   0.079   4.012  16.679 -0.4110 -0.7819 -1.3106
 4896SOL     OW26320   1.817   1.020   2.389  0.2128 -0.1425  0.3352
 4896SOL    HW126321   1.794   1.021   2.482  0.5927  1.4633  0.4162
 4896SOL    HW226322   1.739   0.978   2.354  1.6738 -2.0851 -0.5485
 4897SOL     OW26323   2.725   1.676   4.856  0.6738  0.1413 -0.5773
 4897SOL    HW126324   2.708   1.627   4.936  0.8198 -0.0209 -0.6472
 4897SOL    HW226325   2.764   1.611   4.798  0.1198 -2.3809  1.9134
 4898SOL     OW26326   3.408   4.138  15.196 -0.7879 -0.1996 -0.8196
 4898SOL    HW126327   3.490   4.123  15.149 -0.2192 -1.2305  0.5144
 4898SOL    HW226328   3.351   4.165  15.124 -0.0538  0.1105 -1.2947
 4899SOL     OW26329   2.407   3.488   7.155 -0.0397  0.5782 -0.5660
 4899SOL    HW126330   2.432   3.415   7.210  2.3787  0.9477 -1.1828
 4899SOL    HW226331   2.352   3.540   7.213  2.0018  0.3830  1.5441
 4900SOL     OW26332   1.128   2.362   6.917 -0.5354  0.0025 -1.1702
 4900SOL    HW126333   1.061   2.395   6.858 -0.3010  1.9244 -0.3305
 4900SOL    HW226334   1.171   2.443   6.945 -0.7799  0.5526 -2.3799
 4901SOL     OW26335   0.726   0.157   3.944  0.0493  0.1048  0.2312
 4901SOL    HW126336   0.647   0.186   3.899 -0.1710 -0.8378  0.0026
 4901SOL    HW226337   0.688   0.106   4.015  0.1024 -0.6241 -0.2630
 4902SOL     OW26338   1.893   1.532   6.136  0.4006 -0.0559  0.6228
 4902SOL    HW126339   1.800   1.546   6.153  0.5878  1.9351  0.1084
 4902SOL    HW226340   1.915   1.603   6.075 -1.7121 -2.2571 -2.6885
 4903SOL     OW26341   3.249   4.149   0.309 -0.4415 -0.1549 -0.2401
 4903SOL    HW126342   3.229   4.195   0.228 -3.2706 -1.0472 -0.0587
 4903SOL    HW226343   3.288   4.227   0.349 -0.3308 -0.7008  0.7270
 4904SOL     OW26344   0.106   4.187  11.591  0.3367  0.5721 -0.1900
 4904SOL    HW126345   0.183   4.234  11.623  0.7302 -0.2454  0.0975
 4904SOL    HW226346   0.124   4.101  11.630  0.7341  0.3379 -0.8900
 4905SOL     OW26347   3.391   1.388   6.664  0.2946  0.1060  0.2687
 4905SOL    HW126348   3.350   1.351   6.586  0.6508  1.6801 -0.6723
 4905SOL    HW226349   3.331   1.460   6.683 -1.7438 -1.1689 -1.3169
 4906SOL     OW26350   1.477   1.364  13.891  0.1502 -0.3738  0.3359
 4906SOL    HW126351   1.496   1.429  13.959  0.0008 -1.0142  0.9918
 4906SOL    HW226352   1.514   1.288  13.936 -1.7553 -0.2732  2.1027
 4907SOL     OW26353   1.589   0.380   2.475  0.3218  0.2128 -0.4005
 4907SOL    HW126354   1.528   0.356   2.544  0.9233  1.1394  0.4564
 4907SOL    HW226355   1.676   0.353   2.505 -0.5781 -2.3834 -0.1299
 4908SOL     OW26356   2.980   2.802   7.112 -0.2315 -0.3528  0.0407
 4908SOL    HW126357   2.958   2.889   7.080  0.8998  0.0824  0.4428
 4908SOL    HW226358   3.010   2.821   7.201  1.7199 -1.9472 -0.2549
 4909SOL     OW26359   0.351   3.219   6.069  0.3380 -0.0126 -0.3068
 4909SOL    HW126360   0.331   3.308   6.038  2.4560  1.2827  2.0447
 4909SOL    HW226361   0.351   3.227   6.165 -0.7387 -1.3969 -0.1819
 4910SOL     OW26362   1.260   1.064   8.515  0.1742  0.1609  0.3743
 4910SOL    HW126363   1.218   1.131   8.570 -0.5624  0.7433 -0.9090
 4910SOL    HW226364   1.188   1.055   8.452 -0.7838  1.0662  1.3350
 4911SOL     OW26365   0.475   4.624  16.431  0.5845  0.0678  0.3202
 4911SOL    HW126366   0.568   4.610  16.443  0.3812  0.9064  2.8383
 4911SOL    HW226367   0.452   4.575  16.352 -1.3189  0.8020  0.3934
 4912SOL     OW26368   0.230   4.668   7.164  0.0006 -0.1118  0.1504
 4912SOL    HW126369   0.315   4.710   7.151 -0.1499  0.5934  1.4981
 4912SOL    HW226370   0.159   4.729   7.144  0.5647 -0.3533 -2.6285
 4913SOL     OW26371   4.421   1.394   2.015 -0.6424  1.2208  0.1640
 4913SOL    HW126372   4.457   1.378   1.928  1.2982  2.1752  0.7928
 4913SOL    HW226373   4.328   1.375   2.002 -0.9279  1.6111  1.6367
 4914SOL     OW26374   4.177   3.341   5.631 -0.5002  0.1425  0.3077
 4914SOL    HW126375   4.093   3.315   5.595  0.1201 -4.0476  1.8457
 4914SOL    HW226376   4.180   3.429   5.594  0.9277 -0.8083 -1.8227
 4915SOL     OW26377   2.203   1.119   5.537  0.4533 -0.3794  0.0823
 4915SOL    HW126378   2.196   1.206   5.578  0.0472 -0.7350  0.7781
 4915SOL    HW226379   2.202   1.054   5.607 -1.3823 -1.8068 -1.2827
 4916SOL     OW26380   2.107   2.672   6.962  0.6003  0.1406  0.1643
 4916SOL    HW126381   2.174   2.722   7.007 -0.1726  1.0295  0.3297
 4916SOL    HW226382   2.117   2.583   6.997 -2.2559  0.0974  0.9402
 4917SOL     OW26383   0.215   4.496  14.433 -0.1917  0.4583 -0.2939
 4917SOL    HW126384   0.278   4.437  14.391  0.3585  1.5797 -1.0766
 4917SOL    HW226385   0.257   4.528  14.513  0.4347 -0.1666 -0.3663
 4918SOL     OW26386   2.346   3.185   8.853  0.0866  0.1246  0.0341
 4918SOL    HW126387   2.309   3.213   8.937  1.4672  1.2096  0.2690
 4918SOL    HW226388   2.315   3.259   8.801 -0.1072  0.5214  0.7084
 4919SOL     OW26389   1.290   2.103   3.108  0.1648  0.5183 -0.1961
 4919SOL    HW126390   1.257   2.095   3.197 -0.0029 -1.2311 -0.4230
 4919SOL    HW226391   1.384   2.085   3.116  0.1148  0.4192  0.1641
 4920SOL     OW26392   3.939   2.696   5.220  0.1503 -0.5245 -0.0921
 4920SOL    HW126393   3.916   2.639   5.294 -0.1664 -0.6197 -0.2620
 4920SOL    HW226394   3.991   2.637   5.166  0.3946 -0.4857  0.1020
 4921SOL     OW26395   4.407   2.972  10.438 -0.0093  0.2342  0.4663
 4921SOL    HW126396   4.344   2.922  10.386 -0.0984 -0.5742  1.3528
 4921SOL    HW226397   4.448   2.907  10.495 -0.0474  0.3694  0.6487
 4922SOL     OW26398   4.008   0.216   5.397  0.1034  0.3280 -0.1786
 4922SOL    HW126399   3.932   0.205   5.340 -0.4710  3.1581  0.0419
 4922SOL    HW226400   4.032   0.303   5.366 -2.1013  0.0404 -2.7159
 4923SOL     OW26401   3.534   4.494  11.822  0.3728 -0.2861  0.1822
 4923SOL    HW126402   3.567   4.441  11.749  0.1539  2.6586 -2.0683
 4923SOL    HW226403   3.481   4.561  11.779  1.0698 -0.9496 -1.7388
 4924SOL     OW26404   0.239   3.783   9.655 -0.0675  0.1758  0.3622
 4924SOL    HW126405   0.323   3.742   9.672  0.1807  1.1456  1.4979
 4924SOL    HW226406   0.185   3.723   9.706  0.0811 -0.8697 -0.7023
 4925SOL     OW26407   3.621   2.510   9.213  0.1175 -0.3428 -0.1037
 4925SOL    HW126408   3.585   2.538   9.297  0.7462 -0.6518  0.2679
 4925SOL    HW226409   3.547   2.458   9.181 -0.9636  2.2160 -1.6947
 4926SOL     OW26410   0.228   4.590  14.160  0.6480  0.3134  0.3144
 4926SOL    HW126411   0.283   4.517  14.133  0.5373  0.4846 -0.3621
 4926SOL    HW226412   0.241   4.587  14.255  1.3704 -1.2159  0.1672
 4927SOL     OW26413   2.026   1.978   5.478  0.1541 -0.6677 -0.3292
 4927SOL    HW126414   1.938   1.957   5.450  1.0803 -2.2439 -2.0503
 4927SOL    HW226415   2.062   1.896   5.512 -0.7616 -0.0490  2.1864
 4928SOL     OW26416   4.355   2.081   7.754  0.3129  0.1915  0.1092
 4928SOL    HW126417   4.367   2.160   7.700  1.4641 -0.1813 -0.1736
 4928SOL    HW226418   4.440   2.057   7.788  1.6919  2.5362 -1.6303
 4929SOL     OW26419   0.301   1.010   0.711  0.6126 -0.0089 -0.1573
 4929SOL    HW126420   0.216   1.049   0.693  2.3207  3.6463 -0.3123
 4929SOL    HW226421   0.337   1.011   0.622  0.1031  0.5525 -0.3573
 4930SOL     OW26422   3.230   2.258   6.334  0.0522 -0.3377  0.6297
 4930SOL    HW126423   3.240   2.163   6.327 -1.2268 -0.5303  1.6025
 4930SOL    HW226424   3.209   2.285   6.245  1.4684  1.7292  0.9008
 4931SOL     OW26425   2.624   2.811   9.418  0.3704  0.7404  0.2056
 4931SOL    HW126426   2.547   2.831   9.472  0.5750  1.6641  0.1723
 4931SOL    HW226427   2.687   2.881   9.436  1.2949  0.3210 -1.4657
 4932SOL     OW26428   4.256   4.049   1.131  0.1732 -0.1502 -0.3616
 4932SOL    HW126429   4.206   3.973   1.099 -1.6790  1.5059 -1.4196
 4932SOL    HW226430   4.340   4.030   1.089  0.3869 -1.3002  0.5843
 4933SOL     OW26431   1.102   2.398  14.620  0.1348 -0.0882  0.2007
 4933SOL    HW126432   1.191   2.414  14.588  0.3632 -1.8978 -0.0777
 4933SOL    HW226433   1.069   2.346  14.546 -0.0667 -1.2180  1.0935
 4934SOL     OW26434   2.066   1.465   4.186  0.3592 -0.2266  0.5409
 4934SOL    HW126435   2.050   1.405   4.259  0.7157 -0.7325  0.2018
 4934SOL    HW226436   2.145   1.504   4.226  0.5601 -1.3578  1.2347
 4935SOL     OW26437   3.932   1.998   5.982  0.0779  0.2577  0.5236
 4935SOL    HW126438   3.899   2.087   5.974 -2.3786 -0.7463 -0.6552
 4935SOL    HW226439   3.856   1.961   5.936  0.7371  1.2395 -1.3506
 4936SOL     OW26440   0.367   0.924   4.343  0.0306  0.0604  0.2945
 4936SOL    HW126441   0.405   0.962   4.422  1.5979 -1.5101  0.2752
 4936SOL    HW226442   0.301   0.865   4.378 -0.4691  1.6534  2.0333
 4937SOL     OW26443   3.143   4.104   8.371 -0.3701  0.2509  0.1843
 4937SOL    HW126444   3.122   4.029   8.315 -0.5302 -0.2624  0.9263
 4937SOL    HW226445   3.141   4.169   8.302  1.5022  0.6004  0.4714
 4938SOL     OW26446   1.333   4.514   4.430 -0.5751  0.3071  0.3383
 4938SOL    HW126447   1.404   4.465   4.389 -1.4629 -1.6607  1.1341
 4938SOL    HW226448   1.352   4.601   4.394 -1.0786 -0.1852 -1.1472
 4939SOL     OW26449   4.587   4.420   8.286  0.0225 -0.1124 -0.1521
 4939SOL    HW126450   4.511   4.401   8.231 -0.4205 -2.8442  1.4208
 4939SOL    HW226451   4.647   4.346   8.280 -0.3859 -0.4704  0.2725
 4940SOL     OW26452   0.162   0.102   5.196  0.2059  0.1057  0.1949
 4940SOL    HW126453   0.210   0.061   5.124  0.9406  0.0186  0.7383
 4940SOL    HW226454   0.220   0.173   5.224 -2.1059  1.8469  0.5763
 4941SOL     OW26455   1.622   1.201   2.533 -0.1153 -0.1372  0.7111
 4941SOL    HW126456   1.646   1.127   2.590  0.7199  0.3387  0.9821
 4941SOL    HW226457   1.707   1.245   2.531  0.6563 -1.5620  2.0822
 4942SOL     OW26458   0.351   4.607   4.748 -0.0502  0.9358 -0.4341
 4942SOL    HW126459   0.429   4.630   4.697  1.3371  0.2663  1.3800
 4942SOL    HW226460   0.286   4.607   4.678  0.6029 -0.6489 -1.0264
 4943SOL     OW26461   2.094   2.914   4.471 -0.4051  0.3831 -0.0724
 4943SOL    HW126462   2.156   2.923   4.543  0.5973  2.0215 -1.1344
 4943SOL    HW226463   2.144   2.967   4.408  0.7809  1.6516  1.9431
 4944SOL     OW26464   3.154   4.155   2.618 -0.3880 -0.1765  0.1107
 4944SOL    HW126465   3.156   4.242   2.657  1.7547  0.4513 -1.3767
 4944SOL    HW226466   3.084   4.111   2.666  0.2694 -0.4979  0.7674
 4945SOL     OW26467   0.558   4.541   5.192 -0.2852 -0.2929  0.1769
 4945SOL    HW126468   0.606   4.615   5.156 -0.2198 -0.6067 -0.3852
 4945SOL    HW226469   0.488   4.577   5.246  1.3523  2.0261  0.6979
 4946SOL     OW26470   1.857   2.646  15.280  0.2614  0.5031 -0.1076
 4946SOL    HW126471   1.831   2.729  15.239 -1.0097 -0.7838 -1.8877
 4946SOL    HW226472   1.933   2.631  15.224  0.7881 -0.8565  0.9814
 4947SOL     OW26473   4.052   0.659  17.690 -0.2604  0.2741  0.0769
 4947SOL    HW126474   4.031   0.607   0.018  0.3024  0.9121  0.6542
 4947SOL    HW226475   4.003   0.607  17.625  1.6742 -0.0385 -1.1201
 4948SOL     OW26476   3.946   0.024   2.630  0.1541 -0.8940  0.2664
 4948SOL    HW126477   4.004   0.085   2.584 -2.2490 -0.3950 -2.0750
 4948SOL    HW226478   3.935   0.080   2.706 -1.2098  0.6171 -1.0442
 4949SOL     OW26479   3.845   0.015   8.725  0.3242 -0.2343 -0.0812
 4949SOL    HW126480   3.938   0.009   8.707  0.5126 -0.0319  0.8194
 4949SOL    HW226481   3.832   0.036   8.818  1.5130  3.0224 -0.6435
 4950SOL     OW26482   2.921   1.508   1.989  0.1252 -0.1553 -0.6164
 4950SOL    HW126483   2.866   1.477   2.061 -2.0201 -0.6896 -2.4647
 4950SOL    HW226484   2.896   1.598   1.971  0.7435  0.2282  0.5046
 4951SOL     OW26485   1.266   2.089   6.889  0.6202  0.4513 -0.2953
 4951SOL    HW126486   1.360   2.095   6.906  0.0153  0.5046  3.1064
 4951SOL    HW226487   1.244   2.182   6.888 -4.0850 -0.7029 -1.5391
 4952SOL     OW26488   0.565   1.416   2.857 -0.0257 -0.1690  0.4241
 4952SOL    HW126489   0.513   1.475   2.911 -1.0516  0.7420 -1.5508
 4952SOL    HW226490   0.643   1.421   2.913  0.8421  0.5551 -0.8271
 4953SOL     OW26491   4.679   2.853   2.524  0.6405 -0.3843  0.0445
 4953SOL    HW126492   4.627   2.889   2.596 -2.7091 -3.4930 -0.8035
 4953SOL    HW226493   4.657   2.760   2.519 -0.8436  0.0238 -1.2066
 4954SOL     OW26494   3.597   0.237   4.714  0.0258  0.1061  0.1931
 4954SOL    HW126495   3.604   0.333   4.709 -1.4151  0.1334 -1.2849
 4954SOL    HW226496   3.555   0.218   4.631 -0.4653  2.5536 -0.1413
 4955SOL     OW26497   0.705   4.097   8.965 -0.2566  0.0877  0.1411
 4955SOL    HW126498   0.734   4.102   9.056 -0.2425  1.2960  0.0711
 4955SOL    HW226499   0.614   4.076   8.983 -0.4644 -0.4643 -1.5254
 4956SOL     OW26500   2.244   1.046   0.240  0.4216 -0.2089  0.3847
 4956SOL    HW126501   2.218   0.958   0.210  2.7053 -1.4634  2.0806
 4956SOL    HW226502   2.285   1.030   0.325  0.7506 -1.6257 -0.0287
 4957SOL     OW26503   0.727   2.216   6.740 -0.0007 -0.5156  0.3575
 4957SOL    HW126504   0.636   2.209   6.710  0.5968 -2.0042 -1.0667
 4957SOL    HW226505   0.719   2.197   6.834 -1.0522  0.0632  0.3920
 4958SOL     OW26506   1.044   1.587   4.238  0.2087  0.3316  0.2569
 4958SOL    HW126507   1.018   1.553   4.324  0.8126 -1.4906 -0.2937
 4958SOL    HW226508   1.125   1.536   4.232 -1.7040 -2.3048 -2.6837
 4959SOL     OW26509   3.036   2.515   5.071 -0.1346 -0.1951  0.0326
 4959SOL    HW126510   3.004   2.424   5.064  0.8023 -0.5280  0.0603
 4959SOL    HW226511   3.112   2.502   5.128  0.2787  1.6078 -0.1307
 4960SOL     OW26512   3.287   4.190   3.911 -0.6515 -0.0093  0.3779
 4960SOL    HW126513   3.230   4.259   3.942  1.8902  1.8228  0.9763
 4960SOL    HW226514   3.348   4.185   3.985  1.0074 -0.2205 -0.9900
 4961SOL     OW26515   4.330   4.215  13.284  0.3459  0.1655 -0.3225
 4961SOL    HW126516   4.411   4.263  13.303  0.0574  0.6901 -0.4307
 4961SOL    HW226517   4.311   4.252  13.198  0.6041  1.0061 -0.0178
 4962SOL     OW26518   2.869   2.612  11.338  0.2141  0.6213  0.3930
 4962SOL    HW126519   2.922   2.542  11.378 -1.5995 -0.0435  1.6301
 4962SOL    HW226520   2.899   2.690  11.386  0.5984 -0.6746  2.2863
 4963SOL     OW26521   3.622   4.425  15.698  0.1236 -0.4368 -0.0530
 4963SOL    HW126522   3.575   4.412  15.780 -2.0037 -0.8912 -1.3526
 4963SOL    HW226523   3.703   4.380  15.723  0.6582  1.0868  0.9503
 4964SOL     OW26524   0.660   0.770  12.209 -0.1590  0.8105  0.6206
 4964SOL    HW126525   0.590   0.824  12.174 -0.0793 -0.3224 -1.2800
 4964SOL    HW226526   0.631   0.764  12.300 -1.1366  1.7363  0.3667
 4965SOL     OW26527   2.451   3.522   2.338  0.0031 -0.8478 -0.2722
 4965SOL    HW126528   2.403   3.477   2.407 -3.4518  1.3870 -1.2578
 4965SOL    HW226529   2.396   3.501   2.263  0.3871  1.1569 -1.1142
 4966SOL     OW26530   2.903   0.281   8.329 -0.2588  0.2483 -0.0306
 4966SOL    HW126531   2.811   0.265   8.307  0.0141  0.7697 -1.5463
 4966SOL    HW226532   2.913   0.372   8.301 -2.1858  0.3922 -0.2719
 4967SOL     OW26533   2.119   0.372   8.755 -0.0631  0.5019 -0.1247
 4967SOL    HW126534   2.044   0.413   8.712 -0.1015  2.1987  1.5883
 4967SOL    HW226535   2.165   0.346   8.675 -0.0017  0.3323 -0.0347
 4968SOL     OW26536   0.955   0.958  17.531  0.7884  0.4066  0.0464
 4968SOL    HW126537   0.867   0.968  17.494  1.0910 -0.3064 -0.8552
 4968SOL    HW226538   0.930   0.908  17.610  3.2796  1.6090  1.5844
 4969SOL     OW26539   1.327   0.999   5.183 -0.3040 -0.2938  0.0032
 4969SOL    HW126540   1.323   1.073   5.245 -0.2863  0.2254 -0.6172
 4969SOL    HW226541   1.417   0.970   5.197 -0.3290  0.0154  0.8263
 4970SOL     OW26542   1.470   2.214   9.014 -0.1052  0.2759 -0.8183
 4970SOL    HW126543   1.390   2.258   8.985 -0.3361  0.0981 -0.4494
 4970SOL    HW226544   1.464   2.129   8.971  0.7775 -0.4821  0.5756
 4971SOL     OW26545   2.459   2.045   9.933 -0.3398  0.3179  0.1801
 4971SOL    HW126546   2.447   2.010  10.021  0.1684  1.0298  0.5266
 4971SOL    HW226547   2.553   2.052   9.922 -0.2470 -1.4499 -0.1294
 4972SOL     OW26548   3.835   2.684   0.829  0.1029  0.4412 -0.4941
 4972SOL    HW126549   3.821   2.639   0.746  1.5974 -0.5962 -0.1734
 4972SOL    HW226550   3.767   2.652   0.889  0.2593  1.3636  0.1942
 4973SOL     OW26551   2.919   0.037  10.277  0.4151  0.3731 -0.5609
 4973SOL    HW126552   2.946   0.115  10.228  1.5640 -1.0127 -2.1861
 4973SOL    HW226553   2.895   4.722  10.200 -2.9974  1.7804 -0.4589
 4974SOL     OW26554   4.209   0.758   9.541  0.1456 -0.8145 -0.4000
 4974SOL    HW126555   4.171   0.670   9.550 -0.3595 -0.5756 -0.2286
 4974SOL    HW226556   4.302   0.737   9.555  0.1831  0.5553  1.2964
 4975SOL     OW26557   1.757   2.746   1.970 -0.8966  0.6510 -0.2384
 4975SOL    HW126558   1.704   2.715   1.896 -1.5231 -0.3497  0.6327
 4975SOL    HW226559   1.767   2.668   2.025 -0.7915  0.3695 -0.6495
 4976SOL     OW26560   0.160   1.912   4.781 -0.2808  0.4574 -0.0314
 4976SOL    HW126561   0.253   1.898   4.768 -0.1165  0.2525  1.2748
 4976SOL    HW226562   0.162   1.949   4.870  1.1801 -2.6842  1.2148
 4977SOL     OW26563   0.422   4.384   3.937 -0.1111  0.0095  0.1634
 4977SOL    HW126564   0.378   4.372   3.853  0.8807 -2.8826  0.0495
 4977SOL    HW226565   0.490   4.317   3.941  0.1633  0.2460 -0.4172
 4978SOL     OW26566   1.201   2.634  14.713  0.5747  0.3337 -0.0756
 4978SOL    HW126567   1.202   2.688  14.634 -1.2605 -2.5778 -2.0589
 4978SOL    HW226568   1.138   2.567  14.689  0.7527 -0.2176  0.9896
 4979SOL     OW26569   1.573   2.320  10.154 -0.3798  0.2110 -0.2172
 4979SOL    HW126570   1.638   2.390  10.147  0.3147 -0.2040  2.2839
 4979SOL    HW226571   1.563   2.311  10.248 -3.1544  2.0370 -0.3646
 4980SOL     OW26572   3.731   1.952   5.449 -0.4939 -0.2569  0.0810
 4980SOL    HW126573   3.750   2.043   5.426  0.0735 -0.7821 -1.4951
 4980SOL    HW226574   3.643   1.941   5.414  0.1418  0.2275 -1.6595
 4981SOL     OW26575   3.722   0.034   0.762 -0.4461  0.1607 -0.7296
 4981SOL    HW126576   3.780   4.715   0.712  0.3867 -0.7189  1.1997
 4981SOL    HW226577   3.788   0.093   0.799  0.8053 -1.4691 -0.3908
 4982SOL     OW26578   2.843   0.966   6.501  0.2750  0.1974  0.0371
 4982SOL    HW126579   2.866   0.887   6.551  0.1368  0.5433  0.6519
 4982SOL    HW226580   2.925   1.014   6.514  0.7969 -1.0461  1.4271
 4983SOL     OW26581   2.571   3.197   3.377 -0.3628 -0.1445  0.1897
 4983SOL    HW126582   2.523   3.117   3.395  1.2339 -0.7759  1.7147
 4983SOL    HW226583   2.663   3.173   3.391  0.4725  1.9023 -1.6508
 4984SOL     OW26584   1.849   1.335   2.474  0.2885 -0.8464 -0.0369
 4984SOL    HW126585   1.924   1.275   2.467 -0.6054 -1.5927 -3.2922
 4984SOL    HW226586   1.848   1.375   2.387  0.1610  3.0197  1.7215
 4985SOL     OW26587   0.021   2.696   8.777 -0.0660  0.1431  0.5884
 4985SOL    HW126588   0.018   2.761   8.708  2.0781 -0.7502 -0.3553
 4985SOL    HW226589   0.097   2.723   8.830  1.1101 -0.5590 -0.7288
 4986SOL     OW26590   1.102   0.569   9.466  0.4991  0.4154 -1.2656
 4986SOL    HW126591   1.099   0.654   9.509 -0.4027 -0.3998  0.2987
 4986SOL    HW226592   1.093   0.513   9.543 -1.5807  3.0105  0.3614
 4987SOL     OW26593   0.632   3.849   9.614 -0.3748 -0.2321 -0.3515
 4987SOL    HW126594   0.606   3.941   9.615  0.6449  0.0629 -1.2317
 4987SOL    HW226595   0.573   3.815   9.682  0.7995  2.1589  1.8414
 4988SOL     OW26596   4.254   2.753  16.374  0.6370  0.5316 -0.2521
 4988SOL    HW126597   4.344   2.720  16.382  0.4833 -0.4069 -2.6226
 4988SOL    HW226598   4.245   2.791  16.462 -0.4257  1.0103 -0.5718
 4989SOL     OW26599   2.419   0.340  12.724 -0.2264 -0.4583 -0.0516
 4989SOL    HW126600   2.411   0.420  12.776  0.7992  0.1005 -0.7368
 4989SOL    HW226601   2.431   0.373  12.635  0.8669  1.9173  0.9707
 4990SOL     OW26602   4.602   0.242   1.379 -0.1552 -0.3996  0.3898
 4990SOL    HW126603   4.522   0.198   1.350 -0.9838 -0.6935  3.1327
 4990SOL    HW226604   4.616   0.203   1.465 -0.3574 -1.0786  0.1111
 4991SOL     OW26605   3.301   1.805   4.428 -0.5580 -0.1441 -0.0168
 4991SOL    HW126606   3.376   1.750   4.453 -0.9769 -1.1096 -0.8523
 4991SOL    HW226607   3.306   1.882   4.484  0.0051  0.3225 -0.7087
 4992SOL     OW26608   4.152   0.126   5.906 -0.2029  0.1825  0.2490
 4992SOL    HW126609   4.108   0.042   5.893  1.0804 -0.0867 -2.2615
 4992SOL    HW226610   4.153   0.147   5.813  0.6326  0.3316  0.2932
 4993SOL     OW26611   1.575   1.836   3.333 -0.3603 -0.8899 -0.8470
 4993SOL    HW126612   1.658   1.885   3.330 -0.7136 -0.1703  1.0409
 4993SOL    HW226613   1.528   1.883   3.264  0.3097  0.0385 -0.6796
 4994SOL     OW26614   3.575   0.484   7.159 -0.0138 -0.6564  0.3310
 4994SOL    HW126615   3.494   0.526   7.131  0.5937  1.2565  1.4005
 4994SOL    HW226616   3.564   0.404   7.109 -1.0857 -0.3553  0.0946
 4995SOL     OW26617   0.125   4.114   6.264 -0.2963  0.0408 -0.3317
 4995SOL    HW126618   0.091   4.025   6.253  0.1066 -0.1114 -0.3209
 4995SOL    HW226619   0.148   4.103   6.356 -0.4993  0.6307 -0.2128
 4996SOL     OW26620   3.600   3.521   1.553 -0.3811  0.0841 -0.3122
 4996SOL    HW126621   3.678   3.514   1.497  0.7119 -2.5206  1.5343
 4996SOL    HW226622   3.532   3.486   1.495 -0.0635  2.7435 -2.2978
 4997SOL     OW26623   4.216   2.932   2.273  0.6682 -0.2537  0.0233
 4997SOL    HW126624   4.279   2.964   2.338 -0.1189  1.3040  0.0083
 4997SOL    HW226625   4.246   2.971   2.190 -0.5598  0.4265 -0.0896
 4998SOL     OW26626   0.339   2.038   5.976  0.1888  0.2512 -0.3432
 4998SOL    HW126627   0.244   2.030   5.971  0.2562 -1.0609  0.3503
 4998SOL    HW226628   0.361   1.949   5.946 -1.4826 -0.0303 -0.7147
 4999SOL     OW26629   2.352   4.349   0.229 -0.7133  0.1696  0.2320
 4999SOL    HW126630   2.444   4.348   0.203 -0.2079 -0.5157  2.0388
 4999SOL    HW226631   2.351   4.278   0.294 -1.4849 -0.5526 -0.5676
 5000SOL     OW26632   3.598   4.137  10.708  0.3915 -0.1672 -0.0412
 5000SOL    HW126633   3.625   4.175  10.625 -1.1582 -2.6671 -1.6951
 5000SOL    HW226634   3.603   4.213  10.766 -1.2723  0.0879 -0.2263
 5001SOL     OW26635   2.050   1.764   6.732 -0.8543 -0.7666 -0.1745
 5001SOL    HW126636   2.064   1.789   6.641  1.0473  0.0180  0.3468
 5001SOL    HW226637   2.135   1.729   6.758 -0.8443 -0.1760  0.5853
 5002SOL     OW26638   1.720   1.081  12.172 -0.3710  0.4069 -0.1461
 5002SOL    HW126639   1.701   1.071  12.078  3.7777 -1.1956 -0.8301
 5002SOL    HW226640   1.635   1.087  12.214 -0.0775 -1.4297  0.6849
 5003SOL     OW26641   3.490   2.428  13.315  0.4316  0.5451 -0.2358
 5003SOL    HW126642   3.570   2.421  13.369 -0.3209  2.2443  1.1134
 5003SOL    HW226643   3.519   2.348  13.272 -2.3141 -0.7042  0.2714
 5004SOL     OW26644   0.077   4.119   9.021  0.2522 -0.4296  0.7076
 5004SOL    HW126645   0.069   4.024   9.011 -0.6967 -0.1690 -1.1094
 5004SOL    HW226646   0.003   4.144   8.965  0.9736 -0.2088 -0.1614
 5005SOL     OW26647   3.911   1.610   6.361  0.1697  0.1606  0.4659
 5005SOL    HW126648   3.861   1.606   6.279  0.9631  0.6836 -0.0450
 5005SOL    HW226649   3.943   1.700   6.346 -0.1306 -0.1024 -1.7908
 5006SOL     OW26650   3.233   1.155   7.801 -0.3529 -0.2795 -0.5178
 5006SOL    HW126651   3.270   1.212   7.868 -2.8480  0.2637  0.3830
 5006SOL    HW226652   3.173   1.220   7.762 -1.8930 -1.0223  0.6178
 5007SOL     OW26653   2.815   2.950   3.845  0.1424 -0.3651  0.4790
 5007SOL    HW126654   2.727   2.988   3.843 -0.5361 -1.9038  1.4114
 5007SOL    HW226655   2.839   2.978   3.933 -2.7771 -1.5844  1.6805
 5008SOL     OW26656   2.412   0.257   6.935  0.3501 -0.1489  0.0585
 5008SOL    HW126657   2.369   0.342   6.944 -1.2483 -1.2465  2.9965
 5008SOL    HW226658   2.499   0.273   6.973 -0.0327 -0.7617  1.2148
 5009SOL     OW26659   1.380   4.239   5.456  0.6413  0.4132 -0.2851
 5009SOL    HW126660   1.409   4.150   5.434 -1.4240  0.4700 -3.2856
 5009SOL    HW226661   1.371   4.236   5.551 -1.1737  0.9439 -0.4349
 5010SOL     OW26662   3.196   4.149   9.421  0.0536  0.5178 -0.0041
 5010SOL    HW126663   3.259   4.220   9.410 -0.4545  0.7439 -1.4662
 5010SOL    HW226664   3.160   4.158   9.333 -1.5704  0.2424  0.6178
 5011SOL     OW26665   2.031   3.054  14.035  0.1326  0.0916  0.2597
 5011SOL    HW126666   2.097   3.012  14.091  0.9495  0.8285 -0.1436
 5011SOL    HW226667   1.950   3.033  14.081  1.0047 -1.5392  1.0672
 5012SOL     OW26668   2.235   0.921   5.729 -0.0536 -0.0425 -0.2081
 5012SOL    HW126669   2.315   0.875   5.757  0.2336 -0.0669 -1.0548
 5012SOL    HW226670   2.172   0.911   5.800 -1.8039 -0.3357 -1.8036
 5013SOL     OW26671   2.619   2.837   1.470 -0.0166  0.1927 -0.0784
 5013SOL    HW126672   2.651   2.753   1.437  0.0818  0.4574 -0.6653
 5013SOL    HW226673   2.563   2.868   1.399  2.0115  2.0610 -0.8871
 5014SOL     OW26674   2.365   0.685   6.371  0.0046 -0.1038  0.5348
 5014SOL    HW126675   2.282   0.732   6.367  0.0860 -0.0493 -0.5377
 5014SOL    HW226676   2.420   0.732   6.434 -0.7308  1.7539 -0.2196
 5015SOL     OW26677   0.697   4.352  16.229  0.6113 -0.3030 -0.8124
 5015SOL    HW126678   0.637   4.411  16.184 -0.7304 -0.0801  1.2692
 5015SOL    HW226679   0.744   4.306  16.159  0.5003 -1.0960 -0.3692
 5016SOL     OW26680   0.443   1.902   8.325  0.4121 -0.3918  0.5727
 5016SOL    HW126681   0.455   1.967   8.394  2.9387 -0.0824 -0.1262
 5016SOL    HW226682   0.487   1.957   8.259 -2.6549  3.5950  1.8531
 5017SOL     OW26683   4.530   2.129  16.275  0.3594  0.2354  0.1097
 5017SOL    HW126684   4.436   2.135  16.287  0.5221 -1.2641  2.1080
 5017SOL    HW226685   4.543   2.034  16.282 -1.8451  0.1749  3.1376
 5018SOL     OW26686   2.305   3.414   2.593 -0.3931 -0.4624 -0.3304
 5018SOL    HW126687   2.253   3.349   2.547 -1.8615 -0.3452  1.1630
 5018SOL    HW226688   2.236   3.464   2.636  0.5121 -1.3048  2.1733
 5019SOL     OW26689   3.168   3.840   2.564  0.4592  0.7397  0.4882
 5019SOL    HW126690   3.258   3.823   2.537  0.7314  1.7805  0.7434
 5019SOL    HW226691   3.182   3.874   2.653 -0.2400  3.0899 -0.3107
 5020SOL     OW26692   2.889   3.200   0.178 -0.0401  0.4737  0.4242
 5020SOL    HW126693   2.841   3.142   0.237  0.2023  0.0773  0.2355
 5020SOL    HW226694   2.978   3.187   0.211  0.3466  0.9811 -0.4243
 5021SOL     OW26695   1.977   2.031   5.076  0.3155  0.0905 -0.2379
 5021SOL    HW126696   1.938   1.944   5.077  1.1725 -0.2972 -0.3303
 5021SOL    HW226697   2.063   2.012   5.113 -0.0631  0.3329  0.7797
 5022SOL     OW26698   3.188   1.181   3.997 -0.1827 -0.2795  0.2878
 5022SOL    HW126699   3.281   1.198   4.005  0.0658  0.5705 -4.4072
 5022SOL    HW226700   3.185   1.088   3.975 -0.1324 -0.1294 -0.3611
 5023SOL     OW26701   0.784   1.672   2.694  0.3279 -0.1415  0.3880
 5023SOL    HW126702   0.728   1.721   2.634 -0.3777 -0.1449  1.0458
 5023SOL    HW226703   0.868   1.699   2.657 -0.6564  1.2726 -0.7847
 5024SOL     OW26704   3.713   3.303   7.608  0.0841 -0.3551 -0.1492
 5024SOL    HW126705   3.709   3.397   7.592 -0.6754 -0.6125 -1.4928
 5024SOL    HW226706   3.746   3.305   7.698 -0.6396 -0.3921  0.1159
 5025SOL     OW26707   3.675   1.278   0.630 -0.3034  0.1808  0.4988
 5025SOL    HW126708   3.731   1.355   0.634 -0.4193  0.2144  1.6801
 5025SOL    HW226709   3.735   1.206   0.648  1.6550  1.8837  0.7310
 5026SOL     OW26710   1.906   0.947   6.384 -0.0433 -0.1525 -0.2443
 5026SOL    HW126711   1.816   0.982   6.383  0.1976  0.4570 -0.7494
 5026SOL    HW226712   1.945   1.032   6.404  0.3833  0.4022 -3.4256
 5027SOL     OW26713   4.354   0.051   6.600  0.4958 -0.2279 -0.3258
 5027SOL    HW126714   4.360   0.024   6.508 -1.2416 -0.5534 -0.3352
 5027SOL    HW226715   4.382   4.708   6.643 -2.2786 -1.9350 -1.7347
 5028SOL     OW26716   1.467   4.380   4.190 -0.4303 -0.1864  0.1288
 5028SOL    HW126717   1.381   4.407   4.159  0.6058 -0.8792 -3.3552
 5028SOL    HW226718   1.511   4.461   4.212 -0.1299 -0.6233  1.1221
 5029SOL     OW26719   4.219   1.891   5.823  0.1393 -0.0875  0.1448
 5029SOL    HW126720   4.252   1.978   5.845 -0.7687  0.6425 -1.3612
 5029SOL    HW226721   4.123   1.894   5.828  0.2157  0.0041  1.4062
 5030SOL     OW26722   3.485   0.062   2.630 -0.6261 -0.1472 -0.5446
 5030SOL    HW126723   3.445   4.731   2.682 -1.6887 -0.5657 -1.9166
 5030SOL    HW226724   3.408   0.120   2.628 -1.0285 -0.7228 -1.9804
 5031SOL     OW26725   2.098   4.583   5.787  0.3719  0.0312 -0.1558
 5031SOL    HW126726   2.100   4.679   5.794 -0.7980  0.0912 -0.6447
 5031SOL    HW226727   2.190   4.574   5.763  0.4781 -0.7237  0.5437
 5032SOL     OW26728   1.621   2.387   6.222 -0.1335 -0.3459  0.2800
 5032SOL    HW126729   1.630   2.426   6.135 -0.8417 -0.2303  0.2591
 5032SOL    HW226730   1.556   2.446   6.261 -0.0051  1.6120 -2.4657
 5033SOL     OW26731   3.894   4.455   2.858  0.3537 -0.4703 -0.4823
 5033SOL    HW126732   3.810   4.429   2.893 -0.3473  0.4759 -1.4547
 5033SOL    HW226733   3.929   4.374   2.821  2.3501  1.0775 -1.9762
 5034SOL     OW26734   0.124   2.712  11.155  0.2061  0.2050 -0.5933
 5034SOL    HW126735   0.059   2.771  11.195 -1.3000 -2.7126  1.3241
 5034SOL    HW226736   0.191   2.721  11.223  1.1187 -1.2627 -1.2885
 5035SOL     OW26737   0.508   3.669   7.587  0.1300  0.1832 -0.0341
 5035SOL    HW126738   0.579   3.733   7.574 -0.6671  0.8297 -1.1735
 5035SOL    HW226739   0.456   3.692   7.510 -0.1734 -0.0003  0.1202
 5036SOL     OW26740   4.005   3.870   7.458  0.0837 -0.0517 -0.1470
 5036SOL    HW126741   4.008   3.914   7.543  1.3657 -0.2977 -0.0671
 5036SOL    HW226742   3.991   3.783   7.495  0.6725 -1.0321 -2.2313
 5037SOL     OW26743   1.529   2.083   4.147 -0.0865  0.2456  0.0129
 5037SOL    HW126744   1.576   2.132   4.080 -0.7561  0.7385 -0.0870
 5037SOL    HW226745   1.605   2.029   4.171  0.9233  0.0940 -3.5087
 5038SOL     OW26746   2.935   1.084  13.190 -0.1176 -0.1877  0.3972
 5038SOL    HW126747   2.972   1.004  13.152 -0.3640 -0.2484  0.2811
 5038SOL    HW226748   3.015   1.135  13.178  0.2984 -0.9070  0.0821
 5039SOL     OW26749   4.359   2.128   5.874 -0.0304 -0.8131 -0.7024
 5039SOL    HW126750   4.405   2.198   5.827  0.5282 -1.4019 -1.0322
 5039SOL    HW226751   4.274   2.171   5.881 -0.7997 -2.4212 -0.0997
 5040SOL     OW26752   2.131   3.270   6.475 -0.7933 -0.5904  0.3260
 5040SOL    HW126753   2.215   3.223   6.473  0.0942  1.0129  0.1961
 5040SOL    HW226754   2.114   3.257   6.569 -1.1517  1.8696  0.5779
 5041SOL     OW26755   0.245   4.048   7.202 -0.1860 -0.3345  0.0709
 5041SOL    HW126756   0.169   4.105   7.189 -0.0714 -0.0488  0.6544
 5041SOL    HW226757   0.272   4.075   7.290  0.9083  0.8160 -0.6141
 5042SOL     OW26758   3.993   0.808   5.783 -0.4635 -0.1288  0.4964
 5042SOL    HW126759   3.995   0.712   5.784 -1.7201 -0.1723 -1.1134
 5042SOL    HW226760   4.031   0.832   5.867 -0.4423 -1.1648  0.7829
 5043SOL     OW26761   0.775   4.362   3.477 -0.5605  0.0581 -0.1345
 5043SOL    HW126762   0.809   4.360   3.566  0.7018  1.2200 -0.5929
 5043SOL    HW226763   0.786   4.276   3.434 -1.6462  0.0869 -0.4679
 5044SOL     OW26764   3.233   0.249   3.981  0.2297  0.3606 -0.6367
 5044SOL    HW126765   3.282   0.301   3.918  0.3007 -0.8345 -1.5614
 5044SOL    HW226766   3.287   0.172   4.000 -0.5423 -0.4766 -1.8258
 5045SOL     OW26767   3.908   1.353   1.822 -0.1924  0.6528  0.0972
 5045SOL    HW126768   3.972   1.316   1.883 -0.2954  1.6191  0.7874
 5045SOL    HW226769   3.847   1.281   1.804  1.0079 -0.6395  1.1865
 5046SOL     OW26770   0.296   1.790  11.991 -0.3117 -0.1318  0.0529
 5046SOL    HW126771   0.296   1.823  12.080 -0.3239  3.4972 -1.3049
 5046SOL    HW226772   0.260   1.865  11.944  1.2576  0.6303  0.0667
 5047SOL     OW26773   0.335   1.135   5.925  0.6691  0.0228  0.4201
 5047SOL    HW126774   0.326   1.165   6.016  1.1693 -0.0831  0.5035
 5047SOL    HW226775   0.388   1.205   5.887  1.1770  0.1734  1.3979
 5048SOL     OW26776   1.750   2.920   0.725 -0.0597 -0.1459  0.2625
 5048SOL    HW126777   1.737   2.879   0.810 -1.6704  0.1516  0.1552
 5048SOL    HW226778   1.846   2.926   0.716 -0.1811 -0.2824 -1.1842
 5049SOL     OW26779   2.372   1.217   4.092  0.0756 -0.2660 -0.3159
 5049SOL    HW126780   2.419   1.247   4.015  1.3857 -4.4736 -1.1905
 5049SOL    HW226781   2.437   1.217   4.163 -2.6285 -0.3675  2.1441
 5050SOL     OW26782   2.194   3.514   5.549  0.3823  0.2136  0.3979
 5050SOL    HW126783   2.265   3.481   5.494  1.9768  0.4558  2.2994
 5050SOL    HW226784   2.123   3.453   5.529  0.3671  0.7680 -1.2399
 5051SOL     OW26785   1.462   2.756   6.760  0.8635  0.6261  0.3075
 5051SOL    HW126786   1.376   2.777   6.722  1.1779 -1.4634 -1.5833
 5051SOL    HW226787   1.448   2.661   6.755  0.8873  0.5623  1.6252
 5052SOL     OW26788   0.408   3.930   1.031  0.3105 -0.2843  0.3936
 5052SOL    HW126789   0.482   3.944   1.090  1.1271  2.8174 -1.3562
 5052SOL    HW226790   0.458   3.921   0.950 -0.3766 -1.8089  0.1362
 5053SOL     OW26791   1.572   3.930   3.890 -0.6986  0.5213 -0.0865
 5053SOL    HW126792   1.642   3.927   3.955 -0.5817 -1.9158 -0.3068
 5053SOL    HW226793   1.534   3.843   3.903 -0.5069 -0.0917 -3.5396
 5054SOL     OW26794   2.877   1.853  11.442  0.6198 -0.3498 -0.4539
 5054SOL    HW126795   2.892   1.758  11.436 -1.0763 -0.6000 -0.5481
 5054SOL    HW226796   2.917   1.874  11.527 -2.2055  1.9784  0.2963
 5055SOL     OW26797   1.033   2.826   5.970  0.4953 -0.3611  0.6316
 5055SOL    HW126798   1.029   2.886   5.895  2.9987 -0.3351  0.5019
 5055SOL    HW226799   0.947   2.852   6.002  1.4659  0.1711  2.7669
 5056SOL     OW26800   1.237   1.710  12.439  0.1313 -0.1813 -0.7323
 5056SOL    HW126801   1.198   1.703  12.352 -0.3778 -0.7634 -0.4542
 5056SOL    HW226802   1.293   1.632  12.434 -1.1914 -1.1139 -0.8236
 5057SOL     OW26803   1.567   0.823   4.591  0.0578  0.1841 -0.3752
 5057SOL    HW126804   1.645   0.875   4.569  0.4977  0.5209  1.9543
 5057SOL    HW226805   1.547   0.867   4.673 -0.1615  0.9489 -0.8425
 5058SOL     OW26806   4.203   4.116  15.611  0.3606  0.4195  0.3086
 5058SOL    HW126807   4.270   4.128  15.543  1.3746  0.0998  1.2409
 5058SOL    HW226808   4.252   4.050  15.659 -1.4142 -1.5450 -0.5957
 5059SOL     OW26809   4.110   1.879  13.519 -0.2263 -0.0667 -0.0358
 5059SOL    HW126810   4.198   1.874  13.482 -0.0042 -1.3000  0.6558
 5059SOL    HW226811   4.058   1.852  13.443  1.6878 -2.1925 -0.5842
 5060SOL     OW26812   0.748   2.182  15.944  0.1985  0.3558 -0.6441
 5060SOL    HW126813   0.760   2.208  15.853  0.3990  2.4398 -0.0265
 5060SOL    HW226814   0.664   2.227  15.940  0.7102  1.3345 -0.5014
 5061SOL     OW26815   4.227   3.710   2.210 -0.2280 -0.3904  0.3811
 5061SOL    HW126816   4.147   3.663   2.234  0.2160 -0.7733  1.1122
 5061SOL    HW226817   4.199   3.772   2.143  1.4306  0.2026  0.2337
 5062SOL     OW26818   2.152   0.247   3.405 -0.1180 -0.3713  0.1256
 5062SOL    HW126819   2.197   0.162   3.404 -0.1483 -0.3685 -2.5484
 5062SOL    HW226820   2.070   0.227   3.358  1.0213 -0.0991 -1.9840
 5063SOL     OW26821   4.526   4.352  13.447  0.1785  1.0838 -0.3464
 5063SOL    HW126822   4.486   4.294  13.511  2.5012 -1.1252 -0.8801
 5063SOL    HW226823   4.617   4.357  13.476 -0.0297  0.0271  0.4668
 5064SOL     OW26824   2.724   4.517   4.930  0.4435 -0.3260  0.7598
 5064SOL    HW126825   2.764   4.462   4.863  2.7062  0.4972  1.4651
 5064SOL    HW226826   2.734   4.608   4.901 -1.4542 -0.5043 -0.4839
 5065SOL     OW26827   3.254   0.419   4.621 -0.2608 -0.5394  0.1745
 5065SOL    HW126828   3.319   0.373   4.568 -1.2046 -0.1838 -1.3098
 5065SOL    HW226829   3.195   0.427   4.546  0.9150  1.7391 -0.5016
 5066SOL     OW26830   1.750   2.234   4.423 -0.1641  0.3263  0.0729
 5066SOL    HW126831   1.775   2.157   4.373 -0.0021  1.7055 -1.9658
 5066SOL    HW226832   1.774   2.294   4.352 -0.5128 -1.1014 -1.2445
 5067SOL     OW26833   1.752   0.891   6.736  0.4524  0.9689 -0.0705
 5067SOL    HW126834   1.812   0.834   6.689 -0.9899 -2.0017  1.6798
 5067SOL    HW226835   1.743   0.969   6.681  0.4026  1.9245  1.2934
 5068SOL     OW26836   1.763   3.965  16.975 -0.3485  0.2144 -0.8342
 5068SOL    HW126837   1.820   3.943  17.048  0.5675  2.5133 -0.8594
 5068SOL    HW226838   1.688   3.907  16.989  0.3988  0.1070  2.6771
 5069SOL     OW26839   2.775   2.435   2.709 -0.4529 -0.0206 -0.1790
 5069SOL    HW126840   2.773   2.348   2.750 -1.4666 -1.8109 -4.0727
 5069SOL    HW226841   2.696   2.434   2.655 -0.2489  0.9121 -0.4952
 5070SOL     OW26842   3.191   1.291  11.345 -0.1866 -0.1921 -0.2092
 5070SOL    HW126843   3.171   1.206  11.383 -2.5630  0.3742 -0.1861
 5070SOL    HW226844   3.253   1.266  11.277  0.0695  0.7802 -0.3424
 5071SOL     OW26845   0.932   0.066   1.997 -0.7370  0.2900 -0.2532
 5071SOL    HW126846   0.840   0.093   1.988 -0.9542 -0.8249 -1.2731
 5071SOL    HW226847   0.936   4.733   1.934 -2.9102 -0.3257  0.2907
 5072SOL     OW26848   3.913   0.672   9.718  0.5052  0.0497 -0.4644
 5072SOL    HW126849   3.939   0.603   9.657 -2.0564 -1.0571 -0.2966
 5072SOL    HW226850   4.003   0.695   9.741  0.5970  0.3793 -1.1496
 5073SOL     OW26851   2.650   4.180   7.163 -0.4571  0.3023  0.0296
 5073SOL    HW126852   2.640   4.124   7.085  0.1906  0.9230 -0.5025
 5073SOL    HW226853   2.600   4.257   7.137 -0.0189  0.7134  0.4225
 5074SOL     OW26854   2.058   2.495   8.785  0.1671  0.7603  0.7660
 5074SOL    HW126855   1.974   2.533   8.760  0.2366 -0.3096 -1.1211
 5074SOL    HW226856   2.024   2.423   8.839  0.3831  0.8023  0.9622
 5075SOL     OW26857   4.681   4.556   2.035  0.2188 -0.4476 -0.6397
 5075SOL    HW126858   4.588   4.577   2.026  0.1924 -0.0365  0.5862
 5075SOL    HW226859   4.687   4.462   2.056  0.5419 -0.5858 -1.3418
 5076SOL     OW26860   0.254   2.219  16.743 -0.1295 -0.0793 -0.3524
 5076SOL    HW126861   0.227   2.167  16.668 -0.9358  0.9298 -0.7500
 5076SOL    HW226862   0.348   2.197  16.736  0.2275  1.8232 -1.4357
 5077SOL     OW26863   3.392   1.224   8.365  0.2219 -0.4589  0.5020
 5077SOL    HW126864   3.378   1.316   8.347 -0.8018 -0.9296 -1.0748
 5077SOL    HW226865   3.488   1.219   8.367  0.2681  0.5749  0.4288
 5078SOL     OW26866   2.831   0.218   6.515 -0.0936 -0.2196 -0.1925
 5078SOL    HW126867   2.782   0.161   6.574 -0.5104 -1.0273 -1.3277
 5078SOL    HW226868   2.757   0.253   6.466  0.3578  0.8587 -0.1076
 5079SOL     OW26869   1.004   4.369  13.235  0.0505  0.2962 -0.2964
 5079SOL    HW126870   1.097   4.380  13.257  0.4271  2.3124 -2.8292
 5079SOL    HW226871   0.987   4.275  13.242 -0.7956  0.4407 -0.3646
 5080SOL     OW26872   4.159   2.806   3.313 -0.3641 -0.0516  0.3402
 5080SOL    HW126873   4.250   2.835   3.306 -0.2927 -0.5863 -0.8458
 5080SOL    HW226874   4.124   2.874   3.256 -1.5470 -1.3092 -0.4044
 5081SOL     OW26875   3.011   0.661   3.548  0.5487 -0.1908 -0.3987
 5081SOL    HW126876   3.040   0.624   3.632 -1.8751 -1.1235  0.0170
 5081SOL    HW226877   2.944   0.604   3.511  0.6758 -0.9236  0.4998
 5082SOL     OW26878   3.054   0.420   9.439  0.2571 -0.2030 -0.0388
 5082SOL    HW126879   3.144   0.451   9.451 -0.1580  0.2937  1.7618
 5082SOL    HW226880   3.004   0.420   9.520  1.8114 -0.8111  0.9206
 5083SOL     OW26881   0.741   4.122   1.228  0.2042  0.9415  0.1102
 5083SOL    HW126882   0.683   4.132   1.152 -1.2359  1.5510  1.2966
 5083SOL    HW226883   0.713   4.186   1.293  0.8367  1.8208 -0.4839
 5084SOL     OW26884   2.187   0.611   2.521 -0.0897 -0.0290 -0.4009
 5084SOL    HW126885   2.192   0.670   2.596  0.5657  1.0857 -1.3383
 5084SOL    HW226886   2.263   0.626   2.466 -0.5588 -1.2117 -1.3904
 5085SOL     OW26887   0.174   2.075  14.094 -0.1728  0.1281  0.3731
 5085SOL    HW126888   0.148   2.102  14.006 -0.9911 -2.1460 -0.0587
 5085SOL    HW226889   0.241   2.008  14.084 -0.0910  0.6299 -2.4417
 5086SOL     OW26890   1.883   2.632  16.861  0.7623 -0.1824  0.4648
 5086SOL    HW126891   1.806   2.653  16.808  1.5156  0.3997 -0.3903
 5086SOL    HW226892   1.869   2.690  16.936  1.4131 -0.2666  0.6492
 5087SOL     OW26893   2.681   4.689   8.920 -0.2455  0.9550  0.2532
 5087SOL    HW126894   2.668   4.719   9.010  1.8668  0.9707  0.5592
 5087SOL    HW226895   2.621   4.617   8.899  0.0167  0.6716  0.4791
 5088SOL     OW26896   1.320   3.672   7.529  0.0427 -0.1544  0.3124
 5088SOL    HW126897   1.393   3.717   7.571  0.5481 -0.6440 -0.0378
 5088SOL    HW226898   1.290   3.729   7.458  0.5701  0.4379  0.5645
 5089SOL     OW26899   2.837   4.346   4.308 -0.3452  0.7279 -0.1557
 5089SOL    HW126900   2.765   4.292   4.276  0.7437 -1.3944  0.9734
 5089SOL    HW226901   2.868   4.391   4.230  0.2719 -0.5401 -0.6229
 5090SOL     OW26902   3.399   2.944  12.470 -0.2916  0.4760 -0.0242
 5090SOL    HW126903   3.391   2.971  12.561  0.2745 -0.9417  0.4470
 5090SOL    HW226904   3.430   3.028  12.437  1.2002 -0.9480 -2.2770
 5091SOL     OW26905   2.513   3.563   2.887  0.4160 -0.1954  0.2793
 5091SOL    HW126906   2.583   3.522   2.937 -1.2866 -1.0249  1.9924
 5091SOL    HW226907   2.452   3.576   2.960  0.3038 -0.7916  0.2901
 5092SOL     OW26908   4.294   0.692  12.890  0.1506 -0.0853 -0.1785
 5092SOL    HW126909   4.248   0.631  12.948  1.8010 -0.7695  0.4431
 5092SOL    HW226910   4.340   0.623  12.841 -0.9151 -0.3883 -0.7549
 5093SOL     OW26911   1.082   0.408   6.727  0.2890  0.1338  0.3403
 5093SOL    HW126912   0.990   0.385   6.742  0.5124 -1.2368 -0.3387
 5093SOL    HW226913   1.082   0.484   6.785 -0.5831  1.2859 -1.1779
 5094SOL     OW26914   3.418   1.860   7.146 -0.5351  1.0213 -0.0374
 5094SOL    HW126915   3.380   1.856   7.058 -2.2659 -0.4158  0.7678
 5094SOL    HW226916   3.510   1.857   7.120 -1.0907  0.4248 -2.0086
 5095SOL     OW26917   3.362   1.644  16.691 -0.5024  1.0390 -0.6987
 5095SOL    HW126918   3.387   1.736  16.682  0.7693  0.6185 -1.4355
 5095SOL    HW226919   3.406   1.611  16.613 -1.1329 -1.0375 -0.1585
 5096SOL     OW26920   3.515   0.087  16.999  1.0936 -0.2636  0.4287
 5096SOL    HW126921   3.462   0.123  17.070 -0.1005 -0.5956 -0.2974
 5096SOL    HW226922   3.491   4.733  17.004  0.1180 -0.0466 -0.1387
 5097SOL     OW26923   0.330   0.706   3.003 -0.7210 -0.0404  0.0692
 5097SOL    HW126924   0.293   0.654   3.075  2.6016 -1.1691  0.9592
 5097SOL    HW226925   0.258   0.708   2.941  0.5950  0.7936 -1.4292
 5098SOL     OW26926   2.779   3.317   8.547 -0.2288  0.0892  0.2435
 5098SOL    HW126927   2.816   3.386   8.603  0.0089  0.1754 -0.0186
 5098SOL    HW226928   2.686   3.337   8.556 -0.4949 -1.2372  0.4117
 5099SOL     OW26929   2.043   2.914  13.774 -0.4817 -0.4991 -0.1149
 5099SOL    HW126930   2.116   2.975  13.779 -1.4611  0.3555  3.5655
 5099SOL    HW226931   2.055   2.838  13.831  0.6949  0.3108  0.7074
 5100SOL     OW26932   1.304   1.961  13.292  0.0467  0.3873 -0.2654
 5100SOL    HW126933   1.311   2.019  13.368 -1.3395  0.1272  0.0561
 5100SOL    HW226934   1.393   1.927  13.280 -0.0795 -0.4783  1.3311
 5101SOL     OW26935   3.931   2.575   2.006  0.8973 -0.3301 -0.1811
 5101SOL    HW126936   3.968   2.659   2.033 -1.4404 -0.0773  2.2957
 5101SOL    HW226937   4.005   2.515   2.013  0.1803 -1.4166 -1.8166
 5102SOL     OW26938   3.456   1.702  15.567  0.4197  0.5646 -0.0058
 5102SOL    HW126939   3.408   1.622  15.586 -0.4653  0.9406 -0.6411
 5102SOL    HW226940   3.510   1.678  15.491  0.2291  0.9310 -0.2556
 5103SOL     OW26941   1.577   1.972  14.865  0.4643 -0.3605  0.2100
 5103SOL    HW126942   1.489   1.989  14.833 -0.2845 -0.4510  2.2507
 5103SOL    HW226943   1.605   1.901  14.806  1.9875  0.5017 -0.1216
 5104SOL     OW26944   4.273   3.040   4.265 -0.6435  0.2678 -0.0080
 5104SOL    HW126945   4.221   3.117   4.242  0.5477  1.6915  2.0755
 5104SOL    HW226946   4.220   2.963   4.246 -0.7614 -0.3627  2.7910
 5105SOL     OW26947   3.522   0.968  12.788  0.0472 -0.1850 -0.1137
 5105SOL    HW126948   3.507   1.045  12.733 -1.8974  0.4839  1.3520
 5105SOL    HW226949   3.538   0.903  12.719  0.5859  1.9418 -2.0037
 5106SOL     OW26950   0.901   2.006   3.547 -0.0886 -0.0115 -0.1651
 5106SOL    HW126951   0.902   1.960   3.463  0.0546 -0.0150 -0.1605
 5106SOL    HW226952   0.969   1.959   3.595  0.1399 -0.3014 -0.7807
 5107SOL     OW26953   1.240   4.286  13.287  0.0610  0.5624 -0.4596
 5107SOL    HW126954   1.226   4.193  13.302  0.3270  0.3550 -1.5496
 5107SOL    HW226955   1.316   4.286  13.229 -0.4700  1.8193 -1.1550
 5108SOL     OW26956   3.815   3.780   4.334  0.0930 -0.2286  0.3552
 5108SOL    HW126957   3.825   3.685   4.343  0.1151 -0.0888  1.7097
 5108SOL    HW226958   3.742   3.785   4.396 -0.9776 -1.7541 -0.7600
 5109SOL     OW26959   1.883   4.373   6.938 -0.0935 -0.0447  0.4277
 5109SOL    HW126960   1.952   4.368   7.004 -0.1400 -1.7679  0.3556
 5109SOL    HW226961   1.820   4.304   6.961 -1.0895  0.3825 -0.9760
 5110SOL     OW26962   0.993   4.363   7.291 -0.1643  0.2143 -0.2058
 5110SOL    HW126963   1.082   4.363   7.256 -0.4873 -1.5428 -1.0328
 5110SOL    HW226964   1.007   4.369   7.385  0.0892 -0.1412 -0.2213
 5111SOL     OW26965   0.164   3.355   5.616  0.1670 -0.5756  0.1107
 5111SOL    HW126966   0.095   3.294   5.640 -1.2207  1.1089  0.4129
 5111SOL    HW226967   0.160   3.427   5.679  1.3580  0.2657 -0.7894
 5112SOL     OW26968   0.790   3.760   7.536 -0.2420  0.0888  0.5007
 5112SOL    HW126969   0.807   3.795   7.449  0.7951 -1.0550  0.2373
 5112SOL    HW226970   0.850   3.686   7.545 -0.5266 -0.1881  0.1058
 5113SOL     OW26971   1.324   1.281   4.929 -0.3045  0.0350  0.0024
 5113SOL    HW126972   1.359   1.361   4.892  2.1751 -0.0499  2.1442
 5113SOL    HW226973   1.406   1.231   4.919 -0.4230 -0.8169  3.1176
 5114SOL     OW26974   3.511   3.536   3.995  0.4056 -0.0461 -0.0438
 5114SOL    HW126975   3.467   3.620   3.977  0.9741  0.4501  0.8812
 5114SOL    HW226976   3.464   3.503   4.072  0.0851  2.1089  0.6877
 5115SOL     OW26977   3.258   0.784   5.617  0.4323  0.4152  0.1008
 5115SOL    HW126978   3.169   0.801   5.584  0.9282  1.6724 -0.6281
 5115SOL    HW226979   3.294   0.845   5.553  4.8494 -1.5483  0.7604
 5116SOL     OW26980   4.493   3.827  12.957 -0.6055  0.2009 -0.3256
 5116SOL    HW126981   4.408   3.864  12.935 -0.5991  1.3533  1.6680
 5116SOL    HW226982   4.462   3.763  13.021  2.0907  0.0243  0.8155
 5117SOL     OW26983   2.420   4.571   6.831 -0.4198  0.0196  0.1454
 5117SOL    HW126984   2.364   4.567   6.753  0.9242  0.5071 -0.8347
 5117SOL    HW226985   2.471   4.493   6.813 -0.4794  0.0223 -0.0371
 5118SOL     OW26986   3.224   4.203  16.393  0.5167  0.1451 -0.5428
 5118SOL    HW126987   3.281   4.127  16.386  0.6478 -0.0236  2.3131
 5118SOL    HW226988   3.136   4.178  16.365 -0.3089  1.2323  1.0900
 5119SOL     OW26989   3.663   2.764   3.820  0.5393  0.4989  0.3652
 5119SOL    HW126990   3.570   2.783   3.830  0.3111 -0.1236 -0.6331
 5119SOL    HW226991   3.686   2.809   3.902 -1.8982 -0.0738  1.3614
 5120SOL     OW26992   3.998   4.333   5.763 -0.2235  0.0493 -0.0793
 5120SOL    HW126993   4.074   4.306   5.712  0.0487 -1.9610  1.4257
 5120SOL    HW226994   3.930   4.277   5.725 -0.3191  0.1852 -0.1082
 5121SOL     OW26995   3.585   0.508  13.518 -0.3920  0.6598  0.4235
 5121SOL    HW126996   3.609   0.434  13.575 -1.1151 -0.1859 -0.3794
 5121SOL    HW226997   3.566   0.467  13.434  0.5696 -2.5671  1.7534
 5122SOL     OW26998   4.217   3.708   5.825  0.1765  0.1733  0.4251
 5122SOL    HW126999   4.282   3.771   5.795 -1.6781  2.8091  1.9040
 5122SOL    HW227000   4.222   3.734   5.917 -1.8161  2.3224 -0.0778
 5123SOL     OW27001   3.699   1.713   5.783  0.0379 -0.0629 -0.7712
 5123SOL    HW127002   3.631   1.749   5.726  1.2076  2.1601 -0.7813
 5123SOL    HW227003   3.666   1.751   5.864 -0.5084 -1.1451 -0.4962
 5124SOL     OW27004   4.417   3.921  11.541  0.1086 -0.6749 -0.3635
 5124SOL    HW127005   4.439   3.925  11.448  0.3621  0.3315 -0.2586
 5124SOL    HW227006   4.431   3.827  11.547  0.2478 -0.7647 -2.0195
 5125SOL     OW27007   0.716   1.008   6.735 -0.0397  0.1765 -0.6499
 5125SOL    HW127008   0.698   0.973   6.648 -2.9183  1.4964 -0.5879
 5125SOL    HW227009   0.627   1.001   6.767 -0.7979  1.7252 -2.4161
 5126SOL     OW27010   0.494   3.840  16.153 -0.2696  0.1995  0.1623
 5126SOL    HW127011   0.512   3.910  16.215  2.0353 -0.7756  0.6011
 5126SOL    HW227012   0.516   3.885  16.071  1.8953  0.4104  0.8543
 5127SOL     OW27013   0.518   3.084   3.634 -0.5053 -0.3530 -0.0276
 5127SOL    HW127014   0.561   3.038   3.563 -0.9325  0.5301 -0.8645
 5127SOL    HW227015   0.525   3.174   3.603 -1.1912 -1.1020 -2.3688
 5128SOL     OW27016   4.378   0.885   9.141  0.2148 -0.3766  0.3979
 5128SOL    HW127017   4.414   0.966   9.176 -0.0102  0.2217 -0.7585
 5128SOL    HW227018   4.352   0.913   9.053  0.7934 -0.6205  0.1487
 5129SOL     OW27019   0.420   2.241   7.847  0.1406 -0.3938  0.3380
 5129SOL    HW127020   0.508   2.237   7.884  1.2004 -0.3489 -2.1752
 5129SOL    HW227021   0.412   2.306   7.778  1.7298 -0.1529  0.3877
 5130SOL     OW27022   0.542   3.705  12.706  0.3471  0.0734 -0.0973
 5130SOL    HW127023   0.585   3.778  12.750 -0.9437 -1.3223  3.5015
 5130SOL    HW227024   0.593   3.635  12.748  1.5816 -1.1679 -3.6094
 5131SOL     OW27025   4.056   4.274  13.317 -0.0507  0.5701 -0.4897
 5131SOL    HW127026   4.022   4.347  13.265 -1.5066  1.0075  1.0865
 5131SOL    HW227027   4.149   4.287  13.301  0.7457 -1.4746  2.5144
 5132SOL     OW27028   2.297   4.305  15.278  0.0721  0.0216  0.0592
 5132SOL    HW127029   2.277   4.337  15.190  1.6174  0.3703 -0.1492
 5132SOL    HW227030   2.380   4.347  15.300  0.3511  0.1270 -1.2229
 5133SOL     OW27031   0.862   2.230   8.076  0.1530  0.2203  0.5066
 5133SOL    HW127032   0.856   2.202   7.985  1.7632 -0.6587  0.6644
 5133SOL    HW227033   0.927   2.300   8.073 -2.5234  2.6143 -1.0213
 5134SOL     OW27034   3.515   0.013   3.528  0.2396 -0.0243  0.3299
 5134SOL    HW127035   3.604   4.715   3.520  0.0181 -0.1742 -1.4377
 5134SOL    HW227036   3.511   0.088   3.469 -0.4864  0.3817  0.9044
 5135SOL     OW27037   1.572   0.519   9.836 -0.0255  0.7403 -0.4416
 5135SOL    HW127038   1.606   0.443   9.788 -0.0509 -0.4933  1.4983
 5135SOL    HW227039   1.657   0.543   9.873 -0.7477  0.2744  1.4654
 5136SOL     OW27040   4.073   3.586  13.188  0.2697 -0.4107 -0.4239
 5136SOL    HW127041   4.045   3.610  13.099  1.0657  0.4988 -0.4229
 5136SOL    HW227042   4.034   3.661  13.233  1.2106  0.0471 -0.3804
 5137SOL     OW27043   3.177   1.128   0.053 -0.0805 -0.0460  0.4082
 5137SOL    HW127044   3.221   1.113   0.136 -0.8382 -1.8776  0.4760
 5137SOL    HW227045   3.202   1.220   0.041  2.4021 -0.8275 -0.3637
 5138SOL     OW27046   1.127   0.763   3.005 -0.4898  0.0429 -0.4034
 5138SOL    HW127047   1.171   0.823   3.065  1.4630 -1.4510 -0.3377
 5138SOL    HW227048   1.054   0.814   2.968 -1.0031 -1.4434 -1.4690
 5139SOL     OW27049   1.974   4.585  10.040  0.0934 -0.0597 -0.3150
 5139SOL    HW127050   1.891   4.538  10.032 -0.1828  1.0246 -3.5964
 5139SOL    HW227051   1.953   4.648  10.110  1.0026 -2.2378  1.9054
 5140SOL     OW27052   1.453   2.561   6.388  0.4924 -0.0763  0.6118
 5140SOL    HW127053   1.417   2.612   6.460  2.3322  2.2474 -0.0940
 5140SOL    HW227054   1.381   2.558   6.325  1.5948  1.6493 -0.7227
 5141SOL     OW27055   0.842   4.124   3.118 -0.7216 -0.1600  0.6322
 5141SOL    HW127056   0.781   4.155   3.185 -1.7461  0.0197 -0.3846
 5141SOL    HW227057   0.804   4.037   3.104  0.5525 -0.4047 -1.2574
 5142SOL     OW27058   0.379   1.417   4.626 -0.9901 -0.3159 -0.5248
 5142SOL    HW127059   0.390   1.354   4.698 -0.4114  0.6098  0.1906
 5142SOL    HW227060   0.441   1.381   4.562 -1.7556 -2.1554 -0.2428
 5143SOL     OW27061   2.802   1.272   3.780  0.0842 -0.0115 -0.4622
 5143SOL    HW127062   2.892   1.268   3.748  0.0882  0.4212 -0.5001
 5143SOL    HW227063   2.776   1.181   3.789 -0.1912 -0.0703 -1.7951
 5144SOL     OW27064   1.135   0.338   7.860  0.2853  0.7676  0.4249
 5144SOL    HW127065   1.047   0.304   7.851  0.1817  1.2076 -0.2035
 5144SOL    HW227066   1.110   0.393   7.935  0.5189  1.8312 -0.2731
 5145SOL     OW27067   1.515   4.079   8.101 -0.5972 -0.1957  0.1190
 5145SOL    HW127068   1.421   4.084   8.118 -0.7911  0.3242 -1.0917
 5145SOL    HW227069   1.542   4.158   8.055  1.3549 -0.2307  1.1685
 5146SOL     OW27070   3.973   3.463   3.702 -0.4081 -0.0115  0.3687
 5146SOL    HW127071   3.965   3.421   3.787 -1.1906  0.0434  0.3231
 5146SOL    HW227072   4.005   3.390   3.650 -1.8340  0.6868 -1.4880
 5147SOL     OW27073   4.238   0.985   4.996 -0.1170 -0.0324  0.6663
 5147SOL    HW127074   4.171   1.005   5.061 -0.5783 -3.5086  1.2305
 5147SOL    HW227075   4.260   0.896   5.023  0.5705 -0.0141  0.2017
 5148SOL     OW27076   3.080   0.079   8.190 -0.7078  0.0057 -0.0538
 5148SOL    HW127077   3.004   0.051   8.139  0.2182 -0.0804 -1.3742
 5148SOL    HW227078   3.045   0.149   8.246 -0.3110 -0.4616  0.7607
 5149SOL     OW27079   0.290   2.965   4.244  0.0287  0.0078  0.4563
 5149SOL    HW127080   0.259   2.875   4.242 -1.2583  0.3743  3.2913
 5149SOL    HW227081   0.248   3.003   4.322  0.1535  0.6576  0.2057
 5150SOL     OW27082   1.213   2.189   4.230 -0.5545  0.1383 -0.2529
 5150SOL    HW127083   1.263   2.260   4.189 -0.6788  0.5735  0.3459
 5150SOL    HW227084   1.278   2.158   4.293 -0.6505 -0.1305 -0.2870
 5151SOL     OW27085   3.389   2.030   3.972  0.0673 -0.2555 -0.2560
 5151SOL    HW127086   3.383   1.945   4.013  0.5839  0.4682  1.3138
 5151SOL    HW227087   3.297   2.057   3.965  0.3710  0.8218 -0.1752
 5152SOL     OW27088   1.209   3.276   1.206 -0.2100  0.2591  0.0614
 5152SOL    HW127089   1.265   3.258   1.131  1.9758 -0.3864  1.8697
 5152SOL    HW227090   1.129   3.279   1.153  0.0713  0.2695 -0.3662
 5153SOL     OW27091   1.690   4.448   1.320  0.0526 -0.8306  0.4621
 5153SOL    HW127092   1.776   4.487   1.304 -0.2865 -1.2707 -2.5621
 5153SOL    HW227093   1.688   4.450   1.415  2.7539  0.2975  0.4839
 5154SOL     OW27094   4.610   2.330   8.724 -0.4791  0.2953 -0.3700
 5154SOL    HW127095   4.581   2.320   8.815  0.7577  0.6676  0.0680
 5154SOL    HW227096   4.525   2.320   8.682 -1.0047 -1.0233  1.0315
 5155SOL     OW27097   4.072   4.730   6.428 -0.2376 -0.2989 -0.2788
 5155SOL    HW127098   4.100   0.076   6.393  4.2211 -1.3152  0.7900
 5155SOL    HW227099   4.016   0.020   6.501  2.1694  0.5172  1.2620
 5156SOL     OW27100   3.733   2.794   3.553  0.5536  0.6840 -0.0085
 5156SOL    HW127101   3.720   2.745   3.634 -0.8727 -0.6827 -1.0638
 5156SOL    HW227102   3.812   2.844   3.573  0.9655  0.8846 -2.0936
 5157SOL     OW27103   1.918   2.863   7.220 -0.4004  0.6017  0.7820
 5157SOL    HW127104   1.978   2.846   7.292  2.4536  1.2231 -1.4648
 5157SOL    HW227105   1.852   2.794   7.230  1.5080 -1.3094  0.2496
 5158SOL     OW27106   2.698   2.713   9.188 -0.1940 -0.3907 -0.3827
 5158SOL    HW127107   2.653   2.746   9.266 -0.2302 -0.5855 -0.3201
 5158SOL    HW227108   2.646   2.752   9.118 -2.4422 -0.4753  1.2269
 5159SOL     OW27109   0.975   4.223   9.047  0.1095 -0.4578 -0.1221
 5159SOL    HW127110   0.950   4.196   9.136 -0.7131  1.2901  0.1668
 5159SOL    HW227111   0.942   4.311   9.034 -1.1509 -1.1088 -1.2745
 5160SOL     OW27112   2.803   1.957   6.930  0.0963 -0.2553 -0.0596
 5160SOL    HW127113   2.744   1.912   6.990  1.3100 -1.0239  0.5561
 5160SOL    HW227114   2.782   2.051   6.931 -2.0129 -0.7281 -0.0054
 5161SOL     OW27115   2.024   3.329   2.669 -0.0271  0.8019  0.5226
 5161SOL    HW127116   1.935   3.304   2.692  0.5752 -2.1260 -0.3131
 5161SOL    HW227117   2.004   3.388   2.596  1.8972 -0.6112 -1.1532
 5162SOL     OW27118   1.729   3.922   4.104  0.2179 -0.3919 -0.6378
 5162SOL    HW127119   1.796   3.854   4.115 -0.6165 -0.9606  0.8408
 5162SOL    HW227120   1.771   3.991   4.157 -0.7172  0.2175 -0.6799
 5163SOL     OW27121   3.680   0.445   1.048 -0.1660 -0.1426  0.7094
 5163SOL    HW127122   3.772   0.425   1.034 -0.6430 -1.5247 -0.4168
 5163SOL    HW227123   3.668   0.408   1.135 -1.7054 -0.6364  0.2943
 5164SOL     OW27124   3.295   0.483  11.016 -0.3044 -0.0760 -0.2377
 5164SOL    HW127125   3.213   0.462  10.971  0.0233 -0.9100 -0.4267
 5164SOL    HW227126   3.264   0.545  11.083  0.6862  0.4728 -0.2781
 5165SOL     OW27127   0.117   3.994   3.236 -0.4958 -0.2102 -0.2051
 5165SOL    HW127128   0.059   3.976   3.310 -1.4487  3.9432  0.1169
 5165SOL    HW227129   0.088   3.933   3.168  0.3752  0.8173 -1.5014
 5166SOL     OW27130   2.083   4.040   5.219  0.2695  0.0110 -0.4185
 5166SOL    HW127131   2.096   3.978   5.290  3.6846  1.7118  0.4345
 5166SOL    HW227132   1.996   4.011   5.192  0.3493 -1.2943  0.7418
 5167SOL     OW27133   0.199   0.680   8.376  0.2299 -0.3988 -0.3270
 5167SOL    HW127134   0.234   0.744   8.438 -0.6873  2.2946 -2.5811
 5167SOL    HW227135   0.188   0.742   8.304 -0.5415 -0.7384 -0.4985
 5168SOL     OW27136   1.713   2.803   3.509 -0.7445  0.3864  0.1886
 5168SOL    HW127137   1.729   2.710   3.522 -0.2259  0.4468 -0.0021
 5168SOL    HW227138   1.723   2.814   3.603  0.8395 -0.5292  0.1208
 5169SOL     OW27139   3.952   3.383  15.560  0.0916 -0.3797 -0.2295
 5169SOL    HW127140   3.946   3.392  15.655 -0.1624 -1.2857 -0.1645
 5169SOL    HW227141   3.884   3.444  15.532 -1.1179 -1.7486 -0.2202
 5170SOL     OW27142   3.765   3.720   9.182 -0.4174 -0.3090 -0.2573
 5170SOL    HW127143   3.804   3.648   9.232  0.5098  0.2535 -0.1742
 5170SOL    HW227144   3.689   3.746   9.233 -1.4102 -3.0639 -0.3464
 5171SOL     OW27145   0.839   3.363   9.229 -0.0160  0.0445  0.2349
 5171SOL    HW127146   0.850   3.354   9.134 -0.5970 -1.5747  0.3142
 5171SOL    HW227147   0.907   3.424   9.258 -0.7321  1.5443 -1.2855
 5172SOL     OW27148   3.918   1.165   2.452 -0.4887 -0.2763  0.2012
 5172SOL    HW127149   3.891   1.223   2.381 -4.6951  0.1586  2.1491
 5172SOL    HW227150   3.896   1.080   2.413 -2.3305  0.4855 -0.4266
 5173SOL     OW27151   2.307   1.393   3.446  0.2965  0.2731  0.5550
 5173SOL    HW127152   2.344   1.326   3.388 -0.7889  0.2171 -0.0703
 5173SOL    HW227153   2.217   1.360   3.438  0.4465 -0.1487  0.5727
 5174SOL     OW27154   1.902   3.885   9.986 -0.0963  0.4252  0.6195
 5174SOL    HW127155   1.958   3.895   9.909  0.0081 -2.5565  0.3238
 5174SOL    HW227156   1.950   3.938  10.050  0.1678 -1.1227  1.7003
 5175SOL     OW27157   1.853   2.492  16.567  0.0162  0.1399  0.3373
 5175SOL    HW127158   1.868   2.405  16.602 -3.6082 -0.7882 -0.3927
 5175SOL    HW227159   1.858   2.536  16.652  3.0191  0.3945  0.0275
 5176SOL     OW27160   2.887   4.472   8.037 -0.3909  0.8944  0.2237
 5176SOL    HW127161   2.959   4.520   7.997  0.3191 -0.1540  0.2492
 5176SOL    HW227162   2.848   4.537   8.096  1.8547  1.2447  1.3387
 5177SOL     OW27163   1.524   2.461  11.437 -0.1060  0.0158 -0.3935
 5177SOL    HW127164   1.464   2.387  11.450  0.2817 -0.2342 -0.0320
 5177SOL    HW227165   1.606   2.413  11.442 -0.3564 -0.3609  0.1099
 5178SOL     OW27166   1.982   1.764   8.109 -0.1274 -0.3924  0.3976
 5178SOL    HW127167   2.077   1.755   8.109 -0.0843  0.0541 -1.1924
 5178SOL    HW227168   1.982   1.849   8.153 -0.1232 -0.0759 -0.2195
 5179SOL     OW27169   2.529   1.397   4.659 -0.5149  0.4711 -0.4564
 5179SOL    HW127170   2.483   1.457   4.600  2.6353 -0.4033 -3.8683
 5179SOL    HW227171   2.606   1.446   4.687 -0.9678 -0.0989  1.7588
 5180SOL     OW27172   1.777   1.718   7.936  0.0423  0.1215 -0.1706
 5180SOL    HW127173   1.731   1.665   8.001  1.1560 -0.4717  0.1196
 5180SOL    HW227174   1.852   1.737   7.991  0.3151 -1.0171 -0.1485
 5181SOL     OW27175   0.940   3.545   1.863  0.0952  0.2705  0.4402
 5181SOL    HW127176   1.012   3.544   1.926  0.7680  1.3054 -0.3256
 5181SOL    HW227177   0.973   3.499   1.785 -0.5642 -1.3658  1.1354
 5182SOL     OW27178   2.160   2.290   7.286  0.2176  0.6565 -0.3795
 5182SOL    HW127179   2.111   2.342   7.350  0.0308 -1.2365  0.9989
 5182SOL    HW227180   2.236   2.279   7.343  0.4044  0.8376 -0.5914
 5183SOL     OW27181   3.253   3.909   1.020  0.5391  0.9144  0.1070
 5183SOL    HW127182   3.187   3.972   0.991 -2.2312 -1.7841  0.4647
 5183SOL    HW227183   3.198   3.842   1.061  0.0536  2.3450  1.7800
 5184SOL     OW27184   4.529   2.329   3.810  0.2027 -0.2784  0.1179
 5184SOL    HW127185   4.562   2.395   3.749  0.4711 -0.5561 -0.0376
 5184SOL    HW227186   4.494   2.260   3.754  1.2787 -0.9854  0.3232
 5185SOL     OW27187   4.192   2.952   5.862  0.5065  0.4690 -0.9706
 5185SOL    HW127188   4.254   3.025   5.865  1.1532 -0.1516  0.7257
 5185SOL    HW227189   4.243   2.872   5.855  2.2692  1.1829  3.4009
 5186SOL     OW27190   0.693   1.755  13.006  0.7702 -0.0646  0.0571
 5186SOL    HW127191   0.663   1.722  12.921 -0.9251 -0.8947  0.9972
 5186SOL    HW227192   0.727   1.680  13.054  0.2999 -0.1026  0.3239
 5187SOL     OW27193   2.239   0.452   6.509 -0.0885 -0.1612 -0.5917
 5187SOL    HW127194   2.286   0.400   6.444  3.3401  3.1898 -0.8181
 5187SOL    HW227195   2.288   0.532   6.491  1.0017 -0.4558  1.1406
 5188SOL     OW27196   0.336   1.488   1.919 -0.0629  0.2980 -0.6427
 5188SOL    HW127197   0.366   1.422   1.981  0.8938  0.9020 -0.4622
 5188SOL    HW227198   0.380   1.565   1.955  1.4291 -0.6446 -0.4738
 5189SOL     OW27199   2.047   0.722  13.302  0.1955  0.3801  0.0994
 5189SOL    HW127200   2.122   0.735  13.360  0.0943  0.6007  0.1814
 5189SOL    HW227201   2.069   0.634  13.271  1.6452  0.4991  0.7841
 5190SOL     OW27202   2.746   3.587   3.250 -0.0364 -0.9084 -0.0783
 5190SOL    HW127203   2.831   3.572   3.292  1.5900 -0.5370 -3.2860
 5190SOL    HW227204   2.747   3.683   3.251  0.2082 -0.9096 -0.1076
 5191SOL     OW27205   0.181   2.060   7.078  0.3965 -0.4551 -0.3645
 5191SOL    HW127206   0.094   2.039   7.113  0.9674  0.1441  1.4137
 5191SOL    HW227207   0.232   1.983   7.103 -0.6601 -1.2251 -0.5990
 5192SOL     OW27208   3.999   2.825   3.547  0.1362  0.3502 -0.4854
 5192SOL    HW127209   3.996   2.806   3.454 -1.9011  0.5068 -0.4531
 5192SOL    HW227210   4.067   2.892   3.551  0.5829 -0.1987  1.3904
 5193SOL     OW27211   2.598   3.132   8.275  0.2845  0.4292 -0.1455
 5193SOL    HW127212   2.596   3.216   8.320 -2.3861 -0.2358  1.0258
 5193SOL    HW227213   2.618   3.164   8.187  0.0982  1.3388  0.1439
 5194SOL     OW27214   0.252   0.003   8.902 -0.5899  0.0158  0.7600
 5194SOL    HW127215   0.174   0.044   8.939  0.3983  0.2443  2.6054
 5194SOL    HW227216   0.255   4.658   8.950 -0.2187  0.1158  0.9118
 5195SOL     OW27217   1.771   1.635   9.355 -0.7375  0.1688  0.0207
 5195SOL    HW127218   1.758   1.730   9.359 -0.7451  0.1203  1.0840
 5195SOL    HW227219   1.758   1.601   9.444  2.3365  0.0983  0.4760
 5196SOL     OW27220   4.040   2.758   2.948  0.1241  0.1965  0.5642
 5196SOL    HW127221   4.012   2.682   2.896  3.3797 -1.2502  0.9192
 5196SOL    HW227222   4.026   2.718   3.034 -0.2288  1.0454  0.9037
 5197SOL     OW27223   2.812   3.588   8.597 -0.0524  0.2993  0.1463
 5197SOL    HW127224   2.815   3.620   8.507  0.4283 -1.1018 -0.3353
 5197SOL    HW227225   2.906   3.598   8.612  0.3479 -0.4778 -1.8409
 5198SOL     OW27226   0.809   1.520  14.546 -0.9812 -0.6627 -0.1617
 5198SOL    HW127227   0.863   1.599  14.552 -3.2922  1.1270 -2.7674
 5198SOL    HW227228   0.774   1.513  14.635  1.0591 -1.3882  0.5859
 5199SOL     OW27229   4.630   3.133   5.306 -0.0559  0.2888 -0.2159
 5199SOL    HW127230   4.534   3.132   5.305 -0.0561 -2.0778  0.6262
 5199SOL    HW227231   4.641   3.052   5.255  1.3671 -0.1049  0.7144
 5200SOL     OW27232   4.715   1.899   6.385 -0.1513  0.0627  0.1674
 5200SOL    HW127233   0.030   1.839   6.437  1.1710  0.0663 -1.1917
 5200SOL    HW227234   0.013   1.983   6.415  0.7274 -0.1330 -0.3349
 5201SOL     OW27235   1.607   3.165   8.497 -0.1180 -0.0357  0.0809
 5201SOL    HW127236   1.639   3.084   8.538 -2.2054 -0.5464  0.7073
 5201SOL    HW227237   1.628   3.221   8.572  0.6295 -2.0613  1.4145
 5202SOL     OW27238   2.543   4.414   1.463  0.3756 -0.2987  0.1274
 5202SOL    HW127239   2.628   4.370   1.468  0.9708  1.0667  2.0797
 5202SOL    HW227240   2.553   4.493   1.516 -2.0097 -0.0907  0.2839
 5203SOL     OW27241   1.408   4.510   0.392 -0.3871 -0.4653  0.6238
 5203SOL    HW127242   1.479   4.574   0.404 -0.4471 -0.4067  0.6699
 5203SOL    HW227243   1.334   4.543   0.444 -1.1123 -0.4879 -0.3912
 5204SOL     OW27244   4.040   3.100  15.367 -0.1841 -0.7068  0.2362
 5204SOL    HW127245   4.096   3.175  15.387 -0.1404 -0.7812  0.3996
 5204SOL    HW227246   4.022   3.110  15.274 -1.7736  1.6307  0.7990
 5205SOL     OW27247   3.777   2.365   5.166 -0.5070 -0.3737  0.2532
 5205SOL    HW127248   3.867   2.364   5.199 -0.0535 -2.7204 -1.0465
 5205SOL    HW227249   3.763   2.457   5.147  0.8155 -0.2756 -0.2192
 5206SOL     OW27250   0.887   3.926  10.984  0.2828 -0.3193 -0.5312
 5206SOL    HW127251   0.967   3.889  11.021 -0.3551 -0.1202  1.0567
 5206SOL    HW227252   0.913   4.017  10.998  2.9557 -1.1948  0.2023
 5207SOL     OW27253   2.744   0.098   5.139 -0.2890  0.5306  0.3561
 5207SOL    HW127254   2.719   0.113   5.048  0.3803  0.4595  0.1540
 5207SOL    HW227255   2.669   0.044   5.162  0.5596 -1.0397 -0.5383
 5208SOL     OW27256   2.198   1.616   4.775 -0.0941 -0.4708  0.0756
 5208SOL    HW127257   2.137   1.572   4.716 -0.9610  1.6901 -0.6627
 5208SOL    HW227258   2.239   1.539   4.814 -0.8699 -1.9268 -1.9574
 5209SOL     OW27259   4.019   0.821   8.249  0.2187  0.4960  0.2371
 5209SOL    HW127260   4.000   0.804   8.156 -1.2236 -0.5527  0.7085
 5209SOL    HW227261   4.082   0.753   8.273 -0.9995 -0.6238  0.2734
 5210SOL     OW27262   2.526   2.093   3.844 -0.1943  0.0169 -0.4889
 5210SOL    HW127263   2.619   2.084   3.868 -0.1495  0.5753 -0.4506
 5210SOL    HW227264   2.496   2.006   3.870 -0.9888  0.4123 -0.0801
 5211SOL     OW27265   1.102   2.613  16.172  0.1108 -0.2823 -0.3136
 5211SOL    HW127266   1.143   2.531  16.201  3.6156  1.9670  1.1070
 5211SOL    HW227267   1.179   2.665  16.150  0.9069 -0.1019  2.7877
 5212SOL     OW27268   3.302   3.149   2.142 -0.1927  0.1887  0.1034
 5212SOL    HW127269   3.228   3.154   2.202  1.6342  0.1581  2.3698
 5212SOL    HW227270   3.380   3.176   2.192  0.4111 -0.8868 -0.2429
 5213SOL     OW27271   2.186   3.933   3.971  0.3909 -0.0868 -0.0155
 5213SOL    HW127272   2.273   3.907   4.003  0.9667  0.1018 -1.3976
 5213SOL    HW227273   2.174   3.998   4.040 -1.5364 -1.7278  1.1761
 5214SOL     OW27274   1.858   2.881   7.543  0.1561 -0.0743 -0.0318
 5214SOL    HW127275   1.888   2.909   7.630  0.6085 -1.9030  0.4012
 5214SOL    HW227276   1.941   2.851   7.505  1.4903  0.0030  2.7791
 5215SOL     OW27277   3.094   1.972   9.519  0.4901 -0.3643  0.4479
 5215SOL    HW127278   3.076   1.885   9.483  1.5120  0.3806 -1.8580
 5215SOL    HW227279   3.019   1.995   9.573  0.4137 -0.7396  0.5022
 5216SOL     OW27280   3.848   0.085   9.727  0.3092 -0.0404  0.0591
 5216SOL    HW127281   3.847   0.106   9.820  1.8134  1.3487 -0.2391
 5216SOL    HW227282   3.756   0.089   9.702 -0.0060  0.2429  1.2558
 5217SOL     OW27283   4.333   2.336   7.992  0.2041 -0.0230 -0.6862
 5217SOL    HW127284   4.262   2.290   7.947 -1.0429  0.0980  1.1800
 5217SOL    HW227285   4.411   2.303   7.948  0.3279 -0.7608  0.0715
 5218SOL     OW27286   4.445   1.260   7.382 -0.3515  0.3808  0.3518
 5218SOL    HW127287   4.413   1.294   7.298  0.3149  0.3909  0.0993
 5218SOL    HW227288   4.368   1.255   7.439 -0.1388  0.0913  0.6116
 5219SOL     OW27289   2.866   2.999   6.348 -0.0704 -0.0231 -0.2203
 5219SOL    HW127290   2.814   2.997   6.428  4.0336 -2.5105  2.3635
 5219SOL    HW227291   2.936   2.935   6.366 -0.0661  0.7218  2.3910
 5220SOL     OW27292   1.157   1.569   2.889  0.1318  0.1356  0.1213
 5220SOL    HW127293   1.078   1.531   2.928  0.5055  1.6270  2.3512
 5220SOL    HW227294   1.158   1.662   2.912  0.5448 -0.3232  1.9277
 5221SOL     OW27295   0.252   3.691   0.643 -0.3258  0.4810 -0.0347
 5221SOL    HW127296   0.334   3.646   0.663  0.8435  2.4628 -0.3382
 5221SOL    HW227297   0.194   3.686   0.719  0.9374 -0.2766  0.8845
 5222SOL     OW27298   0.119   0.829   6.546 -0.5064  0.1782 -0.2450
 5222SOL    HW127299   0.153   0.918   6.554 -0.9265  0.2332  1.0144
 5222SOL    HW227300   0.115   0.817   6.452  2.1612  1.6792 -0.5542
 5223SOL     OW27301   1.958   0.993  17.641  0.1173  0.2114 -0.1057
 5223SOL    HW127302   1.980   0.987  17.548  3.8145  0.3786  0.7645
 5223SOL    HW227303   2.013   1.067  17.666  2.0659 -1.5577  0.8738
 5224SOL     OW27304   0.710   4.164  16.511  0.4119  1.0464  0.2213
 5224SOL    HW127305   0.738   4.161  16.602  0.4837  3.4118  0.2561
 5224SOL    HW227306   0.794   4.192  16.474  0.5792 -0.1212 -0.2961
 5225SOL     OW27307   1.977   4.458   9.663  0.6098  0.7632  0.0508
 5225SOL    HW127308   1.947   4.492   9.747  1.2127 -0.0972  0.6110
 5225SOL    HW227309   1.918   4.505   9.604 -0.1386  3.5095  3.0013
 5226SOL     OW27310   3.225   2.887   7.496  0.0258  0.0961 -0.6447
 5226SOL    HW127311   3.226   2.896   7.592 -1.1636  0.5416 -0.6656
 5226SOL    HW227312   3.223   2.792   7.484 -1.4273 -0.0551  0.7634
 5227SOL     OW27313   2.782   2.107   4.000 -0.2307  0.0513  0.3672
 5227SOL    HW127314   2.773   2.067   4.086 -1.8688 -1.6408 -0.5869
 5227SOL    HW227315   2.787   2.202   4.012 -1.4527  0.0066  1.2355
 5228SOL     OW27316   0.696   2.820   4.401 -0.4492  0.0493  0.6223
 5228SOL    HW127317   0.741   2.737   4.386 -2.3508 -1.3717  2.7318
 5228SOL    HW227318   0.604   2.793   4.408 -0.3568 -0.5542 -0.4398
 5229SOL     OW27319   4.292   1.567  16.712 -0.0200  0.1999 -0.0910
 5229SOL    HW127320   4.257   1.515  16.640 -1.2801 -0.8532  1.2843
 5229SOL    HW227321   4.314   1.650  16.671  1.5361 -0.2748 -0.2163
 5230SOL     OW27322   2.722   1.990  12.778 -0.4223  0.6690  0.2682
 5230SOL    HW127323   2.632   1.976  12.751 -0.3540 -3.4455  2.2455
 5230SOL    HW227324   2.773   1.988  12.697 -0.7980  0.0245  0.0528
 5231SOL     OW27325   2.310   4.484   1.692 -0.4531 -0.4479 -0.1620
 5231SOL    HW127326   2.405   4.496   1.695 -0.6774  1.0321  0.9284
 5231SOL    HW227327   2.305   4.412   1.754 -1.4785  0.9157  1.3524
 5232SOL     OW27328   3.593   4.092  12.798 -0.2271 -0.3641  0.2554
 5232SOL    HW127329   3.561   4.019  12.746 -1.9479  0.7517 -0.2298
 5232SOL    HW227330   3.675   4.054  12.830  1.2760  2.1866 -0.4662
 5233SOL     OW27331   2.472   1.583   6.954  0.2320 -0.9220  0.4724
 5233SOL    HW127332   2.539   1.649   6.974 -0.0264  0.5756 -3.4523
 5233SOL    HW227333   2.474   1.523   7.028  1.3510  1.2236  2.1713
 5234SOL     OW27334   2.937   0.022   0.401 -0.0988  0.1295  0.2414
 5234SOL    HW127335   2.956   4.670   0.376  2.2638  1.3809 -2.4015
 5234SOL    HW227336   2.861   0.011   0.457 -0.9338  1.7021 -0.5597
 5235SOL     OW27337   3.243   3.733   3.025  0.3527  0.1409  0.5137
 5235SOL    HW127338   3.263   3.760   3.115 -2.1093  1.2292  0.7427
 5235SOL    HW227339   3.171   3.674   3.048  1.6863 -1.6301  0.1228
 5236SOL     OW27340   0.315   1.213   5.360  0.0427 -0.0826  0.1258
 5236SOL    HW127341   0.266   1.276   5.307 -0.0803 -0.8034 -0.6167
 5236SOL    HW227342   0.363   1.171   5.288  1.3460  1.4158  0.1100
 5237SOL     OW27343   0.795   2.566   4.353  0.7725  0.2008 -0.5235
 5237SOL    HW127344   0.805   2.532   4.442 -0.1571  1.6958  0.1634
 5237SOL    HW227345   0.721   2.518   4.316 -1.2085  2.5780  0.3037
 5238SOL     OW27346   3.304   0.109   6.406 -0.1166  0.2661 -0.0402
 5238SOL    HW127347   3.222   0.139   6.367  0.7829 -0.3530 -2.4016
 5238SOL    HW227348   3.343   0.085   6.322  1.5257  0.5141  0.6506
 5239SOL     OW27349   1.307   2.515   6.137  0.2196 -0.0741  0.2883
 5239SOL    HW127350   1.297   2.606   6.108 -2.0681 -0.0604  1.1939
 5239SOL    HW227351   1.276   2.469   6.059  0.8226 -0.9296  0.5521
 5240SOL     OW27352   0.240   0.700   2.243  0.0538 -0.3492 -0.4011
 5240SOL    HW127353   0.238   0.627   2.181  0.0249  0.1806 -1.0171
 5240SOL    HW227354   0.323   0.743   2.220 -1.0284  0.1510 -3.2507
 5241SOL     OW27355   3.598   1.158   2.919 -0.1380 -0.1275  0.1873
 5241SOL    HW127356   3.576   1.220   2.850 -0.9466 -0.3697  0.2293
 5241SOL    HW227357   3.581   1.074   2.875  0.0845 -0.6356  1.0682
 5242SOL     OW27358   2.492   4.697   9.417  0.0644 -0.3241 -0.1512
 5242SOL    HW127359   2.486   0.055   9.417  1.3801 -0.2466 -0.2988
 5242SOL    HW227360   2.482   4.682   9.511 -1.4875  0.6792 -0.1587
 5243SOL     OW27361   3.073   3.701   1.129  0.6180 -0.3050  0.1245
 5243SOL    HW127362   3.037   3.758   1.197  1.1988  0.5450 -0.2755
 5243SOL    HW227363   3.000   3.714   1.069 -0.0782  1.8704  1.4125
 5244SOL     OW27364   3.027   2.319   0.664 -0.1223  0.0087 -0.0414
 5244SOL    HW127365   3.010   2.315   0.570  0.9977  0.0685 -0.2474
 5244SOL    HW227366   3.106   2.373   0.654 -0.1482 -0.0800 -0.7290
 5245SOL     OW27367   1.169   4.338   4.152  0.3144 -0.3213 -0.0006
 5245SOL    HW127368   1.144   4.366   4.064 -0.9518 -1.0080  0.1367
 5245SOL    HW227369   1.083   4.332   4.193 -0.0037 -0.1401 -0.6352
 5246SOL     OW27370   3.343   0.942   7.643  0.1216  0.0499  0.2124
 5246SOL    HW127371   3.322   1.028   7.679  1.2631  1.2244 -1.9037
 5246SOL    HW227372   3.268   0.915   7.590 -0.4337  0.5069  0.7554
 5247SOL     OW27373   2.359   4.662  12.793  0.4671  0.3221  0.3316
 5247SOL    HW127374   2.320   4.621  12.717 -1.2952  0.9650  0.8930
 5247SOL    HW227375   2.396   4.590  12.844 -0.4246 -0.5933 -0.3338
 5248SOL     OW27376   3.870   3.306   4.977 -0.3440 -0.4755 -0.3855
 5248SOL    HW127377   3.794   3.250   4.994 -0.7045 -0.1938 -1.0928
 5248SOL    HW227378   3.907   3.312   5.065 -0.1929 -1.8003 -0.3576
 5249SOL     OW27379   2.587   2.478   1.692  0.7560  0.7253 -0.2646
 5249SOL    HW127380   2.520   2.539   1.726  0.1415 -0.0743 -0.0438
 5249SOL    HW227381   2.589   2.405   1.753  1.5863 -1.2388 -2.6633
 5250SOL     OW27382   1.247   2.444   4.115  0.4632 -0.5104  1.1200
 5250SOL    HW127383   1.193   2.459   4.193  0.5042 -2.5096  1.5177
 5250SOL    HW227384   1.187   2.404   4.051 -0.5446 -1.1398  2.4745
 5251SOL     OW27385   4.226   0.815  16.039 -0.3747  0.0425 -0.4544
 5251SOL    HW127386   4.287   0.810  16.112  0.7031 -0.2088 -1.3707
 5251SOL    HW227387   4.208   0.909  16.039  0.6471  0.2430 -1.5987
 5252SOL     OW27388   4.151   1.726   4.467  0.8400  0.0824 -0.1640
 5252SOL    HW127389   4.156   1.796   4.402 -0.2150 -1.1354 -1.5453
 5252SOL    HW227390   4.164   1.779   4.546 -0.3256 -0.6655  0.5208
 5253SOL     OW27391   1.744   2.964   5.418 -0.0924  0.6652  0.3718
 5253SOL    HW127392   1.658   2.973   5.458 -0.5425  0.1059 -0.4761
 5253SOL    HW227393   1.774   2.894   5.477 -0.4532  0.9775  0.9274
 5254SOL     OW27394   3.520   3.563  11.082  0.2286 -0.2877  0.0209
 5254SOL    HW127395   3.549   3.537  11.170  1.6220 -0.9418 -0.6254
 5254SOL    HW227396   3.508   3.657  11.090  0.8387 -0.4822  3.5758
 5255SOL     OW27397   3.916   4.250   8.514  0.0136 -0.4560  0.3094
 5255SOL    HW127398   3.919   4.169   8.464  2.3182 -0.1030 -0.1190
 5255SOL    HW227399   3.916   4.317   8.446  3.5567  1.1174  1.8268
 5256SOL     OW27400   2.054   2.332   3.124 -0.2358  0.2907  0.5411
 5256SOL    HW127401   2.076   2.390   3.197 -0.2862 -0.2382  0.9800
 5256SOL    HW227402   2.037   2.392   3.051  0.5922  1.7700  1.5606
 5257SOL     OW27403   3.854   3.442  15.039  0.0427  0.3887 -0.9371
 5257SOL    HW127404   3.872   3.519  15.093 -0.8450  0.1770 -0.3187
 5257SOL    HW227405   3.768   3.457  15.000 -1.5555 -0.0162  2.3522
 5258SOL     OW27406   0.641   4.508   8.497 -0.1770 -0.4423  0.3410
 5258SOL    HW127407   0.722   4.547   8.465  0.3687  0.3652  2.7035
 5258SOL    HW227408   0.656   4.517   8.592  0.2748 -0.1048  0.2410
 5259SOL     OW27409   0.127   1.656   2.372  0.3503 -0.0808 -0.1544
 5259SOL    HW127410   0.134   1.720   2.302  0.2665 -1.1687 -1.1593
 5259SOL    HW227411   0.215   1.617   2.366 -0.0441 -0.9948  0.0212
 5260SOL     OW27412   0.586   3.686   2.412  0.3359 -0.5044 -0.2447
 5260SOL    HW127413   0.638   3.608   2.430  1.4191  0.3580  0.3880
 5260SOL    HW227414   0.645   3.736   2.356 -0.3072 -2.5909 -2.7396
 5261SOL     OW27415   3.076   1.842  15.786 -0.4046 -0.0732 -0.0170
 5261SOL    HW127416   3.157   1.876  15.747 -1.1509  0.9987 -0.6425
 5261SOL    HW227417   3.027   1.923  15.800 -1.2463 -0.7925  1.1603
 5262SOL     OW27418   3.420   1.370  12.136 -0.6171 -0.0417  0.6327
 5262SOL    HW127419   3.343   1.379  12.081  0.1854  0.5399 -0.3976
 5262SOL    HW227420   3.486   1.344  12.072  1.0881 -2.4898  3.3602
 5263SOL     OW27421   2.626   4.213  10.005  0.0334  0.6509  0.7390
 5263SOL    HW127422   2.585   4.141  10.053 -0.7710 -0.0240 -0.9494
 5263SOL    HW227423   2.708   4.175   9.974 -1.7899 -0.3487 -2.8110
 5264SOL     OW27424   3.529   2.315   7.347 -0.3046 -0.6829 -0.4008
 5264SOL    HW127425   3.604   2.270   7.308  0.2847  1.0128 -1.2417
 5264SOL    HW227426   3.510   2.255   7.420 -1.0411  0.0159 -0.0142
 5265SOL     OW27427   2.012   3.732  13.211  0.0043  0.2312  0.5855
 5265SOL    HW127428   2.086   3.742  13.270  0.4738  3.8136 -0.5736
 5265SOL    HW227429   2.052   3.698  13.131 -1.5120  1.7445 -0.8316
 5266SOL     OW27430   4.407   3.466  12.546  0.4630  0.3103  0.1893
 5266SOL    HW127431   4.444   3.387  12.507  0.1876  0.1904  0.1695
 5266SOL    HW227432   4.314   3.453  12.527  1.1660 -0.9154 -2.4543
 5267SOL     OW27433   0.427   1.986   3.701  0.3353  0.2357 -0.2098
 5267SOL    HW127434   0.399   2.052   3.638  0.4256  0.4298 -0.0464
 5267SOL    HW227435   0.394   1.910   3.653 -0.7334  0.6287 -0.0855
 5268SOL     OW27436   1.965   2.252  11.637  0.2894 -0.5799  1.1528
 5268SOL    HW127437   1.904   2.227  11.706 -0.2053  1.0506  1.3124
 5268SOL    HW227438   2.009   2.169  11.616  1.0179  0.5420 -1.7883
 5269SOL     OW27439   3.520   1.899  12.520  0.1237  0.3221 -0.5910
 5269SOL    HW127440   3.497   1.810  12.545  1.4551  0.1404 -0.0092
 5269SOL    HW227441   3.614   1.897  12.504  0.1189 -0.6574 -0.5075
 5270SOL     OW27442   3.689   4.542   7.543 -0.4384  0.2016  0.0472
 5270SOL    HW127443   3.697   4.549   7.448  1.4746  0.6677  0.2370
 5270SOL    HW227444   3.643   4.457   7.544  0.4405 -0.2722 -0.4479
 5271SOL     OW27445   4.589   1.499   8.764 -0.1835  0.5805  0.1646
 5271SOL    HW127446   4.539   1.565   8.716 -0.8795  0.7865  1.1708
 5271SOL    HW227447   4.513   1.458   8.806 -0.3358  1.5511  0.8401
 5272SOL     OW27448   3.781   0.109   5.910 -0.3133  0.0060  0.3719
 5272SOL    HW127449   3.806   0.199   5.928 -0.5767 -0.2053  1.7833
 5272SOL    HW227450   3.799   0.116   5.816 -0.3489  2.0874  0.5237
 5273SOL     OW27451   1.691   2.985   9.312  0.4969 -0.6696  0.3785
 5273SOL    HW127452   1.625   3.003   9.379 -0.8267  0.6774 -1.2864
 5273SOL    HW227453   1.770   2.986   9.366  1.1018  2.9687 -0.5356
 5274SOL     OW27454   0.787   2.592   5.263  0.1873  0.3017 -0.3151
 5274SOL    HW127455   0.872   2.635   5.270  1.9553 -3.8453  3.6237
 5274SOL    HW227456   0.789   2.530   5.336  1.2381  1.5800  0.7475
 5275SOL     OW27457   4.055   4.057  13.107 -0.1445  0.1702 -0.4116
 5275SOL    HW127458   4.059   4.135  13.163  3.4089 -0.8186  0.7365
 5275SOL    HW227459   4.021   3.985  13.160  0.3512  1.5554  1.8146
 5276SOL     OW27460   0.770   0.820  14.115  0.1421 -0.3306  0.3971
 5276SOL    HW127461   0.829   0.843  14.043 -1.6266 -2.4095 -1.6886
 5276SOL    HW227462   0.721   0.902  14.125 -2.1143 -1.5976 -0.4100
 5277SOL     OW27463   3.622   1.507   2.242 -0.9484  0.1556  0.6121
 5277SOL    HW127464   3.691   1.573   2.252 -1.0914  0.5807 -1.3105
 5277SOL    HW227465   3.633   1.491   2.149  0.3986 -1.3251  1.0315
 5278SOL     OW27466   1.346   1.939   4.010 -0.2212  0.2892 -0.1953
 5278SOL    HW127467   1.374   1.985   4.089 -2.1574  2.9170 -1.0411
 5278SOL    HW227468   1.412   1.974   3.949  0.3358  1.4358  1.0740
 5279SOL     OW27469   4.731   1.837  12.360  0.4018 -0.2804 -0.3324
 5279SOL    HW127470   4.680   1.850  12.440 -0.3823 -0.3730 -0.8163
 5279SOL    HW227471   4.675   1.872  12.291  0.1817 -2.7578 -1.4338
 5280SOL     OW27472   3.419   0.569   1.703 -0.4261 -0.0911  0.3399
 5280SOL    HW127473   3.490   0.563   1.767 -1.3980 -0.7412  1.3433
 5280SOL    HW227474   3.445   0.508   1.634 -0.7945  0.2257 -0.0882
 5281SOL     OW27475   3.825   1.753  12.835 -0.3886 -0.4136  0.1693
 5281SOL    HW127476   3.839   1.695  12.760  1.0611  2.2273 -1.5986
 5281SOL    HW227477   3.758   1.711  12.888  0.5235 -1.5091  0.4435
 5282SOL     OW27478   4.501   4.137  17.555  0.0013  0.3823  0.0538
 5282SOL    HW127479   4.449   4.158  17.633  0.8183  2.6074 -0.0155
 5282SOL    HW227480   4.429   4.103  17.500 -0.0247  2.5814 -1.2500
 5283SOL     OW27481   0.431   3.640   2.158 -0.1657 -0.4805  0.3317
 5283SOL    HW127482   0.462   3.652   2.248  1.7808  0.6860 -0.4815
 5283SOL    HW227483   0.465   3.551   2.152 -3.4563 -1.9440  3.4370
 5284SOL     OW27484   2.515   1.203  17.562  0.1101 -0.1138 -0.4267
 5284SOL    HW127485   2.524   1.188  17.656 -1.1018  0.6854 -0.1838
 5284SOL    HW227486   2.456   1.129  17.542 -1.0996  0.5465  0.7112
 5285SOL     OW27487   4.271   1.385  10.582  0.2743 -0.2805 -0.3481
 5285SOL    HW127488   4.176   1.389  10.593  0.5320  0.2184  1.6875
 5285SOL    HW227489   4.293   1.450  10.648  0.5759  0.8051 -1.5288
 5286SOL     OW27490   3.260   0.414  12.401 -0.3387 -0.1325 -0.0389
 5286SOL    HW127491   3.295   0.327  12.421  0.3493  0.6912  2.2435
 5286SOL    HW227492   3.327   0.435  12.335  2.0545  0.6256  2.6143
 5287SOL     OW27493   0.458   3.761   3.445 -0.2966  0.1347  0.0949
 5287SOL    HW127494   0.433   3.705   3.371 -0.2829 -0.0856  0.2574
 5287SOL    HW227495   0.366   3.789   3.452 -0.4835  0.2051 -2.6277
 5288SOL     OW27496   0.589   3.291   5.440 -0.3222  0.1144  0.2199
 5288SOL    HW127497   0.523   3.227   5.464 -2.0045  1.8505  0.2357
 5288SOL    HW227498   0.550   3.371   5.477  0.5833  1.0619 -0.8566
 5289SOL     OW27499   0.379   1.736   4.686  0.5204 -0.1054 -0.2615
 5289SOL    HW127500   0.447   1.673   4.664  1.1273  0.3258  0.4087
 5289SOL    HW227501   0.325   1.738   4.606 -1.3225 -1.8787  0.9255
 5290SOL     OW27502   1.815   0.252   2.572 -0.2593  0.4513  0.7694
 5290SOL    HW127503   1.793   0.162   2.550  1.1980 -0.3155  2.4067
 5290SOL    HW227504   1.902   0.243   2.611  0.2242 -1.9905 -0.9206
 5291SOL     OW27505   0.169   0.413   0.773 -0.4983  0.1562  0.4699
 5291SOL    HW127506   0.092   0.361   0.797 -0.3247 -0.6432 -0.6634
 5291SOL    HW227507   0.198   0.373   0.690  1.0960 -0.9898  1.5643
 5292SOL     OW27508   0.647   4.539  12.282 -0.6085  0.3262  0.0573
 5292SOL    HW127509   0.641   4.621  12.331 -1.5067  0.1621  0.2273
 5292SOL    HW227510   0.672   4.481  12.353 -2.2846 -0.6044 -0.1132
 5293SOL     OW27511   3.768   0.869   4.075  0.0081 -0.7460  0.6093
 5293SOL    HW127512   3.782   0.953   4.119  0.0779 -0.7133  0.5238
 5293SOL    HW227513   3.845   0.869   4.019  0.2575  1.1766  0.9437
 5294SOL     OW27514   4.514   2.297   6.870  0.6662  0.4569  0.3812
 5294SOL    HW127515   4.519   2.303   6.775  1.1436 -0.1539  0.3701
 5294SOL    HW227516   4.552   2.210   6.883 -1.3589 -0.8042 -2.1054
 5295SOL     OW27517   1.562   1.732   8.325  0.2518 -0.1529  0.4133
 5295SOL    HW127518   1.479   1.781   8.329 -0.4915 -1.4729  0.9868
 5295SOL    HW227519   1.570   1.672   8.399  1.8278 -1.7206 -1.0263
 5296SOL     OW27520   2.873   0.022   1.936 -0.3537 -0.0907  0.1727
 5296SOL    HW127521   2.784   4.727   1.919 -0.4074  0.9462 -1.5548
 5296SOL    HW227522   2.858   0.090   2.001 -2.8650  1.0050 -1.5238
 5297SOL     OW27523   3.672   2.349   9.483  0.4887  0.4207 -0.3447
 5297SOL    HW127524   3.646   2.386   9.567  2.4602  1.9507 -0.4074
 5297SOL    HW227525   3.592   2.306   9.453  0.3989  2.1359 -2.5991
 5298SOL     OW27526   4.225   2.497   2.682  0.0186  0.3148 -0.2487
 5298SOL    HW127527   4.197   2.427   2.624  0.4929 -1.2182  1.3824
 5298SOL    HW227528   4.260   2.560   2.618 -0.9347 -0.4757 -1.5460
 5299SOL     OW27529   1.837   1.938   3.265 -0.0773  0.0760 -0.3074
 5299SOL    HW127530   1.845   2.015   3.208  0.2239 -0.1959 -0.6401
 5299SOL    HW227531   1.866   1.867   3.208  0.8842  1.5931 -1.7284
 5300SOL     OW27532   2.654   3.876   4.597 -0.0867  0.0442 -0.1661
 5300SOL    HW127533   2.645   3.935   4.673 -2.9782 -1.5971  0.7528
 5300SOL    HW227534   2.699   3.942   4.543 -0.8715  0.8434  0.1530
 5301SOL     OW27535   2.300   1.217   2.317  0.4418 -0.7389  0.0775
 5301SOL    HW127536   2.290   1.212   2.412  2.4544  2.0371  0.4389
 5301SOL    HW227537   2.231   1.159   2.285 -1.4194  1.0240  0.8754
 5302SOL     OW27538   0.927   1.765   8.995 -0.4660 -0.0963  0.1323
 5302SOL    HW127539   0.984   1.690   8.978 -0.1009  0.3294 -0.5583
 5302SOL    HW227540   0.920   1.794   8.904 -2.2805  1.0471  0.6198
 5303SOL     OW27541   3.161   1.408   0.877  0.5049 -0.4676 -0.1707
 5303SOL    HW127542   3.147   1.339   0.942 -0.5667  0.3303  0.4536
 5303SOL    HW227543   3.249   1.395   0.843  1.2239  2.9263  0.3339
 5304SOL     OW27544   0.087   0.991   4.344  0.0733 -0.0848  0.0612
 5304SOL    HW127545   0.127   0.964   4.427 -1.6742  2.9130  1.8946
 5304SOL    HW227546   0.108   1.084   4.335 -0.3852  0.0592  0.4355
 5305SOL     OW27547   2.428   0.238  16.066  0.3704 -0.0563  0.4112
 5305SOL    HW127548   2.407   0.217  15.975 -2.3756  0.0294  1.0166
 5305SOL    HW227549   2.505   0.182  16.077  0.8333  0.4588 -0.2318
 5306SOL     OW27550   2.868   2.737   1.776 -0.2701  0.1572  0.0669
 5306SOL    HW127551   2.858   2.723   1.682 -0.9071  0.7434  0.0435
 5306SOL    HW227552   2.906   2.654   1.806  1.6355  1.1512  0.3806
 5307SOL     OW27553   4.294   2.424   9.045  0.0873 -0.1625 -0.3127
 5307SOL    HW127554   4.257   2.425   9.133 -3.5839 -1.6394 -1.8175
 5307SOL    HW227555   4.276   2.515   9.023  3.7077 -0.5538 -4.7822
 5308SOL     OW27556   1.529   0.603   5.147  0.5961  0.5645 -0.7518
 5308SOL    HW127557   1.495   0.518   5.119 -1.2207  0.1682  2.7221
 5308SOL    HW227558   1.566   0.575   5.230 -1.6849 -0.0417  0.0503
 5309SOL     OW27559   4.517   3.131   2.266 -0.0136  0.0688 -0.8045
 5309SOL    HW127560   4.607   3.101   2.276  0.1138  0.7762  0.1743
 5309SOL    HW227561   4.475   3.097   2.346  1.4441  0.0607 -0.0528
 5310SOL     OW27562   0.181   4.683   1.975 -0.2759  0.0543  0.2800
 5310SOL    HW127563   0.132   4.607   2.006 -1.8292 -0.5285 -3.6245
 5310SOL    HW227564   0.248   4.686   2.044  1.1445 -1.7680 -1.0396
 5311SOL     OW27565   3.028   2.519   1.863  0.3847  0.2007 -0.3952
 5311SOL    HW127566   3.019   2.426   1.845 -0.6137 -0.0614  1.4612
 5311SOL    HW227567   3.023   2.523   1.959 -2.8707  1.9232 -0.6736
 5312SOL     OW27568   4.066   4.098   8.296 -0.4490  0.0059  0.3370
 5312SOL    HW127569   4.015   4.127   8.220 -2.4809 -3.9790  0.2127
 5312SOL    HW227570   4.148   4.134   8.263 -1.2559  0.9804 -0.6214
 5313SOL     OW27571   0.158   4.471   8.170  0.1538 -0.6502  0.1362
 5313SOL    HW127572   0.190   4.468   8.260 -0.2076  0.1361  0.2976
 5313SOL    HW227573   0.243   4.507   8.144 -0.7864  0.6076 -1.2482
 5314SOL     OW27574   1.259   1.211  11.096 -0.2680  0.3194  0.3793
 5314SOL    HW127575   1.330   1.271  11.072  0.8157 -1.8372 -1.7622
 5314SOL    HW227576   1.204   1.200  11.019 -0.2188  3.0726 -0.0493
 5315SOL     OW27577   4.092   3.227   7.738  0.0256 -0.1472  0.3056
 5315SOL    HW127578   4.027   3.157   7.730 -0.9708  0.4879  2.9208
 5315SOL    HW227579   4.172   3.179   7.759  1.8493  1.5926 -2.4964
 5316SOL     OW27580   3.024   3.229   3.383 -0.2944 -0.2209 -0.1014
 5316SOL    HW127581   2.947   3.172   3.369 -0.9856  0.7086 -0.0820
 5316SOL    HW227582   3.070   3.177   3.449 -0.5902 -3.7287 -2.6552
 5317SOL     OW27583   3.289   2.511   7.985 -0.3895 -0.1514  0.5826
 5317SOL    HW127584   3.284   2.443   8.051  1.0827 -0.4860  0.3390
 5317SOL    HW227585   3.359   2.485   7.925 -0.0691  0.2351  0.7809
 5318SOL     OW27586   2.773   3.036   6.049  0.0564 -0.3647 -0.3122
 5318SOL    HW127587   2.695   2.995   6.010  0.6542 -0.4876 -1.3741
 5318SOL    HW227588   2.753   3.029   6.143 -1.2551 -1.6189 -0.6662
 5319SOL     OW27589   4.137   2.546   5.031  0.5456 -0.2441 -0.4774
 5319SOL    HW127590   4.198   2.518   5.099  0.7879 -0.2192 -0.6838
 5319SOL    HW227591   4.178   2.514   4.951  2.4280  1.5953 -0.2665
 5320SOL     OW27592   0.287   4.265   4.899  0.1076 -0.0626  0.2035
 5320SOL    HW127593   0.256   4.308   4.979 -2.3153  0.0840 -0.8248
 5320SOL    HW227594   0.381   4.252   4.909 -0.0932 -0.1028  1.9913
 5321SOL     OW27595   2.604   1.982   3.458 -0.2620  0.5562  0.4602
 5321SOL    HW127596   2.691   1.975   3.498 -0.1679  3.1350  0.6784
 5321SOL    HW227597   2.574   2.052   3.516 -2.0265 -0.0595  0.2617
 5322SOL     OW27598   3.390   2.231  15.381 -0.4599  0.2533 -0.0205
 5322SOL    HW127599   3.329   2.304  15.389  0.7455  1.0303  2.1681
 5322SOL    HW227600   3.461   2.282  15.342 -1.0798  0.5175 -0.7929
 5323SOL     OW27601   3.306   3.432   2.935 -0.2718 -1.0159  0.0322
 5323SOL    HW127602   3.233   3.443   2.874 -1.4344  0.8946  1.7658
 5323SOL    HW227603   3.291   3.498   3.002 -1.0120  1.1661 -2.2755
 5324SOL     OW27604   1.259   1.175   7.857 -0.0818  0.1406 -0.2559
 5324SOL    HW127605   1.211   1.099   7.825 -1.5142  1.3522 -1.0154
 5324SOL    HW227606   1.336   1.179   7.799  0.9332  1.5770  1.1913
 5325SOL     OW27607   4.136   3.069   3.633  0.7188 -0.2692  0.7256
 5325SOL    HW127608   4.055   3.117   3.646  1.2508  0.8418 -0.1482
 5325SOL    HW227609   4.193   3.126   3.582 -0.1049 -1.2895 -1.3405
 5326SOL     OW27610   3.949   0.337  11.116  0.7397  0.0564 -0.2329
 5326SOL    HW127611   3.987   0.330  11.203 -1.4015  0.7684  0.7660
 5326SOL    HW227612   4.024   0.318  11.060 -0.7957 -3.3105 -1.1618
 5327SOL     OW27613   3.257   2.591   9.752 -0.1769  0.0850 -0.2628
 5327SOL    HW127614   3.306   2.520   9.794  2.0744  1.9743  0.3374
 5327SOL    HW227615   3.276   2.571   9.660  0.0319  2.7067 -0.7966
 5328SOL     OW27616   0.764   0.680   7.109 -0.2933 -0.1986 -0.2466
 5328SOL    HW127617   0.779   0.621   7.182 -0.0350 -0.1518 -0.2626
 5328SOL    HW227618   0.697   0.741   7.139 -0.9573  0.3918 -2.9544
 5329SOL     OW27619   1.704   3.316   5.514 -0.0106 -0.6140 -0.5314
 5329SOL    HW127620   1.782   3.369   5.495 -0.8609  0.8622  0.0924
 5329SOL    HW227621   1.704   3.256   5.439  3.9884 -0.7270 -0.4334
 5330SOL     OW27622   1.445   0.941   2.591 -0.0166 -0.5483 -0.2502
 5330SOL    HW127623   1.399   1.024   2.582  1.1655  0.3215  1.6241
 5330SOL    HW227624   1.453   0.927   2.686  0.3769 -2.2236 -0.5409
 5331SOL     OW27625   0.527   4.272  16.946 -0.4501 -0.1643  0.1090
 5331SOL    HW127626   0.516   4.278  16.851  1.1649 -2.8549 -0.2384
 5331SOL    HW227627   0.604   4.218  16.960  0.0101  0.6740  0.7615
 5332SOL     OW27628   4.555   3.949   9.724 -0.4481 -0.1594 -0.1304
 5332SOL    HW127629   4.560   3.968   9.631  0.0967 -0.0945 -0.0854
 5332SOL    HW227630   4.495   3.874   9.722  0.8525 -1.1613 -1.4929
 5333SOL     OW27631   4.423   0.001   2.318  0.0477 -0.4128 -0.4691
 5333SOL    HW127632   4.483   4.675   2.358  1.8203  1.8492  0.4882
 5333SOL    HW227633   4.464   0.080   2.354 -0.9688 -0.1968  0.2104
 5334SOL     OW27634   2.505   1.391   9.353 -0.5101  0.3760 -0.4577
 5334SOL    HW127635   2.489   1.364   9.263 -0.8489 -0.0888 -0.2588
 5334SOL    HW227636   2.423   1.431   9.380 -1.3037 -0.7736 -1.1489
 5335SOL     OW27637   2.446   0.574   3.432 -0.3789  0.0656 -0.3877
 5335SOL    HW127638   2.353   0.588   3.446 -1.0224 -1.8360 -2.6666
 5335SOL    HW227639   2.446   0.498   3.373  1.0619 -0.0623 -0.2364
 5336SOL     OW27640   3.029   2.477   3.237 -0.0303 -0.0604  0.2439
 5336SOL    HW127641   3.044   2.391   3.198  0.7458 -0.4409  1.3826
 5336SOL    HW227642   3.039   2.446   3.327  1.1961  3.9917  1.4992
 5337SOL     OW27643   1.442   4.333  13.105 -0.1401  0.8186 -0.3794
 5337SOL    HW127644   1.534   4.340  13.132 -0.0078 -1.1067 -0.3307
 5337SOL    HW227645   1.449   4.252  13.054  0.9317 -0.8560  2.3712
 5338SOL     OW27646   2.675   0.908   4.311 -0.1855  0.1906  0.6565
 5338SOL    HW127647   2.602   0.959   4.275 -0.8829 -0.4744  1.1151
 5338SOL    HW227648   2.650   0.901   4.403 -3.8343 -1.6049 -0.4908
 5339SOL     OW27649   3.485   0.749  17.378 -0.2790 -0.0795  0.5822
 5339SOL    HW127650   3.458   0.817  17.439 -2.0777  0.5725 -0.9155
 5339SOL    HW227651   3.425   0.675  17.394  0.4190 -0.9159 -0.6843
 5340SOL     OW27652   0.539   0.162   0.415 -0.0989 -0.6655 -0.0945
 5340SOL    HW127653   0.451   0.166   0.378 -0.4966  1.7917  1.1586
 5340SOL    HW227654   0.585   0.184   0.334  1.1517 -0.1349  0.7593
 5341SOL     OW27655   1.116   4.541   9.992 -0.3263  0.5657  0.7973
 5341SOL    HW127656   1.031   4.585   9.998 -1.2021 -1.0992  0.7948
 5341SOL    HW227657   1.166   4.606   9.943 -2.2873  0.7559 -0.9609
 5342SOL     OW27658   1.016   0.676   9.230 -0.5931 -0.5034 -0.1882
 5342SOL    HW127659   1.019   0.619   9.306 -2.3299 -1.8170 -1.0906
 5342SOL    HW227660   1.026   0.761   9.273  0.3327 -1.5290  1.5910
 5343SOL     OW27661   1.869   0.125   7.743  0.0574 -0.4400 -0.0683
 5343SOL    HW127662   1.820   0.187   7.689  1.9433  0.4515 -0.7545
 5343SOL    HW227663   1.849   0.042   7.699 -1.7127  0.6207 -1.2948
 5344SOL     OW27664   2.250   2.163  13.713  0.5493  0.2817  0.4801
 5344SOL    HW127665   2.170   2.148  13.663 -0.7134  2.7438  1.8103
 5344SOL    HW227666   2.296   2.222  13.653 -0.1175 -0.2010 -0.4963
 5345SOL     OW27667   2.992   4.433  15.959  0.1092  0.0632  0.1367
 5345SOL    HW127668   3.054   4.382  15.907 -1.3112 -0.7142 -0.7644
 5345SOL    HW227669   3.058   4.471  16.018  2.1977 -1.6395 -1.0901
 5346SOL     OW27670   0.957   3.467   5.263 -0.4248  0.0556  0.6211
 5346SOL    HW127671   0.902   3.435   5.335 -1.2557 -0.0580 -0.0631
 5346SOL    HW227672   0.900   3.454   5.188  0.5242 -2.6182  0.3457
 5347SOL     OW27673   2.650   1.349   9.780 -0.0903  0.0760 -0.0875
 5347SOL    HW127674   2.600   1.272   9.809 -0.1096 -0.1494 -0.7136
 5347SOL    HW227675   2.729   1.313   9.740 -0.5066  0.2824 -1.1127
 5348SOL     OW27676   1.181   4.320   5.745  0.0527  0.0962 -0.2117
 5348SOL    HW127677   1.198   4.408   5.712  0.5332 -0.2034 -0.7510
 5348SOL    HW227678   1.086   4.319   5.734  0.0712  1.8405 -0.5788
 5349SOL     OW27679   2.623   1.499   2.657 -0.0667 -0.1004 -0.2948
 5349SOL    HW127680   2.577   1.415   2.650  1.7384 -1.0230 -1.0279
 5349SOL    HW227681   2.698   1.483   2.600  0.5795 -0.3558  0.6276
 5350SOL     OW27682   0.390   0.911  10.425  0.7594  0.4409  0.1834
 5350SOL    HW127683   0.387   0.965  10.504  0.3259 -0.3176  0.6871
 5350SOL    HW227684   0.480   0.878  10.424 -0.0008 -1.5724 -1.2577
 5351SOL     OW27685   3.413   1.362  12.971 -0.1422 -0.4951 -0.1029
 5351SOL    HW127686   3.362   1.372  12.891 -0.4955 -2.9053 -0.1807
 5351SOL    HW227687   3.479   1.424  12.939  2.0817 -2.2906  0.9707
 5352SOL     OW27688   3.938   3.586   6.895  0.1508 -0.3644  0.1716
 5352SOL    HW127689   3.962   3.654   6.832 -2.6950  0.7091  0.2662
 5352SOL    HW227690   3.981   3.511   6.854 -1.4767 -1.7597  1.0221
 5353SOL     OW27691   1.254   3.063   7.153 -0.3842  0.0610  0.3851
 5353SOL    HW127692   1.280   3.143   7.198  0.2048 -0.8067  1.6030
 5353SOL    HW227693   1.160   3.080   7.160 -0.5871 -0.4900 -1.0285
 5354SOL     OW27694   0.914   1.471   5.923 -0.1267  0.2384  0.5059
 5354SOL    HW127695   0.886   1.441   5.836  0.9998 -1.9318  0.8909
 5354SOL    HW227696   0.883   1.396   5.973 -0.8405  1.0526  1.2794
 5355SOL     OW27697   2.597   2.609  10.882 -0.3807 -0.3289 -0.5533
 5355SOL    HW127698   2.630   2.526  10.848 -0.6089 -0.1574 -1.1912
 5355SOL    HW227699   2.592   2.602  10.977  1.4554 -1.2277 -0.5250
 5356SOL     OW27700   2.281   3.617   7.662 -0.3384 -0.4141 -0.0606
 5356SOL    HW127701   2.228   3.538   7.656 -1.0689 -0.0372  1.4022
 5356SOL    HW227702   2.225   3.683   7.703  1.5266  1.0596  0.1008
 5357SOL     OW27703   2.987   3.004   4.743 -0.2356  0.3794 -0.3167
 5357SOL    HW127704   2.980   2.910   4.754 -0.0888  0.3291 -0.6497
 5357SOL    HW227705   2.949   3.022   4.829  0.6160 -0.1612  0.1765
 5358SOL     OW27706   1.009   1.136   9.275 -0.3319 -0.4292 -0.1016
 5358SOL    HW127707   1.095   1.167   9.304  0.9961 -4.4804  0.2889
 5358SOL    HW227708   0.964   1.219   9.291  1.8972  0.4691  1.5191
 5359SOL     OW27709   0.677   1.623   4.002 -0.1010 -0.2887 -0.5585
 5359SOL    HW127710   0.755   1.619   3.947  0.0368 -1.2104 -0.2842
 5359SOL    HW227711   0.705   1.691   4.064 -1.6197  0.7745 -1.0308
 5360SOL     OW27712   0.208   0.763  10.270 -0.1059  0.2039  0.3174
 5360SOL    HW127713   0.168   0.837  10.224 -1.2770  0.8917  2.4752
 5360SOL    HW227714   0.280   0.797  10.322 -0.1077  0.3424  0.2278
 5361SOL     OW27715   4.424   1.730   4.845 -0.4382  0.0709 -0.6805
 5361SOL    HW127716   4.515   1.723   4.873  0.0852  2.1982 -1.8621
 5361SOL    HW227717   4.398   1.640   4.866 -0.8026  0.1457 -0.8132
 5362SOL     OW27718   3.876   3.888  17.162  0.2271  0.0691 -0.3008
 5362SOL    HW127719   3.828   3.840  17.095 -0.0993 -1.7548  1.2294
 5362SOL    HW227720   3.956   3.843  17.134 -0.7590 -2.0046  0.2331
 5363SOL     OW27721   4.084   4.323  15.760  0.4890  0.6444  0.4423
 5363SOL    HW127722   4.034   4.357  15.685  1.6357 -0.2877 -0.7369
 5363SOL    HW227723   4.137   4.251  15.727  0.9258  0.2717  1.9538
 5364SOL     OW27724   3.778   1.590   3.267  0.1762  0.1780  0.3431
 5364SOL    HW127725   3.723   1.669   3.271  0.6206  0.4153  1.7883
 5364SOL    HW227726   3.723   1.527   3.314 -0.4847 -0.3536 -1.1428
 5365SOL     OW27727   1.872   3.675   7.492 -0.0370  0.1017 -0.4008
 5365SOL    HW127728   1.931   3.612   7.534 -0.2286 -0.7175 -1.3627
 5365SOL    HW227729   1.792   3.624   7.496 -0.9404  1.7944  3.1089
 5366SOL     OW27730   3.685   2.589  12.160 -0.5094  0.0384 -0.0747
 5366SOL    HW127731   3.635   2.543  12.092  0.1834  2.1436 -1.9822
 5366SOL    HW227732   3.625   2.599  12.235  1.6317  4.1573  1.0467
 5367SOL     OW27733   2.724   1.574   9.403  0.2331  0.3519  0.0667
 5367SOL    HW127734   2.781   1.570   9.326  0.8634 -1.1968  0.6186
 5367SOL    HW227735   2.664   1.503   9.381  0.5720 -0.5120  1.9745
 5368SOL     OW27736   4.188   1.861   7.217 -0.0264 -0.2056  0.0728
 5368SOL    HW127737   4.267   1.807   7.224  1.5288  2.1161  0.6190
 5368SOL    HW227738   4.190   1.910   7.135  0.0695  0.8644  0.7189
 5369SOL     OW27739   0.663   2.813   8.048 -0.2741 -0.1459 -0.2446
 5369SOL    HW127740   0.612   2.882   8.005  0.0144  0.6688  0.7049
 5369SOL    HW227741   0.726   2.861   8.102 -0.4702  0.0581 -0.1949
 5370SOL     OW27742   2.913   1.262   5.801  0.3090 -0.5515  0.0959
 5370SOL    HW127743   2.985   1.203   5.824  0.4637  0.2645  1.7099
 5370SOL    HW227744   2.837   1.210   5.827  1.4231 -1.2176  2.0920
 5371SOL     OW27745   2.299   1.740   6.190  0.0033  0.0294 -0.2408
 5371SOL    HW127746   2.345   1.688   6.124  1.1526  1.7222 -0.7540
 5371SOL    HW227747   2.352   1.818   6.203  0.0651 -0.0735  0.1379
 5372SOL     OW27748   2.449   4.439   7.832  0.3328 -0.1285 -0.0538
 5372SOL    HW127749   2.533   4.402   7.859  0.0447 -0.9171 -0.2356
 5372SOL    HW227750   2.389   4.365   7.833  2.1558 -1.5854  0.6656
 5373SOL     OW27751   4.048   1.309   8.651  0.6177 -0.2574  0.0004
 5373SOL    HW127752   3.966   1.271   8.684 -1.2215  2.7919 -1.1301
 5373SOL    HW227753   4.019   1.393   8.615 -1.1203  1.0070  4.3876
 5374SOL     OW27754   0.099   3.999   5.506 -0.4482  0.5692 -0.1853
 5374SOL    HW127755   0.187   3.972   5.481 -1.1493  0.0770 -2.1068
 5374SOL    HW227756   0.047   3.924   5.476  1.2355  0.7813 -3.6208
 5375SOL     OW27757   4.389   0.535   9.780 -0.0161  0.0485  0.6475
 5375SOL    HW127758   4.395   0.441   9.794 -3.9123 -0.7272 -2.8463
 5375SOL    HW227759   4.433   0.550   9.696 -0.4554 -1.2933  0.1823
 5376SOL     OW27760   4.537   4.473   0.763  0.3327  0.4299  0.5322
 5376SOL    HW127761   4.549   4.568   0.761 -0.6032  0.5621  0.8149
 5376SOL    HW227762   4.581   4.441   0.685  2.5545  0.8441  1.6358
 5377SOL     OW27763   0.537   4.063   9.727  0.1777 -0.6263 -0.1143
 5377SOL    HW127764   0.553   4.083   9.819 -0.5386 -0.1150 -0.1018
 5377SOL    HW227765   0.442   4.077   9.719  0.3006  0.5620  0.6072
 5378SOL     OW27766   1.412   3.693   0.315 -0.1048  0.0815 -0.0073
 5378SOL    HW127767   1.402   3.636   0.240 -1.5542  0.8017 -0.3630
 5378SOL    HW227768   1.407   3.782   0.281  1.3863 -0.0397 -0.5632
 5379SOL     OW27769   0.368   2.540  10.317  0.2206 -0.8018  0.1275
 5379SOL    HW127770   0.286   2.587  10.333 -1.2536 -2.7813 -1.5506
 5379SOL    HW227771   0.348   2.491  10.237 -0.9028 -1.0876  0.5757
 5380SOL     OW27772   1.697   4.482  10.649 -0.2308  0.1872  0.3360
 5380SOL    HW127773   1.726   4.399  10.686 -0.5651 -0.0916 -0.0303
 5380SOL    HW227774   1.652   4.441  10.576  0.1859 -1.1996  0.8544
 5381SOL     OW27775   4.703   3.165   5.727  0.4392  0.3769  0.5217
 5381SOL    HW127776   0.030   3.143   5.794 -0.4476  1.4645  1.7336
 5381SOL    HW227777   4.691   3.075   5.699  0.6537 -0.4612  3.1754
 5382SOL     OW27778   0.287   4.591  10.892  0.3552  0.1701  0.7083
 5382SOL    HW127779   0.350   4.526  10.923 -0.1502  0.6267  2.7276
 5382SOL    HW227780   0.255   4.637  10.970 -0.4218  1.3797 -0.3319
 5383SOL     OW27781   0.292   4.727   5.003 -0.3256 -0.1502  0.0564
 5383SOL    HW127782   0.314   4.642   5.041  0.1873 -0.1648 -0.2609
 5383SOL    HW227783   0.321   4.718   4.912 -0.2921  0.9007 -0.0321
 5384SOL     OW27784   3.874   2.543  11.024  0.0861 -0.1663 -0.0044
 5384SOL    HW127785   3.841   2.520  10.937  0.6540 -1.7224  0.1739
 5384SOL    HW227786   3.794   2.578  11.063  1.1010 -1.2548  3.1084
 5385SOL     OW27787   1.477   2.104  17.510 -0.2007  0.0775  0.5431
 5385SOL    HW127788   1.493   2.041  17.581  2.0373  1.2020  1.0442
 5385SOL    HW227789   1.394   2.072  17.476  0.7950 -0.6460 -1.2119
 5386SOL     OW27790   3.047   0.326  14.461 -0.0822  0.1967  0.3030
 5386SOL    HW127791   3.109   0.302  14.529  1.1742 -2.8218 -1.9269
 5386SOL    HW227792   2.966   0.277  14.477 -0.6945  0.1514 -3.0102
 5387SOL     OW27793   3.061   1.700   5.364 -0.3826  0.3990  0.2861
 5387SOL    HW127794   3.144   1.719   5.319  0.4676 -0.7150  1.3888
 5387SOL    HW227795   3.100   1.666   5.444  1.5108 -1.9528 -1.6465
 5388SOL     OW27796   3.175   0.492   9.045  0.5336  0.3624 -0.0535
 5388SOL    HW127797   3.118   0.485   8.968 -0.2798 -0.2194  0.6103
 5388SOL    HW227798   3.250   0.447   9.006 -0.0977 -0.9412  0.2460
 5389SOL     OW27799   2.492   1.174   8.630 -0.1590 -0.4228 -0.0572
 5389SOL    HW127800   2.557   1.181   8.699 -1.5261 -2.7251  1.4627
 5389SOL    HW227801   2.533   1.107   8.575  2.8665  1.6930 -0.3592
 5390SOL     OW27802   3.132   2.617   5.345  0.1075 -0.3390 -0.0347
 5390SOL    HW127803   3.077   2.572   5.410  0.3129 -0.0421  0.3482
 5390SOL    HW227804   3.124   2.705   5.382 -0.1070  0.4124 -1.9042
 5391SOL     OW27805   4.100   4.620   6.172  0.0630 -0.3484  0.4600
 5391SOL    HW127806   4.090   4.668   6.253 -1.1513  2.1460 -1.1807
 5391SOL    HW227807   4.013   4.621   6.132 -0.0157  1.3095  0.6806
 5392SOL     OW27808   0.803   3.900   3.804  0.1350 -0.1198 -0.4049
 5392SOL    HW127809   0.796   3.844   3.726 -2.1833 -0.1840 -0.1484
 5392SOL    HW227810   0.896   3.893   3.827  0.3810  3.2828 -0.4172
 5393SOL     OW27811   4.306   1.519   7.728 -0.5505 -0.1074 -0.3191
 5393SOL    HW127812   4.385   1.483   7.687 -0.2247  0.2485 -0.0112
 5393SOL    HW227813   4.273   1.451   7.786 -1.1803  0.7904  0.3834
 5394SOL     OW27814   1.564   4.110   1.033  0.0741  0.1987  0.2620
 5394SOL    HW127815   1.512   4.116   0.953  0.0436 -1.9872  0.1021
 5394SOL    HW227816   1.557   4.198   1.070  1.8409 -0.8398  3.0972
 5395SOL     OW27817   2.102   3.736  16.961  0.0367  0.3203  0.0752
 5395SOL    HW127818   2.178   3.698  17.005  0.8347 -2.4244 -3.7098
 5395SOL    HW227819   2.083   3.808  17.021 -0.3382 -0.5054  0.9371
 5396SOL     OW27820   1.013   3.100   6.443  0.2590 -0.6387  0.1721
 5396SOL    HW127821   0.987   3.170   6.383  1.4845 -2.4065 -2.4037
 5396SOL    HW227822   0.932   3.050   6.456 -1.6516  2.0150 -1.4325
 5397SOL     OW27823   1.519   0.845  15.194 -0.3811  0.0380  0.1783
 5397SOL    HW127824   1.443   0.891  15.159 -0.1782 -0.0637 -0.4023
 5397SOL    HW227825   1.555   0.789  15.125 -0.4331  3.9176 -2.9691
 5398SOL     OW27826   1.165   3.455   3.867  0.2543  0.0720 -0.7188
 5398SOL    HW127827   1.123   3.369   3.866  3.1256 -1.3271  0.0294
 5398SOL    HW227828   1.171   3.473   3.961 -0.5059 -1.4391 -0.3735
 5399SOL     OW27829   2.561   1.126  16.657 -0.1130 -0.8464  0.0334
 5399SOL    HW127830   2.577   1.107  16.750 -0.5756 -2.4098 -0.2055
 5399SOL    HW227831   2.489   1.073  16.622  0.2221  0.9445 -3.3558
 5400SOL     OW27832   2.036   2.055   8.192  0.2707 -0.1836  0.2122
 5400SOL    HW127833   1.943   2.056   8.169  0.5229 -0.2685 -0.8089
 5400SOL    HW227834   2.038   2.034   8.285 -0.2408  0.1211  0.2909
 5401SOL     OW27835   3.572   4.680   6.882 -0.3559 -0.6416 -0.1557
 5401SOL    HW127836   3.558   0.035   6.863  1.1270 -0.6779 -1.4336
 5401SOL    HW227837   3.488   4.641   6.859 -1.1821  1.5375 -0.8408
 5402SOL     OW27838   0.214   2.597   4.523  0.8021  0.7182  0.0165
 5402SOL    HW127839   0.179   2.508   4.528  2.1120  0.2570  1.0301
 5402SOL    HW227840   0.221   2.617   4.617  2.3710  0.3744 -0.0310
 5403SOL     OW27841   2.055   4.005   9.759 -0.4024 -0.0908 -0.0313
 5403SOL    HW127842   2.121   3.940   9.738 -0.6955  0.3652 -2.4008
 5403SOL    HW227843   2.107   4.084   9.746  0.1772 -0.9027 -2.7400
 5404SOL     OW27844   0.304   3.053   0.449 -0.0687  0.1917 -0.4268
 5404SOL    HW127845   0.355   3.037   0.370  1.6279  1.9126  0.3365
 5404SOL    HW227846   0.302   3.149   0.452 -0.7139  0.1431  0.6754
 5405SOL     OW27847   1.162   0.806   2.380  0.5939  0.2546 -0.0212
 5405SOL    HW127848   1.230   0.849   2.328  1.8960 -0.4041  1.1486
 5405SOL    HW227849   1.215   0.743   2.429 -1.3372 -0.7296  0.7959
 5406SOL     OW27850   3.247   3.862   4.447  0.3095  0.0481 -0.1301
 5406SOL    HW127851   3.326   3.841   4.397  0.2218  1.1869 -0.7542
 5406SOL    HW227852   3.238   3.793   4.512  5.1106 -0.8760 -0.4662
 5407SOL     OW27853   4.035   0.446   5.250 -0.1898  0.1596  0.6531
 5407SOL    HW127854   4.123   0.474   5.225 -0.1766  0.9570  1.6082
 5407SOL    HW227855   3.980   0.470   5.174 -0.4180 -0.1041  0.7368
 5408SOL     OW27856   3.519   0.403   9.063  0.7071  0.0971  0.4241
 5408SOL    HW127857   3.530   0.308   9.068 -1.3999 -0.3806 -3.8285
 5408SOL    HW227858   3.471   0.410   9.145 -0.3965 -0.3854 -0.1878
 5409SOL     OW27859   0.076   0.946  10.118  0.2903  0.1842  0.2256
 5409SOL    HW127860   0.098   0.969  10.028  4.9498 -1.4725  0.9120
 5409SOL    HW227861   4.732   0.898  10.108 -0.3416  0.6547  2.9683
 5410SOL     OW27862   2.176   3.757  17.655 -0.3762  0.7688 -0.4828
 5410SOL    HW127863   2.190   3.665  17.678  0.7263  1.3696  1.2550
 5410SOL    HW227864   2.147   3.749  17.564  1.6735 -0.0098 -1.0658
 5411SOL     OW27865   2.490   4.059  16.416  0.3951 -0.4415  0.0595
 5411SOL    HW127866   2.425   4.065  16.345  0.7865 -0.3803 -0.2950
 5411SOL    HW227867   2.426   4.061  16.487 -0.2528  1.2851 -0.5656
 5412SOL     OW27868   1.879   0.479  11.465  0.4912 -0.0091 -0.7344
 5412SOL    HW127869   1.938   0.550  11.491  0.4166 -0.5259  0.8794
 5412SOL    HW227870   1.940   0.406  11.471  1.8612  1.1253 -0.9326
 5413SOL     OW27871   3.449   3.025   7.420 -0.8320 -0.4282  0.8018
 5413SOL    HW127872   3.441   3.071   7.503 -1.5321  0.6572  0.1362
 5413SOL    HW227873   3.373   2.967   7.418 -1.8644  0.9677 -0.6057
 5414SOL     OW27874   2.500   0.669   6.932  0.0599  0.0697 -0.2227
 5414SOL    HW127875   2.565   0.673   6.861  1.9715  0.1498  1.5300
 5414SOL    HW227876   2.435   0.732   6.902  1.1164  0.4797 -1.6566
 5415SOL     OW27877   1.360   2.842   0.494  0.5363  0.4669  0.2501
 5415SOL    HW127878   1.374   2.827   0.400  2.1357 -1.0611  0.7448
 5415SOL    HW227879   1.298   2.771   0.510  0.7011  0.2743  0.0143
 5416SOL     OW27880   1.382   3.095   3.360  1.0181  0.0629  0.0434
 5416SOL    HW127881   1.319   3.105   3.431  1.8366 -2.8001  1.1589
 5416SOL    HW227882   1.319   3.094   3.288 -1.2472  0.4602  2.0275
 5417SOL     OW27883   4.447   3.951   9.005  0.0178  0.0351  0.2749
 5417SOL    HW127884   4.407   3.909   9.081  0.1209 -2.4577 -1.0493
 5417SOL    HW227885   4.496   3.876   8.972 -0.5132  0.1883 -0.8607
 5418SOL     OW27886   0.330   1.766   3.611 -0.7870  0.2879  0.8124
 5418SOL    HW127887   0.398   1.698   3.607 -0.1458  0.9677  0.2406
 5418SOL    HW227888   0.303   1.749   3.702  1.9630 -1.4826  1.3131
 5419SOL     OW27889   1.517   0.433  16.977  0.2723  0.1291 -0.1406
 5419SOL    HW127890   1.525   0.350  17.023  0.1708  0.4718  0.4892
 5419SOL    HW227891   1.610   0.443  16.955  0.1914  0.2365 -0.4334
 5420SOL     OW27892   3.134   3.060   3.610  0.4221 -0.3074 -0.1409
 5420SOL    HW127893   3.109   2.970   3.633 -2.5048  0.1342 -1.5010
 5420SOL    HW227894   3.173   3.092   3.690 -0.6023 -1.9184  1.0132
 5421SOL     OW27895   1.328   2.707   2.325  0.0400  0.1586  0.0954
 5421SOL    HW127896   1.238   2.686   2.300 -0.5704  2.4583  0.3859
 5421SOL    HW227897   1.358   2.789   2.285  1.4332 -1.3313 -1.9496
 5422SOL     OW27898   2.250   3.631   5.797  0.2517 -0.0494  0.3301
 5422SOL    HW127899   2.187   3.671   5.858 -0.4145  1.7485 -1.5414
 5422SOL    HW227900   2.200   3.568   5.744 -3.7015  1.7792  1.8563
 5423SOL     OW27901   0.267   3.889  15.936  0.0822  0.1806 -0.0220
 5423SOL    HW127902   0.352   3.933  15.945 -0.6647  1.2581  1.7310
 5423SOL    HW227903   0.290   3.807  15.893  1.6189  0.9874 -0.7703
 5424SOL     OW27904   1.280   0.593  14.743 -0.6851  0.3080  0.6105
 5424SOL    HW127905   1.218   0.661  14.771  0.1522  0.5846  1.8020
 5424SOL    HW227906   1.365   0.637  14.739 -1.2090  1.3874  1.1148
 5425SOL     OW27907   3.601   0.816   0.132  0.4119  0.1834 -0.2681
 5425SOL    HW127908   3.609   0.757   0.207 -2.8247 -2.1946 -1.7796
 5425SOL    HW227909   3.548   0.888   0.166 -0.6574 -2.2268  3.1568
 5426SOL     OW27910   0.459   1.577   3.027 -0.5955 -0.2668 -0.3307
 5426SOL    HW127911   0.459   1.553   3.120 -0.4774  1.2675  0.0562
 5426SOL    HW227912   0.402   1.651   3.008  0.6562  0.2737 -1.9419
 5427SOL     OW27913   0.873   1.536  12.279 -0.4737  0.0096  0.3739
 5427SOL    HW127914   0.840   1.599  12.343 -2.1102 -1.6492  1.1644
 5427SOL    HW227915   0.877   1.462  12.340  3.3764 -0.6297 -0.6440
 5428SOL     OW27916   3.348   3.361  17.552  0.2603  0.3946  0.2211
 5428SOL    HW127917   3.293   3.397  17.623 -0.2060  0.9344 -0.4147
 5428SOL    HW227918   3.415   3.428  17.540 -1.1946  1.8185  0.0376
 5429SOL     OW27919   1.406   0.594   4.567  0.0031  0.6307 -0.0054
 5429SOL    HW127920   1.468   0.663   4.592  0.6879 -0.1336  0.3829
 5429SOL    HW227921   1.465   0.525   4.539 -0.4236  1.3438 -2.6307
 5430SOL     OW27922   4.618   2.055   3.073 -0.4330  0.2380  0.4893
 5430SOL    HW127923   4.640   1.984   3.012  0.9719 -0.2769  1.5859
 5430SOL    HW227924   4.534   2.027   3.109 -0.8622  0.5447 -0.2694
 5431SOL     OW27925   0.167   3.577   5.468 -0.4927 -0.8075  0.1327
 5431SOL    HW127926   0.076   3.573   5.441 -0.5943  0.9358  0.2687
 5431SOL    HW227927   0.177   3.489   5.504  0.0111 -1.5240 -1.7522
 5432SOL     OW27928   0.083   1.793  15.943  0.2775 -0.3140  0.1343
 5432SOL    HW127929   0.009   1.735  15.924 -0.3864  0.8123 -0.6952
 5432SOL    HW227930   0.052   1.874  15.904  1.9958  1.2429  2.0395
 5433SOL     OW27931   3.976   2.826  15.229  0.2478 -0.2780 -0.2396
 5433SOL    HW127932   3.989   2.823  15.135 -0.9789 -0.1436 -0.4209
 5433SOL    HW227933   4.064   2.812  15.263 -0.6302 -0.1397  2.0974
 5434SOL     OW27934   1.551   4.673   8.008 -0.3299  0.2750 -0.5189
 5434SOL    HW127935   1.571   4.595   8.061 -0.8707 -1.0297 -2.2505
 5434SOL    HW227936   1.555   4.650   7.916 -0.4621  1.6870 -0.8756
 5435SOL     OW27937   3.793   2.615   6.553 -0.0548 -0.2498  0.1266
 5435SOL    HW127938   3.727   2.554   6.518  2.4182 -1.8037 -1.8127
 5435SOL    HW227939   3.764   2.706   6.549  2.0769  0.4067 -0.4209
 5436SOL     OW27940   1.578   3.333   4.814 -0.0910 -0.3003  0.5652
 5436SOL    HW127941   1.648   3.305   4.755 -0.0625  1.0763 -0.0556
 5436SOL    HW227942   1.525   3.257   4.793 -2.2045  1.3275  0.0035
 5437SOL     OW27943   4.492   3.775  11.886  0.2808 -0.4853  0.5692
 5437SOL    HW127944   4.578   3.799  11.921  0.4059  2.0914 -1.5600
 5437SOL    HW227945   4.516   3.683  11.877  3.7675  0.5411 -0.5706
 5438SOL     OW27946   0.944   0.111   8.759  0.0167 -0.8350  0.0440
 5438SOL    HW127947   1.035   0.130   8.783  0.4417  1.1711 -3.0137
 5438SOL    HW227948   0.895   0.190   8.782  1.4375 -0.4803  1.8726
 5439SOL     OW27949   2.922   0.287   3.703  0.1755  0.2233  0.4905
 5439SOL    HW127950   2.990   0.339   3.744 -1.1721  0.8075  1.9765
 5439SOL    HW227951   2.905   0.348   3.631  0.4086  1.8492  1.8337
 5440SOL     OW27952   1.041   3.001   7.499 -0.2478 -0.0433 -0.3003
 5440SOL    HW127953   1.097   3.075   7.523  0.2829 -0.8040  0.8330
 5440SOL    HW227954   1.051   3.000   7.404  0.2689  3.1781 -0.2864
 5441SOL     OW27955   3.322   0.020   8.899  0.2810  0.0809 -0.3305
 5441SOL    HW127956   3.378   4.690   8.862  1.8123  1.1215  0.0728
 5441SOL    HW227957   3.247   4.708   8.931  1.0889 -1.0321 -0.1858
 5442SOL     OW27958   2.827   2.053   9.622  0.3198  0.0236 -0.3510
 5442SOL    HW127959   2.762   2.011   9.565 -0.6066  0.3025  0.4881
 5442SOL    HW227960   2.849   1.987   9.687  1.5488  0.2622 -0.5363
 5443SOL     OW27961   2.865   3.205   2.706 -0.0028  0.1575 -0.4549
 5443SOL    HW127962   2.881   3.115   2.678  1.5719  0.8511 -1.7992
 5443SOL    HW227963   2.777   3.204   2.743  0.4973  0.0305  0.7121
 5444SOL     OW27964   2.299   1.595   9.342 -0.3633 -0.1048 -0.5387
 5444SOL    HW127965   2.308   1.664   9.408 -1.4588  0.3797 -0.8864
 5444SOL    HW227966   2.206   1.573   9.341  0.0043 -1.7286  0.0077
 5445SOL     OW27967   0.245   2.962   6.801 -0.6744  0.2693 -0.3193
 5445SOL    HW127968   0.299   2.969   6.722  1.0398 -0.7388  0.7543
 5445SOL    HW227969   0.280   2.889   6.852 -0.3510  0.1625 -0.6872
 5446SOL     OW27970   4.724   0.587   2.307 -0.3052  0.0282 -0.2853
 5446SOL    HW127971   4.676   0.664   2.340  1.6938  0.4971  1.5346
 5446SOL    HW227972   0.060   0.638   2.273 -1.4872  0.9809 -1.4294
 5447SOL     OW27973   2.139   4.238   2.413  0.0264 -0.1583  0.0097
 5447SOL    HW127974   2.104   4.179   2.479  1.3692 -0.5426  0.3651
 5447SOL    HW227975   2.061   4.252   2.359  0.1679  1.7980  0.3022
 5448SOL     OW27976   0.845   0.332   7.840 -0.1255  0.2309 -0.1731
 5448SOL    HW127977   0.830   0.413   7.888  3.4378  1.0396 -0.4084
 5448SOL    HW227978   0.756   0.313   7.812 -0.7495  0.5859  1.5465
 5449SOL     OW27979   0.336   3.920  12.141  0.1104 -0.7783  0.4005
 5449SOL    HW127980   0.394   3.848  12.114  1.7484  0.4265  0.6794
 5449SOL    HW227981   0.384   3.960  12.214  1.3520 -1.3251 -0.1064
 5450SOL     OW27982   0.957   3.503   2.339 -0.0636 -0.5862  0.5706
 5450SOL    HW127983   0.910   3.578   2.375  2.0107  2.2186 -2.5015
 5450SOL    HW227984   0.919   3.496   2.251  0.3364 -1.0789  0.4375
 5451SOL     OW27985   3.357   4.360  15.435 -0.0387  0.4810  0.9482
 5451SOL    HW127986   3.405   4.342  15.354 -0.0739 -1.1091  1.2932
 5451SOL    HW227987   3.343   4.455  15.427  1.0904  0.5569 -0.1533
 5452SOL     OW27988   4.591   4.656   2.654 -0.3107 -1.0008  0.1370
 5452SOL    HW127989   4.651   4.729   2.636 -3.6183  1.8034  0.4530
 5452SOL    HW227990   4.505   4.697   2.657 -0.3426 -1.0109 -0.6741
 5453SOL     OW27991   2.887   4.136   7.743 -0.1432  0.4786 -0.3643
 5453SOL    HW127992   2.961   4.173   7.792  0.3429 -0.5018 -0.3644
 5453SOL    HW227993   2.816   4.199   7.757  0.2252  0.3495  2.0867
 5454SOL     OW27994   0.864   4.328   2.936  0.4681  0.1189  0.1587
 5454SOL    HW127995   0.787   4.300   2.886  0.3316 -1.5565  1.2870
 5454SOL    HW227996   0.869   4.255   2.998  0.7947 -0.7769 -0.9106
 5455SOL     OW27997   1.635   2.940   8.719 -0.2358 -0.2374  0.3389
 5455SOL    HW127998   1.542   2.920   8.726  0.0315 -0.8529  2.1666
 5455SOL    HW227999   1.666   2.887   8.645 -2.0937 -0.4291 -0.2974
 5456SOL     OW28000   3.920   0.815  10.348  0.3770  0.2855 -0.1846
 5456SOL    HW128001   3.914   0.908  10.371 -0.7990 -0.1493  1.2536
 5456SOL    HW228002   3.970   0.822  10.266 -0.8204 -0.0512 -0.9440
 5457SOL     OW28003   0.130   3.038   5.984 -0.3534 -0.7190  0.1662
 5457SOL    HW128004   0.179   2.975   5.931  1.7903  3.5446 -2.9417
 5457SOL    HW228005   0.194   3.073   6.047  0.9674 -3.2238  0.2041
 5458SOL     OW28006   4.261   3.573   7.302 -0.4629  0.0907 -0.3324
 5458SOL    HW128007   4.207   3.513   7.354  3.5181 -2.8043  0.4141
 5458SOL    HW228008   4.347   3.541   7.327 -0.5385  0.3494  0.2647
 5459SOL     OW28009   2.243   1.162   2.580  0.2038 -0.4826  0.3028
 5459SOL    HW128010   2.159   1.162   2.626  0.4440 -0.7054  0.7419
 5459SOL    HW228011   2.238   1.072   2.547  0.2104 -0.3823  0.0206
 5460SOL     OW28012   2.560   4.403   1.918 -0.1266  0.1639  0.2130
 5460SOL    HW128013   2.653   4.407   1.939  0.1554 -2.5984 -0.4328
 5460SOL    HW228014   2.540   4.309   1.918  0.7474  0.0018 -2.3740
 5461SOL     OW28015   1.231   0.497  17.600  0.4718 -0.3681 -0.1306
 5461SOL    HW128016   1.266   0.517  17.687 -0.4885 -0.3614  0.2603
 5461SOL    HW228017   1.191   0.580  17.577  0.4285 -0.3124  0.1422
 5462SOL     OW28018   2.966   3.865   4.456 -0.1616 -0.0336 -0.0044
 5462SOL    HW128019   2.968   3.849   4.550 -0.1138 -0.6849 -0.1178
 5462SOL    HW228020   3.007   3.784   4.425 -0.2407 -0.4450  0.9887
 5463SOL     OW28021   0.366   3.218   4.740  0.3630 -0.0082  0.2007
 5463SOL    HW128022   0.372   3.312   4.760 -0.3073  0.5423 -2.2559
 5463SOL    HW228023   0.314   3.198   4.818 -0.1600 -1.0637 -0.4339
 5464SOL     OW28024   3.637   2.727   8.410  0.1869 -0.4390 -0.2655
 5464SOL    HW128025   3.721   2.734   8.455 -0.1042 -0.5973  0.2957
 5464SOL    HW228026   3.579   2.770   8.472 -1.2828 -0.0936 -1.8833
 5465SOL     OW28027   1.513   2.545  13.548 -0.0172  0.6850  0.1824
 5465SOL    HW128028   1.455   2.511  13.481  0.2423  0.7331 -0.0691
 5465SOL    HW228029   1.521   2.638  13.526 -3.0775  0.5777 -1.3952
 5466SOL     OW28030   4.526   3.098   4.336  0.0558  0.1849 -0.2779
 5466SOL    HW128031   4.449   3.066   4.291 -0.8289  1.2790  0.4635
 5466SOL    HW228032   4.499   3.083   4.427 -1.5142  3.1011 -0.2635
 5467SOL     OW28033   4.138   3.166   9.402 -0.2166  0.5223 -0.0089
 5467SOL    HW128034   4.176   3.089   9.444  0.8195  1.1600  0.2538
 5467SOL    HW228035   4.209   3.230   9.394 -0.7852  1.3925  1.8652
 5468SOL     OW28036   4.236   1.786   8.738  0.1491 -0.1692 -0.5791
 5468SOL    HW128037   4.171   1.743   8.682 -1.6444 -0.4791  1.7166
 5468SOL    HW228038   4.169   1.836   8.785  0.5763  0.3677 -0.5436
 5469SOL     OW28039   2.625   3.215   2.879  0.2130  0.5394 -0.4840
 5469SOL    HW128040   2.619   3.127   2.914  0.6878  0.0378 -1.6555
 5469SOL    HW228041   2.636   3.262   2.961  0.1234 -0.7791  0.2791
 5470SOL     OW28042   1.740   1.842  15.053 -1.0734 -0.9926  0.3508
 5470SOL    HW128043   1.644   1.844  15.051 -0.9770  0.6945 -1.9082
 5470SOL    HW228044   1.760   1.913  14.992  0.5413 -2.1897 -0.5050
 5471SOL     OW28045   3.718   2.094   8.678  0.5132  0.2900 -0.2010
 5471SOL    HW128046   3.664   2.120   8.753 -2.5228 -2.6331 -1.3688
 5471SOL    HW228047   3.706   1.999   8.682  0.2989  0.2096 -2.8800
 5472SOL     OW28048   3.937   3.749   3.788  0.3934 -0.2877  0.5881
 5472SOL    HW128049   3.924   3.661   3.754  0.3478 -0.5802  1.3786
 5472SOL    HW228050   3.969   3.725   3.875 -1.8485 -0.0048  1.4926
 5473SOL     OW28051   3.838   4.417   8.281 -0.2791 -0.2376  0.5357
 5473SOL    HW128052   3.753   4.380   8.300 -0.4397  0.3590  0.9761
 5473SOL    HW228053   3.868   4.361   8.209 -0.2597  0.7750 -0.2490
 5474SOL     OW28054   2.250   2.391   6.911 -0.0287 -0.0743 -0.0691
 5474SOL    HW128055   2.329   2.419   6.957  1.4801 -1.4473 -1.8506
 5474SOL    HW228056   2.276   2.374   6.820  2.1722 -2.1240  0.9476
 5475SOL     OW28057   1.209   3.647   9.056 -0.4743 -0.3017 -0.0751
 5475SOL    HW128058   1.300   3.617   9.054 -0.4591 -0.3021  0.7298
 5475SOL    HW228059   1.202   3.671   8.963 -0.2985  3.1676  0.8290
 5476SOL     OW28060   4.234   3.546   3.435  0.2216  0.2904 -0.3122
 5476SOL    HW128061   4.187   3.474   3.392 -1.2178  1.1077 -0.1099
 5476SOL    HW228062   4.266   3.498   3.511  3.9528  0.8830 -1.5454
 5477SOL     OW28063   4.421   1.393   7.043  0.2690 -0.1265  0.3191
 5477SOL    HW128064   4.386   1.389   6.954 -0.4254  1.6049  0.5146
 5477SOL    HW228065   4.344   1.419   7.094 -0.9123 -2.8792 -0.0701
 5478SOL     OW28066   4.441   0.646   9.271  0.1387  0.1745 -0.1357
 5478SOL    HW128067   4.416   0.731   9.237  1.7645  1.4836  1.9572
 5478SOL    HW228068   4.536   0.657   9.272 -0.1769  3.1381 -3.2213
 5479SOL     OW28069   4.534   0.654   6.942 -0.4019  0.0599  0.1012
 5479SOL    HW128070   4.582   0.664   6.859  0.3820 -2.1853  0.2993
 5479SOL    HW228071   4.471   0.590   6.912  1.5207 -1.2494 -1.1623
 5480SOL     OW28072   3.601   3.262   5.787 -0.1168 -0.4250 -0.0648
 5480SOL    HW128073   3.636   3.312   5.861 -0.6931  0.4444 -0.3667
 5480SOL    HW228074   3.574   3.340   5.737 -1.5544  0.4851  2.1452
 5481SOL     OW28075   0.173   4.346  16.753 -0.4537 -0.5548  0.0815
 5481SOL    HW128076   0.112   4.307  16.690  1.8060 -1.4511 -1.5146
 5481SOL    HW228077   0.257   4.337  16.708  0.5756  0.2185  1.8538
 5482SOL     OW28078   3.348   0.019   4.186 -0.3155  0.3272 -0.4315
 5482SOL    HW128079   3.425   0.049   4.234 -0.0738 -1.1883  0.1100
 5482SOL    HW228080   3.278   0.038   4.247  1.1275  0.4824  1.1672
 5483SOL     OW28081   0.569   4.287   5.987 -0.7505  0.0563 -0.9210
 5483SOL    HW128082   0.585   4.239   5.905 -0.4019 -3.5496  1.2625
 5483SOL    HW228083   0.530   4.219   6.042 -1.5965  0.8872 -0.5031
 5484SOL     OW28084   2.102   0.999   5.118 -0.1556 -0.1970 -0.8304
 5484SOL    HW128085   2.061   0.936   5.059  0.6189 -2.4172  1.0613
 5484SOL    HW228086   2.050   0.984   5.197 -0.0314  0.1227 -0.6868
 5485SOL     OW28087   1.353   4.362   8.149 -0.5726  0.2194  0.3374
 5485SOL    HW128088   1.275   4.415   8.133 -0.0109  1.3446  1.3681
 5485SOL    HW228089   1.315   4.274   8.153  0.6215 -0.3059  0.3838
 5486SOL     OW28090   4.044   0.935   9.398  0.4121 -0.2196  0.4444
 5486SOL    HW128091   3.997   0.903   9.322  0.5600  1.8708 -0.5312
 5486SOL    HW228092   4.070   0.849   9.430 -1.6592 -1.1719 -0.4644
 5487SOL     OW28093   4.449   3.217   1.357 -0.7374 -0.2035  0.0383
 5487SOL    HW128094   4.511   3.230   1.428  1.2569  0.5568 -1.8297
 5487SOL    HW228095   4.385   3.148   1.374 -1.5600  1.0845  2.1234
 5488SOL     OW28096   3.406   3.659   6.356  0.1151  0.1281  0.5514
 5488SOL    HW128097   3.401   3.651   6.261  1.2411  0.5100  0.4616
 5488SOL    HW228098   3.377   3.750   6.357  0.7191  0.3259 -0.2785
 5489SOL     OW28099   0.121   1.064   8.927 -0.2300 -0.0768 -0.2125
 5489SOL    HW128100   0.099   1.157   8.920 -0.0069  0.0011  0.1000
 5489SOL    HW228101   0.194   1.057   8.866  0.6447  0.5984  0.7487
 5490SOL     OW28102   3.294   1.270   6.915 -0.2281  0.1095 -0.5003
 5490SOL    HW128103   3.329   1.306   6.833  2.1760  2.4522  1.5926
 5490SOL    HW228104   3.331   1.334   6.976  0.4926 -2.0153  1.2602
 5491SOL     OW28105   0.869   4.297  10.183 -0.3924  0.0911 -0.0555
 5491SOL    HW128106   0.783   4.300  10.226  0.3729  2.6725  1.2957
 5491SOL    HW228107   0.877   4.381  10.138 -0.7299  0.0465 -0.2055
 5492SOL     OW28108   4.476   4.410   2.716  0.3730 -0.1359 -0.4051
 5492SOL    HW128109   4.527   4.489   2.702 -1.9739  1.6732  1.2765
 5492SOL    HW228110   4.516   4.375   2.795 -0.9760  2.0897  1.2498
 5493SOL     OW28111   2.873   4.102   5.009  0.4486 -0.3414  0.0815
 5493SOL    HW128112   2.955   4.101   5.058  0.0085  0.2223  0.8216
 5493SOL    HW228113   2.905   4.137   4.925 -0.9161 -0.1447 -0.3613
 5494SOL     OW28114   4.590   3.650   4.274 -0.2525 -0.7109 -0.1691
 5494SOL    HW128115   4.596   3.563   4.233  0.3189 -0.9889  0.5107
 5494SOL    HW228116   4.544   3.625   4.355 -0.4263 -0.6273 -0.2425
 5495SOL     OW28117   1.497   2.332  16.866 -0.1917  0.1111 -0.4722
 5495SOL    HW128118   1.550   2.339  16.945 -0.5294  1.6506 -0.3753
 5495SOL    HW228119   1.448   2.252  16.885  1.8291 -0.3319  2.8052
 5496SOL     OW28120   4.348   1.417   6.317  0.5828  0.5792  0.3838
 5496SOL    HW128121   4.411   1.486   6.338  0.5656  0.0044  2.3560
 5496SOL    HW228122   4.281   1.444   6.380  1.2181  1.3145  0.7416
 5497SOL     OW28123   3.776   2.490   0.657 -0.1899  0.3474  0.3183
 5497SOL    HW128124   3.715   2.422   0.686 -1.2913 -0.6514 -4.3899
 5497SOL    HW228125   3.842   2.423   0.641  0.7081  1.2403  0.2633
 5498SOL     OW28126   0.027   4.494  11.634  0.1509 -0.4989 -0.8544
 5498SOL    HW128127   0.045   4.403  11.612 -1.9368 -1.1051  0.0680
 5498SOL    HW228128   4.701   4.526  11.570 -0.0106 -0.0475 -0.4699
 5499SOL     OW28129   0.828   4.656   3.583 -0.0736  0.2782 -0.3463
 5499SOL    HW128130   0.744   4.701   3.572  1.7955  3.1740 -2.6129
 5499SOL    HW228131   0.789   4.582   3.630  0.3697  1.6564  2.1700
 5500SOL     OW28132   1.458   1.137   3.940  0.1377 -0.2117  0.3067
 5500SOL    HW128133   1.406   1.210   3.907  1.7269  0.2249 -1.2348
 5500SOL    HW228134   1.542   1.184   3.934  0.2533 -0.4351  0.1603
 5501SOL     OW28135   0.411   4.647   6.874  0.0729 -0.3037  0.0955
 5501SOL    HW128136   0.479   4.636   6.940 -0.1663  1.8101  0.7032
 5501SOL    HW228137   0.410   0.004   6.856  1.1714 -0.5803 -1.4128
 5502SOL     OW28138   2.382   4.398  14.511  0.0492 -0.1417 -0.3982
 5502SOL    HW128139   2.391   4.449  14.431  0.7574  0.3650  0.0063
 5502SOL    HW228140   2.330   4.320  14.492  0.6717 -0.9638  1.2041
 5503SOL     OW28141   0.030   3.199   3.894  0.1072  0.7340 -0.1933
 5503SOL    HW128142   4.675   3.208   3.915 -0.1802  1.0790 -1.5855
 5503SOL    HW228143   0.033   3.203   3.798  2.8508 -0.5440 -0.1635
 5504SOL     OW28144   0.276   0.890  14.406 -0.4189 -0.1681  0.2760
 5504SOL    HW128145   0.335   0.824  14.443 -0.9511 -0.5732  0.4008
 5504SOL    HW228146   0.306   0.885  14.315 -0.7282  0.1569  0.1576
 5505SOL     OW28147   1.796   1.164  13.765 -0.0489 -0.1119  0.0233
 5505SOL    HW128148   1.747   1.146  13.845 -1.1314  1.2109 -0.3482
 5505SOL    HW228149   1.766   1.088  13.714 -5.4853  1.9201  0.2807
 5506SOL     OW28150   2.416   1.383   7.638  0.1957  0.1427 -0.3704
 5506SOL    HW128151   2.420   1.316   7.571  0.7200  0.0451 -0.2388
 5506SOL    HW228152   2.488   1.358   7.697  0.0274 -0.1850 -0.3035
 5507SOL     OW28153   3.417   1.518  13.713  0.4770 -0.2001 -0.1272
 5507SOL    HW128154   3.508   1.531  13.738  0.2591  1.8584 -0.4275
 5507SOL    HW228155   3.432   1.495  13.621 -1.7066  0.3603 -0.6280
 5508SOL     OW28156   2.790   0.805  11.148  0.4099 -0.5056  0.7045
 5508SOL    HW128157   2.838   0.722  11.158  2.3339  0.7825  2.0150
 5508SOL    HW228158   2.863   0.866  11.142 -1.0671  1.3497  1.8275
 5509SOL     OW28159   2.751   0.768   1.739  0.6227  0.1686  0.1287
 5509SOL    HW128160   2.750   0.688   1.686  1.1790  0.2827 -0.0507
 5509SOL    HW228161   2.817   0.826   1.702 -0.2907  0.1714 -1.4612
 5510SOL     OW28162   2.634   0.200   8.246 -0.2434  0.1367 -0.0556
 5510SOL    HW128163   2.623   0.157   8.161 -0.4518 -0.6991  0.3889
 5510SOL    HW228164   2.561   0.261   8.247 -1.0473 -0.8121 -0.9849
 5511SOL     OW28165   0.315   2.413   7.608 -0.1928 -0.2701  0.1043
 5511SOL    HW128166   0.270   2.442   7.687  0.0490 -2.0257  0.8732
 5511SOL    HW228167   0.255   2.450   7.543  1.0830 -0.9226 -1.4582
 5512SOL     OW28168   2.822   4.395   1.966 -0.2958 -0.2614 -0.5633
 5512SOL    HW128169   2.869   4.464   1.919 -2.0599  1.0492 -0.3991
 5512SOL    HW228170   2.896   4.344   1.998  2.0732  1.6594 -3.0138
 5513SOL     OW28171   3.212   4.055   6.944  0.7538 -0.0043 -0.4583
 5513SOL    HW128172   3.191   4.000   7.020  0.6232  0.8300  0.1004
 5513SOL    HW228173   3.179   4.006   6.869 -0.7056 -0.0376  0.2100
 5514SOL     OW28174   3.998   1.353   2.874 -0.0157  0.0420  0.9147
 5514SOL    HW128175   4.012   1.269   2.918  0.8664 -0.0959  0.3696
 5514SOL    HW228176   4.089   1.372   2.850 -0.3141  0.3426  0.0208
 5515SOL     OW28177   3.202   3.146   9.587 -0.2907 -0.8167  0.2213
 5515SOL    HW128178   3.170   3.215   9.529  1.2902  1.1765  1.7313
 5515SOL    HW228179   3.178   3.183   9.672  0.8935  0.4540 -0.0010
 5516SOL     OW28180   3.867   0.450   5.032 -0.0720  0.6012  0.5848
 5516SOL    HW128181   3.951   0.433   4.990  0.0991 -1.6258  1.8112
 5516SOL    HW228182   3.823   0.372   4.997 -0.5739  0.7624  0.8596
 5517SOL     OW28183   4.327   1.597   2.885 -0.0476  0.7601  0.2406
 5517SOL    HW128184   4.252   1.644   2.921 -0.3367  0.2010  0.3709
 5517SOL    HW228185   4.311   1.503   2.896  0.4360  1.0200  3.1416
 5518SOL     OW28186   1.493   0.392  12.182 -0.3981  0.8862 -0.1887
 5518SOL    HW128187   1.523   0.462  12.123 -0.6320  0.7137 -0.5130
 5518SOL    HW228188   1.578   0.354  12.205 -1.1882 -1.0461 -0.4568
 5519SOL     OW28189   4.731   2.501   1.448  0.2560 -0.3627 -0.0203
 5519SOL    HW128190   0.036   2.492   1.363  0.5731  1.9609 -0.1098
 5519SOL    HW228191   4.644   2.533   1.425  0.4194 -0.9266 -1.4134
 5520SOL     OW28192   0.385   1.061   8.794  0.4313  0.5823 -0.4750
 5520SOL    HW128193   0.469   1.101   8.817  0.6863  0.5399 -1.3437
 5520SOL    HW228194   0.345   1.146   8.779 -1.4896 -0.0958  0.8124
 5521SOL     OW28195   1.201   1.764   5.408 -0.5019  0.1391  0.1229
 5521SOL    HW128196   1.185   1.859   5.409  3.9670  0.8745 -0.3344
 5521SOL    HW228197   1.198   1.729   5.319  1.0040 -0.9776  0.5212
 5522SOL     OW28198   4.419   1.578   9.231 -0.1332 -0.0954  0.4563
 5522SOL    HW128199   4.424   1.628   9.312  1.4504  0.7998 -0.1889
 5522SOL    HW228200   4.354   1.512   9.253  0.8558 -0.9796  0.7409
 5523SOL     OW28201   2.969   1.090   4.975 -0.1490  0.7809  0.7111
 5523SOL    HW128202   3.008   1.006   4.952  0.1926  0.7588  1.3726
 5523SOL    HW228203   3.006   1.110   5.062  0.1731 -1.9403  1.1981
 5524SOL     OW28204   2.710   4.141   3.181  0.3342  0.2935  0.0907
 5524SOL    HW128205   2.733   4.049   3.172 -0.2468 -0.0468  1.9518
 5524SOL    HW228206   2.639   4.141   3.246 -0.3571  1.6625 -0.6763
 5525SOL     OW28207   4.626   3.832  16.875  0.0434 -0.3651 -0.2645
 5525SOL    HW128208   4.670   3.757  16.915 -1.3054 -1.3713 -0.6804
 5525SOL    HW228209   4.694   3.859  16.813  1.9858 -2.7173  0.8093
 5526SOL     OW28210   3.236   3.870  16.687  0.8991 -0.4083 -0.2310
 5526SOL    HW128211   3.188   3.849  16.768  2.0686  0.3065  0.6430
 5526SOL    HW228212   3.255   3.781  16.658 -0.3369 -1.1087  1.0717
 5527SOL     OW28213   0.729   1.602   8.317 -0.2664  0.8240 -0.2502
 5527SOL    HW128214   0.667   1.637   8.254 -0.3304  3.3203  1.1659
 5527SOL    HW228215   0.792   1.573   8.252 -0.8818 -0.2299 -0.3703
 5528SOL     OW28216   1.110   3.794  11.091  0.3571 -0.1939 -0.4321
 5528SOL    HW128217   1.151   3.834  11.168 -0.4552  1.1188 -0.6652
 5528SOL    HW228218   1.099   3.707  11.128  1.1700 -0.6725 -1.3330
 5529SOL     OW28219   3.675   0.087   7.345 -0.2355  0.1916 -0.1911
 5529SOL    HW128220   3.580   0.082   7.353 -0.0271 -0.6387  1.9857
 5529SOL    HW228221   3.699   0.180   7.342  0.2671  0.0213 -1.3961
 5530SOL     OW28222   1.105   1.655  12.201 -0.2437  0.5603 -0.0080
 5530SOL    HW128223   1.097   1.606  12.119  0.6918 -0.2714  0.4111
 5530SOL    HW228224   1.032   1.611  12.246 -0.4495  0.8912 -0.0110
 5531SOL     OW28225   0.711   2.968  17.745  0.4414 -0.5630 -0.6230
 5531SOL    HW128226   0.721   2.876  17.721 -0.4563 -0.9144  0.3583
 5531SOL    HW228227   0.646   2.981  17.676  2.1259 -0.3778 -2.1523
 5532SOL     OW28228   4.713   3.116   1.458  0.2253  0.2582 -0.1442
 5532SOL    HW128229   4.661   3.052   1.411 -0.7516  0.1853  1.0403
 5532SOL    HW228230   0.030   3.150   1.387  3.8275 -4.1119  0.5859
 5533SOL     OW28231   0.122   0.861   4.117  0.0053 -0.3880  0.1934
 5533SOL    HW128232   0.108   0.773   4.152 -1.8295 -0.2058 -0.0675
 5533SOL    HW228233   0.107   0.918   4.191 -0.9067  2.0918 -1.8988
 5534SOL     OW28234   4.498   1.896  14.417  0.6855 -0.1145  0.6997
 5534SOL    HW128235   4.588   1.864  14.419  0.9225  0.5309  0.2495
 5534SOL    HW228236   4.500   1.962  14.348  1.3314 -1.0915 -0.2213
 5535SOL     OW28237   3.661   3.193   1.713 -0.2504 -0.5389 -0.0723
 5535SOL    HW128238   3.695   3.158   1.796 -1.3359 -0.7554  0.2870
 5535SOL    HW228239   3.657   3.288   1.728  0.0650 -0.5817  0.3000
 5536SOL     OW28240   3.844   4.041  12.916 -0.0038  0.4657  0.5146
 5536SOL    HW128241   3.933   4.035  12.953  0.2739  0.8906 -0.0800
 5536SOL    HW228242   3.854   4.053  12.822  0.2614 -2.6205  0.1659
 5537SOL     OW28243   3.093   3.874   6.764 -0.4739  0.6035  0.0767
 5537SOL    HW128244   3.025   3.814   6.733  0.1196 -0.9861  1.9160
 5537SOL    HW228245   3.150   3.804   6.795  1.6569  1.5033 -1.7552
 5538SOL     OW28246   2.475   2.780   7.692 -0.0647 -0.1779  0.5570
 5538SOL    HW128247   2.418   2.850   7.660  0.2117 -0.8958 -1.5158
 5538SOL    HW228248   2.473   2.808   7.783  0.2869  1.8696 -0.0567
 5539SOL     OW28249   2.988   0.176   8.595 -0.1394 -0.2563 -0.7000
 5539SOL    HW128250   2.937   0.205   8.519 -2.4635 -1.6373  0.3312
 5539SOL    HW228251   2.937   0.098   8.619  0.7675 -0.8866 -0.8311
 5540SOL     OW28252   3.686   3.033  10.106 -0.1181 -0.0026 -1.0055
 5540SOL    HW128253   3.746   2.965  10.135 -0.6273  1.8613  4.3034
 5540SOL    HW228254   3.701   3.035  10.011 -0.1941 -0.1465 -1.0203
 5541SOL     OW28255   2.135   1.076  14.754 -0.0772  0.5404  0.1070
 5541SOL    HW128256   2.209   1.116  14.708 -0.6910  2.2495  0.6004
 5541SOL    HW228257   2.104   1.146  14.811 -2.1492 -1.4993  1.5050
 5542SOL     OW28258   0.641   0.373   7.188  0.0933  0.3944  0.6714
 5542SOL    HW128259   0.570   0.388   7.250 -0.7817  0.2048 -0.2917
 5542SOL    HW228260   0.712   0.415   7.236  0.9123  0.8988 -0.9807
 5543SOL     OW28261   0.168   4.099  15.478 -0.5142 -0.1438  0.6778
 5543SOL    HW128262   0.106   4.153  15.428  0.1080  0.6898  0.8034
 5543SOL    HW228263   0.143   4.112  15.570  0.0203  1.7326  0.5685
 5544SOL     OW28264   3.906   1.715   5.380  0.0491 -0.3419 -0.1509
 5544SOL    HW128265   3.861   1.799   5.375 -3.6756 -2.3674 -0.7338
 5544SOL    HW228266   3.995   1.749   5.374  0.1955 -0.3138  2.3170
 5545SOL     OW28267   4.445   3.720   3.623 -0.1999 -0.1126 -0.3346
 5545SOL    HW128268   4.464   3.720   3.717  1.7386  0.4519 -0.7254
 5545SOL    HW228269   4.506   3.651   3.595  1.2941  1.4649 -0.9199
 5546SOL     OW28270   1.639   0.068   1.850  0.7531 -0.4901  0.6603
 5546SOL    HW128271   1.558   0.030   1.816  0.0567  2.3211 -0.8341
 5546SOL    HW228272   1.694   0.038   1.778 -1.4019 -2.7914 -0.0328
 5547SOL     OW28273   4.596   2.549   5.115  0.1227 -0.2450  0.5603
 5547SOL    HW128274   4.520   2.605   5.105 -1.3653 -2.3358  0.1270
 5547SOL    HW228275   4.616   2.576   5.204  0.6557 -0.6488  0.5673
 5548SOL     OW28276   4.734   1.951   9.094 -0.2361 -0.9871 -0.0225
 5548SOL    HW128277   4.645   1.986   9.093 -0.2962 -1.1092  1.1420
 5548SOL    HW228278   0.029   1.965   9.006  0.2576  0.4742  0.3889
 5549SOL     OW28279   2.707   1.443   1.764  0.3851 -0.3163 -0.4400
 5549SOL    HW128280   2.726   1.457   1.857  0.0238  0.5997 -0.5065
 5549SOL    HW228281   2.622   1.486   1.759  0.8322  0.7153  0.6156
 5550SOL     OW28282   1.298   4.378   1.317 -0.0553  0.6783 -0.1516
 5550SOL    HW128283   1.344   4.295   1.306 -0.2938  0.7572 -1.7747
 5550SOL    HW228284   1.210   4.341   1.331 -0.6991  1.9804 -0.7259
 5551SOL     OW28285   3.285   0.147   8.656 -0.5607 -0.3086  0.2121
 5551SOL    HW128286   3.296   0.119   8.747 -0.1123 -0.7207  0.0357
 5551SOL    HW228287   3.190   0.144   8.645 -0.3243  0.5311 -2.1511
 5552SOL     OW28288   2.823   2.679  15.512  0.0670 -0.6832  0.1879
 5552SOL    HW128289   2.739   2.725  15.515  0.7335  0.5839 -0.0909
 5552SOL    HW228290   2.806   2.633  15.429 -0.6264 -0.5266  0.2437
 5553SOL     OW28291   2.388   1.641   8.877  0.2714 -0.2781 -0.6681
 5553SOL    HW128292   2.416   1.612   8.964  0.3020 -0.9018 -0.8820
 5553SOL    HW228293   2.471   1.650   8.830  0.0187  3.7255 -0.2922
 5554SOL     OW28294   2.845   1.186   2.655  0.0155  0.2780 -0.2953
 5554SOL    HW128295   2.819   1.256   2.595 -1.5628 -1.0559 -1.1597
 5554SOL    HW228296   2.797   1.113   2.616  0.4488  0.9777 -2.1303
 5555SOL     OW28297   2.109   2.483   3.362 -0.0111 -0.0263 -0.2289
 5555SOL    HW128298   2.195   2.522   3.378 -0.1223 -0.1151  0.5822
 5555SOL    HW228299   2.063   2.557   3.322 -1.3561 -0.0625  1.2724
 5556SOL     OW28300   1.253   2.427  12.579  0.4498 -0.0190  0.3607
 5556SOL    HW128301   1.234   2.481  12.655  1.4950 -2.0708  2.0650
 5556SOL    HW228302   1.331   2.385  12.615  1.0498 -0.0995 -1.0356
 5557SOL     OW28303   1.436   1.027  12.192  0.4674  0.2110  0.3595
 5557SOL    HW128304   1.393   0.990  12.269 -0.4529 -0.3771 -0.4410
 5557SOL    HW228305   1.395   0.984  12.117 -1.1729 -0.0824  1.4223
 5558SOL     OW28306   2.377   2.554   3.673  0.1754  0.8420  0.0598
 5558SOL    HW128307   2.354   2.465   3.698  1.0685  0.3114 -1.0119
 5558SOL    HW228308   2.472   2.560   3.685  0.2112 -1.8783  1.0962
 5559SOL     OW28309   1.879   0.241   9.318 -0.4724  0.4381 -0.1581
 5559SOL    HW128310   1.859   0.287   9.236 -0.0352 -0.4773 -0.7789
 5559SOL    HW228311   1.793   0.216   9.351  0.6327 -0.0485  2.3366
 5560SOL     OW28312   0.706   4.118  14.463 -0.6858  0.1280 -0.0154
 5560SOL    HW128313   0.635   4.161  14.511 -0.2612  0.3070  0.4477
 5560SOL    HW228314   0.746   4.193  14.420  0.6647  0.2391  1.4220
 5561SOL     OW28315   2.797   0.612   8.700 -0.0228  0.0163 -0.3095
 5561SOL    HW128316   2.738   0.655   8.763  1.2375  1.3126 -0.0113
 5561SOL    HW228317   2.737   0.540   8.681  0.2357 -0.2123 -0.2676
 5562SOL     OW28318   1.472   2.423  13.800  0.3693 -0.2976  0.3661
 5562SOL    HW128319   1.484   2.472  13.719  1.0318  1.9726  1.8383
 5562SOL    HW228320   1.386   2.386  13.780  1.0367 -1.3673 -0.5109
 5563SOL     OW28321   0.243   3.475   6.706  0.5660 -0.2271 -0.1827
 5563SOL    HW128322   0.239   3.385   6.739 -2.8014 -0.1139 -0.3127
 5563SOL    HW228323   0.337   3.493   6.716  0.5567  0.7843 -2.0089
 5564SOL     OW28324   2.852   3.380   6.204 -0.2020 -0.0497 -0.3482
 5564SOL    HW128325   2.921   3.317   6.187 -2.0930 -2.1832 -0.1563
 5564SOL    HW228326   2.779   3.329   6.240 -2.7919  2.9514 -1.3408
 5565SOL     OW28327   2.961   1.188   4.169 -0.2730  0.0575  0.3848
 5565SOL    HW128328   3.002   1.236   4.241  2.5066  1.4136 -2.0823
 5565SOL    HW228329   3.035   1.194   4.108 -0.4058 -0.4561  0.1763
 5566SOL     OW28330   1.082   4.355  16.652  0.9851  0.1669 -0.6009
 5566SOL    HW128331   1.101   4.434  16.704  1.2877 -0.1652 -0.2084
 5566SOL    HW228332   0.989   4.360  16.633  0.3283 -3.3703  1.7067
 5567SOL     OW28333   4.367   2.410   3.205  0.1112  0.7174  0.3764
 5567SOL    HW128334   4.284   2.449   3.178  0.7007  2.7006  1.4257
 5567SOL    HW228335   4.347   2.343   3.270 -0.8278 -0.5499 -1.2035
 5568SOL     OW28336   2.796   0.674   5.843 -0.8879 -0.1257  0.0505
 5568SOL    HW128337   2.874   0.638   5.800 -0.9132  1.1437 -1.0600
 5568SOL    HW228338   2.745   0.594   5.845  1.2368 -1.4842  0.6719
 5569SOL     OW28339   2.158   2.397   8.288  0.0567  0.0807 -0.1007
 5569SOL    HW128340   2.227   2.339   8.254  0.7168  1.4095 -1.0190
 5569SOL    HW228341   2.192   2.413   8.376 -0.0855  0.4966 -0.1255
 5570SOL     OW28342   1.136   3.526   8.487 -0.3271  0.3710 -1.0212
 5570SOL    HW128343   1.170   3.615   8.499 -0.4302  0.1398  0.9516
 5570SOL    HW228344   1.077   3.520   8.561  1.2256 -2.2194  0.0179
 5571SOL     OW28345   1.214   1.774  14.896 -0.3786  0.1066  0.0356
 5571SOL    HW128346   1.250   1.827  14.825 -0.1642  2.5542  1.9619
 5571SOL    HW228347   1.126   1.808  14.909  0.2974  1.5904  0.6888
 5572SOL     OW28348   0.906   1.022   5.298  0.5124  0.2816  0.3315
 5572SOL    HW128349   0.861   0.943   5.267  1.5698 -0.1479 -0.1343
 5572SOL    HW228350   0.946   1.053   5.217 -0.1014  0.7107  0.1905
 5573SOL     OW28351   3.331   0.713   9.658  0.2013  0.0681  0.1122
 5573SOL    HW128352   3.297   0.773   9.592 -2.0084  0.2329  1.3936
 5573SOL    HW228353   3.404   0.763   9.694  0.4686 -0.5975  0.5033
 5574SOL     OW28354   1.788   4.664   8.466 -0.1709 -0.6307  0.1205
 5574SOL    HW128355   1.709   4.688   8.514 -0.9883 -0.7960 -1.1294
 5574SOL    HW228356   1.840   0.001   8.495  0.3846 -0.7996 -0.4433
 5575SOL     OW28357   4.249   0.684  17.032  0.3348 -0.5347  0.4257
 5575SOL    HW128358   4.333   0.725  17.048 -0.2072  0.3672  0.9199
 5575SOL    HW228359   4.263   0.654  16.942 -2.4437  0.4078 -0.3273
 5576SOL     OW28360   0.666   0.374   7.503  0.6068 -0.1788  0.3899
 5576SOL    HW128361   0.688   0.296   7.554  0.1706 -1.5263 -1.4688
 5576SOL    HW228362   0.574   0.367   7.477  0.5950  1.0903  0.0963
 5577SOL     OW28363   3.591   4.442  12.234 -0.1354  0.5633  0.5903
 5577SOL    HW128364   3.506   4.476  12.206  0.9647  2.3630 -0.5829
 5577SOL    HW228365   3.592   4.460  12.328 -2.1402  0.0328  0.6980
 5578SOL     OW28366   1.555   3.649   8.292  0.6570 -0.1490 -0.2750
 5578SOL    HW128367   1.508   3.624   8.371  0.6957  0.6250 -0.0002
 5578SOL    HW228368   1.643   3.616   8.312  0.9476 -0.9887 -2.8351
 5579SOL     OW28369   2.108   2.217  17.288  0.2659 -0.3326  0.3584
 5579SOL    HW128370   2.138   2.127  17.276 -1.5885 -0.8981 -0.0829
 5579SOL    HW228371   2.136   2.242  17.376 -1.2394 -1.0719  1.0439
 5580SOL     OW28372   0.270   0.354   6.543  0.6922 -0.1947  0.1771
 5580SOL    HW128373   0.331   0.421   6.511 -0.8912  0.3219 -1.7995
 5580SOL    HW228374   0.194   0.409   6.562 -0.6736 -1.6535 -1.1269
 5581SOL     OW28375   2.375   0.245   8.220 -0.7873 -0.4542 -0.8672
 5581SOL    HW128376   2.377   0.177   8.153 -1.5554 -0.2516 -1.1018
 5581SOL    HW228377   2.282   0.261   8.206 -1.0570 -2.1431 -1.0265
 5582SOL     OW28378   2.898   3.557   5.272 -0.0327  0.0853 -0.2150
 5582SOL    HW128379   2.909   3.624   5.340 -1.2299  0.3244 -0.2572
 5582SOL    HW228380   2.809   3.529   5.292  0.8246 -1.4013  1.5549
 5583SOL     OW28381   3.663   2.752   8.123  0.8764  0.7088 -0.3447
 5583SOL    HW128382   3.680   2.660   8.144 -2.4230  0.1826 -0.0248
 5583SOL    HW228383   3.643   2.784   8.211  2.0015  1.2494 -0.2726
 5584SOL     OW28384   0.972   1.952   3.272  0.2096 -0.3164  0.0155
 5584SOL    HW128385   0.952   2.042   3.245 -0.6067 -0.6721 -0.5806
 5584SOL    HW228386   0.954   1.896   3.196 -2.7008  2.1982 -1.1714
 5585SOL     OW28387   2.061   0.155   2.347 -0.3838  0.1641  0.1191
 5585SOL    HW128388   2.137   0.195   2.305 -0.0738 -3.7988 -3.1018
 5585SOL    HW228389   2.062   0.070   2.303  0.4449 -0.5225  1.4520
 5586SOL     OW28390   2.679   1.705   4.156  0.1725  0.3681  0.2887
 5586SOL    HW128391   2.666   1.704   4.061  3.9819 -1.0118 -0.1998
 5586SOL    HW228392   2.770   1.675   4.159  0.1112 -0.1541 -3.3690
 5587SOL     OW28393   3.642   2.288  10.594 -0.1391 -0.2422  0.1288
 5587SOL    HW128394   3.567   2.342  10.618  1.1551  0.7768  1.8896
 5587SOL    HW228395   3.607   2.208  10.633 -1.5358 -0.2568 -1.1201
 5588SOL     OW28396   2.056   0.369   9.637  0.5061 -0.3755  0.1314
 5588SOL    HW128397   2.127   0.391   9.697  0.2377  1.8040 -0.3258
 5588SOL    HW228398   2.106   0.340   9.561  1.6576  2.0428 -0.0463
 5589SOL     OW28399   1.713   3.320   5.913 -0.4660  0.3084  0.2240
 5589SOL    HW128400   1.719   3.415   5.923 -2.5876  0.3314  1.1956
 5589SOL    HW228401   1.701   3.295   6.004 -3.2777 -0.8022 -0.4640
 5590SOL     OW28402   4.700   1.242   0.063  0.1792  0.7593 -0.4944
 5590SOL    HW128403   0.007   1.293  17.745  1.7912 -1.5999 -1.2471
 5590SOL    HW228404   0.003   1.156   0.073 -2.6591 -0.4858  0.3748
 5591SOL     OW28405   3.274   1.379   5.624  0.0099  0.2307  0.6030
 5591SOL    HW128406   3.280   1.453   5.685 -2.1647  2.5900 -2.0365
 5591SOL    HW228407   3.303   1.306   5.679 -4.0970 -1.3461  0.6859
 5592SOL     OW28408   2.877   4.441   3.412  0.1863 -0.0654 -0.1021
 5592SOL    HW128409   2.931   4.362   3.409  0.7865  0.3182  0.7659
 5592SOL    HW228410   2.878   4.469   3.321 -1.2250 -2.9296 -1.0018
 5593SOL     OW28411   4.550   1.665  10.802  0.4464  0.4739  0.1092
 5593SOL    HW128412   4.521   1.577  10.826  0.2538  0.4698 -0.1391
 5593SOL    HW228413   4.644   1.650  10.808  0.6591  1.5547 -0.4901
 5594SOL     OW28414   2.509   2.666   6.868 -0.0611  0.2948 -0.6843
 5594SOL    HW128415   2.438   2.651   6.806 -0.2697 -0.3239 -0.2980
 5594SOL    HW228416   2.489   2.608   6.942 -2.3904  1.5194 -0.3359
 5595SOL     OW28417   2.504   3.458   1.931 -0.2786 -0.5868 -0.1204
 5595SOL    HW128418   2.578   3.511   1.961  0.5007 -1.4815 -0.4438
 5595SOL    HW228419   2.541   3.371   1.915  0.4633 -0.1609 -0.7281
 5596SOL     OW28420   0.148   0.680  14.156 -0.1309  0.2670 -0.4311
 5596SOL    HW128421   0.204   0.670  14.079 -0.7636 -1.5294 -0.6723
 5596SOL    HW228422   0.060   0.674  14.119  1.3658 -0.9340 -3.7736
 5597SOL     OW28423   1.348   4.664   4.900 -0.6717 -0.4481 -0.5056
 5597SOL    HW128424   1.402   4.706   4.833  1.0070 -0.5840  0.7780
 5597SOL    HW228425   1.325   4.581   4.858 -0.3983 -0.6247 -0.3051
 5598SOL     OW28426   0.018   1.506  12.415  0.1691  0.1763 -0.0065
 5598SOL    HW128427   4.703   1.457  12.478 -1.5535  1.6929 -0.2611
 5598SOL    HW228428   0.095   1.450  12.410 -0.3525 -0.5215 -0.0710
 5599SOL     OW28429   2.440   3.684  11.853  0.1336 -0.0224 -0.0499
 5599SOL    HW128430   2.521   3.723  11.885  0.8404 -2.4083  1.0846
 5599SOL    HW228431   2.466   3.646  11.769 -1.6916  0.5845 -0.8825
 5600SOL     OW28432   3.670   4.329   4.320  0.8301 -0.1990  0.3799
 5600SOL    HW128433   3.712   4.253   4.280 -0.0303 -0.2804 -0.3638
 5600SOL    HW228434   3.579   4.303   4.306  0.0262  1.5118  2.2688
 5601SOL     OW28435   1.047   2.062   4.509  0.2839  0.0456  0.7750
 5601SOL    HW128436   1.072   2.131   4.447 -0.6976  0.5732  0.9700
 5601SOL    HW228437   1.108   1.990   4.494 -1.6704 -1.3494 -0.5962
 5602SOL     OW28438   0.795   0.178   0.621 -0.4342 -0.3643  0.3912
 5602SOL    HW128439   0.841   0.262   0.631 -0.7529 -0.0770 -0.6355
 5602SOL    HW228440   0.849   0.140   0.552 -0.5352  3.2224 -1.6760
 5603SOL     OW28441   4.706   3.252  16.297  0.1967  0.0279  0.0291
 5603SOL    HW128442   0.052   3.222  16.331  1.3470  0.0282 -2.8418
 5603SOL    HW228443   4.707   3.208  16.212  0.9636  1.0879 -0.5128
 5604SOL     OW28444   4.155   2.708   4.739  0.2054  0.2161  0.5013
 5604SOL    HW128445   4.200   2.631   4.774  2.0208  1.1017  0.0988
 5604SOL    HW228446   4.146   2.676   4.649 -2.4331  2.7177 -0.1449
 5605SOL     OW28447   4.619   0.603   4.407 -0.1164  0.6397  0.0001
 5605SOL    HW128448   4.649   0.564   4.489 -1.8639  0.5624  0.5908
 5605SOL    HW228449   4.686   0.562   4.353  0.4495  3.0733 -1.1611
 5606SOL     OW28450   3.500   2.521   6.820  0.0041 -0.3571  0.4127
 5606SOL    HW128451   3.441   2.537   6.893 -1.0881  1.2253 -0.8206
 5606SOL    HW228452   3.464   2.441   6.782  2.7238 -1.1638 -0.4804
 5607SOL     OW28453   0.926   4.318   4.255 -0.5015 -0.2285 -0.1343
 5607SOL    HW128454   0.979   4.347   4.328 -4.5947 -0.1171  2.7951
 5607SOL    HW228455   0.893   4.397   4.212  1.4101  1.6433  1.8122
 5608SOL     OW28456   2.153   4.386  13.315 -0.1241 -0.0956  0.2229
 5608SOL    HW128457   2.149   4.448  13.242 -0.5947  0.0810  0.4005
 5608SOL    HW228458   2.226   4.428  13.361  0.9756 -0.0742 -1.5513
 5609SOL     OW28459   3.565   3.176  12.395 -0.5696 -0.2866 -0.4488
 5609SOL    HW128460   3.643   3.175  12.338  0.0624  1.0073  0.3926
 5609SOL    HW228461   3.554   3.270  12.407 -2.8744 -0.3402 -2.1729
 5610SOL     OW28462   4.022   4.274   2.228 -0.2001 -0.0258  0.0041
 5610SOL    HW128463   4.004   4.356   2.274 -0.6583 -0.2314  0.1896
 5610SOL    HW228464   3.932   4.244   2.221 -0.0198 -0.3907 -0.8026
 5611SOL     OW28465   2.365   3.576   8.358  0.2160 -0.4046 -0.2765
 5611SOL    HW128466   2.286   3.575   8.304 -0.2114 -1.9036  0.3777
 5611SOL    HW228467   2.332   3.621   8.436  0.7264  1.9475 -1.3983
 5612SOL     OW28468   0.267   3.734   7.401  0.6663 -0.0528  0.0368
 5612SOL    HW128469   0.230   3.729   7.489  1.5428  0.5438  0.4410
 5612SOL    HW228470   0.197   3.789   7.367  0.9913 -0.6049 -1.5026
 5613SOL     OW28471   2.663   2.728  10.164 -0.4311  0.4890  0.1198
 5613SOL    HW128472   2.650   2.800  10.103 -1.8582  0.4978  0.4285
 5613SOL    HW228473   2.590   2.743  10.225 -0.4388  2.7321 -0.4400
 5614SOL     OW28474   1.693   4.426   7.184 -0.8115 -0.2682 -0.0107
 5614SOL    HW128475   1.691   4.482   7.262  1.8753  1.4186 -1.1334
 5614SOL    HW228476   1.785   4.398   7.183 -0.9266 -0.7098  1.9186
 5615SOL     OW28477   0.068   2.916   6.349  0.1094  0.6901 -0.1763
 5615SOL    HW128478   0.162   2.933   6.339  0.2772  0.6573  1.2210
 5615SOL    HW228479   0.063   2.821   6.358  1.9334  0.6205  0.1109
 5616SOL     OW28480   1.120   4.379   6.688 -0.0013  0.4272  0.2696
 5616SOL    HW128481   1.037   4.335   6.705  0.2565  0.0024  0.4531
 5616SOL    HW228482   1.175   4.308   6.656 -0.3601  0.5553 -0.6058
 5617SOL     OW28483   3.144   2.653   2.063 -0.3158 -0.2204 -0.1548
 5617SOL    HW128484   3.112   2.737   2.032  0.3925 -0.3518 -1.2343
 5617SOL    HW228485   3.087   2.651   2.140  1.7197 -2.1129  1.2762
 5618SOL     OW28486   2.371   2.315   7.480  0.1841 -1.1039 -0.1522
 5618SOL    HW128487   2.445   2.329   7.422  0.7682  1.8014  1.2965
 5618SOL    HW228488   2.364   2.404   7.514  2.5657 -1.5619  1.5716
 5619SOL     OW28489   0.980   0.165  15.798  0.1361  0.4443  0.2860
 5619SOL    HW128490   1.034   0.184  15.875  2.8406 -0.9626 -1.2593
 5619SOL    HW228491   0.891   0.196  15.816  0.9582  2.4996  0.7787
 5620SOL     OW28492   1.853   1.615  13.404 -0.2324 -0.1828  0.3220
 5620SOL    HW128493   1.850   1.522  13.428 -1.0201  0.2210  1.8196
 5620SOL    HW228494   1.938   1.616  13.360  0.9701 -1.3628  2.6596
 5621SOL     OW28495   2.786   2.376  13.534 -0.3981  0.7529 -0.1192
 5621SOL    HW128496   2.858   2.413  13.482 -0.9313  3.6315  1.1481
 5621SOL    HW228497   2.764   2.299  13.482 -1.2310  0.6904  0.3285
 5622SOL     OW28498   0.548   0.459  12.437 -0.1664 -0.9701  0.4691
 5622SOL    HW128499   0.610   0.499  12.376  0.0735  1.5072  2.3351
 5622SOL    HW228500   0.468   0.505  12.411  0.3910  0.7364  1.7869
 5623SOL     OW28501   2.464   1.871   3.240  0.2134 -0.6899  0.5591
 5623SOL    HW128502   2.441   1.783   3.270  1.2293 -0.9839  0.4822
 5623SOL    HW228503   2.536   1.899   3.296  2.4993 -3.2774 -1.0457
 5624SOL     OW28504   0.171   1.490   3.159 -0.2201  0.2576  0.1391
 5624SOL    HW128505   0.198   1.575   3.194 -1.8765  0.5746  0.6341
 5624SOL    HW228506   0.178   1.431   3.234  1.4660  1.0882  0.6536
 5625SOL     OW28507   4.088   0.542   3.819  0.5694  0.5579 -0.2032
 5625SOL    HW128508   4.073   0.541   3.914 -1.6958  0.5447 -0.5718
 5625SOL    HW228509   4.183   0.544   3.829  0.5543 -2.2710  0.5220
 5626SOL     OW28510   4.176   0.178   8.039  0.0897 -0.0413 -0.4443
 5626SOL    HW128511   4.124   0.166   7.960  1.8028 -1.4157 -1.3719
 5626SOL    HW228512   4.225   0.097   8.028  2.1037  1.0188  0.6947
 5627SOL     OW28513   2.386   1.747   7.294 -0.4789 -0.0905 -0.2296
 5627SOL    HW128514   2.394   1.685   7.367  2.4762  2.0188  1.2369
 5627SOL    HW228515   2.291   1.749   7.287 -0.5169 -0.0647  0.2766
 5628SOL     OW28516   4.168   1.481   5.174 -0.6832 -0.5296  0.8392
 5628SOL    HW128517   4.147   1.559   5.123 -0.2248 -1.8163 -1.3282
 5628SOL    HW228518   4.176   1.523   5.260 -1.0992 -0.1162  0.6769
 5629SOL     OW28519   3.690   2.909   4.072  0.2571  0.3775  0.2371
 5629SOL    HW128520   3.778   2.908   4.110 -0.6940  1.6493  2.4622
 5629SOL    HW228521   3.641   2.961   4.136 -0.5941  1.1788 -1.0751
 5630SOL     OW28522   0.840   1.875  16.935  0.6256  0.0093  0.1772
 5630SOL    HW128523   0.800   1.921  16.862 -2.8011 -2.3920  0.5561
 5630SOL    HW228524   0.823   1.782  16.921 -1.0745 -0.0898  2.8512
 5631SOL     OW28525   2.329   2.739  15.391 -0.0123 -0.0025 -0.1540
 5631SOL    HW128526   2.277   2.819  15.393  0.5225  0.3134  1.1185
 5631SOL    HW228527   2.298   2.680  15.460 -0.0454  1.0121  0.6947
 5632SOL     OW28528   0.583   1.563   5.660  0.4180  0.4505 -0.0715
 5632SOL    HW128529   0.529   1.541   5.584  1.6096 -0.4012 -0.6678
 5632SOL    HW228530   0.552   1.653   5.675 -2.2878 -0.4860 -0.0515
 5633SOL     OW28531   0.335   4.076   3.402 -0.0552 -0.1106  0.0782
 5633SOL    HW128532   0.248   4.064   3.362  0.2424  1.9044 -1.1450
 5633SOL    HW228533   0.383   4.004   3.361 -0.4047  0.6607 -1.6962
 5634SOL     OW28534   1.116   3.677   4.571 -0.1132 -0.2706 -0.1688
 5634SOL    HW128535   1.022   3.658   4.571 -0.1902  0.0941 -0.7381
 5634SOL    HW228536   1.129   3.737   4.497 -0.9876  0.1356  0.0130
 5635SOL     OW28537   3.697   1.111   7.053 -0.3643 -0.5015  0.2956
 5635SOL    HW128538   3.665   1.201   7.056  1.8578  0.2264  2.3566
 5635SOL    HW228539   3.758   1.120   6.980 -0.7615  0.0541  0.0305
 5636SOL     OW28540   4.104   4.703   3.976 -0.2130 -0.5925 -0.6753
 5636SOL    HW128541   4.033   4.727   3.916 -0.4153 -0.2523 -0.3022
 5636SOL    HW228542   4.169   0.035   3.968  0.7399 -1.2435  1.4089
 5637SOL     OW28543   1.297   0.319   0.329  0.2377 -0.4132  0.0166
 5637SOL    HW128544   1.372   0.258   0.332  0.0818 -0.6720 -1.2332
 5637SOL    HW228545   1.336   0.404   0.349  0.3484 -0.2599 -0.8270
 5638SOL     OW28546   1.874   3.921   1.935  0.9048  0.0061 -0.2011
 5638SOL    HW128547   1.908   3.998   1.889  0.5340 -0.6705 -1.6053
 5638SOL    HW228548   1.878   3.862   1.860  1.8890  0.4886 -0.5361
 5639SOL     OW28549   1.143   4.276  15.549 -0.2736 -0.3507  0.2778
 5639SOL    HW128550   1.066   4.321  15.514 -0.5024 -1.7232 -0.9472
 5639SOL    HW228551   1.202   4.352  15.546 -0.4015 -0.2606  0.0357
 5640SOL     OW28552   2.880   3.626   9.291 -0.6445  0.1751  0.9291
 5640SOL    HW128553   2.889   3.709   9.337 -3.6025  0.6516  0.6930
 5640SOL    HW228554   2.828   3.656   9.216 -0.8877 -0.7973  0.6955
 5641SOL     OW28555   0.092   2.445  15.329 -0.4681  0.2374 -0.4417
 5641SOL    HW128556   0.148   2.508  15.283 -1.0799  0.6702 -0.5916
 5641SOL    HW228557   0.127   2.452  15.418  0.4155 -1.1942 -0.6829
 5642SOL     OW28558   0.046   3.236   0.204 -0.0853  0.2512 -0.2405
 5642SOL    HW128559   0.035   3.245   0.109 -0.4746  1.9726 -0.0239
 5642SOL    HW228560   0.138   3.216   0.218  0.3840  3.0236  0.5706
 5643SOL     OW28561   0.304   0.742   6.988  0.4070  0.7803  0.1995
 5643SOL    HW128562   0.266   0.743   6.900  2.6524  0.8089 -0.7652
 5643SOL    HW228563   0.231   0.771   7.043 -0.2912  0.8172 -0.7483
 5644SOL     OW28564   0.401   2.960   2.612  0.4900 -0.4055 -0.1303
 5644SOL    HW128565   0.334   2.937   2.675  1.4981  0.3674  1.2209
 5644SOL    HW228566   0.398   2.877   2.564  1.2269 -0.5369  0.0498
 5645SOL     OW28567   4.475   2.403   8.477  0.4443  0.4448 -0.6010
 5645SOL    HW128568   4.501   2.363   8.394 -1.1327  1.9864 -1.8518
 5645SOL    HW228569   4.548   2.465   8.488 -0.0449  0.3340  3.1134
 5646SOL     OW28570   3.465   3.706   4.337 -0.1841 -0.4802 -0.1535
 5646SOL    HW128571   3.540   3.665   4.293 -0.6658 -0.1923 -1.2355
 5646SOL    HW228572   3.388   3.680   4.287 -0.7067  1.0770 -0.1639
 5647SOL     OW28573   4.476   1.194   2.776 -0.2549 -0.0913 -0.2732
 5647SOL    HW128574   4.488   1.105   2.809 -0.5129  0.4618  1.3204
 5647SOL    HW228575   4.540   1.182   2.706  1.0725  2.1531  0.5647
 5648SOL     OW28576   0.822   4.169  16.755  0.2446  0.5638  0.0275
 5648SOL    HW128577   0.808   4.168  16.849 -2.0599 -1.3758 -0.3551
 5648SOL    HW228578   0.864   4.084  16.745 -0.7446  0.1142 -0.3058
 5649SOL     OW28579   2.275   4.491   2.861 -0.1165 -0.2725  0.0977
 5649SOL    HW128580   2.199   4.549   2.857 -0.4280 -0.8442 -1.9862
 5649SOL    HW228581   2.234   4.405   2.854  0.2484 -0.4167 -0.2601
 5650SOL     OW28582   3.960   2.179   5.633 -0.8035  0.3638  0.7462
 5650SOL    HW128583   3.935   2.225   5.714  1.8393 -0.0756  1.8176
 5650SOL    HW228584   3.920   2.093   5.648 -0.5283  0.6462  3.1131
 5651SOL     OW28585   3.791   3.114   9.344 -0.3662 -0.5457  0.9717
 5651SOL    HW128586   3.854   3.186   9.353 -1.3721  0.4117  0.4765
 5651SOL    HW228587   3.808   3.054   9.416 -0.4804  0.0097  1.4637
 5652SOL     OW28588   2.549   3.303   2.614 -0.0873 -0.2514  0.0328
 5652SOL    HW128589   2.462   3.342   2.617  0.4016  0.7719  0.8856
 5652SOL    HW228590   2.562   3.271   2.704 -1.3418  0.7580  0.5766
 5653SOL     OW28591   3.625   4.351   8.937  0.1798 -0.5910 -0.2359
 5653SOL    HW128592   3.712   4.345   8.898  0.2314 -0.4963 -0.1353
 5653SOL    HW228593   3.589   4.265   8.958 -3.5324  1.4705  1.7941
 5654SOL     OW28594   2.329   2.813   3.599  0.4148 -0.1332  0.3466
 5654SOL    HW128595   2.251   2.841   3.550  0.6642  1.3565  0.7882
 5654SOL    HW228596   2.295   2.738   3.648 -1.1265 -0.6769 -1.5828
 5655SOL     OW28597   1.165   2.373   4.582 -0.0559 -0.0219  0.4089
 5655SOL    HW128598   1.190   2.439   4.646  2.0340  2.2731 -2.7581
 5655SOL    HW228599   1.247   2.353   4.537 -0.2806 -0.9649  0.4027
 5656SOL     OW28600   3.994   3.577   2.209  0.5270 -0.2507 -0.1212
 5656SOL    HW128601   3.952   3.532   2.282  2.2661 -2.0414 -0.2512
 5656SOL    HW228602   3.923   3.634   2.178  2.6153  1.3700 -1.9141
 5657SOL     OW28603   4.412   1.449   8.964 -0.3405  0.0992  0.0893
 5657SOL    HW128604   4.436   1.485   9.049  0.5926  1.5542 -0.7953
 5657SOL    HW228605   4.360   1.373   8.987 -1.3191  1.3616  2.0175
 5658SOL     OW28606   4.653   0.949   9.302  0.8367  0.4152  0.3117
 5658SOL    HW128607   4.646   0.854   9.296  0.5462  0.3509  1.6290
 5658SOL    HW228608   4.630   0.979   9.214 -0.4621 -0.4214  0.3727
 5659SOL     OW28609   2.627   1.654   5.514  0.2641 -0.2910 -0.2748
 5659SOL    HW128610   2.685   1.646   5.438  1.3549 -2.7886  0.8034
 5659SOL    HW228611   2.693   1.681   5.578  1.6355 -3.0975 -0.4878
 5660SOL     OW28612   4.304   0.914   6.353  0.4902 -0.1798  0.0700
 5660SOL    HW128613   4.293   0.872   6.268  0.8264  2.2415 -1.1497
 5660SOL    HW228614   4.391   0.892   6.387  0.3959  0.3015  0.6132
 5661SOL     OW28615   3.720   1.361   6.005 -0.1453 -0.4784  0.1596
 5661SOL    HW128616   3.712   1.283   5.951 -2.1501 -1.0091  1.2194
 5661SOL    HW228617   3.672   1.321   6.078  0.2605  0.3790  0.9058
 5662SOL     OW28618   1.950   3.892  14.672 -0.0681 -0.0072  0.0689
 5662SOL    HW128619   1.987   3.896  14.584  2.6281  0.7658  1.2246
 5662SOL    HW228620   2.022   3.912  14.732 -0.1913 -1.0662  0.5676
 5663SOL     OW28621   2.266   1.646   6.545 -0.1407  0.2686 -0.2238
 5663SOL    HW128622   2.234   1.630   6.633 -0.4310  0.4860 -0.2881
 5663SOL    HW228623   2.193   1.628   6.486 -1.7923 -1.3906  2.3603
 5664SOL     OW28624   2.348   4.513   8.104  0.2774  0.7808 -0.3223
 5664SOL    HW128625   2.432   4.517   8.150 -1.1315  3.3509  1.9854
 5664SOL    HW228626   2.387   4.521   8.017  1.3153  2.6518  0.3198
 5665SOL     OW28627   0.631   0.771   5.520 -0.4875  0.4933  0.2450
 5665SOL    HW128628   0.587   0.814   5.447  1.2667  0.6677 -0.7092
 5665SOL    HW228629   0.632   0.839   5.587  1.4515  0.7250 -0.0250
 5666SOL     OW28630   1.045   2.438   1.461  0.9478 -0.3809 -0.9307
 5666SOL    HW128631   1.006   2.494   1.395  0.1041 -0.0101 -0.1220
 5666SOL    HW228632   0.985   2.447   1.535 -0.2193 -0.5167 -1.8747
 5667SOL     OW28633   2.039   1.856   7.766  0.2760 -0.3263 -0.0704
 5667SOL    HW128634   2.087   1.928   7.807 -1.3209  0.4330  0.5126
 5667SOL    HW228635   1.959   1.854   7.820 -0.0504 -0.0109 -0.5399
 5668SOL     OW28636   3.353   1.745   2.878  0.1792  0.2152  0.1588
 5668SOL    HW128637   3.387   1.663   2.841 -3.1575 -0.1812 -1.9854
 5668SOL    HW228638   3.277   1.761   2.822 -0.5538  0.2384  1.1760
 5669SOL     OW28639   3.863   2.212   3.576 -0.1539 -0.0062 -0.0624
 5669SOL    HW128640   3.804   2.273   3.532  0.2555  0.5876  0.2110
 5669SOL    HW228641   3.814   2.182   3.653  1.5963 -0.5259  0.8599
 5670SOL     OW28642   1.105   0.987   9.073 -0.2616  0.3943 -0.0338
 5670SOL    HW128643   1.067   1.062   9.121  1.0764  1.9161 -1.3477
 5670SOL    HW228644   1.070   0.991   8.984 -0.7939  1.1662  0.2028
 5671SOL     OW28645   0.279   2.159  17.178 -0.7973 -0.1840  0.1530
 5671SOL    HW128646   0.332   2.180  17.255 -0.6334 -0.5827  0.1504
 5671SOL    HW228647   0.290   2.244  17.134  0.7184  0.9447  2.7188
 5672SOL     OW28648   2.570   2.699   8.114  0.1414  0.0759 -0.2996
 5672SOL    HW128649   2.550   2.683   8.207  0.2853  0.5542 -0.1854
 5672SOL    HW228650   2.651   2.650   8.101 -0.1208 -0.7787  1.3258
 5673SOL     OW28651   4.086   2.950  14.970 -0.4775  0.4752 -0.3624
 5673SOL    HW128652   4.078   3.035  15.013  0.5338  0.1832  0.4124
 5673SOL    HW228653   4.006   2.950  14.917 -0.9375  0.0171  0.3345
 5674SOL     OW28654   2.810   1.461   4.701 -0.1032 -0.0889  0.0433
 5674SOL    HW128655   2.845   1.474   4.613 -0.4467 -0.0253 -0.0864
 5674SOL    HW228656   2.866   1.398   4.747 -0.9569 -0.3735  0.7056
 5675SOL     OW28657   3.298   4.392   8.017 -0.7110  0.1770 -0.1990
 5675SOL    HW128658   3.303   4.464   8.079 -2.3440  1.9415 -2.1464
 5675SOL    HW228659   3.331   4.315   8.065 -1.3800 -1.3362 -2.1443
 5676SOL     OW28660   1.004   4.090   1.661  0.5355 -0.2914  0.0656
 5676SOL    HW128661   0.920   4.074   1.705  0.2871 -1.2910 -0.7940
 5676SOL    HW228662   1.075   4.084   1.725  0.5223  1.0148  0.2156
 5677SOL     OW28663   1.888   2.758  15.513 -0.1383  0.2365 -0.0885
 5677SOL    HW128664   1.976   2.725  15.528 -0.4776 -1.2398 -1.3576
 5677SOL    HW228665   1.857   2.700  15.444 -0.5739  1.6331 -1.0880
 5678SOL     OW28666   2.273   0.476   0.594  0.2461  0.1853  0.1086
 5678SOL    HW128667   2.279   0.382   0.607 -0.1309 -0.0801 -1.7236
 5678SOL    HW228668   2.340   0.505   0.656  0.6725  1.2770 -0.8595
 5679SOL     OW28669   3.140   2.618  16.436 -0.4102  0.0231 -0.1214
 5679SOL    HW128670   3.089   2.537  16.433  1.8128 -1.4171  0.9471
 5679SOL    HW228671   3.199   2.599  16.509 -2.1355  1.2000  1.5758
 5680SOL     OW28672   3.619   1.447   2.528  0.1709  0.3681 -0.4596
 5680SOL    HW128673   3.699   1.479   2.569 -1.4957  2.1869  1.3805
 5680SOL    HW228674   3.577   1.522   2.486  1.5372  2.0490  1.2079
 5681SOL     OW28675   0.082   2.052   3.262  0.3458 -0.2396 -0.1290
 5681SOL    HW128676   0.020   2.073   3.192  0.6381 -2.1284 -0.9318
 5681SOL    HW228677   0.029   1.988   3.310  0.3599 -0.8448 -0.9188
 5682SOL     OW28678   2.919   4.335   4.565  0.4518 -0.3832  0.7010
 5682SOL    HW128679   2.908   4.430   4.568 -2.1043 -0.6406  0.0558
 5682SOL    HW228680   2.944   4.303   4.479  2.2044  1.1101  0.6500
 5683SOL     OW28681   0.949   2.779   1.645  0.0979 -0.1526  0.0888
 5683SOL    HW128682   0.974   2.782   1.738  2.8018  1.6516 -0.6987
 5683SOL    HW228683   0.929   2.687   1.629  0.3440 -0.0121 -0.9673
 5684SOL     OW28684   3.430   1.008   2.029  0.2513 -0.0969  0.3574
 5684SOL    HW128685   3.377   1.087   2.022  1.7175  0.7017 -1.9171
 5684SOL    HW228686   3.377   0.953   2.087  0.5599 -0.1622  0.5802
 5685SOL     OW28687   0.561   3.311  14.843 -0.9547 -0.1755  0.6415
 5685SOL    HW128688   0.524   3.356  14.767  0.7936 -0.1142 -0.1858
 5685SOL    HW228689   0.556   3.379  14.909  0.2548 -0.2152  0.7829
 5686SOL     OW28690   1.000   3.534  15.433  0.5538  0.6220 -0.2510
 5686SOL    HW128691   1.062   3.605  15.416  1.1278 -0.3956 -2.3891
 5686SOL    HW228692   0.937   3.579  15.490 -0.8696 -1.4077 -0.2384
 5687SOL     OW28693   1.294   2.602   4.710 -0.2804 -0.2917 -0.3046
 5687SOL    HW128694   1.211   2.648   4.719  0.3657  0.7985  0.0616
 5687SOL    HW228695   1.355   2.671   4.684  0.9044 -0.5768  1.6999
 5688SOL     OW28696   0.097   3.792   5.301 -0.1201 -0.2404 -0.5326
 5688SOL    HW128697   0.103   3.719   5.362  0.5998  1.1337  1.0402
 5688SOL    HW228698   0.121   3.739   5.225  2.4695  0.0900  0.0739
 5689SOL     OW28699   3.098   2.943  13.972 -0.9709 -0.0379  0.2700
 5689SOL    HW128700   3.030   3.010  13.958 -1.5071 -0.8776 -1.1032
 5689SOL    HW228701   3.107   2.949  14.067  1.3173 -2.7271  0.2067
 5690SOL     OW28702   3.324   2.256   8.561 -0.0630  0.1201  0.5392
 5690SOL    HW128703   3.415   2.265   8.532  0.2336  1.9577  2.0065
 5690SOL    HW228704   3.282   2.317   8.502  0.1357  0.9691  1.2705
 5691SOL     OW28705   1.340   4.107   4.058  0.6258 -0.1318 -0.5724
 5691SOL    HW128706   1.286   4.177   4.095 -0.9249 -1.6417  0.0704
 5691SOL    HW228707   1.399   4.160   4.005  0.3017 -1.5036 -2.3182
 5692SOL     OW28708   0.329   3.985   5.231 -0.5334  0.3042 -0.1686
 5692SOL    HW128709   0.354   4.071   5.197 -3.1110  0.8301 -0.7646
 5692SOL    HW228710   0.258   3.953   5.175 -0.2725 -1.9418  0.7848
 5693SOL     OW28711   2.025   2.351   6.276  0.0940  0.5057 -0.5969
 5693SOL    HW128712   1.980   2.435   6.274  1.1014  1.0129 -2.0741
 5693SOL    HW228713   1.981   2.300   6.344  0.8138  0.9136  0.1741
 5694SOL     OW28714   2.710   0.156   2.557 -0.1888  0.2067 -0.5900
 5694SOL    HW128715   2.718   0.191   2.469  1.5144  0.3139 -0.3900
 5694SOL    HW228716   2.618   0.163   2.582 -0.4027 -0.2176 -1.2885
 5695SOL     OW28717   0.542   4.161   7.292 -0.6531  0.1056 -0.1013
 5695SOL    HW128718   0.495   4.236   7.328 -0.6797 -0.1363  0.3662
 5695SOL    HW228719   0.625   4.203   7.268  0.5652 -0.8760  2.3816
 5696SOL     OW28720   1.721   3.701   3.404 -0.0842  0.2017 -0.1943
 5696SOL    HW128721   1.636   3.740   3.385  0.3291  2.6159  2.8796
 5696SOL    HW228722   1.741   3.725   3.495  1.3126 -0.4582 -0.3305
 5697SOL     OW28723   2.269   2.266   1.438 -0.7768  0.3429 -0.2108
 5697SOL    HW128724   2.193   2.323   1.429  0.0949  1.6663  0.7750
 5697SOL    HW228725   2.259   2.206   1.365 -1.9484 -1.0242  1.0717
 5698SOL     OW28726   3.963   2.644   6.181  0.4051 -0.8248  0.0636
 5698SOL    HW128727   3.913   2.726   6.186  0.3195 -0.7782 -1.6494
 5698SOL    HW228728   4.021   2.652   6.257 -1.3509  1.4317  1.1716
 5699SOL     OW28729   0.289   0.426   4.480 -0.0717 -0.1215 -0.6530
 5699SOL    HW128730   0.221   0.433   4.413 -0.7076  0.0775  0.0118
 5699SOL    HW228731   0.338   0.507   4.471  0.0450 -0.1908 -0.6382
 5700SOL     OW28732   2.297   1.277   7.930 -0.1737  0.1002 -0.1607
 5700SOL    HW128733   2.216   1.262   7.978 -1.0969  2.0080 -1.1296
 5700SOL    HW228734   2.338   1.191   7.938 -0.3923 -0.1822 -2.0876
 5701SOL     OW28735   4.556   1.142   8.092 -0.2763 -0.0688 -0.8228
 5701SOL    HW128736   4.642   1.145   8.133 -0.2924  0.4302 -0.8176
 5701SOL    HW228737   4.506   1.165   8.171  1.8699  0.2414  0.4676
 5702SOL     OW28738   4.405   4.452   0.285  0.1970  0.1052 -0.0249
 5702SOL    HW128739   4.414   4.540   0.250 -2.5363  0.1935 -0.5350
 5702SOL    HW228740   4.376   4.466   0.375 -0.4753 -0.1817 -0.1938
 5703SOL     OW28741   2.690   0.210  14.175  0.4524 -0.2675 -0.1524
 5703SOL    HW128742   2.735   0.174  14.252 -0.0663 -1.1311 -0.2488
 5703SOL    HW228743   2.645   0.283  14.218 -0.5788 -0.8454 -0.2529
 5704SOL     OW28744   4.330   2.851  14.885 -0.1106  0.8629  0.0257
 5704SOL    HW128745   4.252   2.908  14.886 -0.4998  0.3220  1.0772
 5704SOL    HW228746   4.289   2.768  14.907 -1.6421  2.3605  2.8903
 5705SOL     OW28747   0.028   4.148  13.659  0.5194  0.0718  0.5135
 5705SOL    HW128748   0.109   4.133  13.708  0.8997 -1.2839 -0.5578
 5705SOL    HW228749   0.065   4.224  13.614 -0.1750  0.9106  1.3559
 5706SOL     OW28750   0.845   0.065   7.172 -0.0729 -0.3570  0.4843
 5706SOL    HW128751   0.786   0.047   7.099  2.0353  1.6620 -1.6888
 5706SOL    HW228752   0.895   4.724   7.195  0.6408  0.5456  1.9947
 5707SOL     OW28753   0.417   2.767   3.595  0.4477 -0.5921 -0.1055
 5707SOL    HW128754   0.372   2.791   3.676  0.4202  1.4391 -0.7255
 5707SOL    HW228755   0.462   2.847   3.569  0.1215  0.4924  2.5715
 5708SOL     OW28756   0.582   4.532  17.033  0.4220 -0.6183 -0.1834
 5708SOL    HW128757   0.489   4.544  17.054  0.8574  0.0209  1.3674
 5708SOL    HW228758   0.577   4.437  17.024  0.5005 -0.4402 -2.1490
 5709SOL     OW28759   4.448   3.909   4.251 -0.6825 -0.1603 -0.0529
 5709SOL    HW128760   4.436   3.926   4.157 -0.2033 -0.7966 -0.2238
 5709SOL    HW228761   4.502   3.830   4.254  0.6634  0.8337  1.6548
 5710SOL     OW28762   0.146   0.989   6.154 -0.8396  0.0478 -0.4292
 5710SOL    HW128763   0.228   1.038   6.150  0.0780 -1.3465  1.3282
 5710SOL    HW228764   0.084   1.054   6.121 -1.0111 -0.3698 -0.9204
 5711SOL     OW28765   2.146   1.072   0.962 -0.0262  0.7558  0.3518
 5711SOL    HW128766   2.123   1.043   1.051  1.0438  0.8019  0.6437
 5711SOL    HW228767   2.128   1.166   0.961  0.1423  0.7619 -2.1427
 5712SOL     OW28768   2.994   0.693   9.056 -0.2709 -0.3818  0.1249
 5712SOL    HW128769   2.921   0.651   9.101  0.3110  0.2996  1.6954
 5712SOL    HW228770   3.060   0.626   9.069  0.2415  0.0769 -0.1192
 5713SOL     OW28771   4.239   0.183   4.925 -0.1623 -0.9010 -0.6212
 5713SOL    HW128772   4.284   0.129   4.861  0.1918 -1.9311  0.4973
 5713SOL    HW228773   4.183   0.246   4.880 -3.4550 -2.9352  0.6201
 5714SOL     OW28774   0.562   2.839   8.727  0.3249 -0.6119 -0.0938
 5714SOL    HW128775   0.586   2.903   8.793 -1.2439 -0.3748  0.2558
 5714SOL    HW228776   0.567   2.885   8.644 -2.5257 -2.2991 -1.2196
 5715SOL     OW28777   2.896   2.016   2.529  0.3142  0.1751  0.1431
 5715SOL    HW128778   2.988   2.015   2.503  0.3178 -0.6729  0.1858
 5715SOL    HW228779   2.904   2.063   2.611 -0.6776 -0.0006  0.3424
 5716SOL     OW28780   0.543   4.255   4.927 -0.1511  1.0105  0.1504
 5716SOL    HW128781   0.607   4.203   4.878  0.3055 -0.0459  1.8840
 5716SOL    HW228782   0.604   4.303   4.983  0.9121 -0.2246  0.0592
 5717SOL     OW28783   3.172   1.638   9.691  0.1135  0.2663  0.9223
 5717SOL    HW128784   3.240   1.631   9.758 -0.1348  2.0504  1.3558
 5717SOL    HW228785   3.105   1.681   9.743 -0.4099  0.8697 -0.2410
 5718SOL     OW28786   2.531   2.347  11.257  0.3245  0.4172 -0.1859
 5718SOL    HW128787   2.523   2.321  11.349  1.1101 -1.0035 -0.5184
 5718SOL    HW228788   2.529   2.264  11.211  1.3052 -0.4570  1.3403
 5719SOL     OW28789   4.181   4.322  17.684  0.1059 -0.1895 -0.1646
 5719SOL    HW128790   4.157   4.396  17.629  2.3390 -0.1925 -1.0935
 5719SOL    HW228791   4.183   4.376   0.014  0.0776  2.2698 -1.8531
 5720SOL     OW28792   2.009   0.555   6.015  0.3297 -0.0050 -0.2386
 5720SOL    HW128793   2.038   0.638   5.976  0.8104  0.5937  1.4017
 5720SOL    HW228794   2.052   0.560   6.100  1.5241  2.4577 -0.9981
 5721SOL     OW28795   4.566   3.802  17.320 -0.0807  0.0634 -0.1395
 5721SOL    HW128796   4.630   3.871  17.337  0.3924 -0.4115  0.0018
 5721SOL    HW228797   4.489   3.845  17.356 -0.5627 -1.0959  0.2164
 5722SOL     OW28798   3.556   3.276   2.189  0.0186  0.2190 -0.1810
 5722SOL    HW128799   3.585   3.219   2.259 -1.2291  1.2517  1.1699
 5722SOL    HW228800   3.576   3.218   2.115 -2.9128  1.0293 -1.6067
 5723SOL     OW28801   4.075   2.307   8.341 -0.3024  0.1197 -0.5196
 5723SOL    HW128802   4.085   2.224   8.389 -1.1017  0.2434 -0.1362
 5723SOL    HW228803   4.022   2.270   8.270 -2.1088 -0.3838  1.0639
 5724SOL     OW28804   2.494   1.607   9.149  0.0777  0.4265  0.4555
 5724SOL    HW128805   2.415   1.588   9.199  0.9797  1.2315  2.1763
 5724SOL    HW228806   2.506   1.701   9.164  0.3144  0.3134  0.9791
 5725SOL     OW28807   0.309   3.843   7.894  0.2354  0.1981  0.0998
 5725SOL    HW128808   0.381   3.878   7.842  2.6493 -0.5575  2.8970
 5725SOL    HW228809   0.344   3.765   7.935  2.5522  0.3761 -1.5790
 5726SOL     OW28810   2.876   3.583  12.166  0.0692  0.1371  0.0941
 5726SOL    HW128811   2.910   3.657  12.115 -2.1454  0.4936 -0.8606
 5726SOL    HW228812   2.793   3.623  12.192 -0.6012 -0.8478 -0.5791
 5727SOL     OW28813   3.356   4.629   5.994 -0.2146  0.3468  0.1533
 5727SOL    HW128814   3.270   4.664   5.969 -0.2925 -2.9644 -4.1207
 5727SOL    HW228815   3.414   4.680   5.938  1.2481 -2.8313 -1.2303
 5728SOL     OW28816   0.199   0.710   8.703 -0.6274  0.7323  0.6303
 5728SOL    HW128817   0.234   0.624   8.683  0.5830  1.2697  0.4441
 5728SOL    HW228818   0.248   0.729   8.782  1.7058 -1.7874 -0.2208
 5729SOL     OW28819   4.107   4.680   8.690 -0.4490  0.0132 -0.7644
 5729SOL    HW128820   4.102   4.653   8.598  2.0001 -0.0841 -0.8795
 5729SOL    HW228821   4.138   4.601   8.734  1.0868  0.4420 -1.0846
 5730SOL     OW28822   3.587   4.592   1.406 -0.5995  0.5786  0.7320
 5730SOL    HW128823   3.503   4.624   1.373 -1.4448 -0.4823  1.8548
 5730SOL    HW228824   3.584   4.515   1.350  0.4400  0.5027  0.7930
 5731SOL     OW28825   0.635   4.054   9.973  0.8113 -0.6991 -0.3809
 5731SOL    HW128826   0.630   4.134  10.025  0.1270 -0.5711 -0.6465
 5731SOL    HW228827   0.591   3.991  10.030 -0.4939 -1.0851 -1.8121
 5732SOL     OW28828   0.487   0.775   7.352  0.0549  0.1112  0.4029
 5732SOL    HW128829   0.523   0.806   7.435 -2.4905  1.3330  1.0265
 5732SOL    HW228830   0.432   0.702   7.380 -0.7852  0.0314 -1.4598
 5733SOL     OW28831   1.228   2.420   2.998  0.1043  0.0472 -0.1251
 5733SOL    HW128832   1.171   2.393   2.926  1.3101 -1.1181 -0.6470
 5733SOL    HW228833   1.293   2.350   3.001  0.0431  0.1296  2.7982
 5734SOL     OW28834   1.861   1.176   5.798  0.0015 -0.7087 -0.0073
 5734SOL    HW128835   1.797   1.170   5.869  0.9516 -0.2035  0.9012
 5734SOL    HW228836   1.833   1.261   5.765 -0.9428 -1.3301 -0.7891
 5735SOL     OW28837   2.983   1.450  13.009 -0.3709 -0.3378 -0.8071
 5735SOL    HW128838   3.062   1.466  13.061 -1.2503 -1.1533  0.7945
 5735SOL    HW228839   2.974   1.536  12.968 -3.3541 -0.3860 -0.2819
 5736SOL     OW28840   1.259   0.442  15.417 -0.3995 -0.0423 -0.0228
 5736SOL    HW128841   1.207   0.456  15.338 -0.0548 -1.1168 -0.4330
 5736SOL    HW228842   1.344   0.441  15.374 -0.0433  1.3837  0.6150
 5737SOL     OW28843   0.360   3.241   6.362  0.4559 -0.1142  0.6832
 5737SOL    HW128844   0.293   3.234   6.430  1.1213 -0.4217  1.2966
 5737SOL    HW228845   0.427   3.305   6.388  0.8921 -0.0637 -0.5526
 5738SOL     OW28846   1.949   3.328  17.029 -0.3678 -0.7334 -0.0649
 5738SOL    HW128847   1.974   3.280  16.951  0.8267  1.0529 -0.7635
 5738SOL    HW228848   1.928   3.415  16.994  3.2492 -0.6546 -2.0032
 5739SOL     OW28849   2.327   4.293   3.243 -0.5557 -0.0934  0.0020
 5739SOL    HW128850   2.314   4.214   3.191  2.2543 -0.1879 -0.5255
 5739SOL    HW228851   2.297   4.265   3.329  0.1185 -0.1612  0.2134
 5740SOL     OW28852   1.202   4.182  12.236  0.8300 -0.1906  0.0375
 5740SOL    HW128853   1.153   4.131  12.171  0.4971  0.1990 -0.0198
 5740SOL    HW228854   1.151   4.168  12.316 -1.1875  2.0134 -0.8595
 5741SOL     OW28855   3.611   0.546   1.915  0.1960 -0.5009 -0.5754
 5741SOL    HW128856   3.571   0.569   1.999 -1.5231 -3.1392 -0.6693
 5741SOL    HW228857   3.702   0.573   1.922  0.2012 -0.2325 -1.7686
 5742SOL     OW28858   4.028   4.062  11.636  0.2238  0.1376 -0.6457
 5742SOL    HW128859   4.036   4.007  11.714 -0.0496  2.2431  0.8539
 5742SOL    HW228860   3.945   4.019  11.614 -1.1184  0.6399  3.4164
 5743SOL     OW28861   3.918   0.842   9.166 -0.2767  0.2801 -0.1812
 5743SOL    HW128862   3.933   0.749   9.152  2.1538  0.7901 -0.9571
 5743SOL    HW228863   3.828   0.857   9.138 -1.0231 -1.2684  1.3832
 5744SOL     OW28864   3.581   2.680   1.596  0.3086  0.7066 -0.1486
 5744SOL    HW128865   3.591   2.774   1.611 -1.9491  1.1826 -1.6514
 5744SOL    HW228866   3.497   2.685   1.550  1.1796  0.2708 -1.7711
 5745SOL     OW28867   1.628   1.433  12.488 -0.6310 -0.3338 -0.1913
 5745SOL    HW128868   1.547   1.408  12.443  0.2604  0.3563 -2.1643
 5745SOL    HW228869   1.593   1.483  12.562 -1.2816  0.5788 -1.1098
 5746SOL     OW28870   2.874   3.353   4.792  0.2636 -0.0125  0.1617
 5746SOL    HW128871   2.880   3.423   4.857 -2.3389  0.0674  0.3112
 5746SOL    HW228872   2.783   3.371   4.770  0.4430  0.4048 -0.2238
 5747SOL     OW28873   0.121   1.423   7.619  0.5132 -0.4627 -0.6056
 5747SOL    HW128874   0.071   1.344   7.599 -0.1578 -0.3210  0.4838
 5747SOL    HW228875   0.210   1.393   7.634  1.2588  1.8446 -0.4170
 5748SOL     OW28876   1.227   0.099   2.914 -0.3170  0.2125  0.1401
 5748SOL    HW128877   1.205   0.022   2.862  3.4528 -0.6713 -0.1268
 5748SOL    HW228878   1.155   0.159   2.897 -0.7246 -0.0319  0.9704
 5749SOL     OW28879   4.510   3.953   1.132  0.2814  0.0091 -0.0601
 5749SOL    HW128880   4.540   3.867   1.159  0.6322  0.3541  0.6617
 5749SOL    HW228881   4.567   4.013   1.181 -0.6221 -0.6661  1.7756
 5750SOL     OW28882   2.650   4.015   1.765  0.3071  0.2451 -0.3206
 5750SOL    HW128883   2.640   4.056   1.851 -1.7649  1.0987 -0.9871
 5750SOL    HW228884   2.692   3.931   1.786 -0.2683  0.7370  2.8577
 5751SOL     OW28885   4.018   3.182  11.337 -0.2410 -0.4526 -0.1220
 5751SOL    HW128886   3.942   3.166  11.281 -1.4579  3.4712  0.4547
 5751SOL    HW228887   4.071   3.103  11.322  0.2080 -0.1145 -0.3243
 5752SOL     OW28888   3.330   0.588   7.107 -0.1883 -0.1165 -0.4451
 5752SOL    HW128889   3.242   0.575   7.070 -0.0793 -1.3537 -0.2634
 5752SOL    HW228890   3.364   0.664   7.060  0.3617 -0.6884 -0.9875
 5753SOL     OW28891   0.568   2.861   1.092  0.3703 -0.2650  0.2985
 5753SOL    HW128892   0.531   2.804   1.024  2.0448 -0.8534 -0.1019
 5753SOL    HW228893   0.495   2.847   1.152  0.7835 -2.1607  0.3544
 5754SOL     OW28894   4.363   4.362   2.447 -0.5192 -0.6107 -0.7327
 5754SOL    HW128895   4.380   4.390   2.536  3.4670 -1.1486 -1.3383
 5754SOL    HW228896   4.451   4.344   2.414  0.1428 -0.3839  0.9516
 5755SOL     OW28897   0.379   2.538  15.121  0.1143 -0.1924  0.0786
 5755SOL    HW128898   0.336   2.549  15.036  1.4773 -0.8539 -0.6877
 5755SOL    HW228899   0.333   2.602  15.175 -0.0976 -0.0874 -0.2234
 5756SOL     OW28900   0.797   1.166   6.249 -0.2243 -0.0128  0.1428
 5756SOL    HW128901   0.729   1.197   6.309  0.9236  2.0351  0.3799
 5756SOL    HW228902   0.767   1.177   6.159  1.0662 -1.6466 -0.4913
 5757SOL     OW28903   4.302   3.103   3.981  0.2755 -0.3642  0.4660
 5757SOL    HW128904   4.315   3.066   4.068  0.0669 -0.6578  0.3715
 5757SOL    HW228905   4.367   3.171   3.998 -0.0494 -0.4068  1.8843
 5758SOL     OW28906   1.340   0.062   3.159  0.1133  0.2067  0.5847
 5758SOL    HW128907   1.291   4.727   3.197  2.1272 -1.0318  0.8423
 5758SOL    HW228908   1.281   0.068   3.084 -0.4363 -0.8506  0.9391
 5759SOL     OW28909   1.541   2.585   5.034  0.0414  0.0173  0.5281
 5759SOL    HW128910   1.553   2.641   4.957 -1.2346 -1.3948 -0.6863
 5759SOL    HW228911   1.579   2.504   5.002 -1.3221 -1.2004  2.0213
 5760SOL     OW28912   1.436   3.219  15.450 -0.4985 -0.2449 -0.2564
 5760SOL    HW128913   1.528   3.237  15.432 -0.2586 -2.6584 -1.4462
 5760SOL    HW228914   1.404   3.309  15.445  1.0704  0.2886 -0.5848
 5761SOL     OW28915   2.604   0.255   9.029 -0.7150  0.2493  0.1729
 5761SOL    HW128916   2.554   0.228   8.952 -0.1045  1.7389 -0.7635
 5761SOL    HW228917   2.585   0.178   9.082 -0.8099  0.4736  0.4693
 5762SOL     OW28918   4.502   2.587   1.352  0.0434 -0.1511  0.7644
 5762SOL    HW128919   4.443   2.511   1.348 -2.2882  1.6757  0.2198
 5762SOL    HW228920   4.506   2.608   1.259  1.8821 -0.9682  0.6707
 5763SOL     OW28921   1.452   0.119  15.547  0.8848  0.0740 -0.4201
 5763SOL    HW128922   1.407   0.159  15.622  0.7406  1.1467 -1.0786
 5763SOL    HW228923   1.539   0.110  15.585  1.5370  1.6855 -1.5538
 5764SOL     OW28924   0.259   3.516  13.164  0.0112  0.1147 -0.2286
 5764SOL    HW128925   0.310   3.540  13.087 -0.3954  0.3005 -0.4436
 5764SOL    HW228926   0.212   3.443  13.123  1.1981 -0.1853 -1.0527
 5765SOL     OW28927   0.748   2.623  15.381  0.0962 -0.6384  0.3745
 5765SOL    HW128928   0.794   2.631  15.297  2.7597 -0.6599  1.8352
 5765SOL    HW228929   0.696   2.546  15.358  1.3970 -1.3155 -0.3106
 5766SOL     OW28930   1.933   1.557   3.470 -0.3678  0.2919  0.2134
 5766SOL    HW128931   1.978   1.637   3.444  2.4752 -1.6617 -0.9782
 5766SOL    HW228932   1.842   1.583   3.457 -0.9818 -2.2959 -0.7602
 5767SOL     OW28933   3.915   2.472   4.833  0.2591 -0.2254  0.2626
 5767SOL    HW128934   3.882   2.543   4.777  0.3483 -1.7908 -1.7691
 5767SOL    HW228935   3.989   2.516   4.875  0.2119  1.2596 -1.2213
 5768SOL     OW28936   1.602   0.012  14.482  0.2265  0.4994 -0.1221
 5768SOL    HW128937   1.609   0.039  14.573  0.9158  0.7613 -0.2453
 5768SOL    HW228938   1.568   0.087  14.433  1.7337  0.8917 -0.5846
 5769SOL     OW28939   1.694   0.875   3.463 -0.3475  0.1859  0.1191
 5769SOL    HW128940   1.707   0.782   3.444  2.0998  0.2241  1.5783
 5769SOL    HW228941   1.777   0.915   3.436  0.0227 -0.4437  0.3121
 5770SOL     OW28942   1.293   3.570  17.394 -0.0157  0.0167 -0.6554
 5770SOL    HW128943   1.284   3.475  17.381  1.2325 -0.4498  1.9876
 5770SOL    HW228944   1.259   3.570  17.483  0.1656  1.4707 -0.5981
 5771SOL     OW28945   0.716   0.692   2.521  0.1455 -0.1068 -0.3407
 5771SOL    HW128946   0.787   0.740   2.477  0.0087  0.5761  0.1867
 5771SOL    HW228947   0.658   0.766   2.539  1.6236  0.3403  2.5471
 5772SOL     OW28948   2.846   1.657   1.665 -0.1901 -0.2368 -0.4781
 5772SOL    HW128949   2.797   1.611   1.597 -1.8245  0.5873  0.1327
 5772SOL    HW228950   2.824   1.591   1.731  1.8575  0.3559  0.7839
 5773SOL     OW28951   0.117   3.388  14.158  0.3366 -0.1686  0.2221
 5773SOL    HW128952   0.051   3.332  14.118 -0.1464  1.5729 -1.3911
 5773SOL    HW228953   0.155   3.333  14.227  0.0598 -1.2599 -0.4953
 5774SOL     OW28954   1.226   2.093   3.379  0.2646  0.3002 -0.2656
 5774SOL    HW128955   1.316   2.123   3.392  0.9855 -2.1937  0.3598
 5774SOL    HW228956   1.178   2.133   3.451  1.5836  0.7576  0.3642
 5775SOL     OW28957   0.516   0.620   4.369  0.1335 -0.3654 -0.0197
 5775SOL    HW128958   0.581   0.661   4.426 -1.4920  0.1424  1.4493
 5775SOL    HW228959   0.571   0.559   4.320  1.4855 -0.0905  1.1522
 5776SOL     OW28960   1.030   0.308  17.671 -0.4373  0.5506 -0.4041
 5776SOL    HW128961   1.089   0.377  17.642  1.6345 -0.9334  0.3174
 5776SOL    HW228962   1.078   0.274  17.747  1.0374 -0.0250 -1.6111
 5777SOL     OW28963   3.394   4.177   8.155  0.3156 -0.4789 -1.1976
 5777SOL    HW128964   3.464   4.157   8.217  0.7083 -0.5560 -1.6597
 5777SOL    HW228965   3.382   4.099   8.101  0.7381 -1.2611 -0.1637
 5778SOL     OW28966   1.914   1.412  12.302 -0.0798  0.3021 -0.1093
 5778SOL    HW128967   1.915   1.378  12.391 -0.1821  0.3639 -0.0847
 5778SOL    HW228968   1.828   1.382  12.273 -0.9159  0.0647  2.6158
 5779SOL     OW28969   2.296   2.379   9.630 -0.6528 -0.0276  0.0696
 5779SOL    HW128970   2.213   2.427   9.628 -1.4673 -1.3220  2.3149
 5779SOL    HW228971   2.317   2.385   9.723  3.1087 -1.0550 -0.7147
 5780SOL     OW28972   2.938   3.630   3.680 -0.0157  0.3925 -0.4326
 5780SOL    HW128973   2.925   3.712   3.632 -1.6593  0.1742 -0.3630
 5780SOL    HW228974   2.853   3.587   3.674  0.3137 -0.2536 -0.4105
 5781SOL     OW28975   0.777   2.149   2.209  0.4894 -0.8921  0.3544
 5781SOL    HW128976   0.776   2.120   2.300  2.7008 -2.9417 -0.2771
 5781SOL    HW228977   0.870   2.141   2.190 -0.0065 -6.0483  0.0254
 5782SOL     OW28978   1.316   0.327  14.793 -0.4116  0.1311  0.1853
 5782SOL    HW128979   1.340   0.351  14.882 -2.9548 -1.2038  1.2168
 5782SOL    HW228980   1.301   0.414  14.757 -0.2250  0.1794  0.2219
 5783SOL     OW28981   2.252   1.222   5.295  0.0451 -0.9121  0.5823
 5783SOL    HW128982   2.228   1.180   5.377 -0.7771 -1.1541  0.2154
 5783SOL    HW228983   2.206   1.306   5.301 -0.1320 -0.8461 -1.8424
 5784SOL     OW28984   0.379   1.584   9.505 -0.1669 -0.7530  0.1923
 5784SOL    HW128985   0.409   1.500   9.538 -0.9855 -0.6822  1.1238
 5784SOL    HW228986   0.419   1.599   9.419 -2.4988  1.1172 -0.5925
 5785SOL     OW28987   0.656   2.052   5.482  0.0343 -0.1597 -0.8992
 5785SOL    HW128988   0.693   1.987   5.542 -0.8595  0.5108  0.3726
 5785SOL    HW228989   0.627   1.994   5.411 -0.1083  2.0528 -2.6514
 5786SOL     OW28990   3.036   3.614   8.959 -0.3988 -0.0064  0.0678
 5786SOL    HW128991   3.035   3.709   8.974  1.0959 -0.2387  1.5920
 5786SOL    HW228992   3.027   3.612   8.863  0.9607  0.8705 -0.0768
 5787SOL     OW28993   4.545   2.631   8.925  0.3538  0.5106 -0.3002
 5787SOL    HW128994   4.615   2.661   8.867 -1.7732  0.2288 -3.0311
 5787SOL    HW228995   4.545   2.537   8.907  0.3755  0.4502  0.0214
 5788SOL     OW28996   3.055   4.579  17.371  0.1628 -0.4120 -0.0830
 5788SOL    HW128997   3.097   4.663  17.390  3.6322 -1.6101 -2.6481
 5788SOL    HW228998   3.105   4.556  17.293  1.6813 -1.4934  1.2210
 5789SOL     OW28999   0.680   1.136  16.891 -0.0445  0.2785 -0.3788
 5789SOL    HW129000   0.663   1.105  16.802 -1.6918  0.1761 -0.0201
 5789SOL    HW229001   0.607   1.092  16.935 -0.1198 -0.0722 -0.8577
 5790SOL     OW29002   1.438   0.562   8.093  0.0849  0.6627  0.1659
 5790SOL    HW129003   1.404   0.635   8.042 -0.6282 -0.0878 -0.4206
 5790SOL    HW229004   1.508   0.524   8.039  0.0275 -0.8819  1.1884
 5791SOL     OW29005   2.211   0.975   9.493 -0.0932  0.3248  0.0961
 5791SOL    HW129006   2.291   0.978   9.544 -0.4482  2.4083  0.5142
 5791SOL    HW229007   2.237   0.991   9.403  0.2375  0.0177  0.1388
 5792SOL     OW29008   0.756   0.041   6.088 -0.5492 -0.5749  0.0649
 5792SOL    HW129009   0.778   4.686   6.095 -0.4581 -0.7579 -2.7057
 5792SOL    HW229010   0.730   0.044   5.996  0.6301  1.9139 -0.1810
 5793SOL     OW29011   2.499   2.126   0.940 -0.1308 -0.3616 -0.3162
 5793SOL    HW129012   2.517   2.203   0.886 -1.5696 -0.7038 -1.2789
 5793SOL    HW229013   2.485   2.175   1.021  0.8354  1.1848 -1.0982
 5794SOL     OW29014   3.744   1.219   1.517  0.2748  0.0872 -0.6543
 5794SOL    HW129015   3.653   1.189   1.511  0.3522  0.1780 -2.3002
 5794SOL    HW229016   3.733   1.312   1.539  0.0379 -0.1256  0.1167
 5795SOL     OW29017   3.484   4.136   6.429 -0.2712  0.8756  0.0649
 5795SOL    HW129018   3.476   4.225   6.463  2.8560  0.0351  3.0282
 5795SOL    HW229019   3.419   4.095   6.486  0.0689 -0.0187 -0.1892
 5796SOL     OW29020   0.828   1.312   4.592 -0.6645 -0.2332 -0.2115
 5796SOL    HW129021   0.748   1.281   4.637  0.6696  0.1240  2.3974
 5796SOL    HW229022   0.857   1.246   4.530  1.1172 -0.8070  1.2319
 5797SOL     OW29023   1.439   3.110   4.698  0.5064 -0.3486 -0.0045
 5797SOL    HW129024   1.402   3.029   4.661  0.3598  0.3287 -1.3184
 5797SOL    HW229025   1.450   3.070   4.785  2.1174  1.3093  0.5484
 5798SOL     OW29026   2.334   2.095   2.313 -0.4821  0.0153  0.3150
 5798SOL    HW129027   2.389   2.038   2.366 -2.4836 -0.9558  1.3527
 5798SOL    HW229028   2.270   2.030   2.285  0.5300 -0.4217 -0.9471
 5799SOL     OW29029   1.884   0.812   5.184 -0.0096  0.2240  0.2510
 5799SOL    HW129030   1.909   0.723   5.208  0.2144  0.3122  0.3373
 5799SOL    HW229031   1.868   0.851   5.270  1.3522  0.2003  0.5117
 5800SOL     OW29032   2.279   2.122   9.511 -0.6650  0.0280  0.4585
 5800SOL    HW129033   2.184   2.122   9.507 -0.5094 -1.2746 -2.6160
 5800SOL    HW229034   2.294   2.205   9.557 -0.8256 -0.2737  1.0617
 5801SOL     OW29035   4.647   2.436  14.238 -0.1227  0.2211 -0.1943
 5801SOL    HW129036   4.735   2.421  14.204 -0.9724  0.0179 -2.3549
 5801SOL    HW229037   4.609   2.489  14.167 -0.3262  1.2447  0.6834
 5802SOL     OW29038   2.210   2.128   0.496  0.6500 -0.1470  0.3560
 5802SOL    HW129039   2.261   2.209   0.498  1.2575 -0.5689  1.4846
 5802SOL    HW229040   2.130   2.165   0.535  1.2585  0.8603  0.6428
 5803SOL     OW29041   1.304   2.271   6.641  0.1531  0.1357  0.7321
 5803SOL    HW129042   1.235   2.207   6.657 -1.5224  1.5183 -0.9233
 5803SOL    HW229043   1.355   2.214   6.584  0.5276  1.3388 -0.1290
 5804SOL     OW29044   4.214   0.864  12.705 -0.3571  0.1556  0.1500
 5804SOL    HW129045   4.147   0.922  12.739  0.7177  0.8749  1.0459
 5804SOL    HW229046   4.235   0.805  12.777  1.6426 -1.5060 -1.8031
 5805SOL     OW29047   3.597   1.614   6.871 -0.8037  0.8573  0.3452
 5805SOL    HW129048   3.634   1.702   6.875  0.3230  0.3729  0.4038
 5805SOL    HW229049   3.585   1.593   6.964  2.2096  0.5538  0.6427
 5806SOL     OW29050   1.192   3.020   1.952  0.4225 -0.4248  0.4066
 5806SOL    HW129051   1.244   3.084   1.999  1.7053 -1.3512  0.2320
 5806SOL    HW229052   1.258   2.953   1.933 -0.2355 -0.7753 -0.7017
 5807SOL     OW29053   3.384   1.752   6.483  0.0098  0.1733 -0.3078
 5807SOL    HW129054   3.354   1.689   6.548 -0.2003  2.2449  1.6023
 5807SOL    HW229055   3.473   1.731   6.457 -0.6866 -1.2120 -1.6086
 5808SOL     OW29056   1.782   0.877   6.059  0.2196  0.0839 -0.7534
 5808SOL    HW129057   1.754   0.969   6.061 -0.2874 -0.0542 -1.4713
 5808SOL    HW229058   1.777   0.859   6.153 -0.2300  0.6042 -0.6789
 5809SOL     OW29059   1.260   3.095   4.258  0.1957 -0.2395  0.3810
 5809SOL    HW129060   1.238   3.079   4.349  0.7903 -1.1136  0.3694
 5809SOL    HW229061   1.171   3.092   4.223  0.9286  1.4122 -1.6874
 5810SOL     OW29062   3.966   2.190   8.715  0.1255 -0.1179  0.4053
 5810SOL    HW129063   3.964   2.278   8.753 -1.7509 -0.1678  0.4463
 5810SOL    HW229064   3.871   2.176   8.718  0.1896 -0.6067  0.0126
 5811SOL     OW29065   0.392   1.087   8.124 -0.4327 -0.0081  0.0283
 5811SOL    HW129066   0.452   1.139   8.178  0.8289 -0.6861 -0.7264
 5811SOL    HW229067   0.452   1.027   8.081  0.0908 -1.3693  2.6356
 5812SOL     OW29068   0.645   0.251   1.141  0.2630 -0.1210 -0.2969
 5812SOL    HW129069   0.558   0.259   1.103  0.7399  1.8044 -0.9495
 5812SOL    HW229070   0.688   0.208   1.067  0.2502  0.1911 -0.4819
 5813SOL     OW29071   1.391   2.962   8.985  0.0416  0.0638 -0.2871
 5813SOL    HW129072   1.331   2.927   9.051  0.0159  1.0746  0.2325
 5813SOL    HW229073   1.472   2.986   9.032 -0.1761 -0.1954  0.2170
 5814SOL     OW29074   0.739   0.151   0.893 -0.1616 -0.0337  0.5038
 5814SOL    HW129075   0.730   0.056   0.896 -0.7993  0.0256  0.4380
 5814SOL    HW229076   0.760   0.158   0.800  1.2820 -1.0199  0.7550
 5815SOL     OW29077   0.003   4.466  15.632 -0.5417  0.1800 -0.0272
 5815SOL    HW129078   4.657   4.432  15.603  0.1456 -2.6840  1.3603
 5815SOL    HW229079   0.003   4.545  15.578  2.1066  0.7840  0.8576
 5816SOL     OW29080   3.170   3.077   5.652  0.0870 -0.3159 -0.5013
 5816SOL    HW129081   3.091   3.097   5.702  0.6501 -0.7035  0.5438
 5816SOL    HW229082   3.236   3.111   5.713  1.3683 -1.1160 -1.4305
 5817SOL     OW29083   3.824   2.666   9.862 -0.0467  0.0277  0.6285
 5817SOL    HW129084   3.889   2.613   9.908  1.2183  0.3804 -0.7721
 5817SOL    HW229085   3.874   2.748   9.862  0.1494 -0.1004 -0.4305
 5818SOL     OW29086   1.670   3.410  15.252  0.6084 -0.7781  0.1858
 5818SOL    HW129087   1.680   3.332  15.308  0.4849 -0.7310  0.2736
 5818SOL    HW229088   1.681   3.358  15.172 -1.3512  0.8313 -1.1224
 5819SOL     OW29089   2.495   2.953   3.422  0.1319 -0.0720  0.3180
 5819SOL    HW129090   2.579   2.908   3.428  1.4955  1.9871 -3.1959
 5819SOL    HW229091   2.448   2.894   3.482 -0.6522 -0.7928 -1.0050
 5820SOL     OW29092   3.455   0.729   3.267  0.0503 -0.4656  0.2543
 5820SOL    HW129093   3.447   0.803   3.208 -2.2180 -1.5240 -0.7917
 5820SOL    HW229094   3.453   0.770   3.353 -0.1236 -2.8402  1.4001
 5821SOL     OW29095   0.806   2.938   4.821  0.5060  0.0960 -0.4048
 5821SOL    HW129096   0.778   2.994   4.894 -0.3387 -0.5636 -0.2130
 5821SOL    HW229097   0.861   2.885   4.878  0.3661 -0.7908 -1.1040
 5822SOL     OW29098   0.858   4.187   9.620  0.5322  0.5202 -0.1168
 5822SOL    HW129099   0.838   4.111   9.674  0.3299  0.4619 -0.2723
 5822SOL    HW229100   0.906   4.143   9.550 -0.7850  0.6987 -1.1263
 5823SOL     OW29101   4.270   4.416   6.446  1.3331  0.4981 -0.4349
 5823SOL    HW129102   4.305   4.339   6.491 -0.6508 -0.0431  0.1960
 5823SOL    HW229103   4.340   4.481   6.453  3.3679 -1.3856 -3.2016
 5824SOL     OW29104   0.478   4.292   5.241  0.0802 -0.0577  0.2052
 5824SOL    HW129105   0.506   4.381   5.220 -3.3452  0.7312 -0.9927
 5824SOL    HW229106   0.546   4.227   5.221  0.7535  0.6478  0.1652
 5825SOL     OW29107   2.889   2.345   6.409 -0.5248 -0.6046 -0.1647
 5825SOL    HW129108   2.960   2.360   6.472 -0.5445 -0.5201 -0.1633
 5825SOL    HW229109   2.805   2.377   6.444 -0.9010 -0.3861 -1.2676
 5826SOL     OW29110   4.336   1.207   4.160 -0.2411 -0.2496  0.3339
 5826SOL    HW129111   4.313   1.186   4.070 -0.6573 -1.4655  0.7197
 5826SOL    HW229112   4.313   1.120   4.192  0.8306 -1.4168 -2.0724
 5827SOL     OW29113   1.370   1.837   8.116 -0.4498  0.0029  0.6725
 5827SOL    HW129114   1.319   1.786   8.179 -1.9739  0.0658 -0.5205
 5827SOL    HW229115   1.411   1.899   8.176  2.0944 -0.8906 -0.1464
 5828SOL     OW29116   3.802   3.819  15.374  0.5607 -0.4296 -0.4079
 5828SOL    HW129117   3.856   3.861  15.441  2.4532 -1.5856 -1.2226
 5828SOL    HW229118   3.730   3.882  15.369  1.3597  0.5683  0.8862
 5829SOL     OW29119   1.986   0.755   6.700  0.6244  0.9300  0.1134
 5829SOL    HW129120   1.998   0.663   6.721  1.1100  1.2826  1.4003
 5829SOL    HW229121   1.976   0.788   6.790 -3.1425 -1.3927  0.5403
 5830SOL     OW29122   2.222   2.565   2.352  0.1495 -0.1993 -0.2053
 5830SOL    HW129123   2.192   2.553   2.262 -0.0692  0.3145 -0.2040
 5830SOL    HW229124   2.249   2.477   2.377 -1.3363 -0.6056 -0.0246
 5831SOL     OW29125   2.522   3.374   8.444 -0.8293 -0.4327  0.0155
 5831SOL    HW129126   2.503   3.438   8.375  3.1171 -0.1798 -0.7950
 5831SOL    HW229127   2.446   3.395   8.498 -0.7398  1.0952 -0.4604
 5832SOL     OW29128   0.558   2.609   6.884 -0.5610 -0.3774  0.0382
 5832SOL    HW129129   0.510   2.530   6.862  2.2889 -2.2990  0.6690
 5832SOL    HW229130   0.623   2.581   6.949  1.3710 -0.8141 -2.0863
 5833SOL     OW29131   1.555   2.088  13.963 -0.6731 -0.2493  0.2032
 5833SOL    HW129132   1.484   2.083  14.027 -2.1077  0.5957 -1.3507
 5833SOL    HW229133   1.626   2.032  13.995  1.6900  2.8577  0.4293
 5834SOL     OW29134   3.144   3.483   7.274 -0.0666  0.2754  0.0685
 5834SOL    HW129135   3.060   3.465   7.232 -0.9584  1.9786  1.1113
 5834SOL    HW229136   3.116   3.492   7.365 -3.4592 -0.3388 -0.9063
 5835SOL     OW29137   3.685   1.121   0.220  0.1913  0.4567  0.6985
 5835SOL    HW129138   3.596   1.090   0.233  0.7692 -1.5602 -0.1475
 5835SOL    HW229139   3.679   1.196   0.279 -0.1276  1.5627 -0.7385
 5836SOL     OW29140   1.498   3.524   8.041 -0.0423  0.1169  0.3118
 5836SOL    HW129141   1.486   3.550   8.133  0.4586  0.4152  0.2900
 5836SOL    HW229142   1.424   3.575   8.008 -1.4143 -2.5297 -0.7091
 5837SOL     OW29143   0.810   3.718   7.850 -0.3399  0.0028  0.5200
 5837SOL    HW129144   0.820   3.804   7.810 -0.5006  0.8736  2.3737
 5837SOL    HW229145   0.715   3.718   7.841 -0.2210 -1.5164 -0.8330
 5838SOL     OW29146   2.969   1.929   6.403 -0.4460  0.3985 -0.4830
 5838SOL    HW129147   2.974   1.960   6.493 -0.9420 -0.3851 -0.1832
 5838SOL    HW229148   2.904   1.989   6.366  0.3809  0.7621 -1.3567
 5839SOL     OW29149   4.459   1.467  13.945  0.3549 -0.1022 -0.2280
 5839SOL    HW129150   4.388   1.403  13.952  0.1531  0.4255  2.6515
 5839SOL    HW229151   4.532   1.404  13.943 -0.6290 -1.2006 -1.6248
 5840SOL     OW29152   3.519   3.670   9.288  0.6907 -0.3226 -0.6614
 5840SOL    HW129153   3.434   3.629   9.269  0.0907  1.1046 -1.1015
 5840SOL    HW229154   3.487   3.751   9.327  0.5050 -1.1225  0.8503
 5841SOL     OW29155   0.079   2.725   2.963 -0.2884  0.6000  0.2749
 5841SOL    HW129156   4.732   2.683   2.950 -0.9007  1.2375  2.2090
 5841SOL    HW229157   0.088   2.714   3.057 -0.1394 -0.0380  0.1857
 5842SOL     OW29158   3.100   4.577   4.397  0.2425  0.4024  0.2564
 5842SOL    HW129159   3.166   4.522   4.355  0.1695  0.5553 -0.0508
 5842SOL    HW229160   3.119   4.667   4.372  0.2738  0.2695 -0.1940
 5843SOL     OW29161   1.511   0.573   5.637  0.2807 -0.6173  0.2715
 5843SOL    HW129162   1.502   0.643   5.702 -1.2955  0.5087 -1.1721
 5843SOL    HW229163   1.481   0.624   5.561 -0.8128 -1.3117  0.2451
 5844SOL     OW29164   4.420   1.887  16.950 -0.2063  0.1489 -0.3988
 5844SOL    HW129165   4.480   1.877  17.024 -0.6157 -0.0188 -0.0922
 5844SOL    HW229166   4.395   1.978  16.933  0.7079  0.5823  0.5983
 5845SOL     OW29167   2.301   2.999  15.044  0.6304  0.1403  0.0689
 5845SOL    HW129168   2.251   3.072  15.082  1.0375  0.2557  0.3838
 5845SOL    HW229169   2.241   2.925  15.038  2.2786 -1.1550 -0.3109
 5846SOL     OW29170   2.996   0.138   0.163  0.1552 -0.1544 -0.2227
 5846SOL    HW129171   2.964   0.113   0.250  0.4969  0.0653 -0.0353
 5846SOL    HW229172   3.051   0.214   0.179 -0.4207  0.2075  0.0564
 5847SOL     OW29173   4.561   1.470   2.576  0.3182 -0.7552 -0.0529
 5847SOL    HW129174   4.473   1.434   2.566 -0.3357  0.3943  1.5361
 5847SOL    HW229175   4.616   1.414   2.521 -1.4468 -2.6265  0.0920
 5848SOL     OW29176   2.011   0.237  16.730  0.4417  0.8367  0.2102
 5848SOL    HW129177   2.091   0.287  16.715  0.3395  0.4984 -1.4649
 5848SOL    HW229178   1.948   0.308  16.720  0.1892  0.6558  0.5168
 5849SOL     OW29179   1.926   3.672   8.950  0.6199  0.1617 -0.9975
 5849SOL    HW129180   1.973   3.728   8.888  0.7206 -0.3482 -1.3828
 5849SOL    HW229181   1.995   3.612   8.978  1.2561  1.5738  0.4829
 5850SOL     OW29182   0.624   4.541  15.557 -0.3733  0.4206  1.1038
 5850SOL    HW129183   0.578   4.516  15.637  0.7509 -1.5374  1.1730
 5850SOL    HW229184   0.676   4.612  15.595 -0.6100  0.2662  1.7130
 5851SOL     OW29185   1.897   2.356  10.164 -0.5532  0.0614 -0.3292
 5851SOL    HW129186   1.939   2.327  10.245  0.0101  0.6710 -0.4046
 5851SOL    HW229187   1.956   2.430  10.153 -1.3371  1.0796  2.3938
 5852SOL     OW29188   1.323   1.200   5.368  0.2772 -0.2040  0.2096
 5852SOL    HW129189   1.253   1.231   5.311  1.2477  0.7606 -0.4762
 5852SOL    HW229190   1.350   1.285   5.403  0.6905  0.2152 -1.1012
 5853SOL     OW29191   2.277   2.457   9.286 -0.5179 -0.3995  0.9054
 5853SOL    HW129192   2.362   2.418   9.303 -1.0496 -1.9037  0.0943
 5853SOL    HW229193   2.221   2.388   9.250 -1.1553  1.6186 -1.9715
 5854SOL     OW29194   4.380   1.239   8.651  0.3330  0.1843 -0.0697
 5854SOL    HW129195   4.358   1.311   8.592  1.5748  0.3185 -0.3888
 5854SOL    HW229196   4.291   1.225   8.682  0.3619  0.7290  0.2465
 5855SOL     OW29197   0.388   4.695  17.417  0.0183  0.0394 -0.0836
 5855SOL    HW129198   0.477   4.713  17.386 -0.4547  2.7571  0.1515
 5855SOL    HW229199   0.396   4.695  17.512 -2.7563  0.2294  0.1508
 5856SOL     OW29200   1.678   1.602   3.449 -0.1562  0.1931  0.6698
 5856SOL    HW129201   1.626   1.665   3.399 -0.0293 -1.3385 -1.3908
 5856SOL    HW229202   1.608   1.558   3.497  0.4431  0.1332  1.4817
 5857SOL     OW29203   2.262   1.491   2.223  0.1969  0.0465  0.2101
 5857SOL    HW129204   2.283   1.405   2.259  0.1053  0.5046  1.3524
 5857SOL    HW229205   2.199   1.473   2.153 -0.5889  1.1766  0.6286
 5858SOL     OW29206   2.522   4.582   3.715  0.1209  0.3639 -0.1345
 5858SOL    HW129207   2.612   4.562   3.742 -0.0659 -2.4212 -1.5909
 5858SOL    HW229208   2.535   4.608   3.624 -3.6313 -0.2819 -0.8364
 5859SOL     OW29209   4.027   1.252   7.943 -0.1370 -0.2267 -0.0436
 5859SOL    HW129210   3.953   1.312   7.935  0.1500  0.2267  0.7251
 5859SOL    HW229211   3.988   1.171   7.912 -1.6415  1.0000 -1.3553
 5860SOL     OW29212   3.754   3.179  14.397  0.0462  0.3589 -0.2112
 5860SOL    HW129213   3.773   3.122  14.472  0.1404  1.4481  0.5959
 5860SOL    HW229214   3.833   3.233  14.405 -0.7547  2.1689 -4.7378
 5861SOL     OW29215   0.496   0.294   0.652  0.2090  0.5905  0.0324
 5861SOL    HW129216   0.546   0.373   0.628  1.0720  0.2229  0.6132
 5861SOL    HW229217   0.533   0.240   0.583  1.2094 -0.2997  1.2608
 5862SOL     OW29218   4.277   3.464   3.864 -0.1723 -0.3608  0.5099
 5862SOL    HW129219   4.246   3.499   3.948  0.5905 -1.6088  1.2939
 5862SOL    HW229220   4.208   3.398   3.855  0.1210 -0.2798 -2.4192
 5863SOL     OW29221   3.661   1.885   5.995 -0.2813 -0.6683 -0.0953
 5863SOL    HW129222   3.600   1.953   6.024  2.1555  1.8647 -0.8760
 5863SOL    HW229223   3.705   1.871   6.079  1.4808  0.8976 -0.7372
 5864SOL     OW29224   4.056   0.133  14.206 -0.3517  0.1104 -0.2714
 5864SOL    HW129225   3.979   0.109  14.258  1.2514  0.7693  2.4094
 5864SOL    HW229226   4.115   0.100  14.274  1.0015 -1.2805 -2.1046
 5865SOL     OW29227   3.008   4.215   7.457  0.3717  0.3582 -0.3548
 5865SOL    HW129228   2.921   4.191   7.490 -0.2221  1.0055 -1.4722
 5865SOL    HW229229   2.979   4.240   7.370  0.2237 -1.5062 -0.8474
 5866SOL     OW29230   4.206   0.013   4.370 -0.2610 -0.4207  0.2947
 5866SOL    HW129231   4.178   4.732   4.459 -1.8609  1.2240  0.1255
 5866SOL    HW229232   4.146   0.080   4.337  0.1740  0.2672  0.9114
 5867SOL     OW29233   3.895   2.929   2.377  0.3447  0.0661 -0.4546
 5867SOL    HW129234   3.870   2.925   2.285  0.6705 -1.4575 -0.4811
 5867SOL    HW229235   3.825   2.878   2.420 -0.1625  1.4651  0.3817
 5868SOL     OW29236   3.441   0.369   5.860  0.0577  0.4036  0.4361
 5868SOL    HW129237   3.425   0.451   5.907  0.7789 -0.0778  1.5226
 5868SOL    HW229238   3.395   0.392   5.779 -0.2574 -1.7505  0.0029
 5869SOL     OW29239   2.321   0.406  13.190 -0.2266 -0.3583  0.0882
 5869SOL    HW129240   2.297   0.439  13.276 -2.7112 -0.5273 -0.5335
 5869SOL    HW229241   2.256   0.454  13.138  0.2682 -1.1950 -1.3188
 5870SOL     OW29242   0.824   1.902   1.672  0.7413 -0.6094  0.5462
 5870SOL    HW129243   0.882   1.860   1.736  1.6639 -0.5105 -0.2311
 5870SOL    HW229244   0.865   1.884   1.588  0.1205 -1.6425  0.4585
 5871SOL     OW29245   2.717   1.611   7.652 -0.0571  0.3330  0.0083
 5871SOL    HW129246   2.628   1.646   7.644  0.7213  2.4036  0.4008
 5871SOL    HW229247   2.690   1.522   7.673  1.5623 -0.1849 -0.1001
 5872SOL     OW29248   1.234   2.411   5.896 -0.6438 -0.0033 -0.5490
 5872SOL    HW129249   1.188   2.491   5.869 -0.3955  0.3372  0.0442
 5872SOL    HW229250   1.294   2.399   5.823 -2.1442  2.7914 -2.2563
 5873SOL     OW29251   1.521   0.719  10.578 -0.6917  0.2396  0.5779
 5873SOL    HW129252   1.426   0.727  10.586 -0.9528 -4.7989  2.7694
 5873SOL    HW229253   1.539   0.806  10.544 -1.5242  0.8301  1.6221
 5874SOL     OW29254   1.285   0.874   1.974  0.7714 -0.2427 -0.1382
 5874SOL    HW129255   1.195   0.904   1.987 -0.7791 -4.0653 -1.9962
 5874SOL    HW229256   1.280   0.783   2.005  2.2876 -0.4420 -0.4641
 5875SOL     OW29257   1.084   1.308   4.778 -0.0370 -0.3720  0.1157
 5875SOL    HW129258   1.056   1.258   4.701 -1.0954 -0.7637  0.7383
 5875SOL    HW229259   1.174   1.282   4.796  0.9345  3.0940  0.0622
 5876SOL     OW29260   0.020   2.708   1.040 -0.3452  0.0462  0.0348
 5876SOL    HW129261   4.663   2.693   1.041 -0.5263  1.2466  0.5907
 5876SOL    HW229262   0.044   2.644   0.973  1.3565 -0.1384  0.8257
 5877SOL     OW29263   3.658   3.583   9.490 -0.0959 -0.0640 -0.2237
 5877SOL    HW129264   3.606   3.609   9.414 -0.5740  1.7097  0.6940
 5877SOL    HW229265   3.610   3.503   9.512  1.6461 -0.8814  0.6204
 5878SOL     OW29266   4.634   0.756   5.764 -0.0990  0.3433  0.2600
 5878SOL    HW129267   4.700   0.820   5.789  0.1435 -0.0871  0.7378
 5878SOL    HW229268   4.631   0.749   5.669  0.1436  2.3321  0.1041
 5879SOL     OW29269   3.890   1.855   5.001  0.4891  0.4540 -0.0866
 5879SOL    HW129270   3.887   1.949   5.015  1.8497  0.8015 -2.0751
 5879SOL    HW229271   3.805   1.818   5.025 -0.0825  1.9517  0.1741
 5880SOL     OW29272   0.860   2.986  16.126 -0.0015  0.5511 -0.4967
 5880SOL    HW129273   0.949   2.966  16.096 -0.0599  0.4830 -0.6266
 5880SOL    HW229274   0.820   3.020  16.046 -0.1868  0.1032 -0.5990
 5881SOL     OW29275   0.177   0.532  15.340  0.0224 -0.0978 -0.1633
 5881SOL    HW129276   0.090   0.572  15.340  0.0996  0.0932 -1.7297
 5881SOL    HW229277   0.225   0.578  15.271 -0.0667 -2.0097 -1.5259
 5882SOL     OW29278   2.989   2.530   5.562 -0.3268  0.5689 -0.7501
 5882SOL    HW129279   2.896   2.552   5.563 -0.2492  0.7208  1.3841
 5882SOL    HW229280   2.994   2.438   5.588  1.1333  0.4901 -1.2816
 5883SOL     OW29281   0.876   0.299   4.707 -0.0153 -0.0152  0.4001
 5883SOL    HW129282   0.910   0.331   4.623 -1.1654 -0.2141 -0.1391
 5883SOL    HW229283   0.941   0.331   4.770  0.1500 -1.7960  1.1599
 5884SOL     OW29284   1.914   3.387   9.536 -0.5484 -0.5145 -0.1141
 5884SOL    HW129285   1.925   3.314   9.596  0.1597 -1.4209 -1.3424
 5884SOL    HW229286   1.819   3.392   9.544 -0.4244  1.1580  0.3262
 5885SOL     OW29287   3.617   4.252   9.790  0.1386  0.4177  0.0224
 5885SOL    HW129288   3.637   4.199   9.712  0.3768  1.2085 -0.4513
 5885SOL    HW229289   3.524   4.242   9.809  0.1556  1.7583  0.7786
 5886SOL     OW29290   1.763   0.645  13.395  0.3790 -0.0524 -0.0026
 5886SOL    HW129291   1.743   0.661  13.302 -0.9945  1.4205  0.5516
 5886SOL    HW229292   1.858   0.661  13.396  0.2329  0.8479 -0.1678
 5887SOL     OW29293   3.964   4.166   4.383 -0.2258  0.5311 -0.4389
 5887SOL    HW129294   3.953   4.101   4.452  0.9016 -0.3611 -1.1121
 5887SOL    HW229295   3.913   4.130   4.311  0.2865  0.6510 -0.8598
 5888SOL     OW29296   0.300   3.492   4.852  0.1866 -0.2841 -0.4580
 5888SOL    HW129297   0.224   3.455   4.806  0.5032 -0.9959 -0.4026
 5888SOL    HW229298   0.264   3.580   4.867 -1.8341 -1.0104 -1.0217
 5889SOL     OW29299   3.790   1.673   0.850  0.1996 -0.5213  0.2908
 5889SOL    HW129300   3.702   1.636   0.854  0.5544 -1.3723  0.3803
 5889SOL    HW229301   3.802   1.718   0.933 -1.0269 -1.9789  1.2661
 5890SOL     OW29302   3.321   3.321   6.485  0.2159 -0.3026 -0.1465
 5890SOL    HW129303   3.340   3.411   6.512  1.4115 -0.8554  0.8202
 5890SOL    HW229304   3.235   3.319   6.442  0.9769  1.5343 -1.7549
 5891SOL     OW29305   0.737   3.807   2.213 -0.3891  0.4383 -0.0900
 5891SOL    HW129306   0.831   3.825   2.204 -0.0053 -1.7417 -0.5748
 5891SOL    HW229307   0.700   3.860   2.143  0.3311 -0.9118 -1.5008
 5892SOL     OW29308   0.572   2.391   4.347  0.2584 -0.2140 -0.3099
 5892SOL    HW129309   0.519   2.322   4.388 -0.1838  0.4772  0.2761
 5892SOL    HW229310   0.589   2.354   4.260 -1.0231  1.3248 -1.2201
 5893SOL     OW29311   2.071   3.627   4.058 -0.0631 -0.2005  0.2969
 5893SOL    HW129312   2.007   3.694   4.030  1.2806  1.2265  0.6354
 5893SOL    HW229313   2.108   3.594   3.976 -2.6597 -2.2048 -0.0554
 5894SOL     OW29314   1.495   0.083   8.458 -0.2617 -0.2917 -0.0306
 5894SOL    HW129315   1.428   0.151   8.455 -2.0693 -2.0671 -0.3379
 5894SOL    HW229316   1.460   0.024   8.525  3.7947  1.0217  3.2092
 5895SOL     OW29317   2.119   3.602   2.207  0.5801  0.0133  0.1390
 5895SOL    HW129318   2.175   3.537   2.164 -0.8214 -0.0266 -1.6188
 5895SOL    HW229319   2.075   3.628   2.126  0.6453 -1.0796 -0.2376
 5896SOL     OW29320   3.099   4.018   0.545 -0.1090 -0.5249 -0.0777
 5896SOL    HW129321   3.181   4.028   0.497 -0.3663 -0.1348 -0.4311
 5896SOL    HW229322   3.047   4.085   0.502  1.5706  2.1688  2.0364
 5897SOL     OW29323   2.650   3.696   8.219 -0.1118  0.4411 -0.1737
 5897SOL    HW129324   2.698   3.671   8.140 -0.6524 -0.6299 -0.1694
 5897SOL    HW229325   2.702   3.770   8.250  0.1620  0.2562 -0.2028
 5898SOL     OW29326   4.528   0.242   6.590 -0.2271 -0.0091  0.5400
 5898SOL    HW129327   4.455   0.184   6.611 -0.0918 -0.5654 -0.5329
 5898SOL    HW229328   4.477   0.322   6.588  0.9663  0.7257 -0.1128
 5899SOL     OW29329   0.909   3.688   9.019  0.1320  0.7473  0.4238
 5899SOL    HW129330   0.999   3.665   9.045  0.9510  3.3038 -0.0791
 5899SOL    HW229331   0.924   3.780   8.995  1.4459  1.2910  3.3091
 5900SOL     OW29332   0.676   1.970   2.680  0.4661  0.5902 -0.2493
 5900SOL    HW129333   0.620   2.047   2.687  1.9836  1.8768 -2.1591
 5900SOL    HW229334   0.713   1.970   2.768  0.9662 -0.3738 -0.4574
 5901SOL     OW29335   2.163   1.721   1.723 -0.2075 -0.2216  0.1199
 5901SOL    HW129336   2.124   1.802   1.692  2.2050  1.3439  1.1484
 5901SOL    HW229337   2.111   1.662   1.669  1.6984 -3.3226  1.6433
 5902SOL     OW29338   3.275   2.960   4.611  0.4467 -0.2109  0.5224
 5902SOL    HW129339   3.234   2.926   4.691  1.4976 -0.3701  0.9958
 5902SOL    HW229340   3.207   2.951   4.545 -0.4201  1.8611  1.1561
 5903SOL     OW29341   3.094   1.609  16.750 -0.2765 -0.2579  0.1997
 5903SOL    HW129342   3.077   1.522  16.715 -2.0500 -0.3317  1.2389
 5903SOL    HW229343   3.189   1.605  16.742 -0.1929 -0.4089  1.2908
 5904SOL     OW29344   1.685   4.296   5.441  0.0117  0.3105 -0.6899
 5904SOL    HW129345   1.652   4.292   5.531 -0.1749 -3.0097 -0.8953
 5904SOL    HW229346   1.628   4.233   5.396 -2.3196  2.8160 -1.2401
 5905SOL     OW29347   0.972   4.106  13.243  0.4809 -0.5724  0.2476
 5905SOL    HW129348   0.916   4.049  13.190 -1.6454  0.0099  1.9023
 5905SOL    HW229349   0.952   4.073  13.330  1.6592  2.9877  1.8509
 5906SOL     OW29350   3.967   3.632  15.264  0.3609  0.8055 -0.2884
 5906SOL    HW129351   4.022   3.697  15.221  0.2859 -0.7949 -2.7858
 5906SOL    HW229352   3.901   3.683  15.310 -0.8287 -1.5313  0.6256
 5907SOL     OW29353   3.104   2.051   3.942  0.1939  0.1753  0.2659
 5907SOL    HW129354   3.110   1.958   3.963 -0.6718  0.1629  0.4772
 5907SOL    HW229355   3.014   2.069   3.970 -1.3664 -1.9967 -3.3778
 5908SOL     OW29356   1.518   3.865   3.545  0.5476 -0.4427  0.0118
 5908SOL    HW129357   1.490   3.774   3.534  1.9243 -0.8453 -0.1003
 5908SOL    HW229358   1.439   3.908   3.511 -0.4756 -0.8469  1.8882
 5909SOL     OW29359   1.244   1.880   0.406 -0.4902 -0.3824  0.4683
 5909SOL    HW129360   1.311   1.839   0.352  0.8642  0.0443  1.8517
 5909SOL    HW229361   1.281   1.963   0.436 -1.1676  0.3569 -0.7186
 5910SOL     OW29362   4.163   3.867  17.582  0.1542  0.5963  0.4892
 5910SOL    HW129363   4.233   3.877  17.517 -0.2774  2.3577  0.3017
 5910SOL    HW229364   4.171   3.772  17.596  0.8513  0.0540 -3.5172
 5911SOL     OW29365   1.955   1.176   4.322  0.0803 -0.3621 -0.1289
 5911SOL    HW129366   2.029   1.213   4.371  0.2742 -2.0858  0.8542
 5911SOL    HW229367   2.002   1.123   4.258  0.4340  1.1136 -1.0980
 5912SOL     OW29368   0.473   2.404   1.153 -0.0657  0.4126  0.0041
 5912SOL    HW129369   0.566   2.396   1.171  0.1238  0.4174 -0.9925
 5912SOL    HW229370   0.445   2.314   1.137 -0.6084  0.1320  2.5576
 5913SOL     OW29371   0.574   0.696  10.187 -0.1103  0.3113 -0.4700
 5913SOL    HW129372   0.534   0.650  10.260 -1.8466  0.3004 -1.4300
 5913SOL    HW229373   0.668   0.680  10.198 -0.2008 -0.2544 -0.5631
 5914SOL     OW29374   4.072   0.392   7.761 -0.2109 -0.1916 -0.0743
 5914SOL    HW129375   4.157   0.401   7.804 -0.9300  0.5755  1.1839
 5914SOL    HW229376   4.004   0.404   7.828  1.0351  0.5502  1.0484
 5915SOL     OW29377   4.033   1.323   5.754  0.2882  0.2612  0.3991
 5915SOL    HW129378   4.041   1.231   5.731  0.8244  0.4965 -0.3535
 5915SOL    HW229379   3.940   1.344   5.744 -0.0124 -1.1615  0.2008
 5916SOL     OW29380   4.614   0.056   0.929 -0.1326 -0.1669 -0.1911
 5916SOL    HW129381   4.703   0.020   0.928 -0.2781 -0.4729 -1.3150
 5916SOL    HW229382   4.577   0.012   1.006  1.1939 -2.4453 -0.8578
 5917SOL     OW29383   1.073   4.438  13.902 -0.1745  0.3044 -0.6828
 5917SOL    HW129384   0.992   4.469  13.944  0.1682  1.3787 -0.8119
 5917SOL    HW229385   1.122   4.519  13.888 -3.2356  2.2796 -0.0440
 5918SOL     OW29386   1.167   2.711  14.974  0.1842 -0.2724 -0.2850
 5918SOL    HW129387   1.178   2.669  14.888 -0.5084  0.0072 -0.5130
 5918SOL    HW229388   1.258   2.727  14.998 -0.4166 -0.4296  2.1036
 5919SOL     OW29389   2.780   2.251   0.442  0.4051 -0.0143 -0.4103
 5919SOL    HW129390   2.855   2.310   0.436  0.8786 -0.7564 -2.0189
 5919SOL    HW229391   2.816   2.183   0.499 -1.2136 -2.3122 -2.1112
 5920SOL     OW29392   1.407   0.762   7.161  0.6312  0.3492 -0.5451
 5920SOL    HW129393   1.371   0.851   7.168  0.5895  0.2134  0.9454
 5920SOL    HW229394   1.442   0.765   7.072  1.3751  0.7010 -0.2443
 5921SOL     OW29395   2.155   1.865   7.154  0.2880 -0.2547 -0.5432
 5921SOL    HW129396   2.223   1.856   7.087  0.1629 -0.5749 -0.6255
 5921SOL    HW229397   2.162   1.960   7.167  0.8051 -0.2261 -1.0450
 5922SOL     OW29398   1.225   2.251   5.280 -0.0611  1.1873 -0.2478
 5922SOL    HW129399   1.256   2.188   5.216 -1.0520  2.8528 -2.4082
 5922SOL    HW229400   1.247   2.335   5.238 -0.9902  1.0110 -1.1009
 5923SOL     OW29401   4.725   0.185   6.427 -0.1682  0.1842 -0.2338
 5923SOL    HW129402   4.643   0.211   6.467  0.1962  2.2398 -0.8258
 5923SOL    HW229403   0.035   0.151   6.503 -0.4376 -0.6139 -0.4240
 5924SOL     OW29404   2.971   0.697   6.976 -0.4133 -0.1360 -0.2855
 5924SOL    HW129405   2.986   0.606   6.998 -2.5720 -0.0994  1.3135
 5924SOL    HW229406   2.995   0.744   7.056 -2.7796 -0.6284  0.7082
 5925SOL     OW29407   3.133   4.286   3.541 -0.6836 -0.8679 -0.2992
 5925SOL    HW129408   3.198   4.354   3.557 -2.4610  0.4105  1.4329
 5925SOL    HW229409   3.200   4.233   3.497 -0.9434  1.2706 -3.3084
 5926SOL     OW29410   0.943   0.780   8.880 -0.0907 -0.7500 -0.9286
 5926SOL    HW129411   1.026   0.799   8.924 -0.8316  2.7675 -1.0794
 5926SOL    HW229412   0.963   0.808   8.791  1.5405 -1.5394 -0.8251
 5927SOL     OW29413   1.197   0.408   9.110  0.2047  0.3115 -0.2746
 5927SOL    HW129414   1.203   0.340   9.178 -0.2578 -1.0320 -1.5860
 5927SOL    HW229415   1.237   0.484   9.152  1.0326 -0.2312 -0.0709
 5928SOL     OW29416   4.484   2.297  14.613 -0.1735 -0.2205 -0.9585
 5928SOL    HW129417   4.425   2.298  14.688  3.9460  1.9117  2.2766
 5928SOL    HW229418   4.564   2.310  14.664 -0.2172 -0.3237 -0.8657
 5929SOL     OW29419   2.855   3.863   2.907  0.4678 -0.3199  0.1593
 5929SOL    HW129420   2.914   3.820   2.970 -1.6526 -0.1459  2.2723
 5929SOL    HW229421   2.801   3.786   2.892  1.1620 -0.5860 -0.9699
 5930SOL     OW29422   1.682   1.542   8.516 -0.1284 -0.7770  0.0089
 5930SOL    HW129423   1.671   1.483   8.591  4.2621 -1.6093 -0.0174
 5930SOL    HW229424   1.777   1.556   8.524 -0.4813  0.6841  1.6220
 5931SOL     OW29425   2.885   1.895   4.783 -0.3808  0.1542 -0.1259
 5931SOL    HW129426   2.812   1.946   4.749 -1.0495 -0.9273 -0.3120
 5931SOL    HW229427   2.840   1.829   4.836  3.1912 -0.5581  2.0455
 5932SOL     OW29428   1.077   4.530  16.848  0.2925  0.0159 -0.2187
 5932SOL    HW129429   1.038   4.611  16.882 -0.4725 -0.7804  0.7889
 5932SOL    HW229430   1.037   4.463  16.904  0.4896 -0.3580 -0.5295
 5933SOL     OW29431   2.269   0.940   6.068 -0.2235 -0.1663  0.8625
 5933SOL    HW129432   2.262   0.974   6.157 -0.6423 -1.7739  1.4591
 5933SOL    HW229433   2.345   0.987   6.033  0.3156 -1.3381  0.4539
 5934SOL     OW29434   1.269   0.030  16.756 -0.1768  0.4062  0.8102
 5934SOL    HW129435   1.242   4.691  16.806 -2.7953 -0.5674 -2.0914
 5934SOL    HW229436   1.357   0.051  16.787  0.7737 -1.9954 -0.2874
 5935SOL     OW29437   2.051   0.887   5.916  0.2731  0.0066 -0.2770
 5935SOL    HW129438   1.966   0.860   5.952  0.3199  0.6868  0.3520
 5935SOL    HW229439   2.111   0.894   5.990  1.7635 -0.7260 -1.4285
 5936SOL     OW29440   2.866   1.396  11.766 -0.1890 -0.0891 -0.5992
 5936SOL    HW129441   2.834   1.315  11.728  1.3525 -1.2106  0.5042
 5936SOL    HW229442   2.952   1.375  11.803 -1.2384  1.3499  2.6588
 5937SOL     OW29443   2.364   2.163  16.265 -0.1814 -0.0191 -0.0578
 5937SOL    HW129444   2.330   2.080  16.298 -1.3985  0.6408  0.3248
 5937SOL    HW229445   2.311   2.230  16.307 -0.6938 -1.4069  1.4567
 5938SOL     OW29446   3.485   1.584   4.447 -0.1332 -0.1517  0.4545
 5938SOL    HW129447   3.527   1.603   4.531  0.0149  0.1604  0.3091
 5938SOL    HW229448   3.552   1.621   4.388  1.1174 -1.0524  1.2971
 5939SOL     OW29449   4.101   4.349   3.328  0.3120 -0.0302  0.1682
 5939SOL    HW129450   4.039   4.346   3.254  2.0386 -0.0079 -1.2752
 5939SOL    HW229451   4.138   4.261   3.333  1.3144  0.4397  0.8745
 5940SOL     OW29452   3.171   1.891  10.019 -0.3894 -0.3919  0.1529
 5940SOL    HW129453   3.201   1.803   9.996 -2.2195 -1.1910  0.8640
 5940SOL    HW229454   3.245   1.948   9.996 -0.3405 -0.7725 -0.6364
 5941SOL     OW29455   1.141   2.275   8.409 -0.2343 -0.2211 -0.0504
 5941SOL    HW129456   1.183   2.291   8.494 -2.4612  0.9493  0.8289
 5941SOL    HW229457   1.053   2.274   8.447 -0.8957  0.0661 -1.5551
 5942SOL     OW29458   1.425   1.556  17.557 -0.2408 -0.4149  0.2943
 5942SOL    HW129459   1.403   1.476  17.510  0.2792  0.5376 -1.5865
 5942SOL    HW229460   1.462   1.609  17.486 -0.6611 -1.4117 -0.6516
 5943SOL     OW29461   1.990   1.913   4.313  0.2888 -0.4490  0.3713
 5943SOL    HW129462   1.993   1.934   4.406 -2.6057  0.3360  0.2747
 5943SOL    HW229463   2.067   1.944   4.264  0.2889 -1.6150 -0.3750
 5944SOL     OW29464   4.026   0.357   3.208 -0.3868  0.2899  0.0700
 5944SOL    HW129465   4.110   0.362   3.162 -0.5179  1.0525 -0.0827
 5944SOL    HW229466   4.057   0.313   3.287 -0.9080  0.4988  0.3845
 5945SOL     OW29467   0.790   4.158   3.701 -0.2895 -0.5232  0.1178
 5945SOL    HW129468   0.819   4.070   3.721 -0.0266 -0.1145  1.5038
 5945SOL    HW229469   0.862   4.210   3.737  1.4497 -2.6414 -0.3324
 5946SOL     OW29470   1.522   0.131   5.503 -0.2522  0.1074 -0.0738
 5946SOL    HW129471   1.482   0.161   5.585 -0.3342 -0.7746  0.2088
 5946SOL    HW229472   1.609   0.110   5.537  0.4163 -0.6898 -2.2823
 5947SOL     OW29473   0.306   2.856   1.278  0.0522 -0.1823  0.5962
 5947SOL    HW129474   0.230   2.816   1.236  0.9092  0.9819 -2.0779
 5947SOL    HW229475   0.264   2.913   1.342 -4.5112 -1.3527 -1.3399
 5948SOL     OW29476   4.162   2.421   6.187 -0.2109 -0.1106  0.3246
 5948SOL    HW129477   4.233   2.370   6.227  0.9641  0.8465 -0.5456
 5948SOL    HW229478   4.099   2.429   6.259  0.6615  0.9472  0.9725
 5949SOL     OW29479   3.865   2.842  14.842  0.2724  0.4424 -0.5466
 5949SOL    HW129480   3.789   2.800  14.884  1.0626  1.2213  1.6683
 5949SOL    HW229481   3.932   2.789  14.886  0.2035  1.3007  0.5833
 5950SOL     OW29482   4.181   2.424   5.341 -0.0428 -0.2171 -0.1993
 5950SOL    HW129483   4.194   2.349   5.400 -2.4245 -0.5307 -0.0681
 5950SOL    HW229484   4.226   2.389   5.264 -1.7651 -1.3300 -0.6892
 5951SOL     OW29485   1.452   2.367   4.756  0.1452  0.0416 -0.0203
 5951SOL    HW129486   1.413   2.452   4.735 -0.3107  0.0745  0.9565
 5951SOL    HW229487   1.396   2.344   4.830 -1.5565  0.4732 -1.1944
 5952SOL     OW29488   2.883   4.713   0.787  0.1982 -0.4763  0.2164
 5952SOL    HW129489   2.935   4.735   0.864  0.2708 -0.3090  0.1190
 5952SOL    HW229490   2.924   4.630   0.765  1.2904  0.5649 -1.6236
 5953SOL     OW29491   2.826   3.374   8.266  0.1159 -0.0289 -0.1013
 5953SOL    HW129492   2.843   3.331   8.350  1.6064  0.1520 -0.3047
 5953SOL    HW229493   2.872   3.457   8.278 -0.1928 -0.1270  1.7358
 5954SOL     OW29494   4.285   2.685  12.333 -0.3572 -0.6033  0.1396
 5954SOL    HW129495   4.377   2.657  12.341 -0.4544 -0.5743  1.4764
 5954SOL    HW229496   4.267   2.695  12.240 -1.4080 -0.9238  0.3093
 5955SOL     OW29497   3.704   0.857   5.540  0.0625  0.2987  0.3720
 5955SOL    HW129498   3.721   0.780   5.486  0.6745  0.5763  0.1694
 5955SOL    HW229499   3.646   0.902   5.478  1.3900 -1.2950 -2.0524
 5956SOL     OW29500   3.146   0.843   6.710  0.3184 -0.3892  0.0807
 5956SOL    HW129501   3.181   0.920   6.665  0.3063 -0.8584 -0.7411
 5956SOL    HW229502   3.132   0.889   6.793  2.0586 -1.6332  1.0639
 5957SOL     OW29503   0.786   1.339  14.346  0.1141 -0.4227 -0.0922
 5957SOL    HW129504   0.700   1.357  14.310  0.8296  0.1755 -1.5135
 5957SOL    HW229505   0.779   1.410  14.410  2.0226  1.2179 -1.7034
 5958SOL     OW29506   4.301   3.650   5.588 -0.1943 -0.2995 -0.0553
 5958SOL    HW129507   4.393   3.670   5.605  0.3800 -1.3490 -1.8529
 5958SOL    HW229508   4.269   3.641   5.677  1.2555  0.5035  0.5460
 5959SOL     OW29509   0.750   3.325   5.742 -0.1731 -0.6319  0.0858
 5959SOL    HW129510   0.838   3.292   5.761  0.7591  2.6960  1.4070
 5959SOL    HW229511   0.697   3.245   5.732  1.8874 -1.6802 -2.4724
 5960SOL     OW29512   2.673   2.830   7.068 -0.1520 -0.1856  0.0428
 5960SOL    HW129513   2.699   2.914   7.030  4.5857 -1.0496  1.3819
 5960SOL    HW229514   2.659   2.780   6.988  0.4344  0.4690 -0.4633
 5961SOL     OW29515   2.627   1.090   1.216  0.3530 -0.1500  0.2495
 5961SOL    HW129516   2.630   1.179   1.253  0.6256 -0.1892  0.3280
 5961SOL    HW229517   2.694   1.042   1.266  0.6750  2.1921  2.1082
 5962SOL     OW29518   3.699   3.044   2.688 -0.1141 -0.1408  0.3934
 5962SOL    HW129519   3.787   3.019   2.715  1.0820  2.1635 -1.3538
 5962SOL    HW229520   3.710   3.137   2.708  1.1183 -0.0857 -0.5708
 5963SOL     OW29521   2.079   0.148   8.912  0.5997  0.2226 -0.0933
 5963SOL    HW129522   2.095   0.237   8.879 -0.1709  0.0228 -1.0092
 5963SOL    HW229523   2.109   0.097   8.837  0.1208  0.3440 -0.3687
 5964SOL     OW29524   4.229   0.592  10.004  0.2159  0.2434 -0.2770
 5964SOL    HW129525   4.172   0.516   9.996  1.3883 -0.6488 -0.0059
 5964SOL    HW229526   4.281   0.578   9.925  1.2776 -2.5425  0.9303
 5965SOL     OW29527   4.099   0.000   5.256 -0.3951 -0.1582 -0.3130
 5965SOL    HW129528   4.065   0.071   5.311 -0.4205 -0.4728  0.0789
 5965SOL    HW229529   4.193   0.020   5.260 -0.9436  3.1515 -3.4100
 5966SOL     OW29530   2.899   1.741   3.363 -0.2751 -0.9662 -0.0763
 5966SOL    HW129531   2.882   1.647   3.363  0.5122 -1.1181  2.1802
 5966SOL    HW229532   2.928   1.755   3.273 -0.2546  0.6426  0.1746
 5967SOL     OW29533   0.493   0.164   4.196 -0.4623 -0.1141  0.1724
 5967SOL    HW129534   0.439   0.209   4.131 -0.7556  2.1757  1.9920
 5967SOL    HW229535   0.554   0.238   4.207 -0.8657  0.3460 -0.6627
 5968SOL     OW29536   0.545   4.645  14.991  0.8806 -0.0610 -0.1208
 5968SOL    HW129537   0.621   4.592  15.018  1.0092  0.0750 -0.2130
 5968SOL    HW229538   0.488   4.630  15.066  1.8009  1.1406  0.8344
 5969SOL     OW29539   0.412   4.693   6.422 -0.0811  0.6046 -0.4783
 5969SOL    HW129540   0.320   4.688   6.446  1.0276  2.4983  4.2545
 5969SOL    HW229541   0.456   0.011   6.486  0.4347  0.4009 -0.6506
 5970SOL     OW29542   3.223   1.855   5.693  0.6399  0.7594  0.3055
 5970SOL    HW129543   3.190   1.907   5.766  0.7672  1.5260 -0.1824
 5970SOL    HW229544   3.155   1.859   5.626  0.8791  0.6864  0.0586
 5971SOL     OW29545   3.245   0.649   3.956  0.9147  0.3274  0.4772
 5971SOL    HW129546   3.255   0.742   3.977  2.6681  0.6408 -1.8797
 5971SOL    HW229547   3.180   0.618   4.019  1.1723  1.8018  1.4895
 5972SOL     OW29548   3.744   4.465   9.657  0.0951 -0.7624 -0.0903
 5972SOL    HW129549   3.691   4.476   9.578 -0.6270 -2.2563  0.1835
 5972SOL    HW229550   3.698   4.393   9.701  1.4926 -1.5790  0.0205
 5973SOL     OW29551   0.052   3.136   4.296  0.5643  0.2543 -0.6816
 5973SOL    HW129552   4.698   3.132   4.323  0.1161  0.7718 -2.1262
 5973SOL    HW229553   0.094   3.196   4.358  1.3110 -3.0603  1.9960
 5974SOL     OW29554   1.853   4.381   4.353 -0.4042  0.2885 -0.1658
 5974SOL    HW129555   1.939   4.343   4.374  1.1287  2.4749 -2.4509
 5974SOL    HW229556   1.787   4.315   4.375  1.0904 -1.3169 -0.4968
 5975SOL     OW29557   1.367   0.724   0.992  0.0799  0.2263  0.1614
 5975SOL    HW129558   1.281   0.723   1.034  1.3059  0.0193  2.6767
 5975SOL    HW229559   1.390   0.633   1.011  1.7027  1.0042  1.9123
 5976SOL     OW29560   3.573   3.976  15.033 -0.1278  0.8261  0.3549
 5976SOL    HW129561   3.625   3.966  14.953 -0.1722  0.1872  0.4092
 5976SOL    HW229562   3.585   3.887  15.065 -0.0652  0.0373 -1.8414
 5977SOL     OW29563   0.975   0.991  14.293 -0.1643 -0.0939  0.7257
 5977SOL    HW129564   0.941   1.031  14.213  0.3842 -1.0221  0.0183
 5977SOL    HW229565   0.908   0.924  14.306 -0.7828  0.6671  1.4531
 5978SOL     OW29566   3.405   2.270   6.746  0.5945  0.2227  0.5119
 5978SOL    HW129567   3.438   2.246   6.660 -0.9819 -0.3619  0.0694
 5978SOL    HW229568   3.469   2.234   6.807  0.4250 -2.4707 -0.9066
 5979SOL     OW29569   3.374   2.809   7.105  0.4714  0.3578 -0.0974
 5979SOL    HW129570   3.465   2.789   7.128  0.3496 -0.0280  0.0387
 5979SOL    HW229571   3.371   2.903   7.122  1.1316 -0.1142  2.5448
 5980SOL     OW29572   3.819   3.127   6.574 -0.3055  1.0033 -0.2074
 5980SOL    HW129573   3.907   3.163   6.577  0.3451 -0.6042  0.1350
 5980SOL    HW229574   3.761   3.203   6.579  0.2618  1.3058  1.7870
 5981SOL     OW29575   3.722   3.028   5.648 -0.0765 -0.3377 -0.3360
 5981SOL    HW129576   3.652   3.064   5.703  0.5121 -1.8738  1.3945
 5981SOL    HW229577   3.791   3.045   5.712  0.9504 -0.8547 -1.3017
 5982SOL     OW29578   0.446   4.258  16.641  0.3372  0.7928 -0.1828
 5982SOL    HW129579   0.514   4.239  16.576  0.6958 -0.1108  0.4599
 5982SOL    HW229580   0.371   4.206  16.612  1.0898  0.1437 -0.9763
 5983SOL     OW29581   3.999   3.536   1.937 -0.7461 -0.0002 -0.1815
 5983SOL    HW129582   4.089   3.567   1.929 -0.5677 -0.9865 -1.9261
 5983SOL    HW229583   3.979   3.571   2.024 -0.9816 -0.8054  0.0936
 5984SOL     OW29584   2.976   1.741   4.579  0.1046  0.0884  0.8860
 5984SOL    HW129585   2.951   1.795   4.654  3.5174  0.1674  1.9328
 5984SOL    HW229586   2.914   1.783   4.518 -0.0107 -0.3435  0.6989
 5985SOL     OW29587   2.477   4.360  11.282 -0.5854  0.0959 -0.0928
 5985SOL    HW129588   2.388   4.396  11.281 -0.4678  0.3628 -1.5390
 5985SOL    HW229589   2.514   4.418  11.215  0.3262  2.1020  2.1591
 5986SOL     OW29590   2.232   1.213   7.084  0.0357  1.0207  0.2159
 5986SOL    HW129591   2.157   1.198   7.142  1.7102 -3.9669  1.0409
 5986SOL    HW229592   2.275   1.129   7.097 -0.3891  0.8431  0.4927
 5987SOL     OW29593   2.557   3.941  14.541  0.4001  0.7763  0.5358
 5987SOL    HW129594   2.519   3.976  14.622 -0.8508  0.6977 -0.0174
 5987SOL    HW229595   2.505   3.982  14.473  0.4982  0.1090  0.0607
 5988SOL     OW29596   4.387   1.962  10.626 -0.2940 -0.1317 -0.6222
 5988SOL    HW129597   4.429   1.928  10.705  0.0582 -1.4927 -1.4002
 5988SOL    HW229598   4.298   1.968  10.660 -0.3141 -0.8896 -0.5382
 5989SOL     OW29599   1.801   0.398   3.626  0.0391 -0.6735  0.6546
 5989SOL    HW129600   1.751   0.384   3.707 -1.6325  2.0515  0.0571
 5989SOL    HW229601   1.844   0.312   3.628  2.2388  0.3883 -0.2606
 5990SOL     OW29602   0.847   3.692   2.549  1.0301 -0.4555  0.2344
 5990SOL    HW129603   0.886   3.777   2.530  0.6151 -0.2507  0.2920
 5990SOL    HW229604   0.815   3.705   2.638 -1.3535 -0.8530 -0.5509
 5991SOL     OW29605   2.804   3.180  11.178  0.4036 -0.2410  0.2476
 5991SOL    HW129606   2.709   3.182  11.188  0.1573  0.8393 -2.2622
 5991SOL    HW229607   2.824   3.266  11.216  2.5652 -0.3995 -0.5470
 5992SOL     OW29608   0.967   0.041   3.087  0.1067  0.2612 -0.2012
 5992SOL    HW129609   0.908   4.703   3.089 -1.2515  1.3138 -0.6130
 5992SOL    HW229610   1.042   4.727   3.059 -1.3346 -1.4043 -0.9740
 5993SOL     OW29611   0.763   1.031   3.860  0.4072 -0.0075  0.2180
 5993SOL    HW129612   0.854   1.011   3.883  0.8839  1.6438 -0.1718
 5993SOL    HW229613   0.754   1.121   3.894  0.9423 -0.0113  0.3875
 5994SOL     OW29614   2.571   4.381   3.358  0.0753  0.4144 -0.1259
 5994SOL    HW129615   2.630   4.319   3.401  0.3858  1.5343  1.0460
 5994SOL    HW229616   2.488   4.348   3.395 -0.0774  1.3311  0.3603
 5995SOL     OW29617   1.079   1.652   1.888  0.0643  0.6701 -0.4003
 5995SOL    HW129618   0.991   1.648   1.926 -0.3745  1.6040 -1.3440
 5995SOL    HW229619   1.077   1.737   1.845 -0.2910  1.5330  1.3147
 5996SOL     OW29620   0.190   3.104  10.207 -0.1419  0.1137  0.4060
 5996SOL    HW129621   0.165   3.183  10.255 -2.0517  0.3683 -1.0322
 5996SOL    HW229622   0.169   3.029  10.263  1.8316 -1.2508 -0.6685
 5997SOL     OW29623   3.885   1.604   3.003 -0.2753 -0.2379 -0.2565
 5997SOL    HW129624   3.836   1.590   3.084 -1.4746 -1.1425 -1.1329
 5997SOL    HW229625   3.908   1.517   2.971  1.6180 -0.7794  2.5830
 5998SOL     OW29626   3.546   1.306   8.027  0.0828 -0.3458  0.6253
 5998SOL    HW129627   3.561   1.396   8.059  0.5733 -2.2753  5.8800
 5998SOL    HW229628   3.459   1.296   8.066  0.2401  0.8285  1.2769
 5999SOL     OW29629   1.838   2.554   7.803 -0.5358  0.2156  0.0314
 5999SOL    HW129630   1.781   2.498   7.751 -1.7270  0.7130  0.7812
 5999SOL    HW229631   1.774   2.602   7.856 -0.9325  0.9787 -1.1416
 6000SOL     OW29632   3.474   3.820   2.928  0.4446 -0.3825  0.0425
 6000SOL    HW129633   3.387   3.808   2.967  0.9284 -2.3294  0.5051
 6000SOL    HW229634   3.465   3.761   2.853  0.8722  0.4250 -0.6480
 6001SOL     OW29635   1.068   1.538  15.415 -0.3194  0.0794  0.0257
 6001SOL    HW129636   1.030   1.539  15.502 -3.0453 -2.3073 -1.1368
 6001SOL    HW229637   1.057   1.628  15.383  1.3343 -0.4542 -2.0840
 6002SOL     OW29638   3.254   2.711   8.750 -0.0994 -0.3955 -0.6343
 6002SOL    HW129639   3.249   2.722   8.655 -0.9891 -0.7019 -0.6261
 6002SOL    HW229640   3.170   2.745   8.779 -0.3282 -2.8799  1.6711
 6003SOL     OW29641   4.731   3.866   2.355 -0.3563  0.3488 -0.4640
 6003SOL    HW129642   4.696   3.947   2.390 -1.5559 -0.3037 -0.1429
 6003SOL    HW229643   4.654   3.817   2.324  0.7439 -1.1897 -0.7316
 6004SOL     OW29644   3.392   0.431   6.215 -0.1393  0.1814 -0.0309
 6004SOL    HW129645   3.415   0.508   6.163  2.5108  0.9337  2.2468
 6004SOL    HW229646   3.472   0.404   6.260 -1.0664  0.0129  1.5393
 6005SOL     OW29647   1.004   4.132  12.429 -0.4710 -0.2342 -0.0802
 6005SOL    HW129648   0.925   4.089  12.395 -1.0258  0.6387  0.1116
 6005SOL    HW229649   0.969   4.171  12.508 -0.1601  0.8796 -0.4992
 6006SOL     OW29650   2.278   4.090   4.370 -0.1423 -0.5210 -0.0647
 6006SOL    HW129651   2.298   3.998   4.352  1.0701 -0.2559 -0.0647
 6006SOL    HW229652   2.360   4.110   4.416  0.6694  0.1554 -1.8033
 6007SOL     OW29653   4.148   2.876   1.917  0.5560  0.2330  1.0523
 6007SOL    HW129654   4.189   2.827   1.845  0.1143 -1.2955  1.8433
 6007SOL    HW229655   4.226   2.919   1.952 -0.0584  0.3544  2.2585
 6008SOL     OW29656   0.298   2.216   2.510  0.4280  0.7221 -0.4936
 6008SOL    HW129657   0.286   2.311   2.514 -0.1530  0.6558 -0.7355
 6008SOL    HW229658   0.252   2.189   2.590  0.1828  3.5428  0.3160
 6009SOL     OW29659   1.353   4.503   6.667 -1.0469  0.1650 -0.1513
 6009SOL    HW129660   1.277   4.448   6.686 -3.0535  2.4700 -1.5449
 6009SOL    HW229661   1.396   4.452   6.598 -0.3000 -1.5023  1.5156
 6010SOL     OW29662   2.715   4.529   6.355  0.0130  0.2119 -0.1497
 6010SOL    HW129663   2.685   4.579   6.431  1.2796  1.4186 -0.4516
 6010SOL    HW229664   2.796   4.491   6.388 -1.2540 -1.1748  1.3877
 6011SOL     OW29665   3.516   2.603   9.446 -0.1382 -0.1086 -0.2044
 6011SOL    HW129666   3.421   2.592   9.448 -0.3288  1.5993 -0.0098
 6011SOL    HW229667   3.547   2.586   9.535 -1.3338  2.7845  0.7589
 6012SOL     OW29668   2.135   4.555   8.536  0.0594  0.2567 -0.5127
 6012SOL    HW129669   2.172   4.604   8.463  0.2185 -0.5795 -0.9870
 6012SOL    HW229670   2.048   4.528   8.506 -0.2078 -0.3033  0.7932
 6013SOL     OW29671   4.254   1.874   1.966 -1.0477 -0.0066 -0.5822
 6013SOL    HW129672   4.231   1.794   2.015 -0.4425  0.9359  1.2477
 6013SOL    HW229673   4.340   1.840   1.941 -0.2843  2.0120 -0.6756
 6014SOL     OW29674   0.516   4.138   2.478 -0.0458  0.3085  0.4260
 6014SOL    HW129675   0.516   4.180   2.392  0.1885 -2.2474 -0.8343
 6014SOL    HW229676   0.483   4.049   2.462  0.9289  0.1530 -0.7234
 6015SOL     OW29677   0.401   1.528  15.816 -0.2263 -0.1443 -0.2993
 6015SOL    HW129678   0.409   1.436  15.791  2.3375 -0.6515  2.3313
 6015SOL    HW229679   0.492   1.556  15.823  0.0497 -1.4751  1.4533
 6016SOL     OW29680   0.466   2.543   2.124 -0.3657  0.6272 -0.3062
 6016SOL    HW129681   0.424   2.466   2.161 -2.2289  2.1116  0.6523
 6016SOL    HW229682   0.559   2.525   2.143 -0.2646 -0.3609 -1.7530
 6017SOL     OW29683   0.248   2.371  12.440  0.4478 -0.5354  0.5378
 6017SOL    HW129684   0.166   2.420  12.428  1.0818  0.8892  1.9639
 6017SOL    HW229685   0.276   2.379  12.349  0.5953  0.0749  0.6315
 6018SOL     OW29686   3.443   0.915   7.947  0.5434  0.5467 -0.1292
 6018SOL    HW129687   3.410   0.976   7.881 -0.2493 -1.5377 -1.6383
 6018SOL    HW229688   3.524   0.888   7.905  0.3892 -0.3636  0.1701
 6019SOL     OW29689   1.856   0.331   7.907 -0.5306  0.3920  0.0536
 6019SOL    HW129690   1.896   0.315   7.821 -2.6936 -0.3214 -0.8233
 6019SOL    HW229691   1.766   0.348   7.879 -0.9170 -0.2912  0.8861
 6020SOL     OW29692   2.357   0.006   7.017 -1.0729  0.1797  0.5771
 6020SOL    HW129693   2.374   0.095   6.985  1.9107 -0.1932  1.1502
 6020SOL    HW229694   2.387   4.689   6.945 -1.3990 -0.1896  0.7221
 6021SOL     OW29695   1.312   3.542  10.919  0.0773  0.0566 -0.0061
 6021SOL    HW129696   1.325   3.448  10.931 -1.2561 -0.0269  0.8041
 6021SOL    HW229697   1.218   3.540  10.898 -0.2229 -0.1416  1.3524
 6022SOL     OW29698   1.881   3.756   4.294 -0.0663  0.3961  0.3381
 6022SOL    HW129699   1.864   3.753   4.388  1.5326  2.9509  0.7161
 6022SOL    HW229700   1.976   3.743   4.289  0.0091  0.3284  1.7789
 6023SOL     OW29701   2.530   4.724   1.260  0.6825 -0.0787  0.2906
 6023SOL    HW129702   2.620   0.019   1.261 -0.6518  3.5947 -0.1914
 6023SOL    HW229703   2.502   4.728   1.351  2.7281  2.1616  0.8154
 6024SOL     OW29704   3.485   2.082   6.150 -0.1265 -0.3665  0.5332
 6024SOL    HW129705   3.438   2.141   6.091  2.2251  2.2970  1.3354
 6024SOL    HW229706   3.412   2.040   6.195 -1.1028  0.2860 -0.4364
 6025SOL     OW29707   1.528   2.145   6.954  0.0198 -0.0186  1.0230
 6025SOL    HW129708   1.540   2.237   6.929  1.0934 -0.7382 -1.1615
 6025SOL    HW229709   1.597   2.132   7.019 -1.2336  2.0386  2.7255
 6026SOL     OW29710   0.754   4.728   5.140  0.1856 -0.3173 -0.3412
 6026SOL    HW129711   0.698   0.035   5.202  0.3174  1.5267 -1.5464
 6026SOL    HW229712   0.794   0.071   5.108 -2.1096  0.8551 -0.2034
 6027SOL     OW29713   2.403   3.467   4.679  0.2237 -0.5240 -0.0477
 6027SOL    HW129714   2.402   3.508   4.592  0.5630 -1.8756 -0.6924
 6027SOL    HW229715   2.320   3.419   4.689 -0.5957  0.6398 -1.1781
 6028SOL     OW29716   2.312   4.422   3.546 -0.0775  0.0340  0.4723
 6028SOL    HW129717   2.339   4.454   3.632 -2.4448 -0.0460  1.2603
 6028SOL    HW229718   2.320   4.327   3.547 -1.0036 -0.0690 -2.7773
 6029SOL     OW29719   3.423   1.575   9.060 -0.0762  0.3851  0.0422
 6029SOL    HW129720   3.508   1.532   9.046  0.2352  0.2950  2.2909
 6029SOL    HW229721   3.453   1.639   9.125  1.6478  1.5389 -1.8574
 6030SOL     OW29722   2.219   3.580   4.287 -0.1814  0.8809  0.2531
 6030SOL    HW129723   2.194   3.590   4.196 -1.6312  0.1395  0.5777
 6030SOL    HW229724   2.269   3.498   4.284 -0.1723  0.8510  1.1250
 6031SOL     OW29725   4.490   4.377   3.373  0.2964 -0.2977  0.3795
 6031SOL    HW129726   4.424   4.362   3.441 -0.4400 -1.2448 -0.5474
 6031SOL    HW229727   4.440   4.374   3.292  1.1632  0.1882 -0.1774
 6032SOL     OW29728   4.186   4.688   1.191 -0.2463  0.4710 -0.0690
 6032SOL    HW129729   4.134   4.641   1.257 -0.8998 -1.0485 -1.6602
 6032SOL    HW229730   4.174   4.630   1.116 -2.6210 -0.0683  0.7156
 6033SOL     OW29731   2.123   4.008  11.673  0.1397 -0.0884 -0.5432
 6033SOL    HW129732   2.038   4.002  11.630  0.2974 -1.6719 -0.6306
 6033SOL    HW229733   2.143   3.915  11.685 -0.7610  0.1872  2.9446
 6034SOL     OW29734   1.151   3.779   8.560 -0.1989  0.6071 -0.2601
 6034SOL    HW129735   1.133   3.870   8.534 -3.7592  0.5038  1.9926
 6034SOL    HW229736   1.171   3.788   8.653  2.2418 -0.8258 -0.6394
 6035SOL     OW29737   3.049   3.299   9.400 -0.2030  0.0554 -0.0099
 6035SOL    HW129738   3.034   3.360   9.328  0.2009  0.6079  0.3784
 6035SOL    HW229739   3.128   3.263   9.360 -0.4852  0.4585 -0.9215
 6036SOL     OW29740   0.650   0.947   7.949 -0.2453 -0.0363  0.9069
 6036SOL    HW129741   0.704   0.999   8.009  0.9543 -0.3908  0.1282
 6036SOL    HW229742   0.661   0.862   7.992 -1.3057 -1.1279 -0.9900
 6037SOL     OW29743   1.703   2.635   3.998 -0.1525 -0.2871  0.3814
 6037SOL    HW129744   1.615   2.668   4.012 -0.0670  1.0483 -2.2619
 6037SOL    HW229745   1.687   2.542   4.010  0.0223 -0.5756 -1.6578
 6038SOL     OW29746   2.201   4.718  17.068 -0.1880 -0.1626 -0.2915
 6038SOL    HW129747   2.200   4.732  16.974  1.1482  1.3323 -0.0868
 6038SOL    HW229748   2.296   4.725  17.079 -0.2649  0.1166  0.1917
 6039SOL     OW29749   4.483   4.674  17.208  0.0127  0.2409 -0.4223
 6039SOL    HW129750   4.525   4.620  17.275  2.6344  3.1870  0.3188
 6039SOL    HW229751   4.486   4.609  17.139 -3.3653 -1.0713  0.6841
 6040SOL     OW29752   2.453   0.401   3.812 -0.0371 -0.8099 -0.2850
 6040SOL    HW129753   2.382   0.408   3.748  0.7309 -1.4101 -1.2117
 6040SOL    HW229754   2.460   0.308   3.833  2.4549 -0.4542  0.5040
 6041SOL     OW29755   0.900   3.904  11.350  0.0910  0.2498  0.7089
 6041SOL    HW129756   0.859   3.985  11.319 -0.9803  0.0547  1.6124
 6041SOL    HW229757   0.988   3.906  11.314 -0.2817 -0.7035 -0.2621
 6042SOL     OW29758   1.249   4.621   2.729 -0.0602 -0.6924  0.1796
 6042SOL    HW129759   1.177   4.559   2.741  0.0296 -1.4222 -2.9933
 6042SOL    HW229760   1.243   4.654   2.639 -0.4973  0.3149  0.5721
 6043SOL     OW29761   0.348   3.638   1.855 -0.0068 -0.4250  0.1729
 6043SOL    HW129762   0.392   3.657   1.938 -2.8627  2.2577  1.0747
 6043SOL    HW229763   0.380   3.700   1.790  0.4138 -0.2274  0.5684
 6044SOL     OW29764   2.641   3.150  14.799  0.1212 -0.3456 -0.0939
 6044SOL    HW129765   2.594   3.073  14.830  1.2084 -0.3185  1.5974
 6044SOL    HW229766   2.688   3.170  14.880  2.8856 -0.4090 -1.6627
 6045SOL     OW29767   2.485   1.290   6.298 -0.8019 -0.0373 -0.1762
 6045SOL    HW129768   2.547   1.271   6.368 -1.5990  0.4821  0.6709
 6045SOL    HW229769   2.506   1.376   6.262 -0.1948  0.0429  0.3636
 6046SOL     OW29770   0.196   4.097   1.761  0.0659  0.2816 -0.1022
 6046SOL    HW129771   0.104   4.123   1.776  0.4615  0.2723  2.2995
 6046SOL    HW229772   0.235   4.125   1.843 -2.4022  1.6981  0.6109
 6047SOL     OW29773   3.498   2.646  15.911 -0.0066  0.6231 -1.1706
 6047SOL    HW129774   3.587   2.666  15.880  1.8693 -1.1870  2.9954
 6047SOL    HW229775   3.473   2.578  15.848  1.1243  0.2882 -1.2679
 6048SOL     OW29776   0.270   3.578   8.205  0.1064 -0.6297  0.1188
 6048SOL    HW129777   0.355   3.584   8.162 -1.4283 -2.3825 -3.1730
 6048SOL    HW229778   0.275   3.660   8.253 -0.2144 -0.8713  0.5660
 6049SOL     OW29779   0.275   2.078   4.229  0.0735 -0.1329 -0.0141
 6049SOL    HW129780   0.366   2.051   4.236  0.2458  0.6198  0.5663
 6049SOL    HW229781   0.224   1.997   4.240 -1.3093  0.6301 -0.7555
 6050SOL     OW29782   1.770   0.021   2.942 -0.2532 -0.1934  0.0893
 6050SOL    HW129783   1.740   0.069   3.019 -1.1040 -0.8459  0.1591
 6050SOL    HW229784   1.744   4.668   2.962  0.9978  0.1391  3.2482
 6051SOL     OW29785   1.745   0.060   3.864 -0.0756  0.4559 -0.2890
 6051SOL    HW129786   1.808   4.733   3.832 -0.1652  0.8461 -1.2540
 6051SOL    HW229787   1.697   0.070   3.782 -0.5828 -0.9644 -0.1612
 6052SOL     OW29788   2.235   1.592   3.101  0.4885 -0.3710 -0.2502
 6052SOL    HW129789   2.232   1.625   3.011 -1.1115  0.5408  0.1343
 6052SOL    HW229790   2.328   1.570   3.101  1.2090  2.6939 -1.7597
 6053SOL     OW29791   2.374   1.235   0.839  0.2368  0.2764 -0.0919
 6053SOL    HW129792   2.300   1.295   0.839  1.0840  1.3107 -1.4636
 6053SOL    HW229793   2.320   1.164   0.803 -2.3714  2.0856  0.2238
 6054SOL     OW29794   3.448   2.050   5.834 -0.4315 -0.1731 -0.2278
 6054SOL    HW129795   3.518   2.108   5.803 -1.6089  0.5557 -1.5156
 6054SOL    HW229796   3.400   2.107   5.894  0.1298 -1.3245  1.3141
 6055SOL     OW29797   1.962   3.181  15.072 -0.2107 -0.2163  0.2365
 6055SOL    HW129798   1.892   3.246  15.066 -0.0651 -0.1820 -1.0319
 6055SOL    HW229799   1.959   3.137  14.988  0.3229 -1.3532  0.8231
 6056SOL     OW29800   2.296   0.162   3.019  0.6650  0.1759  0.1250
 6056SOL    HW129801   2.253   0.220   2.956  0.4328  0.8278  0.8840
 6056SOL    HW229802   2.386   0.176   2.990  0.3897  3.1830  0.7413
 6057SOL     OW29803   0.625   4.716   7.011  0.2140 -0.6214 -0.2432
 6057SOL    HW129804   0.561   0.032   7.058 -0.0305  0.0354 -1.3219
 6057SOL    HW229805   0.663   0.036   6.946  2.2144 -2.0209 -0.3245
 6058SOL     OW29806   2.348   0.523  10.669  0.1890  0.1637  0.1187
 6058SOL    HW129807   2.396   0.494  10.747 -0.1967 -0.4336  0.1316
 6058SOL    HW229808   2.397   0.484  10.597 -0.5721  1.6706 -1.2150
 6059SOL     OW29809   1.927   4.364   5.559 -0.1695  0.9700 -0.3737
 6059SOL    HW129810   1.877   4.362   5.641  0.1359 -2.2746 -0.2609
 6059SOL    HW229811   1.862   4.329   5.498  0.4262 -0.5285 -0.1596
 6060SOL     OW29812   3.582   2.337   2.489  0.1817  0.9485  0.0409
 6060SOL    HW129813   3.615   2.339   2.579  0.3193 -0.0019  0.0069
 6060SOL    HW229814   3.663   2.346   2.439 -0.0622  1.6911 -0.2396
 6061SOL     OW29815   2.566   3.988  10.117 -0.5525  0.1200 -0.4310
 6061SOL    HW129816   2.498   3.946  10.064  0.1967  0.8293 -1.9477
 6061SOL    HW229817   2.576   3.929  10.192 -1.1427  0.2758 -0.2346
 6062SOL     OW29818   0.571   2.754   9.753 -0.5182  0.2325 -0.1065
 6062SOL    HW129819   0.574   2.712   9.667  2.6555 -2.4632  1.3106
 6062SOL    HW229820   0.479   2.759   9.778 -1.0425 -0.7056 -1.8801
 6063SOL     OW29821   4.671   4.156   1.248  0.0005  0.1998 -0.1998
 6063SOL    HW129822   0.025   4.183   1.246  0.4823 -1.0836  3.6801
 6063SOL    HW229823   4.624   4.236   1.225  0.3074  0.5322  0.3356
 6064SOL     OW29824   4.043   3.422   5.935  0.0217 -0.4359  0.9084
 6064SOL    HW129825   4.007   3.338   5.964  0.6592  0.1003  3.2853
 6064SOL    HW229826   4.002   3.429   5.849  1.4811  0.7226  0.3094
 6065SOL     OW29827   1.104   1.255  13.317 -0.3707 -0.2412  0.2745
 6065SOL    HW129828   1.168   1.325  13.332 -0.3897  0.2754 -2.0045
 6065SOL    HW229829   1.057   1.251  13.400  0.4959 -2.5942  0.6717
 6066SOL     OW29830   0.294   4.003   8.860  0.0976 -0.0922 -0.1383
 6066SOL    HW129831   0.226   4.000   8.927  0.5183 -2.1967  0.1992
 6066SOL    HW229832   0.263   4.057   8.788 -1.1832 -2.3872 -1.2933
 6067SOL     OW29833   0.652   3.055   5.721  0.1629 -0.1382  0.2027
 6067SOL    HW129834   0.563   3.040   5.689  0.1861  0.1886 -0.0129
 6067SOL    HW229835   0.634   3.037   5.813  0.9175 -0.1914  0.3335
 6068SOL     OW29836   4.696   0.822   8.835 -0.7684 -0.5777  0.2443
 6068SOL    HW129837   0.043   0.806   8.793  0.9923 -0.5101  3.7955
 6068SOL    HW229838   4.691   0.917   8.821 -0.1287 -0.5402  0.2742
 6069SOL     OW29839   1.687   3.800   2.085 -0.1940 -0.0922  0.2152
 6069SOL    HW129840   1.755   3.835   2.028 -1.6873 -0.3566 -1.7325
 6069SOL    HW229841   1.696   3.707   2.064 -1.0054  0.0365 -0.7142
 6070SOL     OW29842   0.349   4.425   6.368  0.1618  0.5218  0.2005
 6070SOL    HW129843   0.432   4.416   6.321 -0.5339  3.6357 -1.6636
 6070SOL    HW229844   0.353   4.519   6.385 -0.4045  0.3957  0.9880
 6071SOL     OW29845   3.231   3.588   4.228  0.4145 -0.1529 -0.0743
 6071SOL    HW129846   3.223   3.611   4.135 -1.5338  1.5643  0.5300
 6071SOL    HW229847   3.173   3.512   4.229 -1.8163  1.5064 -1.6456
 6072SOL     OW29848   2.976   2.953   2.891 -0.0997 -0.1645 -0.1131
 6072SOL    HW129849   2.920   2.980   2.817 -0.5240 -1.3273 -0.2193
 6072SOL    HW229850   3.049   3.014   2.882 -1.0882  1.2649  1.5230
 6073SOL     OW29851   1.117   2.909  16.069 -0.1105 -0.3436  0.0969
 6073SOL    HW129852   1.157   2.922  15.983 -0.9137  1.0430 -0.0550
 6073SOL    HW229853   1.191   2.883  16.124 -0.6563  0.4990  1.2263
 6074SOL     OW29854   4.721   1.925  13.140 -0.2582 -0.4239 -0.4972
 6074SOL    HW129855   0.044   1.896  13.071  2.6456  1.7335  1.1585
 6074SOL    HW229856   4.698   1.997  13.082 -0.4525  0.5968  0.8649
 6075SOL     OW29857   3.116   2.262   3.103 -0.0752 -0.5448 -0.9439
 6075SOL    HW129858   3.096   2.277   3.010  1.7820  1.3813 -1.0278
 6075SOL    HW229859   3.105   2.168   3.121 -1.8498 -0.2128 -0.3504
 6076SOL     OW29860   2.313   2.961   8.116 -0.2479  0.5612  0.1439
 6076SOL    HW129861   2.318   3.005   8.201 -0.4186  1.6518 -0.4080
 6076SOL    HW229862   2.287   2.870   8.131 -0.5166  0.9082  1.7596
 6077SOL     OW29863   1.309   1.477   9.427 -0.5884  0.0745  0.0940
 6077SOL    HW129864   1.339   1.516   9.345 -3.3919  1.6268 -0.2162
 6077SOL    HW229865   1.215   1.474   9.408 -0.6167 -0.0144  0.2526
 6078SOL     OW29866   4.487   1.541   5.214 -0.5919 -0.9017  0.3120
 6078SOL    HW129867   4.548   1.596   5.263  0.9195 -0.4859 -1.9959
 6078SOL    HW229868   4.410   1.550   5.269  0.9090  1.2913  2.0476
 6079SOL     OW29869   2.856   3.164   4.088 -0.5074  0.0146 -0.2446
 6079SOL    HW129870   2.855   3.248   4.134 -2.2443 -0.3296  0.3827
 6079SOL    HW229871   2.950   3.147   4.087 -0.3803  0.6759  0.5983
 6080SOL     OW29872   0.423   0.495   7.015 -0.3071  0.4400  0.0850
 6080SOL    HW129873   0.501   0.538   6.980 -1.6196  2.3482 -0.5068
 6080SOL    HW229874   0.359   0.566   7.014 -3.1410 -2.0736  1.5382
 6081SOL     OW29875   4.075   0.220   2.476  0.2508 -0.1507  0.2397
 6081SOL    HW129876   4.144   0.280   2.502  0.4730  0.1047 -0.9064
 6081SOL    HW229877   4.116   0.166   2.408 -0.8293 -1.6989  0.8013
 6082SOL     OW29878   2.043   4.423   4.703  0.0401  0.1595  0.3948
 6082SOL    HW129879   2.049   4.381   4.617 -0.4521 -1.8282  1.3428
 6082SOL    HW229880   2.106   4.377   4.758  0.7858 -1.6251 -1.9550
 6083SOL     OW29881   2.113   4.406   2.603  0.4975  0.5110  0.0514
 6083SOL    HW129882   2.138   4.354   2.526 -1.5807 -2.4987  1.3971
 6083SOL    HW229883   2.165   4.484   2.583 -0.6375  1.1813 -0.3105
 6084SOL     OW29884   0.542   2.455   6.448  0.6505  0.1995 -0.4053
 6084SOL    HW129885   0.634   2.480   6.457  0.0693  2.2059 -0.0027
 6084SOL    HW229886   0.539   2.458   6.352  1.9244 -1.7494 -0.4920
 6085SOL     OW29887   4.737   0.619   7.337  0.7750 -0.1422 -0.3617
 6085SOL    HW129888   4.649   0.656   7.335  1.2147  0.9195 -0.3083
 6085SOL    HW229889   0.033   0.655   7.419  0.3399 -0.7632  0.0881
 6086SOL     OW29890   1.659   1.049  14.975 -0.2716  0.3942  0.4309
 6086SOL    HW129891   1.722   1.083  15.038  3.1175  0.4776 -3.0613
 6086SOL    HW229892   1.575   1.078  15.013 -1.3809 -2.3561  0.1299
 6087SOL     OW29893   3.927   1.750   3.622 -0.2477  0.1471 -0.1008
 6087SOL    HW129894   3.969   1.693   3.558 -2.1914 -0.0866 -1.1539
 6087SOL    HW229895   3.981   1.828   3.607 -0.4851  0.6251  1.5563
 6088SOL     OW29896   0.702   3.067   4.130 -0.2681 -0.0535  0.0371
 6088SOL    HW129897   0.663   2.991   4.087 -0.8264 -0.5854  1.4873
 6088SOL    HW229898   0.639   3.079   4.201 -0.8326 -0.8848 -0.3228
 6089SOL     OW29899   4.199   3.297   1.910  0.2055  0.1764 -0.2065
 6089SOL    HW129900   4.233   3.238   1.977  0.3381  1.3242  0.7498
 6089SOL    HW229901   4.210   3.382   1.954 -1.6508 -0.2106  0.9765
 6090SOL     OW29902   0.593   4.699   1.258  0.3417  0.4011 -0.5228
 6090SOL    HW129903   0.584   4.731   1.348 -1.7474 -1.7262  0.0234
 6090SOL    HW229904   0.603   0.046   1.214  0.1986 -0.5763 -2.4267
 6091SOL     OW29905   1.061   2.782   4.509 -0.4170  0.4762  0.2300
 6091SOL    HW129906   1.058   2.777   4.605 -1.3604  0.3519  0.2007
 6091SOL    HW229907   0.999   2.852   4.492  0.1793  1.0416  0.4049
 6092SOL     OW29908   0.198   1.247  12.439 -0.2929  0.4106 -0.1552
 6092SOL    HW129909   0.166   1.200  12.362  0.8849 -2.2215  0.9697
 6092SOL    HW229910   0.269   1.298  12.402  1.4973 -1.7059  0.3593
 6093SOL     OW29911   4.466   0.931   2.848 -0.0164  0.0066 -0.4539
 6093SOL    HW129912   4.487   0.839   2.835  1.1846  0.1619  0.4252
 6093SOL    HW229913   4.550   0.953   2.887  0.5658  0.0439 -1.7254
 6094SOL     OW29914   1.006   3.242   3.971  0.0965 -0.6963 -0.2932
 6094SOL    HW129915   0.997   3.297   4.049  0.1018 -0.6638 -0.3156
 6094SOL    HW229916   0.915   3.217   3.952  0.1342 -1.2570  0.2755
 6095SOL     OW29917   0.163   2.050   7.615  0.3412  0.1616  0.3672
 6095SOL    HW129918   0.191   1.988   7.682  2.0587  0.4618 -0.0598
 6095SOL    HW229919   0.069   2.037   7.628  0.4551  1.1413  2.2508
 6096SOL     OW29920   3.937   2.296   0.595  0.1972 -0.2698  0.2137
 6096SOL    HW129921   3.925   2.285   0.501  2.3516 -1.0339  0.0101
 6096SOL    HW229922   3.924   2.208   0.631  0.3796 -0.6608 -0.6823
 6097SOL     OW29923   0.988   1.714   6.919  0.1211 -0.2637  0.5214
 6097SOL    HW129924   0.937   1.698   6.998 -0.8448 -1.1942 -0.2799
 6097SOL    HW229925   1.041   1.784   6.956 -1.0105  0.7891  0.1276
 6098SOL     OW29926   0.473   3.750   9.813  0.1045 -0.4114  0.3676
 6098SOL    HW129927   0.522   3.698   9.877 -0.8083 -0.8196  0.7353
 6098SOL    HW229928   0.448   3.830   9.859 -0.6316 -1.5834  1.9861
 6099SOL     OW29929   4.396   3.650  11.569  0.4992  0.0740  0.0338
 6099SOL    HW129930   4.449   3.597  11.627  2.3851 -0.8605 -2.5515
 6099SOL    HW229931   4.308   3.622  11.596  1.3734 -0.6719  2.1007
 6100SOL     OW29932   4.507   0.873   1.551 -0.1900 -0.0014  0.3368
 6100SOL    HW129933   4.565   0.817   1.500  2.4751 -0.5393  3.9462
 6100SOL    HW229934   4.533   0.851   1.641  4.1785  0.2402 -0.8612
 6101SOL     OW29935   1.780   0.578  13.741 -0.4775  0.2353  0.0282
 6101SOL    HW129936   1.699   0.602  13.696  1.0226  2.5815 -1.4494
 6101SOL    HW229937   1.768   0.487  13.766  0.1745 -0.2162 -1.3383
 6102SOL     OW29938   2.014   4.701   9.119  0.8167  0.3520  0.3322
 6102SOL    HW129939   2.066   4.736   9.047 -0.8564 -2.4106 -2.2187
 6102SOL    HW229940   1.949   0.032   9.133 -1.3839 -1.5556 -0.5126
 6103SOL     OW29941   3.343   1.566  15.337 -0.0841 -0.0175 -0.1359
 6103SOL    HW129942   3.437   1.586  15.339 -0.0788 -0.1345  0.7317
 6103SOL    HW229943   3.335   1.514  15.417  2.2751 -0.9946 -0.5320
 6104SOL     OW29944   4.630   3.269   7.296  0.7233 -0.0925  0.0143
 6104SOL    HW129945   4.624   3.277   7.391  0.8703  0.9709 -0.0664
 6104SOL    HW229946   4.720   3.293   7.275  0.1617  1.1130 -1.0603
 6105SOL     OW29947   1.940   2.274   5.182  0.1267  0.5789  0.1764
 6105SOL    HW129948   1.854   2.301   5.148  0.9480  0.2532 -2.1598
 6105SOL    HW229949   1.949   2.185   5.151  1.9557  0.9088 -0.2140
 6106SOL     OW29950   3.301   4.258   6.762 -0.1825  0.5029  0.3101
 6106SOL    HW129951   3.352   4.241   6.840  0.6396  0.0165 -0.3403
 6106SOL    HW229952   3.226   4.301   6.804 -0.6994 -0.2200  0.1184
 6107SOL     OW29953   3.734   3.282  12.727 -0.2689 -0.4274  0.0589
 6107SOL    HW129954   3.729   3.188  12.708 -0.8664 -0.3838 -0.0103
 6107SOL    HW229955   3.640   3.301  12.737 -0.0134  1.8651 -2.0624
 6108SOL     OW29956   3.024   0.437   6.974 -0.3701  0.0380  0.1691
 6108SOL    HW129957   3.026   0.399   7.062 -2.1869 -1.7842 -0.5830
 6108SOL    HW229958   2.976   0.369   6.927  0.7512  0.7417 -1.9907
 6109SOL     OW29959   0.797   4.074   0.100 -0.1410  0.2635 -0.4099
 6109SOL    HW129960   0.740   4.002   0.071  0.5218 -0.5457  0.2952
 6109SOL    HW229961   0.770   4.133   0.030  1.8097 -0.0449 -1.4206
 6110SOL     OW29962   0.268   1.724   5.512 -0.3750  0.3064  0.5606
 6110SOL    HW129963   0.282   1.631   5.530 -1.0218  0.5181  2.1982
 6110SOL    HW229964   0.181   1.744   5.546  0.4388 -0.2734  2.9986
 6111SOL     OW29965   3.510   1.888  17.036  0.1943  0.3790  0.0932
 6111SOL    HW129966   3.510   1.795  17.014  2.6389  0.7910 -1.6159
 6111SOL    HW229967   3.416   1.888  17.054 -0.2268 -1.6200 -2.1895
 6112SOL     OW29968   1.137   2.764   8.046  0.0113 -0.0634  0.1148
 6112SOL    HW129969   1.069   2.714   8.002 -0.7465 -1.0074  2.3448
 6112SOL    HW229970   1.185   2.807   7.975 -2.2102  2.0277 -0.1356
 6113SOL     OW29971   1.410   3.438   9.060 -0.3547 -0.1790 -0.6703
 6113SOL    HW129972   1.459   3.501   9.113 -1.5960  0.1986  0.0130
 6113SOL    HW229973   1.486   3.395   9.020  0.9126 -0.1707  1.7645
 6114SOL     OW29974   0.316   2.364   5.098  0.6180  0.1832 -0.2027
 6114SOL    HW129975   0.247   2.301   5.119  0.4623  0.1618 -0.7920
 6114SOL    HW229976   0.361   2.322   5.025 -0.0561 -2.9396  1.1807
 6115SOL     OW29977   1.275   2.351   3.465 -0.0159 -0.8587  0.3814
 6115SOL    HW129978   1.223   2.389   3.394 -1.7097 -2.4456  0.7820
 6115SOL    HW229979   1.362   2.383   3.441 -2.2244  2.3805 -3.2802
 6116SOL     OW29980   2.094   2.325   9.129  0.3705 -0.2724  0.2436
 6116SOL    HW129981   2.013   2.339   9.080 -0.7003  1.4163  2.5088
 6116SOL    HW229982   2.161   2.318   9.061  0.8613 -1.4296  0.8443
 6117SOL     OW29983   4.140   3.842   2.671 -0.3546  0.2275 -0.3008
 6117SOL    HW129984   4.161   3.749   2.683  0.2907  0.3352 -0.6049
 6117SOL    HW229985   4.175   3.855   2.583  0.0293  0.9552 -0.0384
 6118SOL     OW29986   4.410   0.787  16.230  0.0294 -0.2921  0.2031
 6118SOL    HW129987   4.497   0.787  16.191  0.0344 -0.2065  0.2137
 6118SOL    HW229988   4.430   0.801  16.323 -0.8872 -0.1003  0.3694
 6119SOL     OW29989   3.192   0.784   3.025 -0.0380 -0.3081  0.1862
 6119SOL    HW129990   3.189   0.781   3.121 -1.7137  0.9406  0.1769
 6119SOL    HW229991   3.280   0.814   3.001 -0.7975  1.3171 -0.5352
 6120SOL     OW29992   2.629   2.699  16.364  0.2207 -0.4162  0.4101
 6120SOL    HW129993   2.624   2.783  16.319 -0.6773 -0.6350  0.1068
 6120SOL    HW229994   2.723   2.694  16.381 -0.1371 -0.2310  2.3822
 6121SOL     OW29995   2.492   2.317   9.395 -0.2909  0.3410  0.0533
 6121SOL    HW129996   2.446   2.322   9.479 -1.7080 -1.0298 -0.6416
 6121SOL    HW229997   2.552   2.391   9.397  1.6258 -1.2249 -0.1036
 6122SOL     OW29998   0.341   0.138   0.225 -0.1894  0.3317 -0.3155
 6122SOL    HW129999   0.306   0.052   0.203 -1.1714  0.1000  2.1992
 6122SOL    HW230000   0.266   0.195   0.210 -0.4568  0.5461  1.7757
 6123SOL     OW30001   0.264   0.326  13.027 -0.0205  0.0968  0.0224
 6123SOL    HW130002   0.300   0.405  12.987 -0.6009 -0.2625 -1.1956
 6123SOL    HW230003   0.322   0.327  13.103 -1.9833 -0.6214  1.5338
 6124SOL     OW30004   3.836   0.093   4.537 -0.0854 -1.4045  0.2164
 6124SOL    HW130005   3.823   0.027   4.605 -2.1260 -0.2825  0.9041
 6124SOL    HW230006   3.832   0.034   4.462  0.1350 -0.3696 -0.5951
 6125SOL     OW30007   1.872   0.073   8.024 -0.1352  0.1501  0.2553
 6125SOL    HW130008   1.788   0.032   8.043 -0.3040  0.6918  0.6846
 6125SOL    HW230009   1.862   0.130   7.947 -0.3007 -0.2509 -0.0229
 6126SOL     OW30010   2.737   2.078   9.966 -0.4147 -0.2334  0.4984
 6126SOL    HW130011   2.824   2.067   9.927  0.0755  0.7596  1.3072
 6126SOL    HW230012   2.719   2.158   9.918 -3.0790 -1.7635 -1.0616
 6127SOL     OW30013   0.211   0.986   0.050 -0.1771  0.4160 -0.4107
 6127SOL    HW130014   0.286   1.011  17.745 -0.7185  0.2176 -1.2611
 6127SOL    HW230015   0.159   0.924  17.748 -1.3590 -0.0593  1.3967
 6128SOL     OW30016   2.380   2.268  16.771 -0.1791 -0.0939 -0.2299
 6128SOL    HW130017   2.474   2.282  16.767  0.1496 -2.4598 -0.5256
 6128SOL    HW230018   2.373   2.184  16.727 -2.3573 -0.0749  0.0806
 6129SOL     OW30019   2.024   1.312   3.429  0.1631 -0.0958  0.3769
 6129SOL    HW130020   1.980   1.395   3.447 -0.7048 -0.5377  0.3209
 6129SOL    HW230021   1.972   1.261   3.491  0.5692 -2.0558 -0.8944
 6130SOL     OW30022   4.468   1.219  11.902  0.7015  0.1573 -0.0779
 6130SOL    HW130023   4.487   1.308  11.931  0.4556 -0.4059  1.8454
 6130SOL    HW230024   4.502   1.220  11.813  0.3766  0.6860 -0.1963
 6131SOL     OW30025   2.399   0.990  17.462 -0.1961  0.3601  0.1509
 6131SOL    HW130026   2.335   0.994  17.391 -0.0978  1.9183  0.1462
 6131SOL    HW230027   2.473   0.957  17.412 -0.3699 -1.7589  1.3050
 6132SOL     OW30028   0.093   4.669  17.169 -0.2538 -0.2401 -0.3210
 6132SOL    HW130029   0.050   4.654  17.253  1.6652  2.6496  1.1917
 6132SOL    HW230030   0.022   4.640  17.112  1.2808 -1.8572 -1.3881
 6133SOL     OW30031   3.506   3.996   0.143  0.1925  0.0043 -0.2328
 6133SOL    HW130032   3.569   3.988   0.215 -0.3981 -2.8858 -0.0440
 6133SOL    HW230033   3.428   3.972   0.193 -0.8976  2.1727 -0.9145
 6134SOL     OW30034   3.119   3.633   7.985 -0.6001 -0.3497  0.1999
 6134SOL    HW130035   3.144   3.540   7.985  0.3855 -0.0868 -0.5461
 6134SOL    HW230036   3.193   3.679   8.025 -0.4293  0.5533 -1.1460
 6135SOL     OW30037   1.477   3.045   8.003 -0.2182 -0.3938 -0.1650
 6135SOL    HW130038   1.482   3.128   7.955 -2.6626  0.4888  1.0874
 6135SOL    HW230039   1.479   3.086   8.089 -0.5855 -1.3463  0.2881
 6136SOL     OW30040   0.149   4.349   1.530 -0.4815  0.2486 -0.2195
 6136SOL    HW130041   0.148   4.442   1.504  2.5402 -0.0552 -1.3586
 6136SOL    HW230042   0.182   4.345   1.619 -2.1684 -1.1804  0.3302
 6137SOL     OW30043   0.315   1.725   3.259  0.1717 -0.2399 -0.0656
 6137SOL    HW130044   0.342   1.815   3.273  0.1598 -0.2259 -0.1358
 6137SOL    HW230045   0.386   1.662   3.274  0.4213 -0.1699 -0.9607
 6138SOL     OW30046   0.884   4.315  15.463 -0.1288 -0.0741 -0.0974
 6138SOL    HW130047   0.871   4.315  15.368 -2.7050  1.0082  0.2476
 6138SOL    HW230048   0.804   4.363  15.482  2.4242  4.7024 -1.3252
 6139SOL     OW30049   4.466   0.667   9.548 -0.5984 -0.2143 -0.3484
 6139SOL    HW130050   4.547   0.663   9.599 -0.3068  1.1094 -0.6895
 6139SOL    HW230051   4.487   0.658   9.455  3.6306 -3.2384  0.9296
 6140SOL     OW30052   1.413   1.722   7.363 -0.5211  0.1491  0.3014
 6140SOL    HW130053   1.420   1.746   7.456  0.5604  0.2461  0.1866
 6140SOL    HW230054   1.368   1.637   7.368 -0.4472  0.0439 -1.0503
 6141SOL     OW30055   4.157   0.577  11.461 -0.3867  0.5278 -0.0671
 6141SOL    HW130056   4.092   0.508  11.476 -0.6150  0.7887  0.1298
 6141SOL    HW230057   4.128   0.659  11.501 -2.3186 -0.1457 -0.0854
 6142SOL     OW30058   1.119   2.132   2.449  0.0621  0.1819  0.2823
 6142SOL    HW130059   1.024   2.125   2.451  0.0589  0.0983 -0.3885
 6142SOL    HW230060   1.119   2.217   2.405 -1.5060  0.5961  1.0729
 6143SOL     OW30061   4.657   1.383   5.089 -0.0651 -0.0363 -0.2846
 6143SOL    HW130062   4.613   1.447   5.145  0.5450  0.2039 -0.0780
 6143SOL    HW230063   4.600   1.306   5.093  1.3157 -1.0741 -0.1176
 6144SOL     OW30064   3.504   0.126   9.071 -0.3193  0.3168  0.0574
 6144SOL    HW130065   3.494   0.065   9.144  1.2185 -0.0618 -0.0305
 6144SOL    HW230066   3.423   0.108   9.023  0.0440 -0.8320 -0.1459
 6145SOL     OW30067   4.459   1.273   5.397  0.6566  0.2035  0.4380
 6145SOL    HW130068   4.391   1.338   5.376 -3.0817 -3.3266  1.7629
 6145SOL    HW230069   4.463   1.231   5.311  0.3844 -1.0932  1.0734
 6146SOL     OW30070   1.494   1.190   2.008  0.3391 -0.5399 -0.1748
 6146SOL    HW130071   1.493   1.172   2.102  0.0965  2.5432  0.4051
 6146SOL    HW230072   1.565   1.253   2.007 -0.5856  0.4931 -1.5542
 6147SOL     OW30073   4.300   2.278  14.294 -0.1151 -0.0501  0.1016
 6147SOL    HW130074   4.258   2.248  14.214 -1.7039 -2.6678  1.9240
 6147SOL    HW230075   4.245   2.232  14.358  1.6225  1.2360  2.5305
 6148SOL     OW30076   3.486   3.839  11.025  0.3299 -0.4312 -0.0653
 6148SOL    HW130077   3.439   3.907  10.976  0.4103 -1.8410 -2.1204
 6148SOL    HW230078   3.568   3.886  11.040 -0.4081  1.4519 -1.9101
 6149SOL     OW30079   1.766   0.474   5.551  0.6308 -0.3063 -0.0074
 6149SOL    HW130080   1.692   0.529   5.577  0.9085 -0.5194  1.2294
 6149SOL    HW230081   1.737   0.424   5.475 -3.8997  0.3590  1.3160
 6150SOL     OW30082   2.011   1.133   0.379 -0.6683 -0.3276  0.4137
 6150SOL    HW130083   2.086   1.113   0.322 -1.0993 -0.0724 -0.2339
 6150SOL    HW230084   2.010   1.059   0.441 -1.3848 -0.3502  0.3734
 6151SOL     OW30085   1.284   3.377   5.779  0.2631  0.1229 -0.1586
 6151SOL    HW130086   1.330   3.411   5.703 -0.3050 -2.4589 -1.6413
 6151SOL    HW230087   1.329   3.436   5.840 -1.7377  2.1596 -0.6443
 6152SOL     OW30088   2.693   3.088   5.352 -0.5624  0.0807 -0.1370
 6152SOL    HW130089   2.730   3.055   5.433  0.2100  2.5202  0.5058
 6152SOL    HW230090   2.621   3.146   5.376 -2.0930 -2.3253  1.1184
 6153SOL     OW30091   2.871   0.976   9.874  0.2383  0.1285  0.4781
 6153SOL    HW130092   2.931   1.012   9.809  0.6041 -1.3962 -0.0168
 6153SOL    HW230093   2.873   1.055   9.928  1.1617  1.0461 -0.9064
 6154SOL     OW30094   0.148   4.735   2.615 -0.2158  0.0263 -0.2479
 6154SOL    HW130095   0.185   0.019   2.530 -1.1401 -0.8920 -0.8903
 6154SOL    HW230096   0.203   4.657   2.621 -0.8299 -0.3859  0.0325
 6155SOL     OW30097   2.128   4.440  16.116 -0.6548 -0.2357 -0.4857
 6155SOL    HW130098   2.046   4.391  16.128  0.0807 -0.6878  2.7306
 6155SOL    HW230099   2.164   4.377  16.053 -0.4053  1.4445 -2.0205
 6156SOL     OW30100   2.164   0.470   7.743 -0.5274  0.3760 -0.5043
 6156SOL    HW130101   2.231   0.481   7.675 -0.8270  0.0099 -0.8605
 6156SOL    HW230102   2.186   0.536   7.808 -1.3411  0.4063 -0.2601
 6157SOL     OW30103   3.893   4.476   3.870  0.1644  0.2654 -0.2214
 6157SOL    HW130104   3.962   4.509   3.812  0.8735 -1.5636 -0.4124
 6157SOL    HW230105   3.950   4.418   3.920 -0.1185 -0.6456 -0.9556
 6158SOL     OW30106   0.075   3.115   8.638 -0.5937  0.0145 -0.1539
 6158SOL    HW130107   0.159   3.085   8.604 -0.0352  0.6791  0.6564
 6158SOL    HW230108   0.103   3.154   8.720  1.5021 -1.4478 -0.1576
 6159SOL     OW30109   0.573   3.416   9.599 -0.2007  0.0146 -0.2286
 6159SOL    HW130110   0.562   3.480   9.529  0.6337  1.8895  1.3437
 6159SOL    HW230111   0.602   3.477   9.667  0.6298 -1.2771  0.5705
 6160SOL     OW30112   1.406   1.705   2.274  0.5717  0.1142  0.0978
 6160SOL    HW130113   1.441   1.689   2.362  3.5637 -1.2135 -1.3654
 6160SOL    HW230114   1.357   1.786   2.290  0.3841 -0.0338  0.2716
 6161SOL     OW30115   3.650   0.886   3.505  0.1839 -0.4119 -0.2580
 6161SOL    HW130116   3.694   0.808   3.536 -0.0142 -1.1941 -1.9607
 6161SOL    HW230117   3.720   0.947   3.480  0.4309 -1.7152 -2.7875
 6162SOL     OW30118   2.763   0.967  14.009 -0.4465 -0.2926 -0.7501
 6162SOL    HW130119   2.851   1.003  14.018 -0.4951 -0.3814  0.1094
 6162SOL    HW230120   2.722   1.037  14.060 -2.1914 -1.3072 -0.7554
 6163SOL     OW30121   0.508   0.531   6.632 -0.4982 -0.3462  0.6996
 6163SOL    HW130122   0.573   0.555   6.699 -1.1401  1.2944  0.7359
 6163SOL    HW230123   0.541   0.568   6.550  0.5358  1.4775  1.9284
 6164SOL     OW30124   3.934   2.063   3.344 -0.3071  0.0946  0.0809
 6164SOL    HW130125   3.853   2.017   3.366 -0.1594 -1.7260 -3.2730
 6164SOL    HW230126   3.936   2.116   3.424 -0.8022  1.1560 -0.6113
 6165SOL     OW30127   2.993   1.526  11.367 -0.0794  0.3534  0.0875
 6165SOL    HW130128   3.038   1.452  11.406 -1.0821 -1.4298 -2.1402
 6165SOL    HW230129   2.937   1.550  11.441  0.9370 -0.2716  1.0477
 6166SOL     OW30130   3.627   1.186   4.515  0.5461 -0.6593  0.1528
 6166SOL    HW130131   3.714   1.222   4.499 -0.2461  1.2459  0.1040
 6166SOL    HW230132   3.602   1.253   4.579 -1.1327 -0.6789 -0.4895
 6167SOL     OW30133   2.523   2.966   1.721  0.4092  0.2334 -0.4458
 6167SOL    HW130134   2.428   2.971   1.713  0.3343 -2.3737 -1.1911
 6167SOL    HW230135   2.548   2.926   1.638 -1.1786 -2.0989  0.1866
 6168SOL     OW30136   1.358   4.120   7.804 -0.2284 -0.1825 -0.1000
 6168SOL    HW130137   1.282   4.098   7.749 -0.9230  0.7010  0.4942
 6168SOL    HW230138   1.315   4.137   7.888  1.1058  0.6210  0.4123
 6169SOL     OW30139   3.221   4.492  17.184  0.7255 -0.2581  0.4322
 6169SOL    HW130140   3.167   4.476  17.106 -0.7908  1.8631  1.0354
 6169SOL    HW230141   3.311   4.486  17.152 -0.2835  2.6230 -2.9450
 6170SOL     OW30142   0.461   1.054  10.645 -0.3830  0.1639 -0.0359
 6170SOL    HW130143   0.450   1.148  10.659 -0.2867  0.0809  0.6212
 6170SOL    HW230144   0.437   1.031  10.735 -1.4056  2.6607  0.3256
 6171SOL     OW30145   3.818   0.708   6.030  0.3540  0.0849 -0.5349
 6171SOL    HW130146   3.744   0.649   6.047 -0.7466  1.4217 -0.6922
 6171SOL    HW230147   3.845   0.691   5.940  2.2943 -0.9875  0.2514
 6172SOL     OW30148   0.774   1.323   3.911  0.0223  0.1154 -0.2545
 6172SOL    HW130149   0.848   1.366   3.955  0.8460  0.1816 -1.7248
 6172SOL    HW230150   0.802   1.318   3.820 -1.1464 -0.4236 -0.5732
 6173SOL     OW30151   3.009   3.256   7.754  0.5318 -0.6680  0.8239
 6173SOL    HW130152   3.086   3.309   7.776  0.3129 -0.2369  0.5631
 6173SOL    HW230153   2.972   3.317   7.689 -0.8007 -1.0573  1.2240
 6174SOL     OW30154   0.025   0.943   8.312  0.6237 -0.3089 -0.0350
 6174SOL    HW130155   0.082   0.971   8.383 -1.0375  1.0149  0.7725
 6174SOL    HW230156   4.678   0.942   8.356 -0.7441  0.8411 -2.6412
 6175SOL     OW30157   2.031   3.478  10.451 -0.1862  0.0663 -0.2233
 6175SOL    HW130158   1.938   3.456  10.444  0.7268 -3.2991 -1.7850
 6175SOL    HW230159   2.030   3.548  10.386  0.8472 -0.4637 -0.8114
 6176SOL     OW30160   4.557   2.232   7.506 -0.6710 -0.2194  0.5903
 6176SOL    HW130161   4.625   2.285   7.549 -1.7957  0.4374  1.5811
 6176SOL    HW230162   4.483   2.291   7.519 -1.2587 -0.2624 -2.5483
 6177SOL     OW30163   2.671   1.506   5.821  0.4733  0.3973  0.0043
 6177SOL    HW130164   2.693   1.459   5.901 -1.7608  1.3997  1.2138
 6177SOL    HW230165   2.741   1.505   5.756  0.3087  2.5297 -0.2044
 6178SOL     OW30166   0.332   4.673   3.019 -0.7122 -0.2836  0.1487
 6178SOL    HW130167   0.307   4.735   2.951  1.6199  0.6873  0.1655
 6178SOL    HW230168   0.270   4.602   3.001 -1.3281 -0.0097  1.1336
 6179SOL     OW30169   4.010   2.585  13.288 -0.3166 -0.0151 -0.0493
 6179SOL    HW130170   4.025   2.491  13.299 -0.6135  0.1541  1.6913
 6179SOL    HW230171   3.961   2.601  13.368 -1.8527  0.2392 -1.0269
 6180SOL     OW30172   3.701   2.890   7.398  0.3189  0.3018  0.0187
 6180SOL    HW130173   3.765   2.960   7.391  3.3832 -2.5253  0.1587
 6180SOL    HW230174   3.616   2.934   7.402  0.0894 -0.0089 -1.3872
 6181SOL     OW30175   4.393   4.428  11.619 -0.1161  0.4324  0.2087
 6181SOL    HW130176   4.352   4.341  11.626  3.3762 -1.3100 -0.8396
 6181SOL    HW230177   4.438   4.423  11.535  0.4708  0.6817  0.5161
 6182SOL     OW30178   0.642   2.702   4.790  0.0478 -0.5174 -0.4346
 6182SOL    HW130179   0.656   2.795   4.811  2.6300 -1.3612  1.5366
 6182SOL    HW230180   0.674   2.651   4.864 -0.2759 -1.4381 -0.9389
 6183SOL     OW30181   2.758   3.201  17.245 -0.5083  0.0880  0.1913
 6183SOL    HW130182   2.782   3.293  17.257  3.0542 -0.8858  0.6729
 6183SOL    HW230183   2.720   3.197  17.158  0.2339 -0.6178 -0.0987
 6184SOL     OW30184   4.447   0.638   2.778 -0.3221  0.2658 -0.5864
 6184SOL    HW130185   4.461   0.547   2.804 -0.2531  0.0707 -1.3134
 6184SOL    HW230186   4.481   0.622   2.690 -0.9773  0.5255 -0.8848
 6185SOL     OW30187   2.690   1.226   6.475 -0.4495 -0.3848 -1.0742
 6185SOL    HW130188   2.727   1.292   6.535 -1.7478  0.1893 -0.9129
 6185SOL    HW230189   2.733   1.142   6.491 -0.2086 -0.4049 -1.8334
 6186SOL     OW30190   2.383   3.221   6.999 -0.3790  0.3826 -0.2104
 6186SOL    HW130191   2.317   3.290   6.990 -1.0829 -0.1587  0.6950
 6186SOL    HW230192   2.433   3.222   6.918  1.4189 -1.0268  0.8829
 6187SOL     OW30193   1.100   0.882   3.432 -0.3447  0.2868 -0.0872
 6187SOL    HW130194   1.140   0.848   3.352  2.6206 -0.3362  1.6516
 6187SOL    HW230195   1.007   0.892   3.413 -0.6945 -0.7690  1.0781
 6188SOL     OW30196   2.061   0.843   7.581  0.3504 -0.0530 -0.1897
 6188SOL    HW130197   2.102   0.923   7.613 -0.8296 -0.3353  2.0439
 6188SOL    HW230198   1.991   0.845   7.646 -2.0439 -0.0901 -2.7577
 6189SOL     OW30199   1.046   3.231   8.157  0.5807  0.2415  0.2463
 6189SOL    HW130200   1.042   3.302   8.093  2.3985  1.5276  1.5649
 6189SOL    HW230201   1.076   3.162   8.098  1.0594  0.4987  0.1908
 6190SOL     OW30202   2.489   4.033  11.084  0.4688 -0.1521 -0.1294
 6190SOL    HW130203   2.584   4.029  11.086  0.5034  1.2674  1.0404
 6190SOL    HW230204   2.464   4.049  11.175 -1.3540  1.4789 -0.9050
 6191SOL     OW30205   2.883   1.064  11.692  0.5813 -0.1354  0.1569
 6191SOL    HW130206   2.912   1.041  11.604 -0.3396 -0.6550 -0.0129
 6191SOL    HW230207   2.965   1.088  11.733 -0.8413  1.4179  2.0823
 6192SOL     OW30208   1.551   2.268  10.435 -0.1335  0.0704 -0.2683
 6192SOL    HW130209   1.500   2.207  10.488 -2.5717  1.5097 -0.9785
 6192SOL    HW230210   1.639   2.259  10.473 -0.0399  0.1584 -0.4642
 6193SOL     OW30211   3.594   0.905   2.799 -0.3082 -0.2137 -0.2133
 6193SOL    HW130212   3.670   0.921   2.743  0.1183 -1.4640  0.0112
 6193SOL    HW230213   3.547   0.833   2.757 -0.0939 -0.7010  0.3916
 6194SOL     OW30214   0.732   0.593   3.420  0.0036 -0.7081 -0.2092
 6194SOL    HW130215   0.770   0.590   3.508 -2.1546 -0.1753  0.7444
 6194SOL    HW230216   0.709   0.501   3.409  0.5047 -1.0837  1.8513
 6195SOL     OW30217   4.526   4.132   3.810  0.0197 -0.3144 -0.0527
 6195SOL    HW130218   4.481   4.215   3.825 -0.7621 -0.5880 -0.8955
 6195SOL    HW230219   4.592   4.170   3.751 -1.2762  2.9344  0.6021
 6196SOL     OW30220   1.110   0.081   4.664 -0.2972 -0.2185  0.8054
 6196SOL    HW130221   1.160   0.163   4.664  0.3689 -0.6243 -0.5772
 6196SOL    HW230222   1.104   0.056   4.756  0.2672 -1.9008  0.3912
 6197SOL     OW30223   4.008   2.234   4.095 -0.3509 -0.4535 -0.1621
 6197SOL    HW130224   3.939   2.294   4.125 -0.0353  1.2759 -2.9430
 6197SOL    HW230225   4.075   2.295   4.066  0.0163  0.9630  3.7221
 6198SOL     OW30226   1.404   3.669   5.449  0.3128  0.7199 -0.1508
 6198SOL    HW130227   1.406   3.757   5.487  0.0220 -0.0314  1.5949
 6198SOL    HW230228   1.315   3.675   5.414  0.5321 -1.7196 -1.1710
 6199SOL     OW30229   2.470   0.098   8.496 -0.0003  0.2590 -0.0460
 6199SOL    HW130230   2.494   0.153   8.421 -0.4918  1.1831  0.4869
 6199SOL    HW230231   2.416   0.030   8.454  1.1918 -0.3958 -0.5303
 6200SOL     OW30232   0.189   1.996  14.590 -0.1110 -0.1621  0.0147
 6200SOL    HW130233   0.111   2.049  14.574  0.9466  1.5906  0.7149
 6200SOL    HW230234   0.226   2.002  14.502 -1.0026 -2.3862 -0.5044
 6201SOL     OW30235   1.704   2.499   9.928  0.2602 -0.0248  0.4876
 6201SOL    HW130236   1.729   2.548   9.850 -1.8790  0.7307  0.2882
 6201SOL    HW230237   1.630   2.447   9.898  2.2847 -2.0018 -1.1103
 6202SOL     OW30238   1.172   2.797  11.205  0.1493  0.1376 -0.1792
 6202SOL    HW130239   1.144   2.836  11.287 -1.1602  1.2416 -1.1397
 6202SOL    HW230240   1.085   2.791  11.165 -0.5797  2.2167  1.0851
 6203SOL     OW30241   1.032   3.615  15.949 -0.6493 -0.1006 -0.5728
 6203SOL    HW130242   1.008   3.529  15.914 -1.8613 -0.5542  1.3607
 6203SOL    HW230243   1.027   3.669  15.870  2.2562  0.8539 -0.1196
 6204SOL     OW30244   1.887   0.007  14.466 -0.2847  0.0230 -0.7723
 6204SOL    HW130245   1.946   4.674  14.440  3.2323  2.6613  0.0263
 6204SOL    HW230246   1.821   4.691  14.509  1.0547 -0.8289  0.2386
 6205SOL     OW30247   0.752   4.291   7.194 -0.3900 -0.4441  0.4868
 6205SOL    HW130248   0.831   4.318   7.241  0.7900 -1.6830 -0.7915
 6205SOL    HW230249   0.793   4.263   7.112 -3.0107  1.3818 -1.4400
 6206SOL     OW30250   4.085   0.127   7.192  0.3476  0.2231 -1.0106
 6206SOL    HW130251   4.151   0.151   7.127  1.7680  0.6982  0.6360
 6206SOL    HW230252   4.049   0.208   7.228 -0.0019  0.3952 -1.7520
 6207SOL     OW30253   0.518   3.108   4.297  0.2037 -0.0586  0.4742
 6207SOL    HW130254   0.455   3.041   4.270 -0.7487  1.1660 -0.3413
 6207SOL    HW230255   0.471   3.132   4.376 -0.2004  0.9244 -0.0612
 6208SOL     OW30256   1.857   1.233   3.070 -0.3004  0.6428 -0.4234
 6208SOL    HW130257   1.936   1.287   3.063  0.0292 -0.1025 -2.5295
 6208SOL    HW230258   1.806   1.307   3.102  2.5055  2.5762 -0.3539
 6209SOL     OW30259   0.587   0.150  15.568  0.0585 -0.0908 -0.2056
 6209SOL    HW130260   0.609   0.113  15.482 -3.5569 -1.4677 -0.5442
 6209SOL    HW230261   0.498   0.183  15.552 -0.3353 -1.4416 -0.7975
 6210SOL     OW30262   3.201   0.197  17.195 -0.3207 -0.0835 -0.2873
 6210SOL    HW130263   3.133   0.138  17.163  0.7193 -1.1894 -0.4437
 6210SOL    HW230264   3.218   0.151  17.277  1.1607  2.0095  0.5881
 6211SOL     OW30265   0.428   3.342   3.946  0.1090  0.0236 -0.0925
 6211SOL    HW130266   0.366   3.269   3.949 -0.1163  0.1927 -0.6528
 6211SOL    HW230267   0.462   3.348   4.035 -1.4816  0.8788  0.4570
 6212SOL     OW30268   2.972   1.817   9.184  0.6832 -0.0148 -0.3788
 6212SOL    HW130269   3.029   1.742   9.195  3.6952  2.4470  0.8556
 6212SOL    HW230270   2.995   1.860   9.102  0.7840  3.3271  1.3896
 6213SOL     OW30271   0.479   0.640   3.651  0.1582 -0.0666 -0.7805
 6213SOL    HW130272   0.483   0.713   3.588  1.0295  2.2039  1.9389
 6213SOL    HW230273   0.569   0.645   3.683 -0.1675  1.4184 -0.0829
 6214SOL     OW30274   0.219   0.742   1.416 -0.3399  0.4532  0.1220
 6214SOL    HW130275   0.306   0.771   1.391  0.2323  0.0415  1.6471
 6214SOL    HW230276   0.222   0.651   1.387 -1.9793  0.4790 -0.1751
 6215SOL     OW30277   2.901   1.233   3.422  0.1782 -0.0030 -0.3431
 6215SOL    HW130278   2.933   1.153   3.465 -0.9248  0.7856  1.9294
 6215SOL    HW230279   2.980   1.262   3.376 -1.1372 -0.6027 -2.9723
 6216SOL     OW30280   1.420   0.481   3.151  0.2809 -0.5383 -0.0052
 6216SOL    HW130281   1.433   0.390   3.124  1.9613 -0.5444  0.8843
 6216SOL    HW230282   1.337   0.504   3.110 -1.4852 -3.0906  2.1040
 6217SOL     OW30283   3.900   2.965   9.538  0.4462  0.3997  0.1847
 6217SOL    HW130284   3.852   2.883   9.539  0.9830  0.0878  0.1619
 6217SOL    HW230285   3.993   2.945   9.531  0.2886 -0.7768  1.5780
 6218SOL     OW30286   3.749   4.250   6.327  0.5811 -0.1835  0.7037
 6218SOL    HW130287   3.817   4.284   6.269  1.2862 -2.0421  0.4494
 6218SOL    HW230288   3.680   4.250   6.260  2.4396  0.2792 -1.2254
 6219SOL     OW30289   4.633   3.070   2.901  0.3891  0.1798  0.0776
 6219SOL    HW130290   4.585   3.153   2.906  0.9013  0.5411 -1.1234
 6219SOL    HW230291   4.684   3.073   2.982  1.9629 -0.1438 -0.8965
 6220SOL     OW30292   3.358   4.497   4.858  0.7771 -0.3198  0.5748
 6220SOL    HW130293   3.452   4.483   4.871  0.8929 -0.8843 -0.8249
 6220SOL    HW230294   3.353   4.592   4.860  0.7767 -0.3290  1.0913
 6221SOL     OW30295   4.237   3.016  12.167  0.5654  0.2434 -0.2003
 6221SOL    HW130296   4.224   2.938  12.113  3.8590 -0.8511  0.5929
 6221SOL    HW230297   4.332   3.022  12.162  0.5350  0.7988 -0.1471
 6222SOL     OW30298   1.915   0.642  12.941  0.4926 -0.3449 -0.0209
 6222SOL    HW130299   1.861   0.645  13.019  1.1180 -0.8694  0.4285
 6222SOL    HW230300   1.908   0.548  12.922 -1.0789 -0.4109  0.9271
 6223SOL     OW30301   0.496   0.076  16.741 -0.1854 -0.2735 -0.1532
 6223SOL    HW130302   0.417   0.039  16.700 -1.6529  1.3764  1.1814
 6223SOL    HW230303   0.458   0.163  16.746  0.6415  0.2221 -2.4373
 6224SOL     OW30304   0.869   3.904   4.785 -0.0005 -0.0502  1.1776
 6224SOL    HW130305   0.875   3.999   4.796 -0.4947 -0.1630  2.4180
 6224SOL    HW230306   0.959   3.883   4.808 -0.7253 -3.6707  0.6640
 6225SOL     OW30307   4.094   3.486   8.660  0.5782 -0.3677 -0.7168
 6225SOL    HW130308   4.025   3.422   8.641 -1.0602  1.2138 -0.0597
 6225SOL    HW230309   4.170   3.448   8.616  1.1607  0.4140 -0.3695
 6226SOL     OW30310   3.614   2.145   6.600  0.5033  0.1983  0.2595
 6226SOL    HW130311   3.680   2.204   6.637  2.6004 -1.8471 -0.1806
 6226SOL    HW230312   3.624   2.160   6.506  0.5519  3.7639  0.8282
 6227SOL     OW30313   0.505   3.996   6.365  0.4832  0.2603 -0.0811
 6227SOL    HW130314   0.453   4.035   6.295  1.4575  3.3460  0.8871
 6227SOL    HW230315   0.446   3.927   6.394  0.9389 -0.3134 -0.5128
 6228SOL     OW30316   3.975   2.924   3.979  0.6242  0.3376  0.1505
 6228SOL    HW130317   4.062   2.901   3.944  0.6950 -1.2216  1.3458
 6228SOL    HW230318   3.931   2.948   3.898  1.0551 -2.6202 -0.9763
 6229SOL     OW30319   2.058   2.149   4.819 -0.4230  0.1713  0.5491
 6229SOL    HW130320   2.032   2.142   4.911  0.0033  0.1636  0.6661
 6229SOL    HW230321   2.146   2.113   4.820  0.0554  1.2358 -1.5257
 6230SOL     OW30322   2.874   4.482   1.615  0.0606 -0.0086 -0.2012
 6230SOL    HW130323   2.958   4.449   1.647  0.4564 -1.7219 -3.0065
 6230SOL    HW230324   2.824   4.401   1.610  0.2530 -0.1693  0.5677
 6231SOL     OW30325   3.711   0.030   8.354 -0.0956  0.2413  0.6866
 6231SOL    HW130326   3.732   0.120   8.381  2.9678  1.2165 -4.9365
 6231SOL    HW230327   3.662   0.048   8.274  1.5693 -0.3170 -0.4595
 6232SOL     OW30328   2.114   0.152   2.695 -0.1050 -0.1131  0.4140
 6232SOL    HW130329   2.170   0.133   2.620 -1.2552 -1.1401 -0.1901
 6232SOL    HW230330   2.104   0.247   2.694  1.1874 -0.0117 -1.5827
 6233SOL     OW30331   3.319   0.089   6.814  0.1097 -0.0531  0.0478
 6233SOL    HW130332   3.333   4.734   6.833 -0.1976 -0.1585 -0.2508
 6233SOL    HW230333   3.300   0.126   6.900 -1.4501  1.5235 -0.9846
 6234SOL     OW30334   0.101   4.190   3.612 -0.1169 -0.5548  0.3452
 6234SOL    HW130335   0.072   4.135   3.540 -1.3045 -0.3620  0.6610
 6234SOL    HW230336   0.092   4.125   3.682  1.2249  0.1099  1.1268
 6235SOL     OW30337   3.795   0.124   5.652  0.2019  0.1596  0.3653
 6235SOL    HW130338   3.743   0.167   5.584  2.3302  0.5303 -1.0383
 6235SOL    HW230339   3.847   0.055   5.612 -2.0902 -0.8262 -0.9492
 6236SOL     OW30340   0.543   1.806   8.607 -0.6471  0.5868  0.1070
 6236SOL    HW130341   0.599   1.754   8.549 -0.3662 -0.1709  1.0523
 6236SOL    HW230342   0.539   1.755   8.688 -4.7535 -0.6891 -0.9374
 6237SOL     OW30343   1.975   3.784   1.249  0.1566  0.4404 -0.3849
 6237SOL    HW130344   1.989   3.877   1.232 -0.4433  0.4396 -0.8674
 6237SOL    HW230345   1.950   3.751   1.163 -0.3773 -0.2187  0.0270
 6238SOL     OW30346   2.844   2.172   2.887  0.2765  0.0359  0.6536
 6238SOL    HW130347   2.787   2.096   2.885 -2.6973  2.3150 -0.8528
 6238SOL    HW230348   2.809   2.226   2.958 -3.9441 -2.0725  0.1506
 6239SOL     OW30349   3.262   1.538   5.859  0.6250  0.2800  0.0203
 6239SOL    HW130350   3.295   1.456   5.896 -0.8631 -0.3482 -0.0801
 6239SOL    HW230351   3.316   1.603   5.904  1.5026 -0.9642  0.7695
 6240SOL     OW30352   0.556   1.050   2.347 -0.2155 -0.0281  0.5011
 6240SOL    HW130353   0.503   1.118   2.389 -0.8901 -1.0306  1.2689
 6240SOL    HW230354   0.555   0.977   2.408  2.3606 -1.0103 -0.5944
 6241SOL     OW30355   2.412   4.436   1.217 -0.3643  0.0556  0.4025
 6241SOL    HW130356   2.462   4.508   1.179 -0.1346 -0.3971 -0.1546
 6241SOL    HW230357   2.456   4.435   1.302 -0.3312  0.7984  0.3954
 6242SOL     OW30358   3.162   4.564   5.243  0.1275  0.5967  0.5391
 6242SOL    HW130359   3.130   4.478   5.272  2.1716  0.1557  1.5730
 6242SOL    HW230360   3.175   4.547   5.150  2.2809 -0.9266  1.1243
 6243SOL     OW30361   4.507   0.233   7.291  0.0909 -0.5867  0.8568
 6243SOL    HW130362   4.438   0.188   7.340 -1.3020  0.5015 -0.1005
 6243SOL    HW230363   4.450   0.286   7.235 -0.3186  1.6044  3.2973
 6244SOL     OW30364   1.935   0.950   5.662  0.2942 -0.0412  0.4612
 6244SOL    HW130365   1.919   1.036   5.700  1.0918  0.6522 -0.7569
 6244SOL    HW230366   1.984   0.916   5.736 -0.9769 -0.0415  1.3040
 6245SOL     OW30367   2.914   2.078   3.407 -0.1952  0.1270  0.1713
 6245SOL    HW130368   2.982   2.087   3.473 -1.3198  2.8078  0.9491
 6245SOL    HW230369   2.914   1.983   3.399  1.3545  0.2059 -0.7522
 6246SOL     OW30370   1.598   2.683   6.986  0.1248 -0.3715 -0.1682
 6246SOL    HW130371   1.683   2.694   6.944  0.2344 -0.5043  0.0200
 6246SOL    HW230372   1.548   2.719   6.912  0.3168 -0.9674 -0.5889
 6247SOL     OW30373   1.943   2.964   7.826 -0.3372 -0.0435 -0.1063
 6247SOL    HW130374   1.976   2.962   7.916 -0.6757 -0.3671  0.0073
 6247SOL    HW230375   1.852   2.946   7.850 -0.5852 -1.2829 -1.9606
 6248SOL     OW30376   3.145   1.045   6.936 -0.1820 -0.6152 -0.0964
 6248SOL    HW130377   3.213   1.011   6.994 -0.4259 -2.8145 -1.0919
 6248SOL    HW230378   3.188   1.126   6.908  1.0183 -1.5260 -0.8569
 6249SOL     OW30379   2.377   0.212   5.582  0.3200 -0.0554 -0.1369
 6249SOL    HW130380   2.390   0.148   5.512  1.2002 -0.0588  0.0335
 6249SOL    HW230381   2.444   0.279   5.567  1.0560 -1.0053 -1.0975
 6250SOL     OW30382   3.151   2.812   9.837 -0.0495 -0.1393  0.5385
 6250SOL    HW130383   3.224   2.826   9.898 -0.0712  0.1580  0.4969
 6250SOL    HW230384   3.183   2.724   9.814  1.6068  0.4301  0.6386
 6251SOL     OW30385   3.430   2.235   9.475 -0.8191  0.4284 -0.0537
 6251SOL    HW130386   3.337   2.216   9.470 -1.0116  0.9213  1.5208
 6251SOL    HW230387   3.452   2.163   9.534  0.5363  1.7799  1.0964
 6252SOL     OW30388   4.213   3.770   6.543 -0.2042 -0.3558  0.4540
 6252SOL    HW130389   4.156   3.820   6.602  0.5644 -0.8489  1.6185
 6252SOL    HW230390   4.196   3.808   6.457  1.0282 -0.8239  0.0025
 6253SOL     OW30391   0.471   2.569  12.299  0.2070  0.0095 -0.2134
 6253SOL    HW130392   0.504   2.505  12.235  0.0016 -2.9392  2.6165
 6253SOL    HW230393   0.377   2.549  12.295  0.0035  0.7598  0.8728
 6254SOL     OW30394   3.377   3.699   0.849  0.1286 -0.1307  0.0351
 6254SOL    HW130395   3.375   3.712   0.944 -0.9533  0.5727 -0.0842
 6254SOL    HW230396   3.334   3.779   0.819  1.1977  0.6147  0.5077
 6255SOL     OW30397   2.381   2.909   9.558 -0.2205  0.1886  0.5243
 6255SOL    HW130398   2.338   2.833   9.597 -1.3860  0.8596  0.5444
 6255SOL    HW230399   2.417   2.943   9.641 -1.1558  2.9018 -0.1751
 6256SOL     OW30400   2.611   1.234   2.297 -0.0704 -0.3660  0.3748
 6256SOL    HW130401   2.518   1.221   2.315 -0.4550  1.8409  0.0205
 6256SOL    HW230402   2.648   1.159   2.344  0.9237 -1.3783 -2.0218
 6257SOL     OW30403   0.992   0.445  11.642 -0.6147 -0.3674  0.2311
 6257SOL    HW130404   0.911   0.404  11.611 -1.3358 -1.2292  3.2365
 6257SOL    HW230405   1.027   0.377  11.699 -0.2745  0.0257  0.4989
 6258SOL     OW30406   1.373   0.649   7.429 -0.2358 -0.1136 -0.3374
 6258SOL    HW130407   1.403   0.682   7.344 -0.6159  0.1902 -0.3567
 6258SOL    HW230408   1.279   0.652   7.414 -0.0956  2.0095 -0.8102
 6259SOL     OW30409   4.630   2.807   7.478  0.4670 -0.2482  0.0156
 6259SOL    HW130410   4.714   2.771   7.506  0.8796 -0.6219 -1.7328
 6259SOL    HW230411   4.615   2.872   7.547 -1.5725 -1.3153  0.5680
 6260SOL     OW30412   3.997   3.072   1.588 -0.6844  0.0133 -0.0671
 6260SOL    HW130413   4.074   3.125   1.570 -0.6316 -0.3174 -0.8290
 6260SOL    HW230414   3.939   3.126   1.534 -0.8331 -0.5364 -0.4655
 6261SOL     OW30415   2.156   3.173   0.197 -0.1142  0.1978 -0.1696
 6261SOL    HW130416   2.195   3.091   0.167 -2.5218 -1.0008  0.0621
 6261SOL    HW230417   2.068   3.172   0.161  0.1734  0.6113 -0.9060
 6262SOL     OW30418   2.361   3.545   9.511 -0.3668 -0.3556 -0.2455
 6262SOL    HW130419   2.430   3.560   9.447 -1.3937 -0.1016 -1.3013
 6262SOL    HW230420   2.361   3.636   9.540 -0.2115 -0.5234  0.2803
 6263SOL     OW30421   2.416   3.754   4.589  0.3233 -0.6817 -0.0679
 6263SOL    HW130422   2.378   3.762   4.502  1.3770  1.0513 -0.3754
 6263SOL    HW230423   2.504   3.789   4.576 -0.6083  0.8640 -2.2063
 6264SOL     OW30424   3.104   1.880   7.092  0.6773 -0.2538 -0.4375
 6264SOL    HW130425   3.019   1.842   7.112 -0.2010  1.1881 -1.3700
 6264SOL    HW230426   3.090   1.974   7.105  1.2627 -0.2737  0.3156
 6265SOL     OW30427   1.332   2.773   6.069 -0.5640 -0.3426 -0.3191
 6265SOL    HW130428   1.245   2.796   6.038 -0.3820  1.4144  0.4430
 6265SOL    HW230429   1.388   2.794   5.994 -0.3470 -2.2614 -0.6855
 6266SOL     OW30430   1.590   1.720   7.161  0.7347  0.2580 -1.4889
 6266SOL    HW130431   1.638   1.800   7.139  0.2415  0.9742  0.0997
 6266SOL    HW230432   1.520   1.748   7.220  2.8710  0.5933  0.8546
 6267SOL     OW30433   1.642   3.073   9.068  0.0387 -1.3019  0.1156
 6267SOL    HW130434   1.705   3.025   9.014 -0.2221  0.5027 -1.7725
 6267SOL    HW230435   1.654   3.043   9.158  4.2542  1.7219  0.5661
 6268SOL     OW30436   2.339   3.075   6.621  0.2806 -0.0628  0.2362
 6268SOL    HW130437   2.380   3.150   6.664 -0.2209  1.4251 -1.8844
 6268SOL    HW230438   2.367   3.010   6.686  2.0534  1.3699  0.9145
 6269SOL     OW30439   1.800   2.301   7.479  0.3523  0.3359  0.0616
 6269SOL    HW130440   1.870   2.360   7.507 -0.7212  0.9560  1.4435
 6269SOL    HW230441   1.815   2.284   7.386 -1.0318 -0.7522  0.0418
 6270SOL     OW30442   2.505   1.605   2.236 -0.7357 -0.4942  0.0422
 6270SOL    HW130443   2.423   1.559   2.217 -0.1265 -0.6152 -2.2770
 6270SOL    HW230444   2.499   1.584   2.329 -1.4205  0.5645  0.2374
 6271SOL     OW30445   1.089   2.989   3.883 -0.5664 -0.1096  0.6832
 6271SOL    HW130446   1.064   3.076   3.915  0.8484  1.4565 -2.4125
 6271SOL    HW230447   1.128   3.021   3.802 -0.3402  0.0688  0.8600
 6272SOL     OW30448   0.390   2.605   8.326 -0.3522 -0.4739 -0.5053
 6272SOL    HW130449   0.478   2.603   8.362 -1.4679  1.9732  2.3488
 6272SOL    HW230450   0.355   2.527   8.369  0.3170  0.5111  1.7850
 6273SOL     OW30451   3.774   3.803   2.403  0.1340  0.1505 -0.5280
 6273SOL    HW130452   3.785   3.764   2.317  0.0238  0.4718 -0.6867
 6273SOL    HW230453   3.862   3.822   2.435  0.2268 -2.4339  0.7177
 6274SOL     OW30454   3.537   2.896   9.021  0.1236  0.0729 -0.2979
 6274SOL    HW130455   3.468   2.838   9.055 -1.5201  2.2611  0.0785
 6274SOL    HW230456   3.531   2.959   9.092  0.3868  0.3896 -0.5595
 6275SOL     OW30457   4.454   3.999  16.960 -0.2780 -0.0979 -0.4012
 6275SOL    HW130458   4.515   4.048  17.015  0.7512 -1.6375 -0.1822
 6275SOL    HW230459   4.518   3.933  16.933 -2.3305 -1.8422 -1.0000
 6276SOL     OW30460   3.823   0.860   1.824  0.3896  0.3949 -0.0339
 6276SOL    HW130461   3.756   0.900   1.769 -0.5011 -0.2822  0.5587
 6276SOL    HW230462   3.783   0.889   1.906  0.2884  0.6868 -0.1859
 6277SOL     OW30463   2.424   0.735   1.710 -0.4488  0.1079  0.4193
 6277SOL    HW130464   2.418   0.808   1.649 -1.3765  1.6801  2.3863
 6277SOL    HW230465   2.517   0.739   1.736 -0.0245 -0.1444 -1.0610
 6278SOL     OW30466   2.242   0.440  12.302 -0.5021  0.9327  0.6724
 6278SOL    HW130467   2.289   0.457  12.383 -1.2143 -0.3315  1.3545
 6278SOL    HW230468   2.162   0.398  12.331  0.1362 -0.6833  0.1085
 6279SOL     OW30469   0.891   1.339   7.459 -0.1041  0.7296 -0.3756
 6279SOL    HW130470   0.925   1.403   7.521 -1.9227  1.1557  0.1747
 6279SOL    HW230471   0.930   1.382   7.383  2.0367 -0.0422  0.3004
 6280SOL     OW30472   4.554   4.098   0.927  0.3440  0.1891 -0.4584
 6280SOL    HW130473   4.545   4.041   1.002  0.4547 -0.1989 -0.7389
 6280SOL    HW230474   4.574   4.035   0.858  0.3977 -0.6600  0.3381
 6281SOL     OW30475   4.544   4.732   3.675 -0.7789 -0.1219  0.4529
 6281SOL    HW130476   4.546   0.070   3.733  0.5268 -0.6150  1.0643
 6281SOL    HW230477   4.466   4.687   3.707  0.2430  0.1194  3.2591
 6282SOL     OW30478   2.456   0.546   4.429  0.3445 -0.2674  0.2742
 6282SOL    HW130479   2.533   0.599   4.411  0.5659 -0.6243  0.1787
 6282SOL    HW230480   2.456   0.526   4.522 -0.7478  0.4707  0.4382
 6283SOL     OW30481   2.898   2.329  14.187  0.0146  0.2095  0.4545
 6283SOL    HW130482   2.826   2.382  14.221 -0.2151 -0.8673  1.6385
 6283SOL    HW230483   2.854   2.293  14.110  0.6333 -0.9277  0.6321
 6284SOL     OW30484   2.325   1.163   8.882  0.7024 -0.1831 -0.8204
 6284SOL    HW130485   2.323   1.079   8.927  1.8035  1.6245  2.5752
 6284SOL    HW230486   2.362   1.142   8.796  0.0641  0.9315 -1.3663
 6285SOL     OW30487   0.790   4.021   0.379  0.2227  0.0785 -1.0335
 6285SOL    HW130488   0.788   4.036   0.284 -0.2581 -0.3388 -1.0865
 6285SOL    HW230489   0.853   3.950   0.365  2.8682  2.1801  0.2680
 6286SOL     OW30490   4.035   2.068   7.956 -0.4654 -0.5947 -0.1019
 6286SOL    HW130491   3.996   2.111   8.033  0.3926  1.7313 -0.9668
 6286SOL    HW230492   4.058   2.142   7.900  0.5978 -1.2623 -0.5363
 6287SOL     OW30493   4.657   0.616  15.368 -0.0464  0.1911 -0.1716
 6287SOL    HW130494   4.650   0.647  15.458  0.5016  2.3828 -0.8811
 6287SOL    HW230495   4.580   0.658  15.331 -0.1633  1.8892  1.9799
 6288SOL     OW30496   3.001   0.739   1.466 -0.1839  0.2707 -0.6391
 6288SOL    HW130497   3.050   0.670   1.511  0.8093  0.0191 -2.1122
 6288SOL    HW230498   3.065   0.809   1.467  1.1445 -0.9911  2.2438
 6289SOL     OW30499   4.563   2.414   4.061  0.1225 -0.5134 -0.9552
 6289SOL    HW130500   4.567   2.390   3.969 -1.3096  1.6582 -1.5788
 6289SOL    HW230501   4.658   2.417   4.062  0.1398 -2.0287  1.8942
 6290SOL     OW30502   2.803   2.834   4.196  0.1651  0.4932  0.2906
 6290SOL    HW130503   2.880   2.859   4.146  2.5691 -3.3352  2.0915
 6290SOL    HW230504   2.757   2.916   4.215 -0.1269  0.4701 -0.3342
 6291SOL     OW30505   3.141   0.741  14.086  0.2006 -0.5390 -0.1813
 6291SOL    HW130506   3.232   0.718  14.105  0.0082 -1.5587 -0.5206
 6291SOL    HW230507   3.101   0.667  14.130  2.4448 -1.0341  1.0332
 6292SOL     OW30508   1.651   0.888  13.788  0.2651  0.0627  0.2433
 6292SOL    HW130509   1.715   0.875  13.858  2.1793  0.0795 -1.4922
 6292SOL    HW230510   1.695   0.873  13.704  1.3412 -1.4305  1.0674
 6293SOL     OW30511   2.134   0.816   6.486 -0.2196 -0.3976  0.1825
 6293SOL    HW130512   2.104   0.771   6.565 -0.7414 -2.2496 -1.0795
 6293SOL    HW230513   2.047   0.830   6.447 -0.3529 -0.5319  0.4350
 6294SOL     OW30514   2.336   4.145   3.500 -0.0481  0.5006 -0.3089
 6294SOL    HW130515   2.282   4.069   3.522 -0.9204  0.5210 -2.3784
 6294SOL    HW230516   2.418   4.101   3.479 -0.3023  0.3089 -0.8998
 6295SOL     OW30517   0.861   1.665   7.714 -0.3334  0.4580  0.4070
 6295SOL    HW130518   0.947   1.628   7.695 -1.1949 -1.0628 -0.4432
 6295SOL    HW230519   0.810   1.666   7.633  0.3658 -0.8578 -0.0464
 6296SOL     OW30520   4.154   0.113  16.620 -0.3204  0.1499 -0.5339
 6296SOL    HW130521   4.241   0.113  16.580  0.4979 -2.6766  1.2365
 6296SOL    HW230522   4.126   0.199  16.588 -3.1743 -0.8632 -0.7557
 6297SOL     OW30523   2.043   3.885  11.942  0.6289 -0.1817 -0.0537
 6297SOL    HW130524   2.112   3.841  11.991  1.6208  2.6107  1.0313
 6297SOL    HW230525   2.070   3.977  11.949  1.6437 -0.5006  0.2266
 6298SOL     OW30526   0.646   0.477  10.310  0.1886 -0.2867  0.0548
 6298SOL    HW130527   0.738   0.475  10.336 -0.0766  0.8393  1.0828
 6298SOL    HW230528   0.655   0.447  10.220 -0.6207  1.7548 -0.6956
 6299SOL     OW30529   3.802   3.216  12.987 -0.0222 -0.3555  0.1135
 6299SOL    HW130530   3.845   3.265  13.057 -0.4500 -1.3396  1.0738
 6299SOL    HW230531   3.803   3.270  12.909 -0.0616  0.6705  0.8210
 6300SOL     OW30532   1.098   2.554   4.338 -0.2116  0.2197  0.0342
 6300SOL    HW130533   1.074   2.494   4.409 -1.0841 -0.8234 -1.1433
 6300SOL    HW230534   1.093   2.634   4.389 -0.3051 -0.6648  1.4268
 6301SOL     OW30535   3.894   4.263   2.645  0.4233 -0.2731  0.4157
 6301SOL    HW130536   3.873   4.342   2.595  2.1253 -0.0828  0.0052
 6301SOL    HW230537   3.972   4.227   2.602 -0.6448 -1.0604 -0.8540
 6302SOL     OW30538   0.395   4.671   3.933 -0.3051 -0.6248  1.0328
 6302SOL    HW130539   0.313   4.700   3.974 -2.1996  1.9342 -4.4950
 6302SOL    HW230540   0.402   4.584   3.971 -0.0530 -1.4023 -0.7973
 6303SOL     OW30541   1.349   4.064   2.391  0.8486  0.3667 -0.6970
 6303SOL    HW130542   1.297   4.094   2.316 -0.4495  1.1718  0.5484
 6303SOL    HW230543   1.417   4.009   2.350  2.6099  1.6391  0.5420
 6304SOL     OW30544   3.912   3.383   9.057 -0.3191  0.0691 -0.2735
 6304SOL    HW130545   4.004   3.392   9.031 -1.0073  0.9876 -2.4574
 6304SOL    HW230546   3.919   3.381   9.152 -0.0258  0.2175 -0.2893
 6305SOL     OW30547   3.531   4.066   8.928  0.0239  0.3485 -0.1093
 6305SOL    HW130548   3.544   4.127   8.855  2.5279 -1.8894 -1.5077
 6305SOL    HW230549   3.493   3.991   8.883  1.2766  0.6068 -1.5907
 6306SOL     OW30550   3.297   3.992   6.611  0.0743 -0.7675 -0.6488
 6306SOL    HW130551   3.328   4.072   6.655 -1.4710 -0.8217  0.5580
 6306SOL    HW230552   3.226   3.970   6.672 -1.1776 -0.0993 -1.8750
 6307SOL     OW30553   0.622   2.289   4.081 -0.2802  0.1326 -0.1000
 6307SOL    HW130554   0.697   2.331   4.040 -1.8157  1.2322 -1.7804
 6307SOL    HW230555   0.576   2.255   4.004  1.8596 -0.0865 -1.2772
 6308SOL     OW30556   3.005   3.417   9.138 -0.0709 -0.2725  0.0425
 6308SOL    HW130557   3.034   3.472   9.066  2.5634 -0.6658  0.8139
 6308SOL    HW230558   2.959   3.480   9.194 -0.4186 -0.2047 -0.3209
 6309SOL     OW30559   1.949   2.616   6.568 -0.4924  0.2434 -0.1773
 6309SOL    HW130560   1.946   2.561   6.490  1.2254  1.3281 -1.0283
 6309SOL    HW230561   1.876   2.571   6.611 -1.8957  1.1028 -1.6885
 6310SOL     OW30562   2.422   1.730   7.889 -0.9750  0.5111 -0.5578
 6310SOL    HW130563   2.377   1.791   7.831 -1.5812  1.5730  1.0464
 6310SOL    HW230564   2.511   1.757   7.866  0.7004 -1.4037  3.6186
 6311SOL     OW30565   0.516   3.551   4.408 -0.0176 -0.1707  0.0422
 6311SOL    HW130566   0.456   3.485   4.373 -0.4690  0.1459  0.2055
 6311SOL    HW230567   0.457   3.605   4.461  1.2436  1.3728 -0.1051
 6312SOL     OW30568   0.059   4.321   6.495  0.0622  0.2430 -0.3085
 6312SOL    HW130569   0.018   4.339   6.410  0.9928  1.8897 -0.3971
 6312SOL    HW230570   0.118   4.396   6.497 -0.9525  1.0106  0.5681
 6313SOL     OW30571   4.313   1.969   2.484  0.1452  0.1340  0.1178
 6313SOL    HW130572   4.317   1.907   2.556 -0.3472 -0.3922 -0.3049
 6313SOL    HW230573   4.309   1.902   2.415  0.0902  1.2387 -0.9625
 6314SOL     OW30574   0.871   1.060  17.129  0.6338 -0.1952  0.0716
 6314SOL    HW130575   0.892   1.055  17.036  1.5821 -1.4035  0.3522
 6314SOL    HW230576   0.776   1.071  17.138  1.0329  0.3071  3.7472
 6315SOL     OW30577   2.188   3.178   3.330  0.5328 -0.8021  0.1703
 6315SOL    HW130578   2.142   3.112   3.278  0.0592  0.3841 -0.9368
 6315SOL    HW230579   2.280   3.156   3.311  0.1619 -0.7088 -1.6947
 6316SOL     OW30580   1.580   2.058  11.560 -0.1310  0.4028  0.3572
 6316SOL    HW130581   1.651   2.108  11.601  1.3351 -1.4194  0.0345
 6316SOL    HW230582   1.580   1.977  11.611 -1.1359  0.1993  0.0218
 6317SOL     OW30583   1.746   1.395   9.624  0.2781 -0.0832 -0.4663
 6317SOL    HW130584   1.765   1.304   9.645 -1.0573  0.1809  1.8924
 6317SOL    HW230585   1.651   1.392   9.611  0.2018  1.8554 -0.4275
 6318SOL     OW30586   4.449   1.125  13.769 -0.4135 -0.5301  0.2714
 6318SOL    HW130587   4.434   1.060  13.837  4.0689 -1.8950 -0.0627
 6318SOL    HW230588   4.542   1.143  13.782 -0.8169 -0.2131  2.7666
 6319SOL     OW30589   2.810   3.891   3.522 -0.4297  0.3179 -0.2250
 6319SOL    HW130590   2.734   3.909   3.578 -0.1563 -2.0246  0.8846
 6319SOL    HW230591   2.877   3.944   3.566 -0.1343  0.8851 -1.3612
 6320SOL     OW30592   3.386   0.473   4.148  0.6726 -0.0132  0.4549
 6320SOL    HW130593   3.328   0.406   4.111 -0.4479  0.4920  1.3247
 6320SOL    HW230594   3.408   0.523   4.069 -2.1343 -0.3599 -0.5678
 6321SOL     OW30595   0.171   1.381   2.912  0.1616  0.2544  0.5529
 6321SOL    HW130596   0.105   1.429   2.862  0.4846 -0.3545 -0.4583
 6321SOL    HW230597   0.189   1.441   2.984  2.5141 -1.3442  1.3160
 6322SOL     OW30598   1.330   2.130   7.785 -0.1481  0.0732 -0.0474
 6322SOL    HW130599   1.320   2.213   7.737 -1.8167  0.0338  0.2172
 6322SOL    HW230600   1.424   2.117   7.776 -0.0361  0.6658  0.2307
 6323SOL     OW30601   0.239   0.132   1.094  0.1169  0.1919 -0.0915
 6323SOL    HW130602   0.186   0.199   1.136  0.3394 -2.1869  3.9198
 6323SOL    HW230603   0.281   0.090   1.169  2.0043 -0.9366 -1.7791
 6324SOL     OW30604   0.373   1.899  14.765 -0.0233  0.0470  1.0673
 6324SOL    HW130605   0.316   1.856  14.829 -2.0235  1.7590  0.4128
 6324SOL    HW230606   0.304   1.954  14.729 -1.2917 -2.1655  0.1953
 6325SOL     OW30607   0.344   0.669   5.958  0.1388  0.4334  0.4545
 6325SOL    HW130608   0.299   0.584   5.952  1.7367 -0.5105  1.7772
 6325SOL    HW230609   0.390   0.667   5.874 -0.3255 -0.3248  0.2097
 6326SOL     OW30610   0.166   1.678  16.974 -0.2869  0.1457  0.1172
 6326SOL    HW130611   0.213   1.702  17.054  1.8964  1.2244 -1.5038
 6326SOL    HW230612   0.213   1.601  16.941 -0.0372  0.9730 -1.4716
 6327SOL     OW30613   0.299   3.969  17.547 -0.7152 -0.7255  0.1587
 6327SOL    HW130614   0.341   4.043  17.503 -0.6023 -1.3722 -0.8137
 6327SOL    HW230615   0.249   3.936  17.472 -0.2676 -0.4770 -0.2512
 6328SOL     OW30616   3.358   1.580  12.304 -0.0285  0.3214  0.2757
 6328SOL    HW130617   3.411   1.636  12.246 -0.4702  0.4569  0.0054
 6328SOL    HW230618   3.365   1.497  12.258  2.4748  0.9156 -0.4578
 6329SOL     OW30619   4.533   0.555   2.521 -0.2488 -0.1476 -0.2739
 6329SOL    HW130620   4.626   0.543   2.503 -0.2662 -0.0478 -0.4321
 6329SOL    HW230621   4.503   0.617   2.454 -2.5508  1.6887  2.4141
 6330SOL     OW30622   0.068   0.452   8.469  0.0478 -0.2850  0.0217
 6330SOL    HW130623   0.114   0.527   8.432  0.8639 -0.1135  1.3764
 6330SOL    HW230624   0.028   0.502   8.541 -0.6165 -0.8958  0.0869
 6331SOL     OW30625   0.100   1.337   7.298 -0.1298 -0.5202  0.0332
 6331SOL    HW130626   0.030   1.338   7.233  0.1426 -2.1950 -0.2867
 6331SOL    HW230627   0.125   1.245   7.291  0.7366 -0.2837 -0.0184
 6332SOL     OW30628   3.252   0.701   7.364 -0.2793 -0.2656 -0.6888
 6332SOL    HW130629   3.336   0.728   7.400 -0.3224 -0.1890 -0.6456
 6332SOL    HW230630   3.272   0.689   7.271  1.2439 -1.5057 -0.2010
 6333SOL     OW30631   3.864   4.120   5.474  0.2165 -0.3962 -0.8334
 6333SOL    HW130632   3.769   4.125   5.460  0.2126 -0.4597 -0.8310
 6333SOL    HW230633   3.865   4.092   5.565  1.6335  2.8583  0.1474
 6334SOL     OW30634   2.139   3.276   8.220 -0.6510  0.3754 -0.1618
 6334SOL    HW130635   2.174   3.195   8.256 -2.1342 -0.0015  0.4319
 6334SOL    HW230636   2.084   3.308   8.291 -0.8560  0.1206 -0.2057
 6335SOL     OW30637   2.512   1.223   0.583  0.2558 -0.1578  0.0314
 6335SOL    HW130638   2.482   1.250   0.669 -0.6258 -0.9885 -0.0169
 6335SOL    HW230639   2.435   1.255   0.536  1.6363 -1.4216 -3.1190
 6336SOL     OW30640   3.020   1.059  14.151 -0.2268  0.4293  0.4607
 6336SOL    HW130641   3.046   1.127  14.214 -0.0145  0.2554  0.5606
 6336SOL    HW230642   3.064   1.084  14.070  0.5246  0.2445  0.8080
 6337SOL     OW30643   0.109   3.058   8.099  0.1295 -0.5764  0.3512
 6337SOL    HW130644   0.190   3.014   8.125 -1.0543 -1.2372  2.8884
 6337SOL    HW230645   0.145   3.145   8.082  2.4665 -1.5924  0.1033
 6338SOL     OW30646   0.583   0.758  17.651 -0.0191  0.3284 -0.4593
 6338SOL    HW130647   0.514   0.752  17.585 -1.3441  0.2497  0.9527
 6338SOL    HW230648   0.639   0.689  17.613  2.6171  2.0110  0.3846
 6339SOL     OW30649   0.972   1.884   1.431  0.0235 -0.1494  0.0933
 6339SOL    HW130650   1.037   1.860   1.365 -0.7642 -0.6468 -0.5118
 6339SOL    HW230651   0.931   1.798   1.425  2.3275 -1.0485 -2.6434
 6340SOL     OW30652   2.939   0.985   1.654  0.3091 -0.0965  0.0016
 6340SOL    HW130653   2.917   1.078   1.647  1.6196  0.3879  2.2416
 6340SOL    HW230654   3.033   0.996   1.664  0.2802  0.8090 -0.7441
 6341SOL     OW30655   2.059   4.720   2.926 -0.3052 -0.3122 -0.2813
 6341SOL    HW130656   2.083   0.038   2.852  0.2708 -0.8429 -0.5018
 6341SOL    HW230657   1.966   4.705   2.908  0.4222 -1.2704 -3.2801
 6342SOL     OW30658   2.295   0.551   8.502 -0.1744 -0.2954  0.2754
 6342SOL    HW130659   2.298   0.530   8.409  1.4200  0.4812  0.1550
 6342SOL    HW230660   2.327   0.641   8.497  1.6894 -0.9535  0.4105
 6343SOL     OW30661   3.658   3.584   5.010 -0.2241 -0.0674  0.0989
 6343SOL    HW130662   3.595   3.543   5.069 -0.2078 -0.2521 -0.0089
 6343SOL    HW230663   3.621   3.666   4.976 -0.0307 -0.8677 -2.0670
 6344SOL     OW30664   3.540   2.759   6.123 -0.3136 -1.0223  0.4738
 6344SOL    HW130665   3.633   2.784   6.128 -0.9017  1.9488 -3.3074
 6344SOL    HW230666   3.502   2.840   6.158 -2.3409 -1.4853 -0.6795
 6345SOL     OW30667   1.291   0.271   4.367  0.5437  0.2528  0.5348
 6345SOL    HW130668   1.379   0.271   4.404  0.1288 -1.3921  1.5002
 6345SOL    HW230669   1.306   0.253   4.274  2.3401  0.1884  0.8285
 6346SOL     OW30670   3.870   0.230   2.004  0.0716  0.1013 -0.7460
 6346SOL    HW130671   3.867   0.227   2.100  1.8802 -1.0908 -0.7211
 6346SOL    HW230672   3.958   0.267   1.998  0.0472 -0.0308 -1.8826
 6347SOL     OW30673   3.068   3.854   6.308 -0.2111 -0.3242 -1.1144
 6347SOL    HW130674   3.160   3.850   6.281  0.3409 -4.4851  1.3045
 6347SOL    HW230675   3.028   3.789   6.250 -1.5739 -0.8431  0.4142
 6348SOL     OW30676   0.355   0.916  14.110 -0.1571  0.1070 -1.2782
 6348SOL    HW130677   0.360   0.838  14.055  1.8757 -1.7875  1.5689
 6348SOL    HW230678   0.263   0.938  14.096 -0.5753  0.0055  1.2133
 6349SOL     OW30679   0.868   2.150   5.297  0.4501 -0.0779 -0.7599
 6349SOL    HW130680   0.933   2.213   5.328  0.4044 -0.8410  0.9129
 6349SOL    HW230681   0.809   2.126   5.369  0.5818  0.8119 -0.3485
 6350SOL     OW30682   0.133   1.949   7.370 -0.4881  0.3096 -0.7957
 6350SOL    HW130683   0.135   2.002   7.449  0.3747  0.8163 -1.1543
 6350SOL    HW230684   0.209   1.896   7.390 -0.6496  0.5133  0.3656
 6351SOL     OW30685   2.102   4.102   6.801  0.4808  0.2100 -0.3207
 6351SOL    HW130686   2.128   4.194   6.806 -1.5322  0.7295  0.7377
 6351SOL    HW230687   2.082   4.077   6.891 -0.8999 -0.5058 -0.8305
 6352SOL     OW30688   4.339   3.119   7.735  0.2428 -0.2827 -0.6212
 6352SOL    HW130689   4.412   3.100   7.793 -0.1797  1.3767  0.4604
 6352SOL    HW230690   4.367   3.097   7.646 -1.2096  0.3521 -1.2458
 6353SOL     OW30691   1.847   4.424   8.982  0.1458  0.1734  0.2896
 6353SOL    HW130692   1.789   4.498   9.003  0.7385  0.8494 -0.4543
 6353SOL    HW230693   1.928   4.463   8.950 -0.6040  0.6126 -1.0552
 6354SOL     OW30694   2.718   3.648   8.859  0.5334 -0.0107  0.3069
 6354SOL    HW130695   2.757   3.639   8.772  0.2506  2.7399 -0.1086
 6354SOL    HW230696   2.731   3.560   8.896 -1.7087  0.0184  1.1539
 6355SOL     OW30697   0.134   0.192  16.560  0.3731 -0.1725 -0.0574
 6355SOL    HW130698   0.213   0.209  16.509  1.0491  2.1439  1.7609
 6355SOL    HW230699   0.072   0.223  16.494  1.9717 -0.2151 -1.5652
 6356SOL     OW30700   3.698   0.235  11.788  0.5213 -0.0358  0.4660
 6356SOL    HW130701   3.761   0.174  11.826 -0.6720 -0.1597  2.2912
 6356SOL    HW230702   3.626   0.210  11.846  0.4106 -2.0643 -0.5596
 6357SOL     OW30703   4.483   1.006  13.098 -0.3423 -0.5404 -0.0216
 6357SOL    HW130704   4.443   1.021  13.184 -1.4955 -2.1226 -0.2820
 6357SOL    HW230705   4.420   1.054  13.044 -1.7533  2.1260  3.9530
 6358SOL     OW30706   1.823   0.149   9.046 -0.0884 -0.1237  0.1264
 6358SOL    HW130707   1.906   0.143   9.000 -1.8758  0.5339 -3.1434
 6358SOL    HW230708   1.783   0.190   8.969 -1.2809  0.0952  0.8554
 6359SOL     OW30709   0.980   0.244   0.986 -0.4797 -0.0281 -0.2673
 6359SOL    HW130710   0.889   0.244   0.956 -0.1424  0.1996 -1.2815
 6359SOL    HW230711   0.970   0.205   1.073  0.4986 -2.0252 -1.0513
 6360SOL     OW30712   1.747   0.036  16.364 -0.7516  0.2518  0.2045
 6360SOL    HW130713   1.676   0.100  16.353 -0.8301  0.2378  0.6207
 6360SOL    HW230714   1.701   4.713  16.421  3.0096 -3.8215 -1.1526
 6361SOL     OW30715   2.925   0.948  16.860 -0.0549  0.0256 -0.4017
 6361SOL    HW130716   2.952   0.909  16.943 -3.1145  0.9024  1.0004
 6361SOL    HW230717   2.887   0.871  16.816  0.5781 -0.8016  0.5016
 6362SOL     OW30718   0.814   1.959  13.136 -0.0614  0.4198  0.5380
 6362SOL    HW130719   0.755   2.026  13.102  2.3007  0.6307 -3.1774
 6362SOL    HW230720   0.778   1.876  13.103 -1.3804  1.0359  0.4300
 6363SOL     OW30721   2.479   0.338   3.281 -0.7084 -0.0155  0.1181
 6363SOL    HW130722   2.491   0.290   3.363  0.6287 -0.5733 -0.4084
 6363SOL    HW230723   2.479   0.266   3.218  0.5821 -0.1426  0.2758
 6364SOL     OW30724   1.311   4.721   9.842 -0.2410 -0.0537  0.1354
 6364SOL    HW130725   1.291   4.675   9.761 -2.7102 -0.0577  0.7432
 6364SOL    HW230726   1.402   4.696   9.859  0.6042  1.8667 -1.5335
 6365SOL     OW30727   3.174   4.416   5.915  0.2566 -0.0808  0.5164
 6365SOL    HW130728   3.121   4.408   5.995  1.9390  0.4287  1.6978
 6365SOL    HW230729   3.244   4.473   5.947 -0.2223  0.4933  0.5328
 6366SOL     OW30730   0.522   3.016   5.316  0.0332 -0.1121 -0.1519
 6366SOL    HW130731   0.462   3.076   5.271  0.6313  0.5825 -0.0190
 6366SOL    HW230732   0.490   2.933   5.281 -0.1937 -0.3661  0.6566
 6367SOL     OW30733   1.609   2.338   5.633 -0.0429  0.5464 -0.3074
 6367SOL    HW130734   1.688   2.366   5.586  0.4002 -2.2933 -1.2135
 6367SOL    HW230735   1.550   2.407   5.603 -0.4805  0.3090  0.0188
 6368SOL     OW30736   0.433   1.957   1.666  0.0802 -0.5346  0.9611
 6368SOL    HW130737   0.341   1.933   1.653  0.0164 -0.3178  1.0207
 6368SOL    HW230738   0.422   2.051   1.677  0.6854 -0.4147  0.5394
 6369SOL     OW30739   0.516   3.583   8.103 -0.2869 -0.4742  0.0616
 6369SOL    HW130740   0.527   3.585   8.008  1.1644  1.3390  0.2574
 6369SOL    HW230741   0.588   3.535   8.142 -0.3106 -0.9655 -0.4957
 6370SOL     OW30742   2.997   2.662   7.402 -0.2548  0.4282  0.2898
 6370SOL    HW130743   2.926   2.647   7.464 -0.7623 -0.5334 -0.5282
 6370SOL    HW230744   2.948   2.713   7.337 -0.2147 -0.4758 -0.4375
 6371SOL     OW30745   0.416   3.065  14.735  0.2775  0.3630  0.0926
 6371SOL    HW130746   0.451   3.104  14.655  0.8531 -1.5357 -0.5635
 6371SOL    HW230747   0.408   3.140  14.795 -1.6901 -0.4104  0.7803
 6372SOL     OW30748   3.917   0.693   6.667 -0.4154 -0.5362 -0.6768
 6372SOL    HW130749   3.968   0.755   6.616 -1.9382  0.9210 -0.4178
 6372SOL    HW230750   3.830   0.701   6.629  0.5590  1.0198 -2.5578
 6373SOL     OW30751   3.200   2.386  12.208 -0.4565  0.1851  0.6514
 6373SOL    HW130752   3.190   2.291  12.198  0.7176  0.1504 -0.2007
 6373SOL    HW230753   3.118   2.414  12.167  1.0307  2.6226 -0.6237
 6374SOL     OW30754   2.355   0.562   4.012 -0.5114  0.3924 -0.1195
 6374SOL    HW130755   2.422   0.538   4.076 -1.4052  0.6618  0.9147
 6374SOL    HW230756   2.382   0.501   3.943 -0.3831 -0.4252  0.6460
 6375SOL     OW30757   0.131   4.125   2.274  0.3513 -0.0007  0.4946
 6375SOL    HW130758   0.164   4.061   2.337 -0.0783 -0.5017  0.2104
 6375SOL    HW230759   0.149   4.090   2.187  0.7448  0.5319  0.3599
 6376SOL     OW30760   1.157   4.512   8.027 -0.0053  0.3111 -0.2637
 6376SOL    HW130761   1.068   4.548   8.024 -1.3695 -2.9175  1.6557
 6376SOL    HW230762   1.156   4.449   7.956 -0.2294 -0.0309  0.0452
 6377SOL     OW30763   1.875   4.506   2.593  0.1766 -0.5430 -0.1876
 6377SOL    HW130764   1.811   4.443   2.628 -0.1852  0.6542  1.3484
 6377SOL    HW230765   1.948   4.445   2.599  0.5092  0.1886  3.2454
 6378SOL     OW30766   3.719   2.451   3.409  0.4687  0.2804  0.2565
 6378SOL    HW130767   3.691   2.511   3.339 -1.8666  0.3691  1.2943
 6378SOL    HW230768   3.655   2.383   3.390 -0.2366  0.8973  0.4554
 6379SOL     OW30769   2.784   0.986   5.626  0.3677 -0.3691 -0.4573
 6379SOL    HW130770   2.704   1.004   5.677 -0.5336  0.2128 -2.0952
 6379SOL    HW230771   2.738   0.951   5.550  0.9127  0.7466 -1.3015
 6380SOL     OW30772   2.778   0.089   3.865  0.7797  0.7476  0.1617
 6380SOL    HW130773   2.691   0.113   3.834  1.1683  0.6906 -0.9934
 6380SOL    HW230774   2.828   0.151   3.810  2.5916  0.6666  1.7173
 6381SOL     OW30775   1.407   1.108   4.502 -0.5188  0.1451  0.1649
 6381SOL    HW130776   1.396   1.087   4.409 -0.2919 -1.9630  0.6307
 6381SOL    HW230777   1.333   1.066   4.546 -0.2285 -0.3411  0.1860
 6382SOL     OW30778   0.179   1.898   9.439  0.4679  0.4416  0.0986
 6382SOL    HW130779   0.158   1.990   9.453  1.4734  0.6672  0.0837
 6382SOL    HW230780   0.274   1.897   9.450  0.2908 -0.8710  1.5768
 6383SOL     OW30781   4.593   3.981   5.976 -0.0286 -0.3799  0.4162
 6383SOL    HW130782   4.591   4.049   6.043 -0.1222 -0.2454  0.2761
 6383SOL    HW230783   4.554   3.906   6.022 -0.9289 -0.4865 -0.5149
 6384SOL     OW30784   2.006   3.118   5.367  0.2495 -0.5585 -0.7094
 6384SOL    HW130785   2.059   3.133   5.446 -1.3304 -0.1910  0.2996
 6384SOL    HW230786   1.917   3.115   5.403  0.8247  0.6001  0.8372
 6385SOL     OW30787   0.796   4.668   5.530  0.2977  0.1132 -0.1628
 6385SOL    HW130788   0.745   4.736   5.485 -1.6983 -1.7383 -0.6869
 6385SOL    HW230789   0.750   4.586   5.515  3.2877 -2.0426  2.5184
 6386SOL     OW30790   3.419   0.999   6.470 -0.6566  0.5768  0.0703
 6386SOL    HW130791   3.419   1.007   6.566  1.4996 -0.5353  0.1609
 6386SOL    HW230792   3.495   1.048   6.440 -0.7784  1.0680  0.5629
 6387SOL     OW30793   2.886   3.958   7.218  0.2059 -0.8624 -0.6777
 6387SOL    HW130794   2.957   3.894   7.230  0.1509 -0.2877  2.5230
 6387SOL    HW230795   2.819   3.900   7.180  0.3725 -0.5296 -1.4905
 6388SOL     OW30796   1.752   1.114   9.702  0.2868  0.2709 -0.6045
 6388SOL    HW130797   1.823   1.076   9.651  0.0892 -0.6067 -0.2269
 6388SOL    HW230798   1.669   1.081   9.667  0.4540 -1.8326  1.0112
 6389SOL     OW30799   0.996   4.635   5.726  0.3597 -0.4178 -0.2092
 6389SOL    HW130800   0.941   4.577   5.779 -1.9757  0.4010 -1.7063
 6389SOL    HW230801   0.924   4.652   5.665  0.1929  0.3227  0.1973
 6390SOL     OW30802   2.225   1.445   7.345  0.0082 -0.4534 -0.0481
 6390SOL    HW130803   2.218   1.446   7.441 -1.8374 -0.0052 -0.1892
 6390SOL    HW230804   2.139   1.416   7.315  0.1896  0.3895 -1.4097
 6391SOL     OW30805   1.104   3.109   7.909  0.0626  0.1119 -0.1517
 6391SOL    HW130806   1.024   3.079   7.867 -1.0848 -1.1559  2.9858
 6391SOL    HW230807   1.168   3.041   7.887 -0.7850 -0.4433 -0.8998
 6392SOL     OW30808   1.776   3.479   3.234 -0.2217  0.0901  0.0002
 6392SOL    HW130809   1.697   3.427   3.224 -0.7974  1.0700 -0.6144
 6392SOL    HW230810   1.753   3.524   3.315 -0.3730  1.7201 -0.9467
 6393SOL     OW30811   4.045   4.659   3.090 -0.2317 -0.3261  0.3116
 6393SOL    HW130812   4.002   4.722   3.032 -2.4626 -0.6814  1.5665
 6393SOL    HW230813   4.129   4.702   3.103  0.3179 -0.5165 -2.4773
 6394SOL     OW30814   3.943   3.450   4.238  0.0367 -0.0930 -0.2559
 6394SOL    HW130815   4.036   3.432   4.251  0.0127  0.2646  0.4475
 6394SOL    HW230816   3.912   3.459   4.329  2.4896 -1.0956  0.6888
 6395SOL     OW30817   4.337   4.391   3.110  0.8558 -0.0739  0.2845
 6395SOL    HW130818   4.346   4.318   3.048  3.1912  1.5492 -1.3078
 6395SOL    HW230819   4.244   4.395   3.131  0.3781 -0.3283 -1.7875
 6396SOL     OW30820   3.329   0.919   4.399 -0.6080  0.0339  0.1742
 6396SOL    HW130821   3.305   0.894   4.488  3.0788  0.1090  1.1826
 6396SOL    HW230822   3.411   0.870   4.394  1.0419  2.6906  1.5864
 6397SOL     OW30823   1.577   4.733   4.765 -0.3588  0.0729  0.2283
 6397SOL    HW130824   1.591   0.087   4.740  1.6050  0.1816  1.6968
 6397SOL    HW230825   1.668   4.710   4.787  0.1187 -0.7504 -2.5490
 6398SOL     OW30826   2.151   1.880   2.681 -0.8773  0.8048  0.8808
 6398SOL    HW130827   2.133   1.964   2.723 -0.1349  1.9681 -1.1485
 6398SOL    HW230828   2.224   1.900   2.623 -0.4662  2.6845  2.0472
 6399SOL     OW30829   0.734   3.233   3.928 -0.1656  0.2834  0.0417
 6399SOL    HW130830   0.718   3.180   4.006  1.1608  0.8780  0.7243
 6399SOL    HW230831   0.646   3.270   3.924  0.6293  2.1270 -0.5434
 6400SOL     OW30832   0.932   0.262   4.243 -0.2148  0.5858  0.5242
 6400SOL    HW130833   0.947   0.173   4.276  0.2116  0.3971 -0.1587
 6400SOL    HW230834   0.967   0.255   4.154  3.6912  0.7673  2.0628
 6401SOL     OW30835   4.522   1.658   6.512 -0.3399  0.4417  0.5566
 6401SOL    HW130836   4.507   1.752   6.521 -0.8058  0.3199  1.0568
 6401SOL    HW230837   4.491   1.625   6.596 -3.9873  0.5311 -0.7450
 6402SOL     OW30838   1.985   1.312  13.662  0.4403  0.2512 -0.4502
 6402SOL    HW130839   1.923   1.250  13.703  0.5816  1.6240  1.8374
 6402SOL    HW230840   1.932   1.338  13.587 -0.0644 -0.1340 -0.2331
 6403SOL     OW30841   1.319   0.568   9.333  0.0321 -0.3971  0.7319
 6403SOL    HW130842   1.246   0.574   9.395 -1.2029 -1.4971 -0.6188
 6403SOL    HW230843   1.297   0.644   9.279 -2.3383 -1.1793  0.6121
 6404SOL     OW30844   1.019   0.318   4.486 -0.0819  0.5422  0.5867
 6404SOL    HW130845   1.100   0.293   4.441  1.1948  2.5210  1.7745
 6404SOL    HW230846   0.967   0.320   4.406 -1.4254 -0.8628  1.4440
 6405SOL     OW30847   0.185   3.317   7.639 -0.1066  0.5882 -0.0192
 6405SOL    HW130848   0.094   3.325   7.611 -0.1578 -0.2772 -0.0979
 6405SOL    HW230849   0.197   3.225   7.614  0.8190  1.1533 -1.6659
 6406SOL     OW30850   1.363   4.671   4.143  0.3847 -0.2005 -0.4449
 6406SOL    HW130851   1.286   4.716   4.108  0.0666 -1.3378 -1.2224
 6406SOL    HW230852   1.428   4.736   4.118 -1.7870  1.0020 -2.9966
 6407SOL     OW30853   3.664   1.306  13.420  0.1660  0.4549  0.2387
 6407SOL    HW130854   3.569   1.318  13.429  0.4585  2.6025  0.3309
 6407SOL    HW230855   3.687   1.304  13.327 -1.1261 -1.3881 -0.0507
 6408SOL     OW30856   2.132   2.717   8.383 -0.0265  0.6957 -0.2116
 6408SOL    HW130857   2.211   2.722   8.330  1.3945  0.9509  1.9425
 6408SOL    HW230858   2.138   2.622   8.398 -1.1311  0.7861  0.8406
 6409SOL     OW30859   3.962   0.877   3.891  0.1624  0.1791 -0.8434
 6409SOL    HW130860   3.971   0.813   3.821 -2.5566 -0.3922 -0.6516
 6409SOL    HW230861   3.988   0.957   3.843 -1.1375  0.2147 -1.4741
 6410SOL     OW30862   0.668   4.284   7.896 -0.3684 -0.3435  0.1277
 6410SOL    HW130863   0.580   4.294   7.931 -0.1746 -0.1774  0.5603
 6410SOL    HW230864   0.646   4.284   7.803 -0.2735  2.1812  0.1008
 6411SOL     OW30865   1.814   0.272   5.762  0.4778  0.2665 -0.2511
 6411SOL    HW130866   1.761   0.297   5.838 -0.0953  1.0960 -0.9235
 6411SOL    HW230867   1.791   0.334   5.693 -1.8795 -1.8321 -1.3493
 6412SOL     OW30868   0.700   2.092   7.005 -0.1366 -0.3809 -0.1493
 6412SOL    HW130869   0.675   2.009   6.965  2.1411 -0.0416 -2.2429
 6412SOL    HW230870   0.652   2.095   7.087  1.7356 -1.3763  0.9758
 6413SOL     OW30871   1.654   3.885   4.641  0.0507  0.1184  0.2056
 6413SOL    HW130872   1.729   3.844   4.598 -0.8987 -0.0423 -1.2888
 6413SOL    HW230873   1.584   3.828   4.611  0.5951 -0.1287 -0.5737
 6414SOL     OW30874   2.852   0.964   1.926 -0.1149  0.4690 -0.4089
 6414SOL    HW130875   2.926   0.989   1.870  0.1471  0.8848  0.1359
 6414SOL    HW230876   2.809   0.898   1.871  1.5161 -1.5633  0.7403
 6415SOL     OW30877   3.672   3.631  14.847  0.2841 -0.8290  0.0690
 6415SOL    HW130878   3.668   3.652  14.940  0.2375 -0.1555 -0.0908
 6415SOL    HW230879   3.582   3.646  14.819 -0.1794 -1.6382  1.1202
 6416SOL     OW30880   4.056   1.065   9.045  0.6596  0.3250 -0.9338
 6416SOL    HW130881   4.007   1.025   8.974 -0.6195  2.7132 -1.3714
 6416SOL    HW230882   4.015   1.017   9.117  1.2901  0.0861 -0.7310
 6417SOL     OW30883   0.107   1.260   4.964  0.7553 -0.4182 -0.0088
 6417SOL    HW130884   0.190   1.296   4.996 -0.4323 -0.5577  3.2816
 6417SOL    HW230885   0.049   1.320   5.011  0.3124  0.1218 -1.2591
 6418SOL     OW30886   4.141   1.738   5.059  0.4985 -0.3610  0.6264
 6418SOL    HW130887   4.060   1.779   5.032 -0.1992 -0.7053  2.1850
 6418SOL    HW230888   4.190   1.820   5.063  0.9337 -0.5586 -0.7074
 6419SOL     OW30889   1.541   2.930   5.626  0.0020 -0.1547 -0.3197
 6419SOL    HW130890   1.467   2.923   5.687 -0.5882  0.0540 -1.0177
 6419SOL    HW230891   1.569   3.019   5.648  1.3012 -0.3045 -1.3536
 6420SOL     OW30892   1.748   4.085   8.690 -0.6588 -0.5637  0.2157
 6420SOL    HW130893   1.694   4.103   8.613 -0.0117 -0.2583 -0.1613
 6420SOL    HW230894   1.736   4.170   8.734  2.4237 -0.8489  1.5994
 6421SOL     OW30895   2.141   1.373   7.684 -0.1017 -0.2619  0.0222
 6421SOL    HW130896   2.236   1.382   7.679 -0.1904  1.1148  0.7524
 6421SOL    HW230897   2.145   1.284   7.718  1.0626 -0.5895 -0.9675
 6422SOL     OW30898   1.785   4.439   3.808 -0.3044  0.0097  1.1532
 6422SOL    HW130899   1.717   4.478   3.863 -2.3717 -1.4883 -0.3227
 6422SOL    HW230900   1.853   4.504   3.826 -0.9402  1.5931 -2.1932
 6423SOL     OW30901   3.471   4.555  17.067  0.1111 -0.4383 -0.1674
 6423SOL    HW130902   3.417   4.510  17.002 -0.6401  0.5996 -0.2508
 6423SOL    HW230903   3.546   4.496  17.056 -0.3609 -1.0279 -0.2389
 6424SOL     OW30904   3.681   4.411  16.889 -0.7517 -0.2044 -0.7403
 6424SOL    HW130905   3.656   4.437  16.800  3.4897 -1.1726 -2.2346
 6424SOL    HW230906   3.702   4.318  16.884  1.0455  0.3383 -3.5469
 6425SOL     OW30907   0.452   3.712   7.224 -1.1123  0.5274 -0.5185
 6425SOL    HW130908   0.370   3.713   7.273 -0.9153 -0.5839 -0.1515
 6425SOL    HW230909   0.454   3.807   7.211  0.2635  0.4127 -1.1435
 6426SOL     OW30910   1.591   2.283  13.487 -0.3050  0.2927 -0.2925
 6426SOL    HW130911   1.601   2.275  13.582  0.8222  0.0211 -0.4316
 6426SOL    HW230912   1.590   2.377  13.470  0.9115  0.7808  2.4246
 6427SOL     OW30913   4.463   2.811   7.257 -0.0167  0.1023 -0.2260
 6427SOL    HW130914   4.432   2.724   7.236 -0.1672 -0.1022  0.8418
 6427SOL    HW230915   4.532   2.800   7.323  0.1639 -0.4576 -0.5120
 6428SOL     OW30916   0.837   4.574   8.694 -0.1684 -0.0269  0.0466
 6428SOL    HW130917   0.860   4.489   8.732 -0.3866  0.3508  1.0322
 6428SOL    HW230918   0.897   4.635   8.736  1.3829 -2.3324  1.1763
 6429SOL     OW30919   1.282   3.800  10.806 -0.1566 -0.0972 -0.4488
 6429SOL    HW130920   1.195   3.768  10.781 -1.3210  0.9400  2.2771
 6429SOL    HW230921   1.320   3.715  10.829  3.4808  1.1773 -1.7732
 6430SOL     OW30922   1.705   1.488   7.036 -0.3698 -0.8393  0.3018
 6430SOL    HW130923   1.658   1.559   7.080 -1.3152 -0.8607 -0.6751
 6430SOL    HW230924   1.762   1.533   6.974 -0.8265  1.1462  1.3388
 6431SOL     OW30925   3.426   0.486   8.389  0.1733 -0.6160  0.0537
 6431SOL    HW130926   3.352   0.426   8.386 -1.5210  1.3382  2.6883
 6431SOL    HW230927   3.373   0.566   8.390  1.5895  0.2889  2.6181
 6432SOL     OW30928   1.058   1.951   9.236 -0.0341 -0.6044  0.1793
 6432SOL    HW130929   0.982   1.996   9.272  2.3165  3.6862 -0.2680
 6432SOL    HW230930   1.103   1.925   9.315  1.9029  1.0583 -0.3856
 6433SOL     OW30931   0.978   4.043   9.417 -0.2356 -0.1628 -0.2290
 6433SOL    HW130932   0.974   3.950   9.397 -1.4821 -0.0639 -0.4509
 6433SOL    HW230933   1.053   4.049   9.477  0.1839 -1.2709 -0.6425
 6434SOL     OW30934   4.726   4.348  11.929 -0.4261 -0.0622  0.1867
 6434SOL    HW130935   0.010   4.400  11.851  0.6231 -1.5496 -0.5292
 6434SOL    HW230936   4.646   4.302  11.905 -0.4569 -1.0239  2.1878
 6435SOL     OW30937   3.817   0.051  12.229 -0.1123  0.2651  0.1212
 6435SOL    HW130938   3.843   4.710  12.276 -1.3955 -0.1591  0.1043
 6435SOL    HW230939   3.727   0.067  12.258  0.3366  0.7683  1.2591
 6436SOL     OW30940   3.579   0.650   9.270  0.1003  0.4447 -0.1711
 6436SOL    HW130941   3.507   0.670   9.210 -0.0804 -2.2221 -0.8705
 6436SOL    HW230942   3.655   0.638   9.213  0.6366 -0.1541  0.6755
 6437SOL     OW30943   4.187   0.697  11.000 -0.2594  0.3878  0.3577
 6437SOL    HW130944   4.158   0.630  10.939  0.8133 -0.8557  1.2042
 6437SOL    HW230945   4.125   0.688  11.072  2.6517 -0.0902  2.8028
 6438SOL     OW30946   4.736   2.195  15.250  0.1512  0.1994  0.2779
 6438SOL    HW130947   0.030   2.255  15.318  0.1081  2.3619 -1.6158
 6438SOL    HW230948   4.689   2.257  15.194  2.6120  4.0495  2.4565
 6439SOL     OW30949   4.264   4.692  16.097  0.2541 -0.1657 -0.1848
 6439SOL    HW130950   4.196   0.002  16.144  2.0331  2.8280 -0.6611
 6439SOL    HW230951   4.223   4.609  16.075 -2.8132  1.3739 -0.1909
 6440SOL     OW30952   2.579   1.923   0.782 -0.8508  0.2363 -0.0283
 6440SOL    HW130953   2.565   2.005   0.828 -1.6692 -0.5008  1.0421
 6440SOL    HW230954   2.645   1.950   0.719  0.1844  2.1652  1.9183
 6441SOL     OW30955   1.241   2.104   0.210 -0.3986 -0.0524 -0.0798
 6441SOL    HW130956   1.223   2.196   0.193  1.3585  0.1411 -1.0206
 6441SOL    HW230957   1.266   2.105   0.302 -1.7208  2.8540  0.2513
 6442SOL     OW30958   0.445   0.323   0.968 -0.1226  1.0937  0.6044
 6442SOL    HW130959   0.355   0.289   0.971  0.5724 -0.8446 -0.7805
 6442SOL    HW230960   0.472   0.319   0.876  0.6566  0.7666  0.8499
 6443SOL     OW30961   1.368   4.502  16.600 -0.0881 -0.7838 -0.3143
 6443SOL    HW130962   1.382   4.480  16.692  0.0689  1.2665  0.1497
 6443SOL    HW230963   1.321   4.419  16.586 -3.3819  1.2777 -1.5704
 6444SOL     OW30964   0.723   0.516  17.605  1.1932 -0.0171  0.1673
 6444SOL    HW130965   0.734   0.466  17.524 -0.3694  0.3000 -0.2380
 6444SOL    HW230966   0.695   0.441  17.657  1.1110 -1.4557 -1.9654
 6445SOL     OW30967   1.960   0.377  12.944  0.5640  0.0792 -0.6674
 6445SOL    HW130968   1.903   0.361  12.869 -0.0969  1.7125 -0.4996
 6445SOL    HW230969   2.030   0.313  12.929 -2.0962 -2.9008 -0.5410
 6446SOL     OW30970   0.789   3.093   2.976  0.2039 -0.4504 -0.5354
 6446SOL    HW130971   0.869   3.087   2.924  0.6302 -0.7747  0.1484
 6446SOL    HW230972   0.730   3.081   2.902 -0.7439  2.0957 -0.1969
 6447SOL     OW30973   2.470   1.805   0.546 -0.0481  0.1969 -0.2567
 6447SOL    HW130974   2.500   1.797   0.636 -0.5697 -1.3616 -0.2189
 6447SOL    HW230975   2.548   1.836   0.500  0.5730 -0.9368  0.0361
 6448SOL     OW30976   0.057   3.683   7.107  0.0412 -0.1309  0.0018
 6448SOL    HW130977   0.060   3.726   7.192 -2.1601 -0.7640  0.3967
 6448SOL    HW230978   0.108   3.742   7.051 -0.5185 -1.4063 -1.8656
 6449SOL     OW30979   1.002   1.107   5.053  0.0812  0.2569 -0.1200
 6449SOL    HW130980   0.983   1.165   4.979  3.2220  2.5151  0.8310
 6449SOL    HW230981   1.028   1.029   5.003  3.2464  0.5215  1.1476
 6450SOL     OW30982   2.082   3.635  16.709  0.1927  0.8080 -0.2399
 6450SOL    HW130983   2.156   3.684  16.674  0.6751 -0.1927 -0.6243
 6450SOL    HW230984   2.078   3.679  16.794 -1.0201  1.8083 -0.8052
 6451SOL     OW30985   3.576   3.983   3.552 -0.2560  0.2326  0.5371
 6451SOL    HW130986   3.584   4.001   3.458  0.3125 -0.6738  0.4133
 6451SOL    HW230987   3.664   3.946   3.552 -0.2542  0.2722  2.5319
 6452SOL     OW30988   3.157   4.609   9.332  0.2671  0.7106 -0.0018
 6452SOL    HW130989   3.171   4.701   9.309 -0.9002  1.1116  0.9603
 6452SOL    HW230990   3.090   4.583   9.269  0.8004  0.8603 -0.6444
 6453SOL     OW30991   3.168   0.084  17.455  0.1410 -0.5393  0.0429
 6453SOL    HW130992   3.157   0.060  17.547  0.5068  0.3010  0.3001
 6453SOL    HW230993   3.102   0.153  17.448 -0.3679 -0.8027  2.1853
 6454SOL     OW30994   3.132   3.651   4.576  0.1703  0.1776 -0.1748
 6454SOL    HW130995   3.078   3.578   4.543 -1.7428  1.0956  0.9618
 6454SOL    HW230996   3.132   3.613   4.664 -0.6542 -0.4467 -0.4392
 6455SOL     OW30997   0.296   1.878  15.335 -0.1971  0.2522 -0.3167
 6455SOL    HW130998   0.206   1.851  15.318  0.1263 -0.1078 -1.4415
 6455SOL    HW230999   0.276   1.957  15.386 -2.3682  0.5261 -1.5763
 6456SOL     OW31000   2.669   1.355   4.339 -0.1699 -0.3552  0.1490
 6456SOL    HW131001   2.675   1.385   4.248 -1.0125 -0.5110  0.0380
 6456SOL    HW231002   2.755   1.381   4.370 -0.5374  0.8780  0.1226
 6457SOL     OW31003   3.215   0.342   8.455 -0.4451 -0.8462 -0.2536
 6457SOL    HW131004   3.239   0.311   8.542  0.9379 -0.8487 -0.6270
 6457SOL    HW231005   3.133   0.302   8.425 -1.9135 -0.2886  3.0529
 6458SOL     OW31006   2.533   2.250   4.652  0.4341 -0.5185  0.7433
 6458SOL    HW131007   2.545   2.340   4.684  1.0037 -0.0425 -0.8369
 6458SOL    HW231008   2.440   2.253   4.629  0.5958 -2.0313 -0.0511
 6459SOL     OW31009   0.918   4.642  15.312  0.5362  0.3672  0.4084
 6459SOL    HW131010   0.839   4.680  15.351  0.1193 -1.2850  1.1778
 6459SOL    HW231011   0.895   4.634  15.220  0.4433 -1.9165  0.6389
 6460SOL     OW31012   3.055   1.630   2.445  1.0788  0.8866 -0.3459
 6460SOL    HW131013   3.078   1.693   2.377  0.8057  1.7094  0.3292
 6460SOL    HW231014   3.111   1.554   2.429  2.5297  2.1186 -1.1322
 6461SOL     OW31015   2.929   0.971   8.229 -0.2041 -0.2357  0.7336
 6461SOL    HW131016   2.984   0.982   8.151  0.7759  0.1186  1.4742
 6461SOL    HW231017   2.845   0.948   8.189  1.0396  2.0312 -3.1744
 6462SOL     OW31018   3.107   1.947   3.079 -0.4649 -0.4212  0.0025
 6462SOL    HW131019   3.018   1.941   3.112  0.0596  0.0034  1.4984
 6462SOL    HW231020   3.099   1.988   2.993  1.6365  1.2866  0.6159
 6463SOL     OW31021   0.042   0.355   3.687 -0.1304 -0.3728 -0.4843
 6463SOL    HW131022   0.086   0.439   3.673 -2.9513  1.0482 -0.8619
 6463SOL    HW231023   0.107   0.300   3.643  1.1037 -0.3453  1.2681
 6464SOL     OW31024   4.612   2.530   7.227 -0.2409  0.1895 -0.4524
 6464SOL    HW131025   4.646   2.491   7.146 -0.0201  0.1104 -0.3214
 6464SOL    HW231026   4.696   2.538   7.272 -0.9366 -1.2234  1.1055
 6465SOL     OW31027   2.578   2.073   8.326  0.0223 -0.3442 -0.5435
 6465SOL    HW131028   2.486   2.095   8.316  0.3511  0.6535 -1.4342
 6465SOL    HW231029   2.587   2.040   8.415 -1.9663 -0.0060 -0.2233
 6466SOL     OW31030   4.610   1.968  14.690  0.1075  0.6737  0.6225
 6466SOL    HW131031   4.684   1.910  14.673 -0.6821  0.2845 -1.4173
 6466SOL    HW231032   4.571   1.989  14.606  0.9191 -0.3226 -0.0019
 6467SOL     OW31033   3.385   4.616  10.064  0.0198  0.6240  0.4151
 6467SOL    HW131034   3.290   4.603  10.061  0.4128 -1.8384 -1.6765
 6467SOL    HW231035   3.384   4.704  10.103 -2.2481  1.2234 -0.9785
 6468SOL     OW31036   2.059   1.261  15.050 -0.2734  0.8804  0.4551
 6468SOL    HW131037   1.976   1.286  15.010 -0.2334  0.5378  0.1587
 6468SOL    HW231038   2.032   1.194  15.113 -1.2036  1.0853  0.2711
 6469SOL     OW31039   4.633   4.085   2.521 -0.3220  0.4596  0.1209
 6469SOL    HW131040   4.726   4.090   2.543  0.1800  0.5794 -1.9589
 6469SOL    HW231041   4.617   4.175   2.490 -1.0230 -0.0789 -1.0662
 6470SOL     OW31042   1.634   3.926   6.193 -0.0540  0.2369  0.1369
 6470SOL    HW131043   1.549   3.909   6.234 -0.7606  0.6177 -1.1743
 6470SOL    HW231044   1.678   3.986   6.253  0.8544  0.4839 -0.7765
 6471SOL     OW31045   0.934   4.014   1.982  0.0689  0.3919  0.2088
 6471SOL    HW131046   0.894   4.014   2.069 -1.6103 -1.1344 -0.5561
 6471SOL    HW231047   0.983   4.095   1.996  1.0443 -0.5680  2.4110
 6472SOL     OW31048   0.236   3.013  14.391  0.0470  0.5083  0.2028
 6472SOL    HW131049   0.183   3.042  14.465  1.7181  2.4903  0.5964
 6472SOL    HW231050   0.160   2.980  14.343  0.6766 -1.5139  0.5638
 6473SOL     OW31051   1.760   2.685   5.186 -0.1057 -0.1383  0.2486
 6473SOL    HW131052   1.764   2.702   5.280  1.7981  0.4476  0.0762
 6473SOL    HW231053   1.667   2.685   5.165 -0.2096 -2.7772  0.7616
 6474SOL     OW31054   2.104   2.660   9.418 -0.1594  0.8727 -0.5175
 6474SOL    HW131055   2.149   2.659   9.502  1.1726 -1.5047 -1.2480
 6474SOL    HW231056   2.157   2.599   9.366 -1.0957  1.6242 -2.3701
 6475SOL     OW31057   3.055   4.382   9.151  0.2398  0.5677 -0.2010
 6475SOL    HW131058   3.138   4.389   9.105  0.2338  0.4155 -0.2339
 6475SOL    HW231059   3.002   4.358   9.074  0.3169  1.7487 -0.6220
 6476SOL     OW31060   0.012   3.492  15.990 -0.1785  0.0889 -0.1117
 6476SOL    HW131061   0.008   3.550  16.066  3.0427 -1.0535  0.9247
 6476SOL    HW231062   0.067   3.420  16.021  0.6183  0.0669 -1.5835
 6477SOL     OW31063   3.616   4.297   9.373 -0.1031  0.9529  0.1256
 6477SOL    HW131064   3.538   4.351   9.363  1.2941  2.8504 -0.5544
 6477SOL    HW231065   3.601   4.227   9.436 -0.9172  1.2235  0.2286
 6478SOL     OW31066   1.640   1.601  16.537  0.0872 -0.2609  0.1668
 6478SOL    HW131067   1.680   1.682  16.506 -0.1216 -0.1607  0.1559
 6478SOL    HW231068   1.578   1.586  16.465 -0.1144 -3.6586  1.0613
 6479SOL     OW31069   2.209   0.817   2.179  0.8584 -0.3645  0.0731
 6479SOL    HW131070   2.194   0.890   2.119  3.3787  0.9215  0.9747
 6479SOL    HW231071   2.119   0.805   2.209 -0.3965  1.4263 -2.9507
 6480SOL     OW31072   0.095   1.611   9.445 -0.0617  0.1568  0.3488
 6480SOL    HW131073   0.116   1.703   9.463 -2.2097  0.4592  1.4101
 6480SOL    HW231074   0.184   1.587   9.421 -0.4299 -2.4113  1.5491
 6481SOL     OW31075   0.458   1.488   8.627 -0.4812  0.8353  0.5380
 6481SOL    HW131076   0.534   1.448   8.583 -0.9197  0.4189  0.1626
 6481SOL    HW231077   0.424   1.551   8.564  1.5786  0.2185 -1.1906
 6482SOL     OW31078   1.661   3.598   8.848 -0.0816 -0.7258 -0.0560
 6482SOL    HW131079   1.694   3.520   8.804  1.4577 -0.6326  0.9001
 6482SOL    HW231080   1.744   3.624   8.887 -0.5926  0.2640  0.3633
 6483SOL     OW31081   3.530   4.735  17.283  0.4073 -0.7867  0.1845
 6483SOL    HW131082   3.506   4.670  17.217 -0.0200  0.1620 -0.5825
 6483SOL    HW231083   3.624   0.005  17.266  0.2373 -2.0434 -1.2912
 6484SOL     OW31084   1.482   0.351   7.344  0.2410  0.8523 -0.0426
 6484SOL    HW131085   1.510   0.262   7.324 -0.1408  1.1019 -1.6878
 6484SOL    HW231086   1.409   0.336   7.403  1.3791  3.8597  2.1203
 6485SOL     OW31087   1.731   2.060   3.491  0.4920  1.0046  0.0944
 6485SOL    HW131088   1.788   1.999   3.445 -0.6274 -0.1164  0.2164
 6485SOL    HW231089   1.750   2.150   3.462 -0.2193  1.3067  0.5783
 6486SOL     OW31090   4.165   0.206   1.131  0.3546 -0.1300 -0.0789
 6486SOL    HW131091   4.164   0.110   1.135  1.5009 -0.1744 -0.9350
 6486SOL    HW231092   4.237   0.214   1.068 -0.5322 -0.6421 -1.1578
 6487SOL     OW31093   2.335   2.185   8.369  0.3004 -0.5874 -0.2496
 6487SOL    HW131094   2.260   2.126   8.370  0.7749 -1.1956 -0.8328
 6487SOL    HW231095   2.356   2.206   8.460  1.9020 -0.7342 -0.5765
 6488SOL     OW31096   0.573   4.112   2.088  0.4874 -0.0880  0.2129
 6488SOL    HW131097   0.650   4.150   2.129 -0.5698  1.3903  0.8571
 6488SOL    HW231098   0.536   4.054   2.154  1.9163 -3.1173 -1.6550
 6489SOL     OW31099   1.119   0.607   1.116 -0.0304  0.0451  0.7863
 6489SOL    HW131100   1.146   0.548   1.187 -0.4839 -1.1414 -0.0312
 6489SOL    HW231101   1.041   0.636   1.162 -0.5262 -0.9818  0.5964
 6490SOL     OW31102   3.666   4.311   3.829  0.2387 -0.0216 -0.2112
 6490SOL    HW131103   3.721   4.385   3.853 -2.6376  2.3076 -0.7903
 6490SOL    HW231104   3.725   4.267   3.767 -1.5422 -2.3278 -0.2709
 6491SOL     OW31105   0.878   2.006   2.473 -0.1798 -0.6731 -0.7444
 6491SOL    HW131106   0.878   1.921   2.429  1.5463 -1.5381  0.9234
 6491SOL    HW231107   0.820   1.989   2.547 -0.1278  2.6063  0.0613
 6492SOL     OW31108   2.219   0.924   2.469 -0.2028  0.4886 -0.1867
 6492SOL    HW131109   2.222   0.884   2.382 -0.1889 -0.0693  0.0682
 6492SOL    HW231110   2.131   0.899   2.497  1.4466 -3.8262  1.2680
 6493SOL     OW31111   2.113   2.628   6.100 -0.5275  0.0103 -0.2416
 6493SOL    HW131112   2.028   2.617   6.143 -0.3860 -1.6443 -0.4082
 6493SOL    HW231113   2.167   2.671   6.166  0.0185 -1.2638  0.1269
 6494SOL     OW31114   4.550   2.658   5.361  0.1130  0.2583  0.5399
 6494SOL    HW131115   4.540   2.684   5.452  0.9843 -1.6557  1.1816
 6494SOL    HW231116   4.458   2.647   5.337  0.0722 -1.1367  1.3037
 6495SOL     OW31117   3.614   1.384   4.711  0.0169 -0.0166  0.6242
 6495SOL    HW131118   3.589   1.473   4.736  1.9729  0.7897 -0.2817
 6495SOL    HW231119   3.625   1.342   4.796  1.1528  0.6274  0.7852
 6496SOL     OW31120   0.208   2.661   2.057 -0.2874  0.8306 -0.0417
 6496SOL    HW131121   0.171   2.598   2.118  2.0568  0.3643  0.9038
 6496SOL    HW231122   0.303   2.649   2.065 -0.0433  2.2143 -0.7555
 6497SOL     OW31123   0.597   0.210   8.625 -0.1515 -0.4053  0.1738
 6497SOL    HW131124   0.529   0.188   8.689  0.0163 -0.5738  0.2958
 6497SOL    HW231125   0.651   0.137   8.657 -0.2787 -0.7424 -0.3808
 6498SOL     OW31126   2.951   3.394   2.903  0.6878  0.4792 -0.5107
 6498SOL    HW131127   2.878   3.448   2.872 -0.7378 -0.1746  1.7918
 6498SOL    HW231128   2.938   3.321   2.842 -0.6070 -0.3498  0.7791
 6499SOL     OW31129   1.630   1.989   7.480 -0.5301  0.0618 -0.5650
 6499SOL    HW131130   1.641   1.947   7.566 -1.0196 -0.1136 -0.5876
 6499SOL    HW231131   1.697   1.943   7.429 -1.6042 -1.8725 -0.2267
 6500SOL     OW31132   0.343   2.440   1.844 -0.5485  0.4634 -0.3529
 6500SOL    HW131133   0.326   2.456   1.937 -0.9226  0.7070 -0.4647
 6500SOL    HW231134   0.369   2.524   1.805  0.5903 -0.2935 -1.2510
 6501SOL     OW31135   3.899   3.117  17.125 -0.2499  0.4043 -0.2924
 6501SOL    HW131136   3.803   3.118  17.128 -0.3051 -0.1983 -1.8688
 6501SOL    HW231137   3.925   3.175  17.197  0.1160 -1.6881  1.2609
 6502SOL     OW31138   2.784   0.218   9.611  0.1505  0.4794  0.4561
 6502SOL    HW131139   2.731   0.206   9.532  2.0983 -0.3557 -0.7363
 6502SOL    HW231140   2.754   0.303   9.643  2.0219  0.7540  1.4478
 6503SOL     OW31141   4.695   4.404   7.938 -1.1305 -0.1832 -0.1511
 6503SOL    HW131142   4.706   4.499   7.936 -1.2198 -0.1899 -1.0501
 6503SOL    HW231143   4.723   4.376   8.024 -0.6003  2.8220  0.6682
 6504SOL     OW31144   2.560   3.078   2.191  0.7288  0.2319  0.1264
 6504SOL    HW131145   2.608   3.121   2.120  0.8343 -2.7782 -1.6587
 6504SOL    HW231146   2.549   3.148   2.255 -0.2349  0.0055  0.2119
 6505SOL     OW31147   1.688   0.751   2.712  0.7461 -0.3128 -0.0685
 6505SOL    HW131148   1.749   0.714   2.777 -0.3632 -2.6360 -0.3789
 6505SOL    HW231149   1.603   0.720   2.743 -0.2078  2.1750 -0.2015
 6506SOL     OW31150   3.402   2.362   2.266 -0.5365  0.3508 -0.0671
 6506SOL    HW131151   3.434   2.361   2.357  2.3796  0.3309 -1.0880
 6506SOL    HW231152   3.386   2.456   2.263 -0.5632  0.2616 -2.3214
 6507SOL     OW31153   0.169   1.498   9.089 -0.2910  0.2143 -0.0441
 6507SOL    HW131154   0.233   1.569   9.081 -0.0587  0.2125  1.6789
 6507SOL    HW231155   0.095   1.557   9.081 -2.8857 -2.7150  2.1766
 6508SOL     OW31156   3.846   4.123   4.793 -0.2065 -0.3291 -0.1860
 6508SOL    HW131157   3.803   4.161   4.716  0.5964  1.2161  0.1319
 6508SOL    HW231158   3.867   4.193   4.856  1.8915 -1.0617 -0.0790
 6509SOL     OW31159   1.249   1.834  12.049 -0.0874 -0.0152  0.1362
 6509SOL    HW131160   1.217   1.919  12.080 -1.7226 -0.4564 -0.3392
 6509SOL    HW231161   1.209   1.767  12.103 -0.4838  0.4823  0.4631
 6510SOL     OW31162   3.395   2.992   5.299  0.2446 -0.3101 -0.2938
 6510SOL    HW131163   3.330   3.052   5.336  1.1411  1.7134 -2.0048
 6510SOL    HW231164   3.339   2.940   5.242  0.2088  0.4476 -0.9356
 6511SOL     OW31165   1.012   2.634   4.814  0.0325 -0.0588 -0.3648
 6511SOL    HW131166   1.057   2.559   4.854 -1.7998  0.1958  2.1620
 6511SOL    HW231167   0.956   2.663   4.885  0.5293 -1.1322  0.4713
 6512SOL     OW31168   3.702   2.997  12.819 -0.0022 -0.4570 -0.0174
 6512SOL    HW131169   3.755   2.923  12.847  0.9599 -0.1067 -0.9213
 6512SOL    HW231170   3.701   3.056  12.894 -0.1038  1.8241 -1.8089
 6513SOL     OW31171   3.492   1.460   3.352  0.5951 -0.2381 -0.1238
 6513SOL    HW131172   3.476   1.555   3.356  1.9502  0.0544 -1.5817
 6513SOL    HW231173   3.516   1.454   3.259 -1.8474  2.0054 -0.9186
 6514SOL     OW31174   1.437   4.485  10.778 -0.0581 -0.3057  0.5384
 6514SOL    HW131175   1.404   4.521  10.696 -2.5302 -0.6957  1.3398
 6514SOL    HW231176   1.530   4.491  10.757  0.1783 -3.0539  0.8091
 6515SOL     OW31177   4.384   3.413   1.162  0.4101  0.0901  0.2590
 6515SOL    HW131178   4.390   3.343   1.227 -0.1427  0.0091  0.2179
 6515SOL    HW231179   4.438   3.470   1.218 -2.1785 -0.1392  3.0073
 6516SOL     OW31180   2.445   2.229  17.136 -0.0020 -0.1205 -0.1149
 6516SOL    HW131181   2.396   2.164  17.086 -0.7425  0.3415  0.0202
 6516SOL    HW231182   2.531   2.187  17.133  0.8758  1.8139 -1.7653
 6517SOL     OW31183   4.098   1.884   2.734 -0.4082  0.1848 -0.6434
 6517SOL    HW131184   4.151   1.853   2.808  0.8866  1.2127 -1.1427
 6517SOL    HW231185   4.011   1.881   2.772  0.0863  1.3134  0.5583
 6518SOL     OW31186   2.391   1.977   6.105  0.4501 -0.7407  0.4445
 6518SOL    HW131187   2.443   1.960   6.026  1.2295  1.0626  0.5686
 6518SOL    HW231188   2.384   2.072   6.104 -1.3345 -0.8676  2.1383
 6519SOL     OW31189   1.120   3.958   9.101 -0.1831 -0.1271  0.4417
 6519SOL    HW131190   1.162   3.956   9.187 -0.2987 -0.5418  0.4916
 6519SOL    HW231191   1.196   3.956   9.042  0.1684 -2.1352  0.9368
 6520SOL     OW31192   0.070   3.826  16.114 -0.1011 -0.2676 -0.0176
 6520SOL    HW131193   4.727   3.831  16.063  0.7115 -0.5367 -1.3345
 6520SOL    HW231194   0.130   3.834  16.040 -0.7854  2.2003 -0.2834
 6521SOL     OW31195   2.174   4.293   8.685 -0.1132  0.3294  0.2124
 6521SOL    HW131196   2.129   4.209   8.694 -1.0023  0.8461  0.5893
 6521SOL    HW231197   2.113   4.330   8.621 -0.2043 -1.0278 -0.4690
 6522SOL     OW31198   1.352   3.154  10.964  0.4882  0.0231 -0.0517
 6522SOL    HW131199   1.428   3.208  10.945 -0.4644  1.3180 -0.2427
 6522SOL    HW231200   1.379   3.092  11.032  1.6478 -0.3624 -0.8550
 6523SOL     OW31201   3.164   3.860   7.159  0.2326 -0.0302 -0.2748
 6523SOL    HW131202   3.197   3.772   7.142 -1.2513 -0.7727  0.7728
 6523SOL    HW231203   3.175   3.868   7.254  1.5073  2.2416 -0.6036
 6524SOL     OW31204   2.851   1.711   8.318 -0.0620 -0.2467 -0.1589
 6524SOL    HW131205   2.866   1.747   8.231 -0.4313 -0.7642 -0.4353
 6524SOL    HW231206   2.937   1.708   8.360 -1.3887 -1.7536  2.4248
 6525SOL     OW31207   4.110   0.626  14.777 -0.1629  0.4202 -0.5484
 6525SOL    HW131208   4.178   0.645  14.712 -0.4488 -1.1889 -1.3117
 6525SOL    HW231209   4.151   0.547  14.812 -1.6755 -0.2477 -0.2642
 6526SOL     OW31210   1.834   1.447  11.650  0.0700  0.6430  0.5533
 6526SOL    HW131211   1.743   1.474  11.665  0.3947  2.2949 -0.4551
 6526SOL    HW231212   1.852   1.442  11.557 -0.8675 -1.4286  0.4726
 6527SOL     OW31213   0.502   4.302   8.304 -0.4354 -0.5186 -0.6234
 6527SOL    HW131214   0.537   4.370   8.362  0.4295 -2.5482  1.2358
 6527SOL    HW231215   0.466   4.238   8.366 -0.1824 -0.5891 -0.5503
 6528SOL     OW31216   3.787   1.392   9.472 -0.0185  0.2696 -0.6748
 6528SOL    HW131217   3.853   1.369   9.538  0.6523  0.2763 -1.3453
 6528SOL    HW231218   3.782   1.311   9.422 -0.9202 -0.8172  1.1398
 6529SOL     OW31219   2.635   0.229   4.575  0.8553  0.3915 -0.0331
 6529SOL    HW131220   2.546   0.202   4.553  1.4346 -2.3519  1.0621
 6529SOL    HW231221   2.653   0.159   4.637 -2.2397  0.2810  0.7723
 6530SOL     OW31222   0.754   3.980  11.611  0.8024 -0.3962 -0.1762
 6530SOL    HW131223   0.662   3.955  11.614  0.8196 -0.6229 -1.8846
 6530SOL    HW231224   0.768   3.982  11.517 -0.6046 -0.7505 -0.3931
 6531SOL     OW31225   1.146   1.218  17.225  0.5070  0.6554  0.0072
 6531SOL    HW131226   1.051   1.225  17.224  0.5232  0.5485 -2.2982
 6531SOL    HW231227   1.161   1.229  17.132  0.7593  1.3756  0.1351
 6532SOL     OW31228   1.018   2.266   7.152  0.0307  0.2010  0.2723
 6532SOL    HW131229   1.095   2.290   7.099 -0.7374  2.3920  0.1431
 6532SOL    HW231230   1.053   2.221   7.229 -1.9050  0.2068  1.1461
 6533SOL     OW31231   0.176   0.568   3.990 -0.4036 -0.1012  0.2488
 6533SOL    HW131232   0.081   0.554   3.993 -0.6519  1.6064  0.4637
 6533SOL    HW231233   0.190   0.565   3.895  0.6720  2.2720  0.3300
 6534SOL     OW31234   0.725   3.983   8.172  0.0572  0.2452  0.2230
 6534SOL    HW131235   0.714   4.055   8.234  0.3377 -1.3275  2.1138
 6534SOL    HW231236   0.635   3.950   8.173 -0.2128  0.9898 -0.0768
 6535SOL     OW31237   3.893   0.849   7.620  0.3589 -0.7695 -0.5204
 6535SOL    HW131238   3.878   0.799   7.700  0.0124  0.8737  0.4548
 6535SOL    HW231239   3.895   0.786   7.548  1.6359  0.4900 -1.5988
 6536SOL     OW31240   2.139   4.149   4.139 -0.1961  0.0735 -0.3566
 6536SOL    HW131241   2.196   4.165   4.214 -1.7526 -1.0312  1.0532
 6536SOL    HW231242   2.061   4.108   4.177  1.2113 -1.4921  0.8305
 6537SOL     OW31243   1.820   0.973   4.477  0.1750  0.3415  0.0300
 6537SOL    HW131244   1.859   1.044   4.426 -1.6935 -1.4058 -3.8431
 6537SOL    HW231245   1.822   0.901   4.413  1.1648 -1.4580  2.1041
 6538SOL     OW31246   0.159   3.937  17.298  0.4135 -0.1328 -0.3098
 6538SOL    HW131247   0.171   3.936  17.203 -2.2111  0.7278 -0.6496
 6538SOL    HW231248   0.103   4.014  17.303  0.1817 -0.2726 -0.7426
 6539SOL     OW31249   3.388   4.342   4.538  0.2607  0.0291  0.0696
 6539SOL    HW131250   3.444   4.274   4.501  1.5043  1.6889 -1.0613
 6539SOL    HW231251   3.381   4.310   4.628 -0.8288 -0.8493 -0.3243
 6540SOL     OW31252   2.717   2.297   1.319 -0.6592  0.5487  0.1352
 6540SOL    HW131253   2.655   2.277   1.390  0.9717  0.2561  1.4757
 6540SOL    HW231254   2.729   2.214   1.274 -1.3615  0.5099  0.0113
 6541SOL     OW31255   0.824   0.459  15.979 -0.0581  0.3459  0.6603
 6541SOL    HW131256   0.810   0.379  15.927 -0.4617  1.4592 -0.9278
 6541SOL    HW231257   0.856   0.521  15.914 -1.6378  1.6564  1.1272
 6542SOL     OW31258   2.630   4.277   5.097  0.0691  0.4049  0.2342
 6542SOL    HW131259   2.598   4.267   5.187  0.1028  0.0631  0.2068
 6542SOL    HW231260   2.719   4.309   5.112 -0.1542 -0.3729  3.1938
 6543SOL     OW31261   3.587   0.792   4.344  0.1153 -0.3543 -0.6302
 6543SOL    HW131262   3.642   0.838   4.281 -0.1507  1.2334  0.3240
 6543SOL    HW231263   3.627   0.799   4.430  0.7600  1.6659 -1.1011
 6544SOL     OW31264   4.402   1.207  10.820  0.1938  0.5318 -1.1684
 6544SOL    HW131265   4.475   1.234  10.766  2.7871 -0.1109  2.0219
 6544SOL    HW231266   4.399   1.278  10.885  1.8972 -1.8003  1.4183
 6545SOL     OW31267   1.064   2.041  12.826  0.2281  0.3380 -0.1394
 6545SOL    HW131268   0.991   1.995  12.786  0.9797 -0.4958 -0.5504
 6545SOL    HW231269   1.034   2.132  12.831  0.8632  0.5779 -0.6903
 6546SOL     OW31270   1.772   3.437   6.972  0.2747 -0.0575 -0.2275
 6546SOL    HW131271   1.689   3.467   6.932 -0.1832  2.5585  2.6605
 6546SOL    HW231272   1.789   3.350   6.937  0.6796  0.3705 -1.0870
 6547SOL     OW31273   3.387   3.775   8.935 -0.1704 -0.1162 -0.7761
 6547SOL    HW131274   3.426   3.700   8.889  1.0582 -0.9448  1.5994
 6547SOL    HW231275   3.361   3.732   9.016  3.0644 -2.2393 -0.8701
 6548SOL     OW31276   0.161   0.452   9.325  0.0478 -0.2864 -0.8363
 6548SOL    HW131277   0.071   0.422   9.322  0.2063 -0.5241 -3.4789
 6548SOL    HW231278   0.201   0.410   9.402 -0.1356  0.7384 -0.1817
 6549SOL     OW31279   2.819   4.695   8.175 -0.0303 -0.3179 -0.6653
 6549SOL    HW131280   2.755   4.699   8.246  1.5069  2.0440  0.6011
 6549SOL    HW231281   2.771   0.004   8.107 -0.1720 -1.2873 -1.2285
 6550SOL     OW31282   0.238   1.829   2.861  0.0312 -0.2426  0.6134
 6550SOL    HW131283   0.152   1.820   2.902 -0.6104 -0.7004 -0.8171
 6550SOL    HW231284   0.214   1.829   2.768 -1.4665  0.8807  0.9931
 6551SOL     OW31285   0.224   0.886   3.490  0.2516  0.0361  0.0277
 6551SOL    HW131286   0.232   0.907   3.583 -1.5383  0.5494  0.0580
 6551SOL    HW231287   0.315   0.876   3.461  1.0060  2.4733  1.5851
 6552SOL     OW31288   0.834   3.708   5.475  0.1975  0.2860  0.1394
 6552SOL    HW131289   0.818   3.614   5.468 -2.7067  0.7881 -0.2873
 6552SOL    HW231290   0.762   3.746   5.424  0.9598  2.1097  0.4331
 6553SOL     OW31291   2.464   0.435   5.967 -0.1066  0.1925  0.2686
 6553SOL    HW131292   2.480   0.495   6.040  1.4680 -0.5646  0.5541
 6553SOL    HW231293   2.407   0.371   6.008  0.6783 -0.1130  0.8826
 6554SOL     OW31294   0.678   1.296   4.921  0.7666  0.3342  0.8579
 6554SOL    HW131295   0.647   1.325   5.006 -0.8250 -3.2547  1.5239
 6554SOL    HW231296   0.737   1.368   4.902 -0.1564  0.7321 -0.5363
 6555SOL     OW31297   3.404   4.020   7.628  0.5869  0.7961  0.5822
 6555SOL    HW131298   3.433   4.109   7.609 -2.4889  1.9748  1.4410
 6555SOL    HW231299   3.489   3.981   7.605 -1.1945 -0.3061 -4.0689
 6556SOL     OW31300   0.706   0.987  17.720 -1.1765 -0.0733 -0.3364
 6556SOL    HW131301   0.656   0.913  17.686  0.9389 -0.5453 -2.4438
 6556SOL    HW231302   0.658   1.047  17.664 -0.5427  1.0954  0.3832
 6557SOL     OW31303   0.759   0.401   5.017  0.0252 -0.4348  1.0398
 6557SOL    HW131304   0.807   0.320   5.002 -0.2004 -0.0665 -1.6899
 6557SOL    HW231305   0.830   0.460   5.041 -0.3047 -0.3109  1.7355
 6558SOL     OW31306   2.755   2.667   2.966  0.6529  0.4051 -0.5681
 6558SOL    HW131307   2.851   2.663   2.961  0.6580  0.5635 -0.5824
 6558SOL    HW231308   2.739   2.734   2.899  0.9123  0.0549 -0.9840
 6559SOL     OW31309   0.403   0.132   9.253 -0.1014 -0.0169  0.0023
 6559SOL    HW131310   0.328   0.105   9.201 -0.2320 -2.2553  1.3753
 6559SOL    HW231311   0.459   0.056   9.239  0.6318  0.9629 -2.4271
 6560SOL     OW31312   3.529   1.289   7.728  0.3480  0.3053  0.0638
 6560SOL    HW131313   3.621   1.267   7.712  0.6564  0.7394  1.1811
 6560SOL    HW231314   3.514   1.278   7.822  1.5506  0.5420  0.2927
 6561SOL     OW31315   1.680   0.910  14.722  0.1718  0.7987  0.1423
 6561SOL    HW131316   1.686   0.925  14.817 -0.9088  0.4386  0.2600
 6561SOL    HW231317   1.623   0.982  14.698 -0.1762  0.6747  0.5839
 6562SOL     OW31318   4.732   0.030   6.193 -0.6956  0.4139 -0.2839
 6562SOL    HW131319   0.076   0.057   6.152  0.5246 -2.4612  0.2860
 6562SOL    HW231320   4.736   0.079   6.275  0.7331  0.0911 -0.1619
 6563SOL     OW31321   2.507   3.646   2.641 -0.2524 -0.5209  0.2091
 6563SOL    HW131322   2.465   3.587   2.579  0.5596  0.9762 -1.7576
 6563SOL    HW231323   2.508   3.597   2.723 -0.1418 -0.4010  0.2803
 6564SOL     OW31324   3.201   1.312   3.339 -0.1753 -0.3382 -0.1798
 6564SOL    HW131325   3.242   1.385   3.291  0.5653 -0.4323  0.3266
 6564SOL    HW231326   3.257   1.245   3.299  0.6855 -0.1964  0.7874
 6565SOL     OW31327   3.854   1.938   0.177 -0.6703  0.0189  0.2064
 6565SOL    HW131328   3.809   2.020   0.195  1.0398  1.3915 -1.7719
 6565SOL    HW231329   3.782   1.878   0.159 -2.1744  1.3330  1.9038
 6566SOL     OW31330   0.404   0.543   8.230  0.1832  0.5516 -0.6208
 6566SOL    HW131331   0.414   0.546   8.325 -0.5072 -0.8227 -0.5041
 6566SOL    HW231332   0.319   0.582   8.212  1.7400  3.6715 -1.2425
 6567SOL     OW31333   1.679   0.579  17.501 -0.5280 -0.2029  0.1235
 6567SOL    HW131334   1.699   0.650  17.562  1.0059 -0.3163 -0.2361
 6567SOL    HW231335   1.605   0.614  17.452 -1.2577  0.1688  1.4903
 6568SOL     OW31336   2.231   1.718   3.661  0.0077  0.1377  0.1587
 6568SOL    HW131337   2.322   1.712   3.632  0.4691 -1.6865  2.0167
 6568SOL    HW231338   2.198   1.738   3.573  1.7432 -1.3069 -0.8267
 6569SOL     OW31339   1.171   1.825   3.394  0.0437 -0.2751 -0.3938
 6569SOL    HW131340   1.237   1.893   3.408 -1.1191  0.7413  0.2129
 6569SOL    HW231341   1.090   1.864   3.360 -0.6807 -0.5608  0.9847
 6570SOL     OW31342   2.975   0.572   4.291 -0.1191 -0.4481  0.7656
 6570SOL    HW131343   2.888   0.609   4.308  0.5143  2.1385 -1.4966
 6570SOL    HW231344   3.000   0.584   4.383 -0.4119 -0.3915  0.8368
 6571SOL     OW31345   3.064   3.761   0.795 -0.3332  0.3275  0.2461
 6571SOL    HW131346   3.049   3.676   0.755 -1.0066  0.2166  0.7492
 6571SOL    HW231347   2.988   3.758   0.853 -0.7527  1.0844 -0.2629
 6572SOL     OW31348   4.315   1.830   5.566  0.3690  0.5496  0.0038
 6572SOL    HW131349   4.277   1.832   5.654 -3.2428 -2.0325 -1.4904
 6572SOL    HW231350   4.395   1.871   5.599 -0.8769  1.6858  1.6180
 6573SOL     OW31351   0.166   4.050   2.573  0.2977 -0.6801  0.2526
 6573SOL    HW131352   0.162   3.956   2.592  3.5717 -0.8566  0.0890
 6573SOL    HW231353   0.244   4.047   2.518  0.9112  2.2834  0.9936
 6574SOL     OW31354   0.648   2.718   5.493  0.0729 -0.0039  0.0473
 6574SOL    HW131355   0.673   2.632   5.525 -0.3074 -0.2870 -0.4265
 6574SOL    HW231356   0.664   2.711   5.399 -1.1632  0.7431 -0.2184
 6575SOL     OW31357   1.148   3.062   4.539  0.3286 -0.3438  0.7650
 6575SOL    HW131358   1.161   3.032   4.629  0.9937 -0.1069  0.7546
 6575SOL    HW231359   1.057   3.041   4.521  0.6081  1.1775 -2.4139
 6576SOL     OW31360   2.451   0.401   4.921  0.1604 -0.1424 -0.4817
 6576SOL    HW131361   2.365   0.361   4.932  0.5683 -0.3138  2.1240
 6576SOL    HW231362   2.454   0.464   4.993  0.4323 -0.5804 -0.1094
 6577SOL     OW31363   1.956   4.201   8.073 -0.0171  0.6213  0.6097
 6577SOL    HW131364   2.007   4.259   8.017  0.3869  1.0876  1.4622
 6577SOL    HW231365   1.892   4.267   8.101  0.2970  0.7864  0.9401
 6578SOL     OW31366   3.207   0.624   2.739 -0.3508 -0.2679 -0.5047
 6578SOL    HW131367   3.267   0.614   2.813 -1.3357 -2.1418  0.0529
 6578SOL    HW231368   3.123   0.636   2.784 -0.4842 -0.0695 -0.8104
 6579SOL     OW31369   3.449   4.540   4.005  0.3027  0.0095  0.5247
 6579SOL    HW131370   3.486   4.623   4.035 -1.5502  1.1294 -0.2544
 6579SOL    HW231371   3.434   4.561   3.912 -0.1517 -1.7985  0.1847
 6580SOL     OW31372   3.429   2.933   6.757  0.6685  0.2055 -0.1269
 6580SOL    HW131373   3.479   2.852   6.762  0.2763  0.0562  1.4295
 6580SOL    HW231374   3.475   2.989   6.820 -1.0398 -0.3464  1.6386
 6581SOL     OW31375   3.833   3.325   8.646 -0.1494 -0.5164 -0.3613
 6581SOL    HW131376   3.751   3.287   8.675  0.5821 -0.9172  1.2082
 6581SOL    HW231377   3.878   3.241   8.655  1.6726  0.7705  2.4807
 6582SOL     OW31378   2.148   4.155   7.277  0.0927  0.7955 -0.1797
 6582SOL    HW131379   2.128   4.089   7.343 -1.0410  1.0431 -0.2572
 6582SOL    HW231380   2.237   4.179   7.301 -0.5338  2.4570  0.5495
 6583SOL     OW31381   3.333   1.570   2.591  0.6886 -0.5269  0.0108
 6583SOL    HW131382   3.312   1.551   2.500  0.8467  0.7122 -0.2772
 6583SOL    HW231383   3.331   1.666   2.590 -0.1571 -0.5607 -0.8538
 6584SOL     OW31384   2.385   2.675   2.681 -0.0539  0.2348 -0.5919
 6584SOL    HW131385   2.302   2.716   2.657  1.1296  2.2771 -1.1902
 6584SOL    HW231386   2.380   2.673   2.777  0.5302  1.9737 -0.5268
 6585SOL     OW31387   0.265   0.510   9.071 -0.0025  0.0508  0.0052
 6585SOL    HW131388   0.195   0.539   9.013 -0.2140 -0.6319 -0.0824
 6585SOL    HW231389   0.218   0.492   9.153  1.2711  0.6478  0.8722
 6586SOL     OW31390   1.645   0.012   9.238  0.5756 -0.0099 -0.5741
 6586SOL    HW131391   1.686   0.029   9.154 -2.0550  0.4295 -1.7931
 6586SOL    HW231392   1.649   0.100   9.275  0.3246 -0.5321  0.6770
 6587SOL     OW31393   2.679   1.783   5.172  0.5590 -0.3351 -0.3506
 6587SOL    HW131394   2.753   1.765   5.115  1.9843 -0.4930  1.5441
 6587SOL    HW231395   2.731   1.817   5.245  0.9507 -2.2963  0.2736
 6588SOL     OW31396   1.999   0.581   3.518 -0.0698  0.2170  0.0767
 6588SOL    HW131397   1.933   0.540   3.576 -1.0129  0.5125 -0.7867
 6588SOL    HW231398   1.965   0.537   3.440  0.0402 -0.2729  0.3015
 6589SOL     OW31399   4.519   3.933   1.935  0.3194  0.1246 -0.3400
 6589SOL    HW131400   4.434   3.924   1.892 -0.0426  1.9772  0.0172
 6589SOL    HW231401   4.508   3.982   2.016 -1.7437  2.7899 -2.2573
 6590SOL     OW31402   1.505   3.277   9.785 -0.1150  0.3040 -0.6120
 6590SOL    HW131403   1.467   3.335   9.719  0.7163  2.0523  0.4577
 6590SOL    HW231404   1.547   3.211   9.731 -0.0417 -1.3349  1.4437
 6591SOL     OW31405   0.600   2.269   5.668 -0.0474 -0.0177 -0.0190
 6591SOL    HW131406   0.624   2.193   5.614  0.8673 -1.5320  2.5233
 6591SOL    HW231407   0.510   2.252   5.696 -0.3435  1.3212 -0.1820
 6592SOL     OW31408   2.471   3.976  16.059 -0.6552 -0.2322  0.3113
 6592SOL    HW131409   2.450   3.987  15.966 -0.2328  0.7528  0.3382
 6592SOL    HW231410   2.450   4.065  16.086  2.4905  0.8448 -0.7885
 6593SOL     OW31411   4.065   4.594   5.857 -0.2013 -0.8972 -0.0271
 6593SOL    HW131412   3.978   4.607   5.894 -0.1119  0.9244 -0.4407
 6593SOL    HW231413   4.058   4.504   5.826 -0.0525 -1.5579  1.8599
 6594SOL     OW31414   3.280   1.651  11.579  0.4009 -0.2332 -0.0098
 6594SOL    HW131415   3.205   1.710  11.583  2.5357  2.6018 -1.7344
 6594SOL    HW231416   3.329   1.690  11.651  0.9845  1.7285 -1.4727
 6595SOL     OW31417   4.646   0.014   2.900 -0.3080 -0.1067  0.1276
 6595SOL    HW131418   4.561   0.002   2.940 -0.6242  0.9887 -0.2231
 6595SOL    HW231419   4.628   4.691   2.828 -0.0748 -0.7276  0.5900
 6596SOL     OW31420   0.786   0.048  16.592  0.0912 -0.4962  0.0221
 6596SOL    HW131421   0.762   0.027  16.682 -0.7931 -0.8496 -0.2918
 6596SOL    HW231422   0.697   0.032  16.559 -0.0265  0.2256 -0.0137
 6597SOL     OW31423   0.072   2.632   7.966  0.4657 -0.7670  0.0573
 6597SOL    HW131424   0.023   2.599   8.041  0.6375  0.9197  0.9197
 6597SOL    HW231425   0.022   2.712   7.948  1.2224 -0.2649  0.1997
 6598SOL     OW31426   0.883   4.348  15.759  0.5169  0.0806  0.0504
 6598SOL    HW131427   0.898   4.442  15.752  1.4778 -0.0735 -0.0272
 6598SOL    HW231428   0.901   4.312  15.672  1.2732  0.0187  0.2321
 6599SOL     OW31429   4.189   4.276   7.560  0.4113 -0.0652  0.2511
 6599SOL    HW131430   4.133   4.255   7.634  0.6940  0.4480  0.6114
 6599SOL    HW231431   4.259   4.326   7.603  0.9131 -1.1278  0.6545
 6600SOL     OW31432   0.340   2.000   3.308 -0.8617 -0.3733 -0.0469
 6600SOL    HW131433   0.383   2.073   3.355  0.5337 -2.5428  2.0529
 6600SOL    HW231434   0.251   2.033   3.296 -0.9729  0.3007  2.4794
 6601SOL     OW31435   0.713   3.758   4.568  0.5271 -0.1839 -0.0812
 6601SOL    HW131436   0.782   3.823   4.582  0.2883 -0.0584  0.4855
 6601SOL    HW231437   0.762   3.676   4.583  0.3060 -0.2269  0.3933
 6602SOL     OW31438   1.403   0.692   2.519 -0.9483  0.1127  0.0539
 6602SOL    HW131439   1.430   0.776   2.559  2.5748 -1.8571  1.8731
 6602SOL    HW231440   1.393   0.641   2.600  2.2838 -0.6637 -0.0230
 6603SOL     OW31441   4.115   1.769   1.763 -0.4163  0.2378  0.1271
 6603SOL    HW131442   4.141   1.837   1.826  0.1096 -0.1198  0.2956
 6603SOL    HW231443   4.193   1.787   1.710  0.1018  0.3174  0.9153
 6604SOL     OW31444   1.734   3.270   2.660 -0.5311  0.4251  0.6780
 6604SOL    HW131445   1.735   3.188   2.610 -0.1816  1.8064 -1.6139
 6604SOL    HW231446   1.758   3.328   2.587  0.0745  0.9181  1.2691
 6605SOL     OW31447   4.308   1.274  17.036  0.8163  0.2573 -0.0788
 6605SOL    HW131448   4.274   1.341  16.977  2.0505  0.3207 -0.7148
 6605SOL    HW231449   4.239   1.209  17.029  0.6749  0.5304 -1.1271
 6606SOL     OW31450   2.822   0.517   5.027  0.5366  0.3415  0.0543
 6606SOL    HW131451   2.869   0.600   5.032  0.3093  0.5066 -0.5189
 6606SOL    HW231452   2.774   0.530   5.108 -1.9737 -0.3200 -1.3475
 6607SOL     OW31453   3.723   4.271   7.011 -0.3227 -0.5166  0.2590
 6607SOL    HW131454   3.699   4.331   6.940  1.4092  1.7947  1.6239
 6607SOL    HW231455   3.644   4.256   7.063 -0.3340  0.8411  0.6318
 6608SOL     OW31456   2.396   2.211   8.625 -0.2851 -0.3176  0.4448
 6608SOL    HW131457   2.373   2.228   8.716  0.2676  4.5561 -0.3233
 6608SOL    HW231458   2.465   2.146   8.635  0.3269  0.3132  0.3034
 6609SOL     OW31459   2.292   0.951  16.671  0.2086  0.0755 -0.1079
 6609SOL    HW131460   2.270   1.006  16.597 -0.4128 -0.0938 -0.0458
 6609SOL    HW231461   2.224   0.972  16.735 -1.6879 -0.0590 -2.0932
 6610SOL     OW31462   3.452   1.376   0.788 -0.2364 -0.2331 -0.6736
 6610SOL    HW131463   3.509   1.337   0.722  1.6520  0.9105  0.2964
 6610SOL    HW231464   3.489   1.463   0.798 -0.2746 -0.6516  3.0828
 6611SOL     OW31465   1.544   4.580   9.421 -0.0649  0.0699 -0.2709
 6611SOL    HW131466   1.546   4.649   9.355  1.2522 -0.0925 -0.3875
 6611SOL    HW231467   1.526   4.512   9.356  1.0159 -0.6287  0.1623
 6612SOL     OW31468   1.177   4.178  13.822 -0.4218 -0.7406 -0.0024
 6612SOL    HW131469   1.113   4.138  13.763 -0.4191 -1.6174  0.5918
 6612SOL    HW231470   1.142   4.267  13.824  2.0289  0.2327 -0.5299
 6613SOL     OW31471   3.369   2.373   7.580 -0.5457 -0.2780 -0.3620
 6613SOL    HW131472   3.342   2.455   7.621  2.7698  1.9177 -2.5285
 6613SOL    HW231473   3.292   2.318   7.590 -1.2020  0.6840 -0.0979
 6614SOL     OW31474   2.121   3.591  13.006  0.2418  0.7618  0.0415
 6614SOL    HW131475   2.176   3.653  12.960  0.5952  0.2277 -0.2555
 6614SOL    HW231476   2.173   3.511  12.994 -0.4933  0.0866  1.2386
 6615SOL     OW31477   1.972   1.666   2.319  0.6175 -0.5500 -0.1592
 6615SOL    HW131478   1.987   1.582   2.277 -0.6149 -2.0444  2.3460
 6615SOL    HW231479   1.895   1.704   2.277 -0.4265 -0.2798  1.9833
 6616SOL     OW31480   0.713   2.085   4.694 -0.0664 -0.2498 -0.4320
 6616SOL    HW131481   0.783   2.093   4.758 -0.3205 -2.7915  0.1816
 6616SOL    HW231482   0.737   2.163   4.644  1.9710  1.2923  2.9705
 6617SOL     OW31483   0.361   2.221   3.532  0.1679  0.0446 -0.3133
 6617SOL    HW131484   0.296   2.253   3.469  0.4681 -1.2422 -1.2725
 6617SOL    HW231485   0.413   2.300   3.547 -0.2345  0.0439  1.0134
 6618SOL     OW31486   4.455   4.680   4.249 -0.5190  0.2132 -0.0293
 6618SOL    HW131487   4.498   4.634   4.322 -2.0284 -0.6064  0.3294
 6618SOL    HW231488   4.373   4.704   4.291  0.2129  0.7371  1.1208
 6619SOL     OW31489   4.673   4.390   3.659 -1.3017 -0.5874  0.0798
 6619SOL    HW131490   4.735   4.328   3.623  0.1877  1.8219 -1.5046
 6619SOL    HW231491   4.666   4.452   3.586 -2.6089 -1.4656 -0.5397
 6620SOL     OW31492   0.334   3.069   8.586  0.2132 -0.4520  0.1556
 6620SOL    HW131493   0.406   3.058   8.524 -0.0231 -1.0101 -0.0195
 6620SOL    HW231494   0.333   3.162   8.609  0.7115 -0.5430  0.5501
 6621SOL     OW31495   1.714   3.964   1.369  0.4165 -0.0792 -0.2294
 6621SOL    HW131496   1.747   3.883   1.329 -0.9905 -0.3376 -0.8555
 6621SOL    HW231497   1.706   4.025   1.296  0.7399 -0.2875 -0.4383
 6622SOL     OW31498   0.573   0.140   1.481 -0.2177  0.7537 -0.0418
 6622SOL    HW131499   0.601   0.231   1.473 -1.1652  1.2744  2.4458
 6622SOL    HW231500   0.644   0.118   1.541  0.0518  0.0525 -0.6277
 6623SOL     OW31501   3.633   2.004   7.805 -0.4676 -0.0378  0.4718
 6623SOL    HW131502   3.629   1.915   7.840 -1.5559 -0.2474 -0.1790
 6623SOL    HW231503   3.582   1.987   7.726 -0.5379  1.2321  0.2409
 6624SOL     OW31504   1.207   4.564   3.245 -0.3721 -0.1195  0.1220
 6624SOL    HW131505   1.119   4.543   3.277 -0.2440  0.3498  0.7699
 6624SOL    HW231506   1.246   4.480   3.220  0.6180  0.4752 -0.3412
 6625SOL     OW31507   1.056   4.615   2.394 -0.4463 -1.0704  0.1475
 6625SOL    HW131508   1.148   4.589   2.384  0.0622  0.3045  1.3705
 6625SOL    HW231509   1.064   4.707   2.368 -0.6026 -1.7636 -2.3524
 6626SOL     OW31510   4.517   2.209   7.231 -0.1828 -0.5974 -0.4077
 6626SOL    HW131511   4.581   2.141   7.209 -0.4733 -0.9253 -0.2489
 6626SOL    HW231512   4.514   2.202   7.326  1.5218 -1.0318 -0.3851
 6627SOL     OW31513   0.075   1.613  10.865  0.0729  0.1910 -0.2214
 6627SOL    HW131514   0.145   1.643  10.923 -0.1633  0.0929  0.1175
 6627SOL    HW231515   0.066   1.525  10.901  0.9749 -0.1447 -0.8158
 6628SOL     OW31516   3.814   2.079   8.955 -0.0075 -0.5003 -0.1133
 6628SOL    HW131517   3.850   2.106   9.039 -0.5117  0.1931 -0.1276
 6628SOL    HW231518   3.719   2.085   8.963 -0.1401 -0.6379 -1.6220
 6629SOL     OW31519   1.331   1.552   1.897  0.2872 -0.4913  0.1104
 6629SOL    HW131520   1.268   1.619   1.870  0.3115 -0.4573  0.1378
 6629SOL    HW231521   1.279   1.473   1.881 -0.3177 -0.4395  1.8272
 6630SOL     OW31522   1.968   3.206   3.734  0.4615  0.0534 -0.8239
 6630SOL    HW131523   1.918   3.231   3.656 -0.6215 -0.9396 -0.4401
 6630SOL    HW231524   2.055   3.197   3.696 -0.4888 -3.0033 -2.2910
 6631SOL     OW31525   0.494   0.355   3.853 -0.9265  0.5353 -0.6891
 6631SOL    HW131526   0.438   0.324   3.924 -0.5450  0.2187 -0.5338
 6631SOL    HW231527   0.537   0.432   3.891 -2.5983  0.1212  2.0609
 6632SOL     OW31528   1.018   0.070   8.029  0.4154  0.3724  0.3016
 6632SOL    HW131529   1.112   0.078   8.043  0.6075 -2.1049  0.4249
 6632SOL    HW231530   0.988   0.150   8.071 -0.8128  1.1887 -2.1086
 6633SOL     OW31531   2.120   2.604  13.413 -0.0389  0.0170  0.4266
 6633SOL    HW131532   2.035   2.638  13.384 -0.5411 -1.1048  0.5990
 6633SOL    HW231533   2.144   2.686  13.457 -0.9148  0.4580  0.0869
 6634SOL     OW31534   1.850   3.348   1.868 -0.0042 -0.2214  0.3774
 6634SOL    HW131535   1.858   3.253   1.872 -0.0189 -0.2841 -1.1418
 6634SOL    HW231536   1.932   3.378   1.829  0.0926  0.5080  1.1403
 6635SOL     OW31537   2.001   3.263   4.041 -0.2561 -0.4873 -0.0398
 6635SOL    HW131538   2.020   3.307   3.958  0.6236 -2.6668 -0.9774
 6635SOL    HW231539   1.946   3.195   4.003 -1.4473 -0.4946  1.6940
 6636SOL     OW31540   2.025   0.440   2.648  0.6373 -0.3099 -0.7643
 6636SOL    HW131541   2.072   0.498   2.588 -2.1397  2.0203 -0.6417
 6636SOL    HW231542   1.951   0.487   2.686  1.1015  0.3626 -0.6880
 6637SOL     OW31543   4.172   2.486   9.282  0.6490  0.0458  0.0103
 6637SOL    HW131544   4.178   2.482   9.377 -2.5757  0.7390  0.2333
 6637SOL    HW231545   4.096   2.538   9.256  1.3217  1.6284  1.2082
 6638SOL     OW31546   0.171   0.391   2.660 -0.6324 -0.9001 -0.2085
 6638SOL    HW131547   0.240   0.349   2.607 -0.6920 -0.7060 -0.4392
 6638SOL    HW231548   0.174   0.479   2.624 -3.4234  0.0067  1.8344
 6639SOL     OW31549   3.210   1.759   3.466 -0.3257  0.7449  0.5713
 6639SOL    HW131550   3.249   1.778   3.552  2.4081  2.9434 -1.1551
 6639SOL    HW231551   3.146   1.693   3.493 -1.1340  0.9285 -0.8987
 6640SOL     OW31552   4.562   4.293   7.157  0.1178  0.8544  0.2891
 6640SOL    HW131553   4.513   4.271   7.236 -1.2690  0.8921 -0.5436
 6640SOL    HW231554   4.483   4.289   7.102  1.5708  0.4065 -1.7556
 6641SOL     OW31555   4.011   3.582   4.019 -0.1625  0.1586 -0.3962
 6641SOL    HW131556   4.102   3.599   4.046  0.3310 -0.3983 -1.7263
 6641SOL    HW231557   3.971   3.544   4.097 -0.5500  2.4355  0.5182
 6642SOL     OW31558   1.787   2.564   8.762 -0.4726  0.1025 -0.3370
 6642SOL    HW131559   1.733   2.498   8.806 -2.2505  1.1700 -0.9061
 6642SOL    HW231560   1.728   2.583   8.689 -1.5310 -3.8680 -0.5355
 6643SOL     OW31561   3.095   0.294   4.810 -0.0270  0.0462  0.0976
 6643SOL    HW131562   3.110   0.337   4.726  3.4203  0.0160  0.6860
 6643SOL    HW231563   3.006   0.259   4.806  0.1692 -0.5718  1.2858
 6644SOL     OW31564   4.170   0.066   9.430 -0.3470 -0.0839  0.0786
 6644SOL    HW131565   4.077   0.045   9.441 -0.6411  0.5380 -1.2578
 6644SOL    HW231566   4.186   0.106   9.515  1.1061  0.4896 -0.4622
 6645SOL     OW31567   3.451   0.897   3.053 -0.2013  0.3585  0.2858
 6645SOL    HW131568   3.523   0.892   2.990 -1.5435 -0.8947 -1.1375
 6645SOL    HW231569   3.444   0.987   3.085 -0.2514  0.0416  1.1753
 6646SOL     OW31570   4.719   2.906   5.647  0.5356  0.2957  0.0723
 6646SOL    HW131571   4.626   2.893   5.626  0.8141 -1.6241 -0.0064
 6646SOL    HW231572   0.010   2.820   5.678 -0.5293  0.1381  0.6276
 6647SOL     OW31573   1.469   2.036   8.260 -0.4513 -0.9005 -0.6917
 6647SOL    HW131574   1.552   2.007   8.298  0.2316  0.2687 -1.2709
 6647SOL    HW231575   1.431   2.074   8.338 -0.1527 -0.4799 -0.7479
 6648SOL     OW31576   1.292   1.010  13.175 -0.0856  0.2383 -0.4116
 6648SOL    HW131577   1.385   1.028  13.183 -0.1681 -0.6873  2.6629
 6648SOL    HW231578   1.259   1.086  13.126  0.5173  0.4189 -0.5391
 6649SOL     OW31579   1.105   4.387   3.605  0.0522 -0.1079  0.0416
 6649SOL    HW131580   1.081   4.329   3.678  0.4891 -1.2675 -0.7351
 6649SOL    HW231581   1.099   4.328   3.530  0.7639  0.8825 -0.7847
 6650SOL     OW31582   1.295   2.380  13.426  0.0885 -0.1413  0.1896
 6650SOL    HW131583   1.288   2.290  13.459 -0.1639 -0.9560 -2.1349
 6650SOL    HW231584   1.340   2.360  13.344 -1.8067 -0.0001 -0.8781
 6651SOL     OW31585   1.802   2.643  10.755 -0.3424 -0.7174 -0.2662
 6651SOL    HW131586   1.863   2.580  10.717 -0.8218 -0.9090 -0.7194
 6651SOL    HW231587   1.762   2.581  10.817  0.0986 -0.1755  0.5538
 6652SOL     OW31588   0.335   1.497  12.385 -0.3803  0.3730  0.1048
 6652SOL    HW131589   0.342   1.592  12.386  1.2491  0.2134  2.3951
 6652SOL    HW231590   0.405   1.469  12.326 -0.7332  1.1948 -0.6928
 6653SOL     OW31591   1.934   3.452   2.455  0.3555 -0.1347  0.2185
 6653SOL    HW131592   1.959   3.528   2.403 -0.6842  0.9238  1.2904
 6653SOL    HW231593   1.901   3.388   2.391 -0.9487  1.0481 -0.2930
 6654SOL     OW31594   1.230   2.260  10.843  0.0542  0.6914 -0.6523
 6654SOL    HW131595   1.322   2.263  10.817  0.6792 -0.4097  1.4702
 6654SOL    HW231596   1.234   2.308  10.926 -2.4818 -1.3528  0.6580
 6655SOL     OW31597   3.954   3.570   4.929  0.4912 -0.5281  0.6106
 6655SOL    HW131598   3.874   3.603   4.888  0.8879  0.1529  0.3713
 6655SOL    HW231599   3.915   3.484   4.943  3.5148 -1.6527  1.9729
 6656SOL     OW31600   1.859   0.019   4.990 -0.4200 -0.6175 -0.3073
 6656SOL    HW131601   1.810   4.676   4.972  1.0964 -1.6224  0.0217
 6656SOL    HW231602   1.853   0.028   5.085 -0.5221 -1.2969 -0.2484
 6657SOL     OW31603   4.092   1.822   8.373  0.6178 -0.5368  0.2951
 6657SOL    HW131604   4.078   1.898   8.429 -0.2018 -0.6296  0.2154
 6657SOL    HW231605   4.051   1.844   8.290 -1.3553 -2.0342  0.8730
 6658SOL     OW31606   3.527   0.103  11.952  0.1710 -0.5601  0.0755
 6658SOL    HW131607   3.552   0.010  11.953  0.8688 -0.3737 -1.3163
 6658SOL    HW231608   3.490   0.112  12.040  1.8507 -0.5185  0.7809
 6659SOL     OW31609   0.342   2.610   6.572  0.2493 -0.1159 -0.6334
 6659SOL    HW131610   0.395   2.553   6.517  0.7034 -0.6613  0.3615
 6659SOL    HW231611   0.403   2.678   6.601 -1.1580  0.8321  0.1546
 6660SOL     OW31612   0.835   1.429   7.900  0.8268 -0.1619  0.1339
 6660SOL    HW131613   0.825   1.513   7.856  1.4516 -0.6793 -0.9966
 6660SOL    HW231614   0.754   1.381   7.888 -0.5977  2.1627  0.5698
 6661SOL     OW31615   3.403   2.807   2.347 -0.6705 -0.1209  0.2436
 6661SOL    HW131616   3.385   2.825   2.255  1.0513  0.4444  0.0155
 6661SOL    HW231617   3.499   2.803   2.347 -0.6755 -0.2377  0.7737
 6662SOL     OW31618   3.964   0.957   5.472  0.0323  0.0007  0.0407
 6662SOL    HW131619   3.893   0.936   5.534 -1.2826 -1.7371 -2.0737
 6662SOL    HW231620   3.917   0.950   5.389 -0.7093  1.2276  0.3553
 6663SOL     OW31621   0.760   2.768  15.634  0.6288  0.6318  0.0699
 6663SOL    HW131622   0.780   2.714  15.557  0.8882 -0.0476  0.6168
 6663SOL    HW231623   0.840   2.770  15.687  0.5301  0.2295  0.2362
 6664SOL     OW31624   4.282   0.404   3.101 -0.1675  0.7397 -0.8015
 6664SOL    HW131625   4.336   0.370   3.029  0.0308  1.0935 -0.8204
 6664SOL    HW231626   4.274   0.496   3.072 -0.3169  1.4488  1.5348
 6665SOL     OW31627   3.467   4.089  10.267  0.3091  0.0480  0.0684
 6665SOL    HW131628   3.501   4.079  10.178  0.9814 -0.5318  0.3877
 6665SOL    HW231629   3.469   3.998  10.298 -0.2982 -0.0797 -0.2751
 6666SOL     OW31630   0.221   1.088   9.586  0.0322 -0.0061 -0.0376
 6666SOL    HW131631   0.267   1.167   9.558  0.4789 -0.0687  0.5078
 6666SOL    HW231632   0.171   1.070   9.507  0.1468  1.7340 -0.4983
 6667SOL     OW31633   1.390   0.932   0.165 -0.5710  0.4012 -0.2908
 6667SOL    HW131634   1.465   0.980   0.132  1.2069 -1.7930  0.5004
 6667SOL    HW231635   1.324   1.001   0.158  0.9791  2.1488  2.4678
 6668SOL     OW31636   1.646   2.384   6.891 -0.1083  0.0884  0.2061
 6668SOL    HW131637   1.665   2.417   6.803 -0.1517 -1.0775 -0.2359
 6668SOL    HW231638   1.736   2.389   6.922 -0.2718 -0.1508  0.7082
 6669SOL     OW31639   0.391   1.345   2.154  0.0471 -0.1222 -0.1913
 6669SOL    HW131640   0.364   1.411   2.218  2.3164  3.3411 -2.7934
 6669SOL    HW231641   0.388   1.273   2.217  2.9019  0.2162  0.3274
 6670SOL     OW31642   2.466   0.617   8.737 -0.8004 -0.1600  0.0979
 6670SOL    HW131643   2.422   0.558   8.676  0.3241  0.7011 -1.5464
 6670SOL    HW231644   2.448   0.704   8.702  1.2023 -1.0583 -3.2401
 6671SOL     OW31645   2.995   2.434   2.479  0.3075 -0.3256  0.2401
 6671SOL    HW131646   2.985   2.529   2.482 -0.9885 -0.4412 -0.4578
 6671SOL    HW231647   2.903   2.413   2.495  0.3855 -0.2840  0.7655
 6672SOL     OW31648   2.863   3.886   9.783  0.4399 -0.3849 -0.5870
 6672SOL    HW131649   2.943   3.895   9.731 -0.1707  2.4045 -1.0433
 6672SOL    HW231650   2.807   3.827   9.732  1.4135 -1.6702 -0.1820
 6673SOL     OW31651   2.731   4.497   1.120  0.2228 -0.4347  0.4963
 6673SOL    HW131652   2.757   4.537   1.203 -1.0178  1.2144  0.0765
 6673SOL    HW231653   2.703   4.417   1.166 -2.5853  0.5360  0.4848
 6674SOL     OW31654   2.798   0.034  17.289 -0.0517  0.9236  0.1951
 6674SOL    HW131655   2.869   0.039  17.354  0.8507 -0.0847 -0.7065
 6674SOL    HW231656   2.793   0.127  17.266 -0.1008  0.7184 -0.5997
 6675SOL     OW31657   4.009   4.031   7.689 -0.1731 -0.0784 -0.4866
 6675SOL    HW131658   4.024   4.011   7.782 -1.3461 -1.8819 -0.6927
 6675SOL    HW231659   4.000   4.126   7.689  2.3389  0.1782 -0.6204
 6676SOL     OW31660   4.480   0.586   5.355 -0.7397  0.2602 -0.3646
 6676SOL    HW131661   4.563   0.611   5.395 -0.6311  1.7018 -1.4936
 6676SOL    HW231662   4.427   0.580   5.434 -0.8135  0.1887 -0.4192
 6677SOL     OW31663   2.439   0.311   2.676  0.3420  0.0598  0.4420
 6677SOL    HW131664   2.383   0.266   2.613  0.8088 -1.5839  1.2016
 6677SOL    HW231665   2.477   0.383   2.626 -0.1755 -0.4178 -0.6374
 6678SOL     OW31666   1.174   3.137   6.901  0.1701 -0.1047  0.0188
 6678SOL    HW131667   1.177   3.233   6.895 -1.7073 -0.0432  0.1135
 6678SOL    HW231668   1.214   3.118   6.986  0.2066  0.8248  0.2072
 6679SOL     OW31669   2.066   0.417  15.063 -0.0565  0.5425  0.0477
 6679SOL    HW131670   2.052   0.433  14.970 -4.1039  1.8607  0.8683
 6679SOL    HW231671   2.158   0.393  15.052 -0.3361  0.2043 -1.4813
 6680SOL     OW31672   2.259   4.204  11.006 -0.0805 -0.0409 -0.0854
 6680SOL    HW131673   2.294   4.234  10.923  0.5065 -1.9229 -0.5300
 6680SOL    HW231674   2.327   4.145  11.039 -1.0643  0.8099  3.4805
 6681SOL     OW31675   2.617   4.297   9.722  0.6891  0.3040  0.7521
 6681SOL    HW131676   2.669   4.375   9.702 -1.7579  1.6918 -0.1391
 6681SOL    HW231677   2.615   4.295   9.817 -4.0585  0.1957  0.6667
 6682SOL     OW31678   1.533   0.860   3.670 -0.4033  0.6440 -0.8446
 6682SOL    HW131679   1.613   0.899   3.634 -0.1605 -0.2182 -1.2540
 6682SOL    HW231680   1.472   0.903   3.610 -2.5816  0.0939  0.9870
 6683SOL     OW31681   0.291   2.173  10.903  0.2983  0.3809 -0.6587
 6683SOL    HW131682   0.274   2.186  10.996  0.0155 -0.3884 -0.5990
 6683SOL    HW231683   0.235   2.096  10.889  0.7503 -0.1968  0.7840
 6684SOL     OW31684   0.789   4.180  17.022 -0.1865 -0.6596  0.7049
 6684SOL    HW131685   0.864   4.238  17.038 -0.2672  0.0077 -1.2671
 6684SOL    HW231686   0.801   4.134  17.104 -0.4991 -1.5459  0.2457
 6685SOL     OW31687   3.915   3.541   7.794 -0.5000  0.4124  0.2461
 6685SOL    HW131688   3.968   3.473   7.835 -0.4640  0.3586  0.1111
 6685SOL    HW231689   3.829   3.505   7.812 -0.1477  0.9339  2.9204
 6686SOL     OW31690   1.896   4.476  17.576  0.3478  0.1039 -0.2367
 6686SOL    HW131691   1.826   4.527  17.617  2.1209  0.5767  2.1883
 6686SOL    HW231692   1.939   4.541  17.520 -1.6172  1.1635 -0.5091
 6687SOL     OW31693   2.330   4.476   5.130 -0.2938 -0.3092  0.0631
 6687SOL    HW131694   2.301   4.425   5.206  2.2734 -1.3817  0.2983
 6687SOL    HW231695   2.273   4.553   5.132 -1.0548 -0.8971  1.2555
 6688SOL     OW31696   3.007   4.699  12.544  0.3782 -0.2041 -0.3973
 6688SOL    HW131697   3.085   4.709  12.597  0.8170  0.8594 -1.2302
 6688SOL    HW231698   2.969   0.047  12.562 -1.2606 -0.7323 -1.3084
 6689SOL     OW31699   4.183   2.212  15.992  0.3046 -0.2465 -0.1906
 6689SOL    HW131700   4.108   2.214  16.052 -1.6548 -2.8307 -2.5290
 6689SOL    HW231701   4.200   2.304  15.974 -1.3135  0.4176  1.6431
 6690SOL     OW31702   2.379   0.770   4.817 -0.1720  0.4665 -0.4914
 6690SOL    HW131703   2.374   0.827   4.894 -2.2237  0.2960 -0.4990
 6690SOL    HW231704   2.290   0.734   4.815 -0.5828  1.5108 -1.1105
 6691SOL     OW31705   4.373   1.129   6.922  0.1979 -0.0522  0.8243
 6691SOL    HW131706   4.283   1.119   6.951 -0.4820  3.2177 -0.0861
 6691SOL    HW231707   4.350   1.176   6.842  0.7691  1.0973  1.3285
 6692SOL     OW31708   0.156   4.172  16.051 -0.0126  0.6259 -0.0885
 6692SOL    HW131709   0.213   4.237  16.009 -0.7337  1.6072  0.4584
 6692SOL    HW231710   0.132   4.102  15.991  0.6255  0.0703  0.3001
 6693SOL     OW31711   4.666   3.745   3.893 -0.0235  0.0869 -0.0043
 6693SOL    HW131712   4.690   3.788   3.975  0.1155  0.4290 -0.2251
 6693SOL    HW231713   4.577   3.728   3.925  0.0210 -0.8001 -0.3685
 6694SOL     OW31714   3.087   4.532   7.172  0.5285  0.1354 -0.1463
 6694SOL    HW131715   3.145   4.602   7.142  0.0908  1.9104  3.1404
 6694SOL    HW231716   3.091   4.561   7.263  1.1700  0.4169 -0.2609
 6695SOL     OW31717   4.111   3.112  16.953  0.0046 -0.1847  0.0015
 6695SOL    HW131718   4.133   3.196  16.993 -1.0057 -0.3989  1.0073
 6695SOL    HW231719   4.030   3.099  17.002 -0.9927 -0.4278 -1.7199
 6696SOL     OW31720   1.852   2.636   4.926 -0.0376  0.1825 -1.0764
 6696SOL    HW131721   1.776   2.680   4.888 -1.1418 -0.8271 -0.0398
 6696SOL    HW231722   1.847   2.681   5.010 -0.7285 -0.7587 -0.6218
 6697SOL     OW31723   4.207   0.214   2.764  0.4506  0.3561  0.3369
 6697SOL    HW131724   4.113   0.234   2.760  0.2363 -0.1958  2.5635
 6697SOL    HW231725   4.213   0.182   2.854 -0.1714  1.0562  0.6251
 6698SOL     OW31726   0.428   3.944   2.248  0.3711 -1.2029 -0.1909
 6698SOL    HW131727   0.353   3.902   2.206 -0.0498  0.8356 -1.4914
 6698SOL    HW231728   0.424   3.896   2.330 -0.5720  0.8046  0.9287
 6699SOL     OW31729   1.759   1.351   7.510  0.2571  0.1967  0.6440
 6699SOL    HW131730   1.754   1.446   7.497  0.2695 -0.1262 -1.7056
 6699SOL    HW231731   1.808   1.351   7.592 -1.9840  1.5015  2.0052
 6700SOL     OW31732   0.563   4.692   4.544  0.2923  0.0350  0.1917
 6700SOL    HW131733   0.533   0.044   4.558 -0.8125 -0.0343 -1.7333
 6700SOL    HW231734   0.655   4.695   4.570  0.6478  1.6940 -1.2000
 6701SOL     OW31735   1.258   0.408   3.748 -0.2159  0.0933  0.4690
 6701SOL    HW131736   1.313   0.486   3.738  2.1833 -1.3739  2.1671
 6701SOL    HW231737   1.256   0.374   3.658 -0.8968 -0.7978  0.8225
 6702SOL     OW31738   1.409   4.725  13.223 -0.1801 -0.6843 -0.0469
 6702SOL    HW131739   1.495   0.003  13.184  1.0009  2.7186  3.9219
 6702SOL    HW231740   1.414   0.050  13.295 -4.0731 -0.4404  0.0086
 6703SOL     OW31741   1.807   2.932  13.553 -0.0605 -0.5149 -0.2050
 6703SOL    HW131742   1.872   2.912  13.621 -0.2419 -1.8788 -0.4415
 6703SOL    HW231743   1.854   3.005  13.513 -2.6922  1.5472  0.4487
 6704SOL     OW31744   2.165   4.484  12.648  0.2940  0.0065 -0.0897
 6704SOL    HW131745   2.080   4.529  12.645  1.5916  2.3637 -1.3725
 6704SOL    HW231746   2.151   4.438  12.730 -0.2526  2.9975  1.4879
 6705SOL     OW31747   0.959   2.413  15.263 -0.3875 -0.6831  0.2397
 6705SOL    HW131748   0.954   2.357  15.186  2.4344  0.9324 -1.1776
 6705SOL    HW231749   0.978   2.499  15.225 -3.3832 -0.2890 -0.2980
 6706SOL     OW31750   0.995   1.406   9.672  0.1995  0.5087  0.0495
 6706SOL    HW131751   1.002   1.483   9.728  1.0887  0.1713  0.4117
 6706SOL    HW231752   0.913   1.367   9.702  0.2269  0.9046  0.6512
 6707SOL     OW31753   0.774   0.553   7.354  0.2202 -0.2917  0.2539
 6707SOL    HW131754   0.727   0.505   7.422  1.7767  0.3219  1.7712
 6707SOL    HW231755   0.784   0.641   7.391  3.0799  0.3302 -1.9166
 6708SOL     OW31756   0.511   0.844   3.477  0.3392  0.0298  0.2601
 6708SOL    HW131757   0.542   0.833   3.388  1.6729  3.0313  0.3589
 6708SOL    HW231758   0.588   0.879   3.521 -1.8266  2.2842  2.3188
 6709SOL     OW31759   1.159   3.730  16.174 -0.1701  0.1760  0.1421
 6709SOL    HW131760   1.106   3.720  16.095 -0.0565  0.0944  0.0762
 6709SOL    HW231761   1.095   3.701  16.239  0.4203 -1.6127 -0.0715
 6710SOL     OW31762   0.856   2.693   6.954 -0.1313  0.3424 -0.2875
 6710SOL    HW131763   0.869   2.632   6.882 -1.5768 -0.0792 -0.1976
 6710SOL    HW231764   0.898   2.771   6.916  0.5873 -1.6926 -3.6145
 6711SOL     OW31765   0.178   3.362   9.362  0.4256  0.1952 -0.5450
 6711SOL    HW131766   0.252   3.416   9.333 -1.9799  2.9965 -1.5394
 6711SOL    HW231767   0.158   3.386   9.452  0.1182  0.2896 -0.6379
 6712SOL     OW31768   1.712   1.836   2.589  0.1978  0.1618  0.0224
 6712SOL    HW131769   1.745   1.746   2.590  1.8238  0.8323  3.7326
 6712SOL    HW231770   1.741   1.866   2.674  1.5592 -4.8930  1.3389
 6713SOL     OW31771   0.027   2.386   1.685 -0.1997 -0.5212  0.0869
 6713SOL    HW131772   0.121   2.386   1.697 -0.3021 -1.3811  0.9041
 6713SOL    HW231773   0.020   2.422   1.596 -0.0203 -1.0367 -0.1350
 6714SOL     OW31774   0.868   3.108  10.623  0.0711 -0.1183 -0.3838
 6714SOL    HW131775   0.775   3.132  10.630  0.4226  1.4507 -1.0698
 6714SOL    HW231776   0.870   3.014  10.639  2.0217 -0.0468 -0.2848
 6715SOL     OW31777   3.106   0.600   4.887 -0.2712  0.2240  0.1208
 6715SOL    HW131778   3.079   0.509   4.877  0.1228  0.2886 -1.5285
 6715SOL    HW231779   3.174   0.571   4.947 -0.3240  0.6117  0.3653
 6716SOL     OW31780   0.540   4.492   4.355 -0.6266  0.6983 -0.5785
 6716SOL    HW131781   0.494   4.443   4.423 -0.4044 -1.2441 -1.8130
 6716SOL    HW231782   0.547   4.575   4.402  0.0624  1.0552 -1.3210
 6717SOL     OW31783   1.917   4.489  13.054  0.2712 -0.3056  0.3001
 6717SOL    HW131784   1.948   4.462  12.968 -1.0815  0.3259 -0.3828
 6717SOL    HW231785   1.995   4.535  13.084 -0.1425  0.3370  0.3916
 6718SOL     OW31786   0.255   0.070   1.746  0.7148  0.0640 -1.0849
 6718SOL    HW131787   0.167   0.040   1.723  1.1310 -0.4632 -1.9607
 6718SOL    HW231788   0.240   0.059   1.840  1.7738 -0.4960 -0.9761
 6719SOL     OW31789   3.851   3.619   1.424  0.0863 -0.3464  0.7266
 6719SOL    HW131790   3.827   3.637   1.515  1.2210 -0.8603  1.1290
 6719SOL    HW231791   3.931   3.672   1.421 -0.3851  0.1132 -2.7146
 6720SOL     OW31792   4.206   4.308   2.856  0.4812 -0.1681  0.4634
 6720SOL    HW131793   4.251   4.386   2.822  0.8977 -0.5851  0.0592
 6720SOL    HW231794   4.195   4.257   2.776  0.7775 -2.3039  1.7994
 6721SOL     OW31795   2.296   1.963  12.240  0.2396  0.4500 -0.0608
 6721SOL    HW131796   2.336   1.983  12.156  2.1097 -2.8847  0.0218
 6721SOL    HW231797   2.209   1.927  12.220  0.1427  0.2491  0.7373
 6722SOL     OW31798   1.349   3.082   6.701  0.2382 -0.3202  0.0271
 6722SOL    HW131799   1.301   3.034   6.633 -1.0825  1.5620 -0.3662
 6722SOL    HW231800   1.285   3.105   6.768 -0.2902 -0.4891 -0.4179
 6723SOL     OW31801   1.461   1.091  14.696  0.1129 -0.0965  0.2054
 6723SOL    HW131802   1.386   1.139  14.661 -0.6232 -0.3197  1.4765
 6723SOL    HW231803   1.449   1.011  14.645 -0.8836  0.2764 -0.1561
 6724SOL     OW31804   4.438   3.680   9.736  0.3788  0.1969 -0.6012
 6724SOL    HW131805   4.347   3.689   9.709  0.5896  3.2387 -0.3400
 6724SOL    HW231806   4.424   3.604   9.791  0.4225  0.3476 -0.3817
 6725SOL     OW31807   1.219   0.551   0.630 -0.3340 -0.2235 -0.1951
 6725SOL    HW131808   1.231   0.546   0.535 -0.1359  1.3595 -0.2535
 6725SOL    HW231809   1.139   0.599   0.652  0.2357  0.1427  1.0665
 6726SOL     OW31810   2.744   1.836   9.456  0.1200  0.6118 -0.3225
 6726SOL    HW131811   2.655   1.855   9.488 -0.6575  0.5575 -2.4393
 6726SOL    HW231812   2.751   1.742   9.469 -1.1157  0.1553 -2.8230
 6727SOL     OW31813   0.563   0.697   8.029 -0.5873 -0.0753 -0.2469
 6727SOL    HW131814   0.542   0.751   8.106 -1.4568  0.8559 -1.1456
 6727SOL    HW231815   0.525   0.612   8.050  0.6180 -0.5744 -0.1213
 6728SOL     OW31816   0.984   0.673  17.710  0.5479  0.1270  0.0511
 6728SOL    HW131817   0.992   0.693  17.616  0.5093 -0.1126 -0.0036
 6728SOL    HW231818   0.921   0.601  17.709  0.8088 -0.0953 -0.5035
 6729SOL     OW31819   0.765   1.543  16.607  0.1359 -0.4474  0.1800
 6729SOL    HW131820   0.855   1.518  16.584  0.2722 -0.1803  0.4249
 6729SOL    HW231821   0.783   1.622  16.658  1.5449 -0.7842  0.2108
 6730SOL     OW31822   0.971   0.375  16.515  0.1855 -0.4417  0.0668
 6730SOL    HW131823   0.997   0.349  16.427 -2.1761  0.0734 -0.7657
 6730SOL    HW231824   1.006   0.300  16.563  1.3289  0.0656  0.0287
 6731SOL     OW31825   3.071   1.789   3.879  0.3732  0.3890 -0.5342
 6731SOL    HW131826   3.005   1.731   3.840  0.2935  0.0220  0.1449
 6731SOL    HW231827   3.148   1.734   3.864 -0.0274 -0.7738  1.7384
 6732SOL     OW31828   2.170   3.330   4.639  1.0362  0.1273  0.3491
 6732SOL    HW131829   2.142   3.301   4.552 -0.3048  2.7144 -0.0863
 6732SOL    HW231830   2.129   3.416   4.638  0.6683 -0.0473 -0.2016
 6733SOL     OW31831   3.840   1.049   0.660 -0.5562  0.1401  0.3829
 6733SOL    HW131832   3.893   1.017   0.587  2.3854  1.2955  2.0086
 6733SOL    HW231833   3.778   0.980   0.684  0.7189 -1.2068 -0.2162
 6734SOL     OW31834   4.348   3.027   2.503 -0.5244  0.2235  0.1572
 6734SOL    HW131835   4.357   2.952   2.562  2.5699 -0.2109 -0.8590
 6734SOL    HW231836   4.300   3.090   2.557  0.1813  0.5087  0.4471
 6735SOL     OW31837   4.531   1.291   7.809  0.2198 -0.3499 -0.1158
 6735SOL    HW131838   4.553   1.249   7.893  1.8328 -0.8538 -0.7892
 6735SOL    HW231839   4.436   1.276   7.815  0.0381  0.7438 -0.3117
 6736SOL     OW31840   0.833   3.961   9.800 -0.3955  0.3947 -0.0530
 6736SOL    HW131841   0.765   3.983   9.864  0.2000  3.1199 -0.3561
 6736SOL    HW231842   0.769   3.916   9.744 -0.4377  0.5668 -0.1448
 6737SOL     OW31843   2.325   4.178  16.172 -0.4505  0.3119 -0.1024
 6737SOL    HW131844   2.276   4.256  16.198  0.9670  0.0155  3.4930
 6737SOL    HW231845   2.255   4.123  16.137 -0.6210  0.5965 -0.2099
 6738SOL     OW31846   4.357   3.529   8.757 -0.0618 -0.3604  0.0873
 6738SOL    HW131847   4.341   3.605   8.700  1.8636 -0.6796 -0.8547
 6738SOL    HW231848   4.268   3.511   8.789 -0.1143  1.1733  0.8157
 6739SOL     OW31849   4.695   2.772  11.585  0.1258  0.4303 -0.5919
 6739SOL    HW131850   4.601   2.767  11.568  0.5482 -2.8820 -1.9597
 6739SOL    HW231851   4.727   2.682  11.573 -1.1813  0.0247 -1.0921
 6740SOL     OW31852   1.914   1.703   9.041 -0.0891  0.2084 -0.0472
 6740SOL    HW131853   1.922   1.769   8.972  2.2522 -1.9420 -1.8464
 6740SOL    HW231854   1.922   1.757   9.119  0.2551 -0.3517  0.3052
 6741SOL     OW31855   3.977   0.282  17.447  0.4873 -0.4871 -0.4968
 6741SOL    HW131856   3.991   0.262  17.354  0.5860 -1.6050 -0.2357
 6741SOL    HW231857   3.980   0.377  17.455 -1.1788 -0.6118  1.5480
 6742SOL     OW31858   0.967   2.740   4.162 -0.2420 -0.7785 -0.3807
 6742SOL    HW131859   0.991   2.663   4.213 -0.4647 -0.4757  0.1705
 6742SOL    HW231860   0.876   2.714   4.152 -0.1617 -1.5157  0.8864
 6743SOL     OW31861   0.788   2.906   6.063  0.0663 -0.5243 -0.3130
 6743SOL    HW131862   0.705   2.916   6.016 -0.4142  0.0808  0.6649
 6743SOL    HW231863   0.800   2.992   6.104 -2.3516 -0.4107  0.1617
 6744SOL     OW31864   2.661   4.320   7.453  0.1814 -0.1102 -0.5659
 6744SOL    HW131865   2.569   4.305   7.431  0.1484 -0.0683 -0.4591
 6744SOL    HW231866   2.685   4.229   7.472  2.3113  0.5673 -0.0530
 6745SOL     OW31867   3.607   4.509   6.055  0.1605  0.0965  0.5911
 6745SOL    HW131868   3.521   4.550   6.060  0.2117  0.3873 -0.9618
 6745SOL    HW231869   3.599   4.444   5.985 -0.5563  0.0289  0.7322
 6746SOL     OW31870   4.379   2.351   4.610 -0.2800  0.6863  0.1820
 6746SOL    HW131871   4.470   2.350   4.580 -0.9095  0.9125 -1.7605
 6746SOL    HW231872   4.341   2.398   4.536  1.6861 -1.1906 -2.0213
 6747SOL     OW31873   0.707   0.158   5.391  0.0409 -0.6555  0.0670
 6747SOL    HW131874   0.612   0.155   5.381  0.3494 -1.5315 -2.7081
 6747SOL    HW231875   0.724   0.249   5.416 -0.9420  0.4698 -3.3651
 6748SOL     OW31876   0.947   4.420   4.647  0.5548 -0.5667  0.4134
 6748SOL    HW131877   0.918   4.511   4.654 -1.0620 -1.0711  0.2285
 6748SOL    HW231878   1.004   4.427   4.571 -0.6703 -2.1517 -0.6358
 6749SOL     OW31879   2.591   3.059  12.881  0.5075  0.3388 -0.0179
 6749SOL    HW131880   2.639   2.990  12.835 -0.8383 -0.5039 -0.1632
 6749SOL    HW231881   2.623   3.143  12.846 -0.0974  1.2874  1.7089
 6750SOL     OW31882   0.195   4.574   2.351 -0.3787  0.2122  0.4317
 6750SOL    HW131883   0.250   4.621   2.289 -0.1990 -0.2505  0.2442
 6750SOL    HW231884   0.262   4.575   2.420 -1.5145  1.2737  1.5367
 6751SOL     OW31885   2.235   4.693   3.392  0.4016  0.5181 -0.2097
 6751SOL    HW131886   2.199   4.693   3.481  1.3383  1.2796  0.1701
 6751SOL    HW231887   2.313   4.640   3.409 -0.2920 -0.8365 -1.2493
 6752SOL     OW31888   2.969   1.059   5.301  0.1052 -0.4342 -0.8420
 6752SOL    HW131889   2.877   1.052   5.277 -0.2430 -2.0654  0.9953
 6752SOL    HW231890   2.950   1.109   5.380  0.6578 -0.0891 -0.9306
 6753SOL     OW31891   0.329   3.025  16.566  0.0639 -0.4207 -0.0110
 6753SOL    HW131892   0.288   2.939  16.575 -0.6721 -0.0747 -0.0461
 6753SOL    HW231893   0.294   3.059  16.483  0.0009  0.8084  0.5046
 6754SOL     OW31894   0.896   3.277  10.405  0.0268  0.1396  0.6783
 6754SOL    HW131895   0.916   3.363  10.442  2.5026 -0.2825  0.3241
 6754SOL    HW231896   0.882   3.231  10.487 -0.6195  0.0564  0.5191
 6755SOL     OW31897   0.340   2.371   8.523  0.5576 -0.2435  0.2764
 6755SOL    HW131898   0.388   2.424   8.586  0.7396 -0.6161  0.4481
 6755SOL    HW231899   0.251   2.371   8.560 -1.0576 -0.0558 -3.5925
 6756SOL     OW31900   3.578   4.072   3.270 -0.1762  0.2965  0.0922
 6756SOL    HW131901   3.620   4.145   3.316 -2.9959  2.2317 -0.4442
 6756SOL    HW231902   3.627   4.082   3.189 -0.6138 -1.1010 -0.3413
 6757SOL     OW31903   2.987   4.356   9.578 -0.0720  0.6104  0.2828
 6757SOL    HW131904   2.957   4.293   9.513  1.5273 -0.7156  0.8232
 6757SOL    HW231905   2.922   4.426   9.572  1.2601  2.0005  1.6150
 6758SOL     OW31906   3.820   4.287   0.526 -0.1108  0.1788  0.1494
 6758SOL    HW131907   3.764   4.213   0.500  0.7165  0.5535 -2.6804
 6758SOL    HW231908   3.782   4.312   0.611 -3.9214 -0.3005 -1.4094
 6759SOL     OW31909   1.806   3.182   6.844 -0.2578 -0.1189  0.0062
 6759SOL    HW131910   1.876   3.217   6.789 -0.3632 -0.1400 -0.1415
 6759SOL    HW231911   1.867   3.120   6.884 -0.9545  0.1334  1.4506
 6760SOL     OW31912   3.699   4.582  10.625  0.5254 -0.5112  0.5062
 6760SOL    HW131913   3.628   4.643  10.644  0.3230 -0.1635 -1.3758
 6760SOL    HW231914   3.745   4.630  10.557  1.7535 -1.2537  0.8153
 6761SOL     OW31915   2.917   2.713  14.153 -0.5522 -0.5428 -0.0350
 6761SOL    HW131916   2.854   2.716  14.081 -1.7635 -1.1149  0.9998
 6761SOL    HW231917   2.998   2.739  14.109  0.6046 -0.4569  2.1659
 6762SOL     OW31918   4.434   0.408   7.657  0.3434  0.4903  0.6011
 6762SOL    HW131919   4.387   0.431   7.737  0.1840  1.5097  0.2113
 6762SOL    HW231920   4.356   0.389   7.606  0.2183  0.5204  0.7841
 6763SOL     OW31921   1.727   1.856   3.680  0.2714 -0.0750  0.1939
 6763SOL    HW131922   1.732   1.929   3.617  1.6474 -0.0849  0.3001
 6763SOL    HW231923   1.809   1.812   3.659  0.2891  0.4250 -0.8054
 6764SOL     OW31924   0.403   0.248   5.617  0.4154 -0.2570 -0.5012
 6764SOL    HW131925   0.381   0.193   5.692  0.5763  2.0020  1.1850
 6764SOL    HW231926   0.318   0.260   5.573 -0.3899 -0.6964  0.9391
 6765SOL     OW31927   3.018   1.018   4.484 -0.1989  0.1303 -0.1488
 6765SOL    HW131928   3.078   1.093   4.489  0.5142 -0.4950  0.6042
 6765SOL    HW231929   2.977   1.009   4.398 -1.5537 -0.7866  0.5987
 6766SOL     OW31930   4.304   2.591  15.329 -0.2143 -0.5299 -0.4271
 6766SOL    HW131931   4.395   2.579  15.356  0.1813  2.0355 -0.6321
 6766SOL    HW231932   4.277   2.672  15.372  1.2872 -2.3205  3.8730
 6767SOL     OW31933   4.610   4.335   2.352  0.0478 -0.2624  0.4592
 6767SOL    HW131934   4.630   4.291   2.270  1.5727  1.6168 -0.1858
 6767SOL    HW231935   4.653   4.419   2.334  0.1967 -1.0767 -3.0189
 6768SOL     OW31936   0.506   3.854   8.583 -0.0512 -0.3780 -0.0258
 6768SOL    HW131937   0.456   3.863   8.665 -1.4324  1.0706 -1.0331
 6768SOL    HW231938   0.585   3.810   8.615 -0.1598  0.0631  0.8469
 6769SOL     OW31939   1.260   1.035   4.205 -0.3295  0.1539 -0.3424
 6769SOL    HW131940   1.195   0.966   4.196 -0.2067 -0.0331  0.2154
 6769SOL    HW231941   1.337   1.000   4.161 -1.3370 -0.7425 -1.3752
 6770SOL     OW31942   0.741   2.003   2.939  0.1572  0.0957 -0.0193
 6770SOL    HW131943   0.678   1.976   3.005  2.1155  0.7146  2.0948
 6770SOL    HW231944   0.735   2.098   2.945  2.7078  0.2285  0.4085
 6771SOL     OW31945   0.785   0.805   4.845  0.0195 -0.1462  0.0109
 6771SOL    HW131946   0.696   0.771   4.830 -1.6278  4.0391  0.2083
 6771SOL    HW231947   0.839   0.753   4.785  1.0347  1.4102 -0.4037
 6772SOL     OW31948   3.252   0.703   5.287 -0.2097 -0.0534 -0.1462
 6772SOL    HW131949   3.184   0.641   5.314 -2.4571  1.8554 -1.4478
 6772SOL    HW231950   3.327   0.644   5.281 -1.7936 -1.8591 -1.8755
 6773SOL     OW31951   1.299   0.980  15.922 -0.3048  0.7122 -0.0188
 6773SOL    HW131952   1.218   0.979  15.871  0.2122  0.5139 -0.8292
 6773SOL    HW231953   1.264   0.941  16.002  1.5214  0.5285  0.7053
 6774SOL     OW31954   0.249   0.355   5.040  0.1479 -0.2509 -0.0704
 6774SOL    HW131955   0.240   0.319   4.952  0.6267 -0.3859 -0.0656
 6774SOL    HW231956   0.342   0.359   5.062 -0.1256 -2.6964  1.4615
 6775SOL     OW31957   4.412   0.503   9.026 -0.2397 -0.1346  0.3490
 6775SOL    HW131958   4.344   0.437   9.017  1.0229 -1.3426 -0.4541
 6775SOL    HW231959   4.416   0.518   9.121  1.0179  0.3664  0.2117
 6776SOL     OW31960   2.237   3.784  14.642  0.3779 -0.0751 -0.0736
 6776SOL    HW131961   2.306   3.718  14.642  1.1670  0.7465 -1.6783
 6776SOL    HW231962   2.289   3.857  14.674 -0.0069  0.6322 -1.0486
 6777SOL     OW31963   2.012   2.084   9.479  0.6986  0.1702 -0.2182
 6777SOL    HW131964   1.929   2.095   9.433 -0.0109  0.7861  1.1920
 6777SOL    HW231965   1.983   2.011   9.534  1.3710 -0.8188 -1.1753
 6778SOL     OW31966   0.155   2.894   7.181 -0.8802 -0.0072  0.3867
 6778SOL    HW131967   0.121   2.821   7.129 -1.4528  0.6877 -0.2311
 6778SOL    HW231968   0.089   2.962   7.168 -2.1418 -1.6287 -1.5406
 6779SOL     OW31969   0.887   3.530   4.596 -0.6973 -0.3610  0.0493
 6779SOL    HW131970   0.913   3.445   4.560  0.9613  1.3817 -2.8626
 6779SOL    HW231971   0.893   3.517   4.691 -1.2231 -0.1465  0.1116
 6780SOL     OW31972   3.393   2.288   7.108  0.0575  0.1929  0.1215
 6780SOL    HW131973   3.395   2.333   7.192 -2.4411  0.3736  0.0942
 6780SOL    HW231974   3.469   2.237   7.134  0.5854  1.7323  1.6224
 6781SOL     OW31975   3.154   3.487  12.904  0.2987  0.0973  0.3170
 6781SOL    HW131976   3.250   3.488  12.904  0.3292 -3.1340 -0.3948
 6781SOL    HW231977   3.138   3.509  12.996 -1.3262 -3.6824  0.9427
 6782SOL     OW31978   0.220   3.865   6.976  0.0692  0.4149  0.8885
 6782SOL    HW131979   0.293   3.912   6.935 -0.7662 -0.9139 -2.1436
 6782SOL    HW231980   0.209   3.915   7.057 -0.0421 -0.1978  1.2499
 6783SOL     OW31981   0.931   1.809  14.895 -0.0744  0.2733  0.3719
 6783SOL    HW131982   0.942   1.714  14.890 -2.3114  0.0296  0.1165
 6783SOL    HW231983   0.837   1.817  14.907  0.1632 -0.2657  2.7727
 6784SOL     OW31984   2.285   4.098  16.617 -0.1716  0.3004 -0.0950
 6784SOL    HW131985   2.224   4.034  16.580 -1.5539 -0.5230  3.6153
 6784SOL    HW231986   2.230   4.124  16.691  0.7429 -0.0621  0.7144
 6785SOL     OW31987   3.135   1.181   1.013 -0.6033 -0.3710  0.1539
 6785SOL    HW131988   3.170   1.172   1.102 -0.8209 -2.6039  0.0131
 6785SOL    HW231989   3.208   1.141   0.966  0.2506  2.6816 -1.1626
 6786SOL     OW31990   1.947   1.566   1.971 -0.2092  0.4474 -0.0687
 6786SOL    HW131991   2.007   1.498   1.941 -1.0193  0.3260 -1.4305
 6786SOL    HW231992   1.919   1.613   1.892  0.7752 -0.2560 -0.8417
 6787SOL     OW31993   3.608   1.154   7.416 -0.4943  0.1764  0.0338
 6787SOL    HW131994   3.673   1.121   7.479  0.8736 -0.0750 -1.5028
 6787SOL    HW231995   3.660   1.234   7.406  0.9268 -0.8078 -0.5222
 6788SOL     OW31996   4.693   3.651  11.448 -0.4289 -0.0846  0.3027
 6788SOL    HW131997   4.601   3.631  11.468 -1.0818  0.1209 -2.5486
 6788SOL    HW231998   4.721   3.562  11.426  2.2817  1.0615 -0.9151
 6789SOL     OW31999   1.782   0.771  17.687  0.3996 -0.7425  0.9926
 6789SOL    HW132000   1.834   0.714  17.745  1.2143  0.3845  1.3638
 6789SOL    HW232001   1.839   0.845  17.667 -0.9235  0.1635  0.6123
 6790SOL     OW32002   2.360   2.985   8.605 -0.3401 -0.0176  0.2748
 6790SOL    HW132003   2.453   2.989   8.583 -0.8960  1.3283 -1.7642
 6790SOL    HW232004   2.369   3.020   8.694  1.6199 -1.3108  0.5842
 6791SOL     OW32005   1.319   0.895  17.271 -0.4178 -0.5948 -0.1820
 6791SOL    HW132006   1.320   0.990  17.287  1.9244 -0.6934  0.2542
 6791SOL    HW232007   1.225   0.880  17.261 -0.4802  0.2965 -0.9330
 6792SOL     OW32008   4.195   1.870   7.658 -0.4533 -0.2473  0.0382
 6792SOL    HW132009   4.135   1.918   7.601 -0.0770 -0.9813 -0.9623
 6792SOL    HW232010   4.245   1.940   7.701  0.7410 -0.5623 -0.8317
 6793SOL     OW32011   1.521   4.349  15.382 -0.0169  0.9586 -0.2985
 6793SOL    HW132012   1.455   4.355  15.313 -0.1036  0.0481 -0.2996
 6793SOL    HW232013   1.496   4.429  15.428  1.1767  1.0780  0.1604
 6794SOL     OW32014   0.476   1.875   2.993 -0.3026  0.0717  0.7411
 6794SOL    HW132015   0.540   1.856   2.925  0.1620  1.9446  0.6661
 6794SOL    HW232016   0.388   1.865   2.957 -0.3168  2.0264  0.2714
 6795SOL     OW32017   4.053   0.212   6.254  0.3434  0.3316  0.0157
 6795SOL    HW132018   4.140   0.249   6.269  0.2122  0.9443 -0.7213
 6795SOL    HW232019   4.051   0.240   6.163  0.5131  1.6474  0.4134
 6796SOL     OW32020   4.042   2.878   7.455  0.0732  0.2865 -0.6350
 6796SOL    HW132021   3.993   2.831   7.523 -0.1125  1.0598 -0.2359
 6796SOL    HW232022   3.989   2.958   7.458 -0.3751  0.0129 -1.2883
 6797SOL     OW32023   2.673   0.492   3.707 -0.3936 -0.4504  0.0645
 6797SOL    HW132024   2.721   0.503   3.789 -2.0148 -1.7138  1.1734
 6797SOL    HW232025   2.591   0.453   3.737 -0.6984 -0.1357 -0.3573
 6798SOL     OW32026   1.096   1.272   5.683  0.1211  0.2351 -0.7342
 6798SOL    HW132027   1.073   1.201   5.624  2.4873  0.3042 -1.7543
 6798SOL    HW232028   1.015   1.322   5.681 -0.5089 -0.8711 -2.6952
 6799SOL     OW32029   3.717   1.968   3.034 -0.6341  0.1564 -0.3295
 6799SOL    HW132030   3.768   1.961   2.953  0.9670  1.3333  0.5689
 6799SOL    HW232031   3.627   1.967   3.002 -0.8407 -0.2209  0.2595
 6800SOL     OW32032   1.124   3.559   8.134  0.2306  0.4467 -0.2086
 6800SOL    HW132033   1.169   3.495   8.189  2.0831  0.4673 -1.6869
 6800SOL    HW232034   1.098   3.518   8.051 -1.8713  0.2415  0.5425
 6801SOL     OW32035   3.621   2.046   2.577  0.1758  0.1778 -0.2614
 6801SOL    HW132036   3.539   2.083   2.611  0.4498  0.7475 -0.2168
 6801SOL    HW232037   3.682   2.119   2.585  0.3602 -0.2296  1.9089
 6802SOL     OW32038   3.688   3.917   7.601  0.5039 -0.5187  0.1354
 6802SOL    HW132039   3.648   3.834   7.578 -1.1431 -0.0569  1.3347
 6802SOL    HW232040   3.779   3.890   7.614  0.5465 -1.1734 -1.5084
 6803SOL     OW32041   4.252   4.018   6.380 -0.2099  0.1557  0.2390
 6803SOL    HW132042   4.248   4.027   6.285 -0.2846 -0.9500  0.1363
 6803SOL    HW232043   4.159   4.028   6.402 -0.5841 -1.2345 -0.6475
 6804SOL     OW32044   3.092   2.569   7.805 -0.1422 -0.6966  0.2944
 6804SOL    HW132045   3.149   2.558   7.881 -0.4770 -0.7440  0.5354
 6804SOL    HW232046   3.040   2.645   7.829  0.4791 -0.6095  1.3767
 6805SOL     OW32047   2.473   3.627   8.761  0.0476 -0.7147  0.5628
 6805SOL    HW132048   2.466   3.546   8.812 -1.4521 -0.1515  1.2376
 6805SOL    HW232049   2.565   3.648   8.777  0.2222 -1.3312  0.3877
 6806SOL     OW32050   0.381   1.678   4.232  0.0218 -0.1169  0.0776
 6806SOL    HW132051   0.404   1.695   4.141  0.8773  1.6350  0.6013
 6806SOL    HW232052   0.291   1.710   4.229 -0.0713 -0.1765  2.1995
 6807SOL     OW32053   0.674   2.619  16.571  0.5701  0.7374 -0.2285
 6807SOL    HW132054   0.671   2.714  16.557  0.5849  0.9991  1.4440
 6807SOL    HW232055   0.683   2.626  16.666 -1.3723 -0.8396  0.0641
 6808SOL     OW32056   1.643   4.289   1.666 -0.0114 -0.3552 -0.3988
 6808SOL    HW132057   1.562   4.253   1.630 -0.7827  1.7642 -0.7524
 6808SOL    HW232058   1.629   4.276   1.760 -1.7429  3.3900 -0.1395
 6809SOL     OW32059   4.496   3.639  14.331  0.2327 -0.4857  0.5906
 6809SOL    HW132060   4.571   3.696  14.350  1.9369 -2.2885 -0.7190
 6809SOL    HW232061   4.504   3.617  14.239  1.4113  1.5186  0.2112
 6810SOL     OW32062   4.041   4.340   3.074  0.0789 -0.4099 -0.3635
 6810SOL    HW132063   4.085   4.302   2.998 -0.4324 -1.0764 -0.3274
 6810SOL    HW232064   4.034   4.429   3.041  0.7440  0.3887  1.6511
 6811SOL     OW32065   1.165   0.854  12.133  0.3024 -0.3661 -0.1975
 6811SOL    HW132066   1.071   0.839  12.144 -0.0748 -1.1076 -4.2621
 6811SOL    HW232067   1.198   0.852  12.223  0.5143 -1.1329 -0.2969
 6812SOL     OW32068   0.631   1.224   6.457 -0.7639 -0.1693  0.1783
 6812SOL    HW132069   0.649   1.252   6.547  0.4114  0.0207 -0.1220
 6812SOL    HW232070   0.626   1.130   6.474 -0.5901 -0.2432 -0.1740
 6813SOL     OW32071   2.115   3.595   2.760 -0.3437 -0.3461 -0.0152
 6813SOL    HW132072   2.077   3.509   2.774 -1.2095  0.1206  0.4408
 6813SOL    HW232073   2.042   3.646   2.726 -1.7061 -1.2132  1.6363
 6814SOL     OW32074   0.573   3.323   3.557  0.0908 -0.4097  0.3946
 6814SOL    HW132075   0.578   3.408   3.601  0.7938  0.9365 -2.2968
 6814SOL    HW232076   0.639   3.327   3.487  2.1062  1.7627  2.3866
 6815SOL     OW32077   0.660   3.362   1.160  0.0411  0.4952 -0.0179
 6815SOL    HW132078   0.681   3.372   1.067 -0.2183  0.6216 -0.0656
 6815SOL    HW232079   0.632   3.271   1.159  0.6710  0.2965  0.3831
 6816SOL     OW32080   2.576   2.303   7.304  0.0528 -0.2523 -0.2113
 6816SOL    HW132081   2.664   2.342   7.309  0.8667 -2.1244  0.2205
 6816SOL    HW232082   2.578   2.249   7.226 -0.8036 -0.2596 -0.2248
 6817SOL     OW32083   2.818   4.058   2.741 -0.4907 -0.0823  0.2430
 6817SOL    HW132084   2.729   4.048   2.708 -0.3330 -0.7012  0.0196
 6817SOL    HW232085   2.835   3.972   2.777  0.1283  0.7212  1.8582
 6818SOL     OW32086   2.819   4.409   5.464  0.0092 -0.2587  0.4393
 6818SOL    HW132087   2.882   4.482   5.468 -0.8361  0.5197 -0.5495
 6818SOL    HW232088   2.739   4.446   5.502  0.3248  2.4881 -1.5978
 6819SOL     OW32089   4.619   1.233  13.993  0.1026 -0.0182  0.5599
 6819SOL    HW132090   4.585   1.147  14.018 -1.3838  0.5505  0.4817
 6819SOL    HW232091   4.682   1.205  13.926 -0.5231 -0.5352  0.1949
 6820SOL     OW32092   1.485   0.580  11.176 -0.1355 -0.0978  0.8401
 6820SOL    HW132093   1.436   0.656  11.208  0.0034  0.1891  0.3656
 6820SOL    HW232094   1.574   0.608  11.197 -0.2848  2.2491 -1.5910
 6821SOL     OW32095   4.024   2.129  14.223  0.3887 -0.1939  1.1032
 6821SOL    HW132096   4.043   2.099  14.312  3.0384  0.7637  0.8570
 6821SOL    HW232097   3.934   2.098  14.223  0.3120  0.0224  1.7562
 6822SOL     OW32098   0.570   0.366   7.831  0.2349 -0.2143  0.1528
 6822SOL    HW132099   0.582   0.393   7.922  1.5258 -3.3276  0.8874
 6822SOL    HW232100   0.495   0.416   7.798  0.9442  0.4481 -0.4620
 6823SOL     OW32101   0.021   3.879   4.101 -0.1660 -0.5067  0.4081
 6823SOL    HW132102   0.111   3.892   4.130  0.5341 -0.7312 -1.6993
 6823SOL    HW232103   4.705   3.924   4.166 -1.9067 -2.4829  0.3384
 6824SOL     OW32104   3.615   0.097   4.308 -0.0222  0.5034  0.2576
 6824SOL    HW132105   3.607   0.138   4.222 -2.3931  1.5046  0.9790
 6824SOL    HW232106   3.704   0.064   4.296 -0.1359  0.0883  0.5583
 6825SOL     OW32107   3.429   1.109   3.259  0.3541 -0.3755  0.5831
 6825SOL    HW132108   3.519   1.143   3.257  0.2870 -0.2249 -0.0226
 6825SOL    HW232109   3.413   1.100   3.353 -1.5578 -0.5393  0.2336
 6826SOL     OW32110   2.055   1.331  10.095 -0.1251  0.3778  0.0458
 6826SOL    HW132111   2.036   1.252  10.146  0.1081  0.8389  0.8660
 6826SOL    HW232112   2.059   1.288  10.010  0.0531  1.5179 -0.5131
 6827SOL     OW32113   4.061   0.572   2.089  0.0918 -0.1545 -0.3908
 6827SOL    HW132114   4.058   0.478   2.070  0.8965 -0.4270  0.7712
 6827SOL    HW232115   4.136   0.571   2.148  1.7140  0.8578 -2.4227
 6828SOL     OW32116   1.040   1.034   5.549 -0.6936 -0.5811  0.4123
 6828SOL    HW132117   1.003   1.036   5.461  1.1132 -1.4875 -0.3762
 6828SOL    HW232118   0.955   1.044   5.592 -0.4298  1.2826  0.4659
 6829SOL     OW32119   3.991   3.851   6.315 -0.7199  0.1256 -0.3931
 6829SOL    HW132120   3.907   3.805   6.314  0.1649 -1.4937  0.3623
 6829SOL    HW232121   3.974   3.927   6.371 -0.7305  0.4834 -0.8866
 6830SOL     OW32122   4.016   1.100   3.738  0.4260  0.3225  0.1639
 6830SOL    HW132123   4.086   1.149   3.781  2.5715  0.3869 -3.4453
 6830SOL    HW232124   4.055   1.064   3.658  2.5394  0.1880  1.2634
 6831SOL     OW32125   2.325   0.155   2.499 -0.5108  0.1278  0.2349
 6831SOL    HW132126   2.315   0.193   2.412  1.5246 -0.6223 -0.3271
 6831SOL    HW232127   2.330   0.061   2.484  0.5268  0.1071  0.7468
 6832SOL     OW32128   2.859   2.362   1.638 -0.3046 -0.3575 -0.4623
 6832SOL    HW132129   2.798   2.421   1.682  0.0412 -1.7022  1.8092
 6832SOL    HW232130   2.893   2.304   1.706  0.7863 -2.1384 -2.5044
 6833SOL     OW32131   3.314   2.726   1.519 -0.8435  0.7303  0.4847
 6833SOL    HW132132   3.296   2.687   1.604  1.2694  1.3934  1.2328
 6833SOL    HW232133   3.276   2.813   1.533  0.2339  1.1128  1.1041
 6834SOL     OW32134   0.706   3.400   7.840  0.2523  0.2702  0.0569
 6834SOL    HW132135   0.639   3.366   7.899  0.1611 -0.6198 -0.5571
 6834SOL    HW232136   0.663   3.478   7.804  1.6412  1.5125  1.0940
 6835SOL     OW32137   4.470   0.214   3.870 -0.3127  0.0731 -0.2836
 6835SOL    HW132138   4.514   0.190   3.951 -0.2965 -1.8544 -0.8466
 6835SOL    HW232139   4.383   0.207   3.910 -0.5527  1.9380 -0.5019
 6836SOL     OW32140   4.695   0.804   1.360 -0.6655  0.3166  0.0734
 6836SOL    HW132141   4.728   0.888   1.392  1.0488  0.4398 -1.9649
 6836SOL    HW232142   0.027   0.745   1.389  0.0986  2.0425  1.7334
 6837SOL     OW32143   3.929   0.580   8.775  0.3578  0.4860 -0.2512
 6837SOL    HW132144   3.973   0.570   8.859 -1.1569  0.0561  0.4902
 6837SOL    HW232145   3.921   0.493   8.738 -1.6398  0.3106  0.5866
 6838SOL     OW32146   0.020   4.653   8.037  0.2341 -0.3955  0.3921
 6838SOL    HW132147   0.087   4.592   8.069  2.1559  0.9986 -0.9774
 6838SOL    HW232148   0.061   4.724   7.988 -3.1015  0.5808 -1.0252
 6839SOL     OW32149   2.015   2.816   3.872  0.1906  0.0579  0.3426
 6839SOL    HW132150   2.036   2.726   3.847  1.3085  0.4586 -0.1515
 6839SOL    HW232151   1.954   2.846   3.804 -0.2388 -2.6675 -0.4725
 6840SOL     OW32152   2.334   2.586   7.578 -0.4588  0.0321 -0.4932
 6840SOL    HW132153   2.403   2.632   7.625 -0.0474 -0.0625 -0.9976
 6840SOL    HW232154   2.257   2.627   7.617  0.1551  0.6883  0.0371
 6841SOL     OW32155   3.118   4.610   7.425  0.0821 -0.0874 -0.2298
 6841SOL    HW132156   3.158   4.671   7.486 -1.8354  1.0880 -0.1499
 6841SOL    HW232157   3.114   4.540   7.490 -0.4507  0.8113  0.6867
 6842SOL     OW32158   0.926   1.439   8.154 -0.0981 -0.0397  0.2432
 6842SOL    HW132159   0.991   1.371   8.136 -0.7794 -0.6933  0.2662
 6842SOL    HW232160   0.888   1.454   8.068  0.1732  0.7414  0.2595
 6843SOL     OW32161   0.328   4.246   6.634 -0.2169  0.0810 -0.0772
 6843SOL    HW132162   0.301   4.328   6.676  0.8439  0.6852 -0.5880
 6843SOL    HW232163   0.326   4.273   6.543  0.5753 -0.5087 -0.2632
 6844SOL     OW32164   2.721   0.011   2.869  0.2642  0.2935 -0.3289
 6844SOL    HW132165   2.706   0.065   2.946 -0.2222  0.8709 -0.8213
 6844SOL    HW232166   2.641   0.017   2.816  1.5059 -1.2832 -2.4086
 6845SOL     OW32167   2.928   4.434  12.568  0.3178  0.6544  0.3061
 6845SOL    HW132168   2.950   4.527  12.568  1.3781  0.4010  0.7949
 6845SOL    HW232169   3.005   4.401  12.521 -0.4636  1.5357 -1.5878
 6846SOL     OW32170   1.736   0.589   3.177 -0.6763 -0.3996  0.2659
 6846SOL    HW132171   1.655   0.577   3.127  0.1486 -0.0899 -1.1400
 6846SOL    HW232172   1.756   0.676   3.143  0.4525 -0.1237  1.6500
 6847SOL     OW32173   1.450   0.539   2.294 -0.6197  0.4074  0.0231
 6847SOL    HW132174   1.510   0.482   2.342 -2.1870 -0.1902  1.2616
 6847SOL    HW232175   1.424   0.593   2.369 -0.3616  2.5045 -1.4025
 6848SOL     OW32176   1.718   1.583   5.307  0.1743  0.1768  0.2358
 6848SOL    HW132177   1.748   1.495   5.332  0.2701 -0.6654 -2.8345
 6848SOL    HW232178   1.646   1.558   5.249 -0.2332  1.9104 -0.0004
 6849SOL     OW32179   2.056   0.924   0.563 -0.1103  0.0112 -0.0618
 6849SOL    HW132180   2.143   0.947   0.598 -0.6038 -0.7412  1.7019
 6849SOL    HW232181   2.037   0.849   0.620 -2.4219  1.4445  1.0760
 6850SOL     OW32182   3.688   0.279   5.428 -0.0466 -0.1758  0.3228
 6850SOL    HW132183   3.698   0.233   5.345  0.9269  1.2768 -0.3732
 6850SOL    HW232184   3.593   0.279   5.438 -0.0205 -0.5788  0.5526
 6851SOL     OW32185   1.844   2.835   6.113 -0.0360 -0.2494 -0.1537
 6851SOL    HW132186   1.788   2.759   6.131 -1.0582  0.4904 -0.1842
 6851SOL    HW232187   1.777   2.901   6.094  0.5044  0.2227 -0.3874
 6852SOL     OW32188   0.700   3.875   3.104 -0.2341  0.4886 -0.0812
 6852SOL    HW132189   0.630   3.934   3.075 -0.9745 -0.2596  0.1874
 6852SOL    HW232190   0.651   3.792   3.106 -0.2092  0.3852 -2.8651
 6853SOL     OW32191   2.928   4.195   2.961  0.1411  0.1919  0.2524
 6853SOL    HW132192   2.878   4.179   2.882 -0.2930  0.3176  0.5032
 6853SOL    HW232193   2.863   4.202   3.031 -0.3521 -1.1911 -0.0587
 6854SOL     OW32194   2.748   2.920  11.360 -0.1885  0.1738 -0.7878
 6854SOL    HW132195   2.704   2.925  11.275 -1.2510 -0.3891 -0.2684
 6854SOL    HW232196   2.812   2.990  11.347 -0.3304  0.2664 -0.9953
 6855SOL     OW32197   4.345   4.183   6.565  0.5713 -0.1440 -0.2762
 6855SOL    HW132198   4.265   4.160   6.613  0.7229 -2.1013 -0.9394
 6855SOL    HW232199   4.328   4.122   6.493 -1.4000  1.7710 -1.4291
 6856SOL     OW32200   3.178   1.579  10.213 -0.4535 -0.2786 -0.2510
 6856SOL    HW132201   3.093   1.612  10.241 -0.8972 -1.8907  0.3408
 6856SOL    HW232202   3.237   1.622  10.274 -1.1003  0.3786 -0.0885
 6857SOL     OW32203   3.676   1.845   2.170 -0.0244  0.0740  0.4170
 6857SOL    HW132204   3.687   1.866   2.077  0.8159  0.1297  0.5289
 6857SOL    HW232205   3.702   1.925   2.214  2.3674 -0.2069 -0.4993
 6858SOL     OW32206   1.389   2.311   9.258  0.3846  0.3036 -0.0258
 6858SOL    HW132207   1.417   2.388   9.308 -1.1912 -1.3714  3.4640
 6858SOL    HW232208   1.464   2.293   9.201 -0.4550 -2.7988 -0.1307
 6859SOL     OW32209   0.341   3.277  10.407  0.2791  0.0543  0.0935
 6859SOL    HW132210   0.393   3.243  10.334  1.0386  1.0002  0.1972
 6859SOL    HW232211   0.413   3.317  10.456  0.8530 -0.0704 -0.6591
 6860SOL     OW32212   0.077   0.160   4.274  1.0059  0.1999  0.0866
 6860SOL    HW132213   0.164   0.125   4.252 -0.0928 -1.3226 -1.7974
 6860SOL    HW232214   0.057   0.110   4.353  1.7840  2.7752  1.9063
 6861SOL     OW32215   0.597   0.391   8.117 -0.2986 -0.1476  0.0044
 6861SOL    HW132216   0.516   0.428   8.152  0.5228  1.9281 -0.2897
 6861SOL    HW232217   0.614   0.316   8.176 -0.4259 -0.1133  0.0834
 6862SOL     OW32218   0.827   0.798   7.549 -0.7134 -0.1716  0.2125
 6862SOL    HW132219   0.915   0.831   7.567 -0.9067  0.0069  0.8255
 6862SOL    HW232220   0.769   0.873   7.561  0.9084  0.7531  2.2423
 6863SOL     OW32221   4.300   2.719   8.979 -0.1512  0.2186  0.4041
 6863SOL    HW132222   4.392   2.695   8.971 -0.1897  0.2106 -0.0344
 6863SOL    HW232223   4.273   2.727   8.888  0.3877  0.5228  0.2701
 6864SOL     OW32224   4.060   4.326   7.320  0.0590  0.8528 -0.1676
 6864SOL    HW132225   4.067   4.238   7.283  0.3699  0.6868  0.2946
 6864SOL    HW232226   4.093   4.310   7.408 -1.6375  1.9597  0.6686
 6865SOL     OW32227   4.054   4.464   9.160  0.1026  0.0308  0.1732
 6865SOL    HW132228   4.022   4.401   9.095  0.8057  0.0789 -0.2127
 6865SOL    HW232229   3.994   4.446   9.233 -1.5672  0.1482 -1.1693
 6866SOL     OW32230   1.268   2.453   3.782 -0.2274 -0.2111  0.7316
 6866SOL    HW132231   1.285   2.518   3.850 -0.0313  0.3735  0.1266
 6866SOL    HW232232   1.205   2.394   3.823 -0.7854 -1.1432 -1.4566
 6867SOL     OW32233   3.055   0.813  11.563 -0.2431 -0.3187 -0.0700
 6867SOL    HW132234   3.129   0.810  11.503  0.3039 -3.7962  0.8193
 6867SOL    HW232235   2.991   0.779  11.500  0.6019  1.9986 -2.1681
 6868SOL     OW32236   1.273   2.155   6.001 -0.1827 -0.0903 -0.3645
 6868SOL    HW132237   1.299   2.132   5.912 -0.8465  1.1060 -0.8797
 6868SOL    HW232238   1.272   2.249   5.981 -0.1867 -0.0251 -0.0672
 6869SOL     OW32239   0.434   3.110  14.004  1.0722  0.4486 -0.0517
 6869SOL    HW132240   0.471   3.059  13.931  0.2703  0.6449 -0.5860
 6869SOL    HW232241   0.400   3.190  13.965  1.4397  0.7458  0.2355
 6870SOL     OW32242   1.484   4.453   5.733  1.0809  0.1848  0.7815
 6870SOL    HW132243   1.413   4.498   5.779 -0.7893 -0.7824 -1.1493
 6870SOL    HW232244   1.484   4.506   5.653  0.7132  0.1874  0.7809
 6871SOL     OW32245   2.450   2.713   6.150  0.4709  0.1549 -0.5109
 6871SOL    HW132246   2.390   2.787   6.153  0.5117  0.1524  0.2907
 6871SOL    HW232247   2.465   2.691   6.242  4.0056  0.7355 -0.9246
 6872SOL     OW32248   4.239   3.940   1.953  0.6678 -0.8525  0.2244
 6872SOL    HW132249   4.224   4.030   1.981 -0.8711 -1.3231  0.9590
 6872SOL    HW232250   4.164   3.894   1.990 -0.0527  0.2731  0.1644
 6873SOL     OW32251   2.192   1.848   3.959 -0.0706 -0.0996 -0.4748
 6873SOL    HW132252   2.108   1.894   3.957  0.5611  1.0678 -0.3285
 6873SOL    HW232253   2.193   1.802   3.875  2.3760  0.0712 -0.5567
 6874SOL     OW32254   4.184   0.685  13.732  0.2278 -0.1798  0.4639
 6874SOL    HW132255   4.088   0.678  13.730  0.3115 -1.7082  1.0275
 6874SOL    HW232256   4.213   0.617  13.672  2.7199  1.6899 -0.4192
 6875SOL     OW32257   2.646   1.961   8.099  0.5345  0.8076  0.4049
 6875SOL    HW132258   2.652   2.004   8.184 -1.8157  0.6358  0.6458
 6875SOL    HW232259   2.562   1.918   8.112  0.3336  0.7441 -1.1144
 6876SOL     OW32260   4.268   3.934   2.460 -0.3417  0.3298  0.0044
 6876SOL    HW132261   4.325   3.900   2.391 -1.0611 -1.4951  0.2953
 6876SOL    HW232262   4.249   4.015   2.413  2.9580  1.2385  0.2231
 6877SOL     OW32263   4.617   4.002   7.251  0.1273  0.2478  0.2566
 6877SOL    HW132264   4.571   4.076   7.291  2.1304  2.0567 -0.7693
 6877SOL    HW232265   4.557   3.988   7.178 -0.8118 -0.0820  1.1104
 6878SOL     OW32266   4.735   2.962  11.799 -0.1871 -0.4547  1.0209
 6878SOL    HW132267   0.014   2.907  11.722 -2.1160 -0.4026  0.5586
 6878SOL    HW232268   4.691   2.898  11.856  1.0501 -0.2501  2.1980
 6879SOL     OW32269   3.229   4.672  15.582 -0.2027 -0.0916  0.5438
 6879SOL    HW132270   3.192   0.022  15.599 -2.9094 -1.0514 -0.3722
 6879SOL    HW232271   3.235   4.677  15.487  0.5610 -1.6125  0.5172
 6880SOL     OW32272   3.511   3.594   7.693 -0.0419 -0.3052 -0.0959
 6880SOL    HW132273   3.539   3.625   7.606 -0.2849  0.4465  0.0909
 6880SOL    HW232274   3.446   3.663   7.710  0.3461 -0.1546  0.7511
 6881SOL     OW32275   0.065   2.952   0.489 -0.1069 -0.6530 -0.4312
 6881SOL    HW132276   0.073   2.908   0.405  3.1333 -2.5265  0.8626
 6881SOL    HW232277   0.148   2.999   0.492 -0.0894 -0.6665 -0.7510
 6882SOL     OW32278   3.356   1.072  17.401 -0.6713 -0.0011  0.4823
 6882SOL    HW132279   3.309   1.021  17.334  0.1341 -0.5915  0.3708
 6882SOL    HW232280   3.438   1.090  17.355 -0.7128 -0.4413  0.2301
 6883SOL     OW32281   2.224   3.461   7.986  0.0018  0.1459 -0.5906
 6883SOL    HW132282   2.216   3.386   8.044  0.6964  0.1832 -0.4430
 6883SOL    HW232283   2.274   3.421   7.916  2.8150  2.3078  0.1835
 6884SOL     OW32284   2.934   4.074   6.411 -0.4101 -0.1065 -0.4876
 6884SOL    HW132285   3.010   4.017   6.396 -0.5487 -1.1808  3.0374
 6884SOL    HW232286   2.900   4.061   6.322  0.3020  2.0594 -1.0698
 6885SOL     OW32287   1.540   2.319   7.998  0.0371  0.1909 -0.0057
 6885SOL    HW132288   1.451   2.328   8.031  0.2905  0.5546  0.5710
 6885SOL    HW232289   1.529   2.254   7.929  2.7914 -2.9862  2.5606
 6886SOL     OW32290   3.188   4.007   5.533 -0.4493 -0.1559  0.2162
 6886SOL    HW132291   3.120   4.048   5.479 -0.3172  1.5058  1.3032
 6886SOL    HW232292   3.193   4.056   5.616 -3.6431 -0.8558  0.8252
 6887SOL     OW32293   2.882   0.217   5.961  0.0177  0.2600 -0.1353
 6887SOL    HW132294   2.923   0.227   5.875  0.0719 -0.2297 -0.1653
 6887SOL    HW232295   2.856   0.125   5.960  0.4034  0.1601 -0.9643
 6888SOL     OW32296   0.747   1.793   1.302  0.4373 -0.6272  0.0943
 6888SOL    HW132297   0.757   1.871   1.247 -0.3178 -0.4434  0.2260
 6888SOL    HW232298   0.652   1.793   1.298  0.5127 -0.1362 -2.0032
 6889SOL     OW32299   0.578   4.001  15.943  0.2235  0.4084  0.7155
 6889SOL    HW132300   0.604   4.011  15.851 -0.4202  0.4205  0.5340
 6889SOL    HW232301   0.649   4.043  15.992 -0.3907  2.5683 -0.2476
 6890SOL     OW32302   3.030   2.608   9.359 -0.1531 -0.2372 -0.0548
 6890SOL    HW132303   3.000   2.651   9.279  0.2514  0.9862  0.4513
 6890SOL    HW232304   2.960   2.633   9.420 -0.0167  0.6921 -0.2715
 6891SOL     OW32305   0.153   1.444   5.627  0.6746  0.1533 -0.1823
 6891SOL    HW132306   0.192   1.361   5.655 -0.3214  0.0755  0.9659
 6891SOL    HW232307   0.068   1.426   5.588  0.2237  1.2567  0.2997
 6892SOL     OW32308   3.569   4.697   0.988  0.1339 -0.0330  0.1812
 6892SOL    HW132309   3.634   4.631   1.011 -1.1132 -0.9673  0.9874
 6892SOL    HW232310   3.609   4.727   0.906 -1.7270  1.1156 -0.2836
 6893SOL     OW32311   3.588   2.093   1.844 -0.9141  0.6983  0.1637
 6893SOL    HW132312   3.548   2.027   1.900 -1.8546  1.6750  0.6448
 6893SOL    HW232313   3.641   2.139   1.909 -0.1013  1.2443 -0.8636
 6894SOL     OW32314   3.196   1.518   5.175 -0.4853  0.6011 -0.1230
 6894SOL    HW132315   3.218   1.432   5.137 -0.5182 -0.2224  1.7421
 6894SOL    HW232316   3.155   1.489   5.257 -2.1449 -1.8700 -1.8053
 6895SOL     OW32317   3.624   4.138   0.411  0.2827 -0.1999 -0.3143
 6895SOL    HW132318   3.560   4.208   0.395  0.1065 -0.2776  0.0456
 6895SOL    HW232319   3.586   4.088   0.483 -0.9511  0.7065 -0.3380
 6896SOL     OW32320   4.618   0.406   9.634 -0.3199 -0.0840 -0.4230
 6896SOL    HW132321   4.667   0.421   9.715 -2.4072 -1.3448  1.0779
 6896SOL    HW232322   4.614   0.310   9.638  0.6660 -0.1646 -1.6337
 6897SOL     OW32323   3.480   1.322   2.745  0.0798  0.1319 -0.2191
 6897SOL    HW132324   3.421   1.266   2.694  2.2551 -1.9527 -0.4740
 6897SOL    HW232325   3.520   1.360   2.667  2.1713  0.7707  1.1721
 6898SOL     OW32326   1.162   0.210   8.910  0.0024  0.1395 -0.0268
 6898SOL    HW132327   1.122   0.156   8.979 -1.4954 -2.5769 -3.0312
 6898SOL    HW232328   1.177   0.287   8.965  0.8408 -0.0009 -0.0608
 6899SOL     OW32329   2.035   4.712   8.219 -0.4204 -0.2889 -0.0862
 6899SOL    HW132330   1.986   0.036   8.164  1.5436  1.1712 -0.1972
 6899SOL    HW232331   1.985   4.631   8.232 -0.2785 -0.7322 -2.3197
 6900SOL     OW32332   1.147   0.481   7.346  0.6746 -0.3577  0.3327
 6900SOL    HW132333   1.081   0.416   7.324  1.2495 -0.2865 -1.6076
 6900SOL    HW232334   1.201   0.424   7.400  1.3503 -1.3223 -1.3669
 6901SOL     OW32335   2.580   4.373   6.750  0.5438  0.1506  0.1901
 6901SOL    HW132336   2.624   4.330   6.676  0.8933  1.1345 -0.1774
 6901SOL    HW232337   2.585   4.301   6.812  0.8011 -1.7360 -2.0191
 6902SOL     OW32338   0.692   0.217   9.280 -0.3132  0.2554  0.0199
 6902SOL    HW132339   0.597   0.204   9.272 -0.4949  3.4128 -2.6199
 6902SOL    HW232340   0.694   0.309   9.308  0.6533  0.3178 -0.2767
 6903SOL     OW32341   2.992   1.557   6.114 -0.5520  0.0650 -0.3627
 6903SOL    HW132342   2.915   1.557   6.171 -0.3761  0.4468 -0.1223
 6903SOL    HW232343   3.022   1.468   6.129 -0.8355 -0.5235 -3.2269
 6904SOL     OW32344   1.320   4.447   4.693 -0.5904 -0.0515 -0.3627
 6904SOL    HW132345   1.309   4.483   4.605  0.6605 -2.3969 -1.4972
 6904SOL    HW232346   1.289   4.359   4.673  0.9877 -0.0033 -3.0942
 6905SOL     OW32347   2.280   1.705   2.837  0.3465  1.0688  0.0176
 6905SOL    HW132348   2.367   1.739   2.816  1.0908  0.3680  1.8800
 6905SOL    HW232349   2.237   1.769   2.781 -1.0920  1.1141  1.1761
 6906SOL     OW32350   1.197   3.640   3.384  0.3665  0.5496  0.0419
 6906SOL    HW132351   1.218   3.733   3.379  0.2378  0.5223 -1.0641
 6906SOL    HW232352   1.274   3.593   3.416 -0.2594 -0.3340  0.2421
 6907SOL     OW32353   2.634   2.085   2.116 -0.9035  0.1780 -0.3160
 6907SOL    HW132354   2.653   2.039   2.197  0.1877  2.1276  0.5537
 6907SOL    HW232355   2.586   2.163   2.143  1.0455  1.9394 -1.8972
 6908SOL     OW32356   2.359   4.699   2.160  0.2716  0.1916  0.0790
 6908SOL    HW132357   2.304   4.638   2.112  0.0984 -0.9005  1.6635
 6908SOL    HW232358   2.307   0.041   2.154 -1.6043 -1.0072  0.4176
 6909SOL     OW32359   1.132   1.228   3.151 -0.0712 -0.0223 -0.2217
 6909SOL    HW132360   1.063   1.229   3.217 -1.1879 -0.9345 -1.3723
 6909SOL    HW232361   1.195   1.288   3.190 -0.0636 -0.4719  0.4553
 6910SOL     OW32362   3.345   3.168  15.520  0.2580 -0.5284  0.4810
 6910SOL    HW132363   3.307   3.210  15.597 -0.0294  0.0951 -0.0030
 6910SOL    HW232364   3.437   3.158  15.545  0.5640 -1.5098 -1.0375
 6911SOL     OW32365   0.020   2.081   5.736 -0.0276 -0.1348 -0.3761
 6911SOL    HW132366   0.033   2.170   5.702  4.2233 -0.4240  0.5848
 6911SOL    HW232367   0.059   2.074   5.822  1.3609  0.7869 -0.9342
 6912SOL     OW32368   0.737   3.124   2.514 -0.7306  0.4877  0.1608
 6912SOL    HW132369   0.776   3.206   2.545 -2.9697  0.6728  2.4870
 6912SOL    HW232370   0.646   3.149   2.495 -0.1934 -0.0382 -3.1660
 6913SOL     OW32371   1.828   1.185   8.014  0.6896 -0.0210 -0.1507
 6913SOL    HW132372   1.788   1.238   7.945 -1.0309  1.7504  2.2232
 6913SOL    HW232373   1.748   1.156   8.057  0.4282 -1.9202 -1.9024
 6914SOL     OW32374   3.023   0.294   1.571 -0.0060 -0.4289 -0.0184
 6914SOL    HW132375   3.016   0.211   1.617 -1.2111  0.6454  1.7392
 6914SOL    HW232376   3.115   0.320   1.579  0.3284 -1.1785 -1.3795
 6915SOL     OW32377   1.432   3.249   5.199  0.4158 -0.5676  0.4189
 6915SOL    HW132378   1.432   3.168   5.147 -0.7794 -0.0587 -0.3918
 6915SOL    HW232379   1.337   3.261   5.198  0.2844 -1.6234 -0.0747
 6916SOL     OW32380   4.051   3.541  14.611 -0.0005  0.2153 -0.1690
 6916SOL    HW132381   4.044   3.622  14.661 -0.9589  0.7873 -1.2381
 6916SOL    HW232382   4.109   3.562  14.538 -0.0205  0.2699 -0.1689
 6917SOL     OW32383   0.405   3.277  10.093  0.3082  0.2882  0.3903
 6917SOL    HW132384   0.495   3.246  10.085  0.2104 -0.2615  1.4769
 6917SOL    HW232385   0.359   3.200  10.124  2.5059 -1.6891 -1.2681
 6918SOL     OW32386   4.572   3.446   2.345  0.3032 -0.3980 -0.9372
 6918SOL    HW132387   4.546   3.394   2.269 -0.4547 -0.9499 -0.3077
 6918SOL    HW232388   4.626   3.511   2.300  0.3163 -2.7021 -4.2710
 6919SOL     OW32389   3.315   2.475   3.151  0.0515  0.0225  0.2567
 6919SOL    HW132390   3.384   2.411   3.133  1.5532  1.0273  2.4491
 6919SOL    HW232391   3.234   2.424   3.145 -0.5368  0.9772  0.1420
 6920SOL     OW32392   0.116   2.099   0.511 -0.3360 -0.0285 -0.3762
 6920SOL    HW132393   0.210   2.107   0.493 -0.3837 -1.7460 -1.3843
 6920SOL    HW232394   0.092   2.073   0.422 -2.1445 -1.0311  0.4192
 6921SOL     OW32395   0.458   1.800   2.591  0.6519  0.7049 -0.0664
 6921SOL    HW132396   0.544   1.832   2.619  1.1847 -0.6083 -0.2224
 6921SOL    HW232397   0.435   1.873   2.533 -2.5194  0.9878  1.5541
 6922SOL     OW32398   4.426   0.725   8.835 -0.1924  0.4894  0.2842
 6922SOL    HW132399   4.415   0.678   8.918 -2.6082 -2.4923 -1.7476
 6922SOL    HW232400   4.520   0.735   8.817  0.1247 -1.6705  0.8194
 6923SOL     OW32401   3.121   2.378   6.546  0.0853  0.1865 -0.1636
 6923SOL    HW132402   3.143   2.335   6.463 -2.2668  0.9616 -1.1576
 6923SOL    HW232403   3.109   2.298   6.599 -0.4893  0.5353  0.2245
 6924SOL     OW32404   4.722   0.867  17.693 -0.7529 -0.1453 -0.3826
 6924SOL    HW132405   4.650   0.853   0.005  0.9161 -2.4509  1.0118
 6924SOL    HW232406   4.713   0.777  17.661  1.1064 -0.6094  0.3927
 6925SOL     OW32407   3.664   2.141   0.328 -0.0562  0.3006  0.2413
 6925SOL    HW132408   3.677   2.088   0.406  4.7341  1.8157  0.5163
 6925SOL    HW232409   3.570   2.134   0.311  0.1725 -0.8736 -0.5365
 6926SOL     OW32410   2.086   2.610   2.796 -0.2631  0.0323  0.3578
 6926SOL    HW132411   2.027   2.654   2.857  0.1732  1.6938 -0.4438
 6926SOL    HW232412   2.117   2.689   2.753  0.5467  0.4347  1.7074
 6927SOL     OW32413   1.710   3.242   5.240 -0.7079 -0.3591 -0.2611
 6927SOL    HW132414   1.618   3.270   5.242 -0.3627  0.7466  0.0859
 6927SOL    HW232415   1.702   3.148   5.220  0.4232 -1.0318  2.4781
 6928SOL     OW32416   0.948   4.068   6.169 -0.3420  0.0834 -0.3368
 6928SOL    HW132417   0.871   4.124   6.180  0.8885  1.5504  0.7785
 6928SOL    HW232418   0.907   3.988   6.203  0.1693  0.8709  2.1449
 6929SOL     OW32419   3.771   2.602   2.214  0.2485 -0.3477  0.5085
 6929SOL    HW132420   3.824   2.574   2.139 -0.3454  1.6688 -0.6664
 6929SOL    HW232421   3.745   2.686   2.176  1.2812  0.1233  0.8370
 6930SOL     OW32422   2.737   0.000   0.565 -0.4770 -0.3212 -0.4362
 6930SOL    HW132423   2.670   0.059   0.598 -1.8547 -0.5119 -2.9036
 6930SOL    HW232424   2.782   4.716   0.646  0.8313 -2.0439 -1.6114
 6931SOL     OW32425   3.478   2.500   8.366 -0.0472 -0.1526 -0.3087
 6931SOL    HW132426   3.515   2.439   8.429 -1.4662 -1.5810 -0.8750
 6931SOL    HW232427   3.539   2.574   8.378  0.9012 -1.2615  1.6933
 6932SOL     OW32428   2.991   1.805  14.695  0.7037 -0.1724 -0.1071
 6932SOL    HW132429   2.907   1.832  14.660 -0.0966  0.6066  2.4411
 6932SOL    HW232430   3.052   1.874  14.669 -0.0038  1.1745  1.8418
 6933SOL     OW32431   4.667   1.531   2.809 -0.0150 -0.4359 -0.0974
 6933SOL    HW132432   4.616   1.504   2.733 -0.3153  2.4289 -0.9127
 6933SOL    HW232433   4.725   1.595   2.769 -1.0280  1.4210  1.3925
 6934SOL     OW32434   3.231   1.969   9.279 -0.1989  0.2049  0.0065
 6934SOL    HW132435   3.161   2.006   9.333 -1.2235 -2.2617  0.3532
 6934SOL    HW232436   3.268   1.891   9.320  1.6062  2.1473  2.1056
 6935SOL     OW32437   2.528   2.547  13.386  0.3409  0.6214 -0.0620
 6935SOL    HW132438   2.600   2.520  13.443 -1.2520  0.7861  1.9892
 6935SOL    HW232439   2.563   2.619  13.333 -0.9793  1.1265 -0.2539
 6936SOL     OW32440   3.909   4.289   6.704 -0.4217 -0.4436  0.1693
 6936SOL    HW132441   3.956   4.366   6.670  0.0409 -0.8335 -0.0791
 6936SOL    HW232442   3.825   4.329   6.723 -0.6208 -0.7401 -0.0861
 6937SOL     OW32443   3.276   0.245   6.063  0.3794 -0.2353  0.3294
 6937SOL    HW132444   3.359   0.198   6.066 -0.0061 -0.8800  0.9608
 6937SOL    HW232445   3.309   0.328   6.097  1.2089 -0.9836  1.3562
 6938SOL     OW32446   0.844   4.193   2.210  0.1275  0.5152  0.2214
 6938SOL    HW132447   0.810   4.271   2.253  0.1504  0.6415  0.0104
 6938SOL    HW232448   0.939   4.198   2.215  0.1348  0.9003 -0.2479
 6939SOL     OW32449   3.466   1.986   9.587 -0.1741  0.3335 -0.6873
 6939SOL    HW132450   3.490   1.920   9.652  0.3624  2.2169  1.0221
 6939SOL    HW232451   3.450   1.934   9.508  0.6136  1.0075 -1.3045
 6940SOL     OW32452   3.594   1.696   4.711 -0.0001  0.4535  0.3107
 6940SOL    HW132453   3.633   1.772   4.667  0.7541 -0.6067 -0.8446
 6940SOL    HW232454   3.520   1.745   4.747 -1.7215 -1.2352 -0.9166
 6941SOL     OW32455   3.169   3.995   7.413  0.4611  0.3458 -0.2223
 6941SOL    HW132456   3.115   4.073   7.406 -0.1622  0.0482  1.2814
 6941SOL    HW232457   3.250   4.005   7.464 -0.5202  0.7057  1.2678
 6942SOL     OW32458   0.539   3.391  10.520  0.5714  0.2593 -0.4657
 6942SOL    HW132459   0.591   3.327  10.569  0.2260 -0.8469 -1.5400
 6942SOL    HW232460   0.543   3.461  10.585  1.7673 -0.4272  0.1877
 6943SOL     OW32461   3.191   1.421   6.474 -0.2485  0.5593 -0.1784
 6943SOL    HW132462   3.183   1.388   6.385 -0.0672  2.2661 -0.8347
 6943SOL    HW232463   3.139   1.501   6.475 -0.0711  0.6430  1.9678
 6944SOL     OW32464   4.023   4.610   2.079  0.2729 -0.3096 -0.3481
 6944SOL    HW132465   3.956   4.635   2.014  0.2007  0.3269 -0.0239
 6944SOL    HW232466   3.977   4.590   2.160 -0.9200 -1.0538 -1.1924
 6945SOL     OW32467   0.255   3.477   5.999  0.2287  0.3385  0.2440
 6945SOL    HW132468   0.214   3.500   6.083 -0.8652 -1.5055  0.2306
 6945SOL    HW232469   0.181   3.498   5.942  0.4312  1.1364  0.2761
 6946SOL     OW32470   2.098   0.546   6.260 -0.0548  0.0814 -0.2301
 6946SOL    HW132471   2.049   0.548   6.342 -0.5771 -1.4454 -0.5026
 6946SOL    HW232472   2.117   0.452   6.260 -0.4193  0.0095  0.2612
 6947SOL     OW32473   2.356   2.017  16.977 -0.0569 -0.0567 -0.0480
 6947SOL    HW132474   2.438   1.995  16.934 -1.2351 -3.4350 -0.5650
 6947SOL    HW232475   2.311   1.933  16.969 -1.9305  0.8853  0.4316
 6948SOL     OW32476   3.108   0.644   8.056  0.4828 -0.1885 -0.1582
 6948SOL    HW132477   3.191   0.633   8.010  1.2043 -1.5259  1.4380
 6948SOL    HW232478   3.051   0.645   7.979 -0.5064 -1.7739  0.5509
 6949SOL     OW32479   3.938   2.940   2.764  0.3390 -0.4734 -0.3345
 6949SOL    HW132480   3.966   2.870   2.823  0.9345 -0.4967 -0.6428
 6949SOL    HW232481   4.024   2.960   2.727  1.6360 -2.8220  1.3942
 6950SOL     OW32482   2.144   2.274   9.992 -0.9525 -0.0067  0.4399
 6950SOL    HW132483   2.154   2.199  10.050 -3.9514 -1.0701 -0.4304
 6950SOL    HW232484   2.071   2.245   9.937 -0.1109 -3.0061  0.8913
 6951SOL     OW32485   1.915   1.013   2.913  0.6140 -0.6734 -0.3254
 6951SOL    HW132486   2.002   1.043   2.939  0.7433  0.2852 -1.8818
 6951SOL    HW232487   1.860   1.074   2.963  1.2836  1.2979 -2.0090
 6952SOL     OW32488   0.328   2.720  17.108  0.8136  0.0537  0.2539
 6952SOL    HW132489   0.376   2.803  17.110  0.9583 -0.0502  1.4299
 6952SOL    HW232490   0.249   2.746  17.157  0.9734 -0.9425  1.0646
 6953SOL     OW32491   2.411   3.972   5.879 -0.1494 -0.0199  0.1577
 6953SOL    HW132492   2.333   3.955   5.825 -0.8862 -0.3816  1.3341
 6953SOL    HW232493   2.442   3.881   5.878 -1.7237 -0.5645 -0.1484
 6954SOL     OW32494   0.071   0.351   7.288 -0.0434  0.3078  0.3088
 6954SOL    HW132495   4.723   0.307   7.290 -0.5061  1.1559 -0.6603
 6954SOL    HW232496   0.050   0.443   7.304 -4.6495 -0.8027  0.7420
 6955SOL     OW32497   3.656   0.632  11.303 -0.2415  0.8803 -0.0003
 6955SOL    HW132498   3.594   0.703  11.317  0.4900  1.5865 -0.3385
 6955SOL    HW232499   3.603   0.568  11.254  0.8474 -0.8714  1.0955
 6956SOL     OW32500   4.331   3.950  11.186  0.2430 -0.3604  0.4699
 6956SOL    HW132501   4.317   4.039  11.220 -0.3814  0.2695 -1.4349
 6956SOL    HW232502   4.244   3.913  11.203 -1.6971  2.9120 -2.3713
 6957SOL     OW32503   1.827   1.868   5.328 -0.6332 -0.1617 -0.1509
 6957SOL    HW132504   1.740   1.829   5.321 -1.4755  1.8488 -0.8815
 6957SOL    HW232505   1.872   1.809   5.267  0.9085  1.6014 -0.7324
 6958SOL     OW32506   3.752   1.718   1.777 -0.0828 -0.6370 -0.5809
 6958SOL    HW132507   3.716   1.772   1.707 -0.0431  2.0082  1.4511
 6958SOL    HW232508   3.805   1.779   1.827  0.6123 -0.9944 -0.8792
 6959SOL     OW32509   1.326   2.873   4.417 -0.4297 -0.0881 -0.5290
 6959SOL    HW132510   1.234   2.852   4.434 -0.8893  2.3221  0.0153
 6959SOL    HW232511   1.321   2.866   4.322  0.9516  2.1143 -0.7574
 6960SOL     OW32512   2.427   0.897   7.411 -0.1197  0.0923  0.6526
 6960SOL    HW132513   2.402   0.898   7.319 -1.1585 -0.2678  0.9399
 6960SOL    HW232514   2.368   0.827   7.439  0.5773 -0.9159 -0.3738
 6961SOL     OW32515   2.678   0.825   4.868  0.1059 -0.0951 -0.5015
 6961SOL    HW132516   2.731   0.826   4.789  1.4595  2.3431  0.4134
 6961SOL    HW232517   2.617   0.897   4.853 -0.5518 -0.2126  1.5788
 6962SOL     OW32518   2.335   3.165  12.773 -0.4112 -0.1957 -0.7201
 6962SOL    HW132519   2.327   3.247  12.820 -3.1990 -0.7861 -0.1671
 6962SOL    HW232520   2.423   3.145  12.805 -0.4921  0.9281  0.1876
 6963SOL     OW32521   1.246   4.675  13.008 -0.7606 -0.1208  0.1145
 6963SOL    HW132522   1.185   0.011  13.011 -0.1693  0.3449  0.5727
 6963SOL    HW232523   1.291   4.687  13.091 -2.5228 -0.1562  1.0780
 6964SOL     OW32524   3.191   0.938  17.234  0.3255 -0.1567 -1.0304
 6964SOL    HW132525   3.153   0.897  17.156 -0.6095  2.2586 -1.8682
 6964SOL    HW232526   3.207   0.868  17.297  0.1216  0.3753 -0.3830
 6965SOL     OW32527   3.009   0.019   1.641 -0.3687 -0.0651  0.5712
 6965SOL    HW132528   3.016   0.033   1.736  0.2833  1.0169  0.3705
 6965SOL    HW232529   2.984   4.665   1.637  1.8675 -0.5841 -1.0887
 6966SOL     OW32530   0.717   3.074   5.038 -0.3798 -0.2855 -0.0628
 6966SOL    HW132531   0.769   3.027   5.104 -2.4954  0.5826  2.2190
 6966SOL    HW232532   0.708   3.159   5.081  0.2911 -0.7267  0.9636
 6967SOL     OW32533   1.427   0.569   8.362 -0.0498 -0.1144 -0.7296
 6967SOL    HW132534   1.412   0.664   8.363  1.8911  0.2001 -0.8693
 6967SOL    HW232535   1.442   0.556   8.269 -1.2902  0.5815 -1.0221
 6968SOL     OW32536   4.025   2.322   7.821  0.0589  0.0584  0.2355
 6968SOL    HW132537   3.956   2.357   7.878  0.4359 -0.2104  0.8483
 6968SOL    HW232538   4.069   2.405   7.800 -0.9895  0.5028 -0.2347
 6969SOL     OW32539   4.200   0.805   9.833 -0.1082  0.1503 -0.3014
 6969SOL    HW132540   4.226   0.743   9.901 -1.4915 -0.5644 -0.4135
 6969SOL    HW232541   4.274   0.855   9.799  0.1483  0.1971  0.3138
 6970SOL     OW32542   1.943   3.943   7.449  0.0759  0.0848 -0.0354
 6970SOL    HW132543   1.923   3.851   7.467  3.4989 -0.2796  1.7723
 6970SOL    HW232544   1.913   3.987   7.528  0.2466  0.0349  0.0563
 6971SOL     OW32545   4.235   0.175   8.802 -0.9198  0.4940 -0.1310
 6971SOL    HW132546   4.184   0.102   8.766  0.1044  0.9119 -2.4794
 6971SOL    HW232547   4.312   0.172   8.745 -0.9414 -0.8506 -0.0795
 6972SOL     OW32548   2.876   0.532  17.558 -0.1781 -0.5972 -0.2755
 6972SOL    HW132549   2.845   0.620  17.580  0.6481 -0.1908 -0.7357
 6972SOL    HW232550   2.800   0.485  17.591 -0.7106 -0.6858 -1.6311
 6973SOL     OW32551   3.623   1.268   5.611 -0.1025  0.2517  0.3270
 6973SOL    HW132552   3.589   1.198   5.555  1.2891 -0.4901  0.4112
 6973SOL    HW232553   3.616   1.223   5.696  0.6166 -0.3446  0.0706
 6974SOL     OW32554   3.315   1.437   4.819  0.4768 -0.0794  0.0571
 6974SOL    HW132555   3.363   1.448   4.901 -1.0901  1.0874  0.8076
 6974SOL    HW232556   3.268   1.521   4.817 -0.3964 -0.5650  0.1835
 6975SOL     OW32557   1.380   0.209   6.445  0.8061  0.6413 -0.0282
 6975SOL    HW132558   1.299   0.249   6.476  0.9981  0.0946  1.2034
 6975SOL    HW232559   1.390   0.134   6.504  0.3823  0.7868  0.2265
 6976SOL     OW32560   3.287   3.162   8.529 -0.2297  0.2627 -0.0902
 6976SOL    HW132561   3.362   3.191   8.478  1.1827 -0.5121  1.5605
 6976SOL    HW232562   3.218   3.179   8.464  0.1873  2.9174  0.1276
 6977SOL     OW32563   0.961   3.751  11.814 -0.1968  0.4677  0.2599
 6977SOL    HW132564   0.930   3.730  11.726  0.3127 -0.2104  0.2429
 6977SOL    HW232565   0.967   3.847  11.818 -1.3415  0.5093  1.1455
 6978SOL     OW32566   1.856   1.052   7.566 -0.1349 -0.7233 -0.1289
 6978SOL    HW132567   1.916   1.073   7.495  0.1733  1.7988  0.9005
 6978SOL    HW232568   1.789   1.003   7.518  0.4285  0.5593 -2.1725
 6979SOL     OW32569   4.161   3.189  15.614 -0.4918 -0.0219 -0.7788
 6979SOL    HW132570   4.179   3.248  15.687  1.4686  0.6041 -1.7600
 6979SOL    HW232571   4.075   3.221  15.587 -2.0780 -2.6616  1.2004
 6980SOL     OW32572   2.773   1.936  15.997 -0.1951 -0.1954  0.0498
 6980SOL    HW132573   2.680   1.957  15.991  0.3029  1.4212 -1.8008
 6980SOL    HW232574   2.821   1.989  15.933 -1.1492 -1.2051 -1.5183
 6981SOL     OW32575   4.575   3.369   8.802  0.1932 -0.0899  0.0454
 6981SOL    HW132576   4.490   3.412   8.817 -0.2064 -0.9300  0.1969
 6981SOL    HW232577   4.553   3.324   8.720 -0.7928 -0.6139  0.5861
 6982SOL     OW32578   0.485   1.941  12.484 -0.3628 -0.1699 -0.1210
 6982SOL    HW132579   0.474   1.974  12.395 -3.5336  0.7882  0.6402
 6982SOL    HW232580   0.562   1.979  12.525 -0.6413 -1.1230  1.3041
 6983SOL     OW32581   4.113   4.441   1.866 -0.0956 -0.1460  0.2463
 6983SOL    HW132582   4.081   4.479   1.948 -1.1186  1.4223 -0.8671
 6983SOL    HW232583   4.094   4.504   1.796  0.0247 -0.5587 -0.1573
 6984SOL     OW32584   0.693   1.751   6.643  0.6902  0.1399 -0.1803
 6984SOL    HW132585   0.783   1.758   6.672  0.3713  2.8556  0.1337
 6984SOL    HW232586   0.695   1.816   6.573 -1.1164  1.2255  0.7556
 6985SOL     OW32587   1.444   3.233   6.337 -0.1763 -0.3288 -0.3823
 6985SOL    HW132588   1.407   3.277   6.260 -0.1659  2.0410  0.9835
 6985SOL    HW232589   1.392   3.155   6.357  1.6723 -1.7510 -1.0226
 6986SOL     OW32590   0.738   4.574  17.633  0.0649 -0.4866  0.5890
 6986SOL    HW132591   0.810   4.632  17.656 -1.8809  1.3156  2.1473
 6986SOL    HW232592   0.761   4.491  17.675 -1.1446 -0.2583  1.7015
 6987SOL     OW32593   1.722   0.307   7.566  0.2928 -0.5975  0.3084
 6987SOL    HW132594   1.802   0.360   7.566  0.3173 -0.6047  2.0766
 6987SOL    HW232595   1.649   0.365   7.590 -0.8474 -2.8182  2.2553
 6988SOL     OW32596   3.344   4.089   1.792 -0.1990  0.7046  0.1871
 6988SOL    HW132597   3.426   4.139   1.785 -0.6478  1.2574 -1.0664
 6988SOL    HW232598   3.362   4.015   1.850  0.1894  0.0751 -0.7273
 6989SOL     OW32599   3.273   2.598  10.765 -0.1449  0.4314  0.1886
 6989SOL    HW132600   3.321   2.675  10.795  2.0379 -0.4910 -0.9024
 6989SOL    HW232601   3.188   2.618  10.805  0.0423  0.8881  0.3590
 6990SOL     OW32602   3.428   2.017  12.249  0.0296  0.1384  0.4080
 6990SOL    HW132603   3.441   2.082  12.319  1.5432  0.3622 -0.0820
 6990SOL    HW232604   3.446   1.940  12.303  1.4499  0.0196 -0.2459
 6991SOL     OW32605   3.717   4.032   4.274 -0.3802 -0.1451  0.3193
 6991SOL    HW132606   3.777   3.963   4.304  0.1264 -0.7461 -2.1162
 6991SOL    HW232607   3.735   4.047   4.181 -2.5421  5.0130  0.7354
 6992SOL     OW32608   3.006   1.250   8.209 -0.2674  0.4703  0.1492
 6992SOL    HW132609   2.977   1.164   8.238  1.5588 -0.8268 -1.9087
 6992SOL    HW232610   2.923   1.294   8.229 -0.9538 -1.6580  1.9034
 6993SOL     OW32611   1.159   3.907  10.016 -0.2953  0.6523  0.4288
 6993SOL    HW132612   1.113   3.985  10.048 -0.2567  1.6062 -1.9038
 6993SOL    HW232613   1.249   3.906  10.047  0.2288  0.1030 -1.1356
 6994SOL     OW32614   0.962   1.273  13.554  0.1069 -0.0364 -0.2966
 6994SOL    HW132615   0.922   1.334  13.493 -0.5070 -0.8809 -0.7450
 6994SOL    HW232616   0.947   1.327  13.632  0.0346  1.7624 -1.5613
 6995SOL     OW32617   3.854   2.482   7.955  0.2674 -0.1963 -0.1432
 6995SOL    HW132618   3.826   2.503   7.866 -0.5831  0.5117  0.2896
 6995SOL    HW232619   3.769   2.498   7.994  1.3446  0.8997  1.7433
 6996SOL     OW32620   1.199   4.375   1.624 -0.3537 -0.6090  0.6235
 6996SOL    HW132621   1.182   4.430   1.701 -0.8715  1.7068 -1.1316
 6996SOL    HW232622   1.207   4.447   1.562  1.8716 -0.5584  0.9506
 6997SOL     OW32623   2.151   3.227   2.010  0.1288 -0.0643 -0.5034
 6997SOL    HW132624   2.075   3.188   1.965  0.9777 -3.4656  0.9884
 6997SOL    HW232625   2.174   3.148   2.059 -2.7545 -1.2423 -1.0340
 6998SOL     OW32626   1.672   1.278   6.894  0.2239 -0.3554 -0.4922
 6998SOL    HW132627   1.667   1.366   6.933  0.8134 -0.6094  0.1399
 6998SOL    HW232628   1.583   1.246   6.910 -0.3904  0.9021 -1.3499
 6999SOL     OW32629   3.429   3.564   6.660 -0.0930 -0.2178  0.6401
 6999SOL    HW132630   3.525   3.557   6.659 -0.0117  2.0233 -3.2485
 6999SOL    HW232631   3.416   3.627   6.589 -0.4633  0.2657  1.1400
 7000SOL     OW32632   0.908   1.165  14.520 -0.4578 -0.1064 -0.7669
 7000SOL    HW132633   0.893   1.108  14.445 -1.1207 -1.7999  0.6469
 7000SOL    HW232634   0.859   1.238  14.483 -1.3647 -0.6964 -0.7449
 7001SOL     OW32635   3.729   0.658  16.685  0.1322 -0.2034 -0.5280
 7001SOL    HW132636   3.667   0.592  16.715 -0.0120 -1.0123 -2.5882
 7001SOL    HW232637   3.811   0.615  16.709 -0.4036 -1.2049 -0.4610
 7002SOL     OW32638   3.842   0.113   4.093  1.1140  0.1746  0.0595
 7002SOL    HW132639   3.820   0.062   4.015 -1.3561  1.7461 -0.2634
 7002SOL    HW232640   3.800   0.195   4.068 -0.4050 -0.8200 -0.6302
 7003SOL     OW32641   4.141   0.386   7.501  0.1409 -0.3859 -0.6079
 7003SOL    HW132642   4.093   0.450   7.450 -0.7158 -0.9610 -0.5238
 7003SOL    HW232643   4.109   0.408   7.589 -0.9363  4.9904 -2.3975
 7004SOL     OW32644   0.202   0.282  17.143  0.3726 -0.0138 -0.3210
 7004SOL    HW132645   0.226   0.375  17.137  1.1179 -0.2913 -1.7226
 7004SOL    HW232646   0.152   0.266  17.063  0.5133 -0.3925 -0.3303
 7005SOL     OW32647   2.986   2.232   1.846  0.0714  0.8246  0.2462
 7005SOL    HW132648   3.020   2.241   1.934 -1.6855  2.0112  0.8083
 7005SOL    HW232649   2.914   2.169   1.860  2.3107 -2.2458 -1.9834
 7006SOL     OW32650   0.779   3.535   3.206 -0.4677 -0.0543  0.3872
 7006SOL    HW132651   0.843   3.571   3.145  0.0081 -0.4741  0.6413
 7006SOL    HW232652   0.802   3.601   3.271 -1.4568  1.6970 -1.0346
 7007SOL     OW32653   3.901   4.567   0.605 -0.6669 -0.2803  0.4746
 7007SOL    HW132654   3.876   4.537   0.518 -0.4517 -0.1568  0.3708
 7007SOL    HW232655   3.984   4.526   0.630  0.1154  2.1924  1.9137
 7008SOL     OW32656   1.449   0.536   4.240  0.1304  1.0238  0.5293
 7008SOL    HW132657   1.535   0.498   4.221  0.2673  0.9691  1.2632
 7008SOL    HW232658   1.391   0.462   4.220  1.2014  0.6272 -1.0839
 7009SOL     OW32659   0.857   3.917   2.810 -0.3753  0.1985  0.1722
 7009SOL    HW132660   0.810   3.984   2.761 -0.1000  0.0025 -0.3667
 7009SOL    HW232661   0.938   3.962   2.831 -0.9189  2.8094 -3.3282
 7010SOL     OW32662   3.621   0.218  15.724  0.2042  0.1574 -0.2095
 7010SOL    HW132663   3.658   0.136  15.691 -0.1352 -0.0961  0.0360
 7010SOL    HW232664   3.705   0.262  15.733 -0.3963  0.6629  3.2406
 7011SOL     OW32665   3.306   0.528   5.669 -0.3146  0.0351  0.7756
 7011SOL    HW132666   3.345   0.507   5.585 -2.4380  1.5539 -0.5939
 7011SOL    HW232667   3.289   0.621   5.652 -3.0569 -0.7932 -0.9555
 7012SOL     OW32668   2.010   3.618   1.967  0.2081 -0.5903  0.1691
 7012SOL    HW132669   1.940   3.639   1.905  1.0334  1.3407 -0.1048
 7012SOL    HW232670   2.082   3.602   1.906 -0.7169 -3.1262 -0.2784
 7013SOL     OW32671   1.523   2.067  11.054 -0.5399 -0.4309 -0.0481
 7013SOL    HW132672   1.579   1.996  11.086  1.7873  1.0640 -0.8715
 7013SOL    HW232673   1.452   2.077  11.118  1.8554 -0.6426  2.6361
 7014SOL     OW32674   2.024   0.701  14.696 -0.7327 -0.2132  0.5426
 7014SOL    HW132675   1.982   0.620  14.725 -1.2977 -0.6530 -1.5495
 7014SOL    HW232676   2.063   0.741  14.774 -0.2056 -0.1527  0.2475
 7015SOL     OW32677   2.194   2.472   7.851 -0.1442  1.2173  0.5247
 7015SOL    HW132678   2.281   2.433   7.860  0.0615  1.5081 -0.1366
 7015SOL    HW232679   2.144   2.432   7.921 -0.4112  0.2235 -0.2327
 7016SOL     OW32680   0.040   0.706   3.178  0.0605 -0.3406 -0.2184
 7016SOL    HW132681   0.001   0.779   3.130  0.6221 -0.8060 -1.3956
 7016SOL    HW232682   0.032   0.634   3.115 -0.6923  0.8988 -1.5634
 7017SOL     OW32683   4.070   4.448   6.950  0.6166  0.5699 -0.2684
 7017SOL    HW132684   3.996   4.478   6.896 -0.8160  1.6794  2.2860
 7017SOL    HW232685   4.025   4.380   7.001  2.3966 -0.0518  0.4757
 7018SOL     OW32686   1.644   1.607   4.706  0.5888 -0.4057 -0.5385
 7018SOL    HW132687   1.676   1.683   4.656 -2.7866  1.0473 -0.5144
 7018SOL    HW232688   1.632   1.644   4.794 -1.8096  0.8445 -1.3831
 7019SOL     OW32689   1.240   2.775   3.340  0.1534 -0.5360  0.7517
 7019SOL    HW132690   1.234   2.730   3.424 -1.5308  1.4164  1.6758
 7019SOL    HW232691   1.335   2.786   3.339  0.0273  0.5000 -0.5316
 7020SOL     OW32692   1.222   4.181   5.011  0.0855 -0.1513  0.7382
 7020SOL    HW132693   1.295   4.239   5.034 -0.7892  0.0359  3.0629
 7020SOL    HW232694   1.149   4.244   5.015  1.7329  1.8669 -0.9653
 7021SOL     OW32695   2.153   2.973   3.101 -0.3945  0.2729 -0.6757
 7021SOL    HW132696   2.088   2.919   3.055  1.7065 -1.3724 -1.6996
 7021SOL    HW232697   2.158   3.049   3.043  1.6743  1.2536  0.7778
 7022SOL     OW32698   2.658   4.226   8.252 -0.4162  0.6740  0.1376
 7022SOL    HW132699   2.580   4.196   8.205  0.3836  2.2578 -2.1957
 7022SOL    HW232700   2.664   4.152   8.312 -0.1539  1.3756  0.9714
 7023SOL     OW32701   4.401   0.437  11.524 -0.2433  0.2906  0.3092
 7023SOL    HW132702   4.312   0.445  11.490 -0.7957  1.7806  2.1050
 7023SOL    HW232703   4.392   0.466  11.615 -0.3078 -1.1187  0.7590
 7024SOL     OW32704   2.807   1.502   7.994 -0.1893  0.6792  0.5099
 7024SOL    HW132705   2.824   1.596   7.994 -0.7523  0.7871 -0.1819
 7024SOL    HW232706   2.766   1.487   8.079  1.1486 -2.2392  0.6393
 7025SOL     OW32707   1.534   2.041   3.806 -0.4531 -0.0021  0.0857
 7025SOL    HW132708   1.509   2.116   3.752  2.4411  1.0218  0.1436
 7025SOL    HW232709   1.595   1.990   3.752  0.0245 -1.3080  1.8664
 7026SOL     OW32710   0.345   2.414  13.388  0.0514 -0.2037 -0.1155
 7026SOL    HW132711   0.276   2.348  13.391  1.4136 -1.6471 -0.7936
 7026SOL    HW232712   0.420   2.373  13.431 -0.4208 -0.6382  0.2914
 7027SOL     OW32713   1.919   2.205   6.467 -0.0108  0.0078 -0.1451
 7027SOL    HW132714   1.824   2.198   6.466  0.1561 -2.0861 -0.2621
 7027SOL    HW232715   1.939   2.170   6.553 -0.4602 -1.3539 -0.6016
 7028SOL     OW32716   2.377   3.594   3.114 -0.3085  0.7798  0.9450
 7028SOL    HW132717   2.377   3.545   3.196  1.5792 -0.8079  0.0120
 7028SOL    HW232718   2.285   3.620   3.107 -0.2905  0.6415  0.0838
 7029SOL     OW32719   4.511   1.525   8.124  0.6137 -0.1525 -0.6498
 7029SOL    HW132720   4.506   1.607   8.172 -0.0293  0.2732 -1.4457
 7029SOL    HW232721   4.421   1.494   8.114  1.2350 -2.1753 -0.0510
 7030SOL     OW32722   2.278   4.680   8.342  0.3866 -0.1152 -0.1674
 7030SOL    HW132723   2.205   4.701   8.284  0.7879  1.8007  0.0194
 7030SOL    HW232724   2.347   4.651   8.283 -0.3614  0.8664 -1.5096
 7031SOL     OW32725   2.408   4.213   9.531 -0.4005  0.6664  0.2216
 7031SOL    HW132726   2.485   4.232   9.584  1.1636 -2.4288 -0.9331
 7031SOL    HW232727   2.417   4.287   9.471  0.8172 -0.6328 -1.2200
 7032SOL     OW32728   0.632   1.870  14.886  0.3866 -0.1379  0.1952
 7032SOL    HW132729   0.554   1.871  14.831 -1.4138  1.4023  2.7286
 7032SOL    HW232730   0.602   1.917  14.964 -0.2614  2.2959 -1.4943
 7033SOL     OW32731   0.249   1.697   8.838  0.0166 -0.0183 -0.9453
 7033SOL    HW132732   0.244   1.783   8.796  1.1359  1.3635  1.7740
 7033SOL    HW232733   0.187   1.655   8.778 -0.3472 -1.2835  0.3081
 7034SOL     OW32734   4.665   3.152   6.266  0.4205  0.2431  0.6276
 7034SOL    HW132735   4.708   3.069   6.290  1.9707  1.3471  1.7128
 7034SOL    HW232736   4.731   3.215   6.296  0.8411 -0.9184  2.1484
 7035SOL     OW32737   3.571   2.982   4.591 -0.9501 -0.0371  0.1524
 7035SOL    HW132738   3.580   3.043   4.664 -1.6407 -2.7343  2.4972
 7035SOL    HW232739   3.475   2.971   4.590 -0.9621 -0.1854  3.3181
 7036SOL     OW32740   0.365   1.464   7.355 -0.0550 -0.2917 -0.2973
 7036SOL    HW132741   0.322   1.379   7.346 -0.0852 -0.5366  2.2950
 7036SOL    HW232742   0.370   1.477   7.449 -1.3919  0.0411 -0.2706
 7037SOL     OW32743   1.031   3.795  13.546  0.2441 -0.1826  0.2183
 7037SOL    HW132744   1.045   3.792  13.451  1.9667  1.6632  0.4237
 7037SOL    HW232745   0.981   3.876  13.561 -0.1065 -0.7108  1.8815
 7038SOL     OW32746   4.512   0.991  14.015  0.0708  0.1507 -0.0384
 7038SOL    HW132747   4.433   0.938  14.001  0.3455 -0.6205  1.3055
 7038SOL    HW232748   4.543   0.952  14.097 -0.6853 -0.2864  0.0395
 7039SOL     OW32749   1.138   4.523  15.459 -0.0023 -0.3329  0.1836
 7039SOL    HW132750   1.064   4.549  15.404 -0.7797 -1.0575  0.8861
 7039SOL    HW232751   1.130   4.586  15.531 -0.1800  0.1330 -0.2424
 7040SOL     OW32752   3.162   3.610   3.945  0.0816 -0.7327  0.4648
 7040SOL    HW132753   3.149   3.558   3.866 -0.9016  0.6490 -0.2848
 7040SOL    HW232754   3.199   3.683   3.895  3.0974 -2.9906 -0.5683
 7041SOL     OW32755   3.572   3.853   4.935  0.2204  0.2247  0.3128
 7041SOL    HW132756   3.592   3.869   5.028  0.1267  1.5761  0.0933
 7041SOL    HW232757   3.499   3.914   4.920 -0.6715 -1.0103 -0.3407
 7042SOL     OW32758   3.438   0.028   4.862  0.1363 -0.2228 -0.7104
 7042SOL    HW132759   3.492   0.097   4.823 -0.1423  0.0937 -0.5377
 7042SOL    HW232760   3.515   4.718   4.893  0.4012  0.7790  0.2001
 7043SOL     OW32761   0.139   1.392  17.666 -0.3256 -0.1913 -0.1693
 7043SOL    HW132762   0.157   1.334  17.593  0.4056 -0.1594 -0.0133
 7043SOL    HW232763   0.204   1.461  17.664  0.3946 -0.9162 -1.2970
 7044SOL     OW32764   1.179   0.932  11.050 -0.2628 -0.3708 -0.4099
 7044SOL    HW132765   1.230   1.004  11.086  0.2793 -1.0987  0.2977
 7044SOL    HW232766   1.227   0.857  11.086  0.7209  1.8868  3.0001
 7045SOL     OW32767   1.122   4.355   4.463 -0.0121  0.2490 -0.4780
 7045SOL    HW132768   1.183   4.289   4.495 -1.3487 -0.4337  0.6712
 7045SOL    HW232769   1.181   4.425   4.437  1.0647 -1.0485 -1.5281
 7046SOL     OW32770   1.189   0.102   6.716 -0.1154  0.2875 -0.0710
 7046SOL    HW132771   1.279   0.072   6.704 -1.0334 -3.2428  1.8241
 7046SOL    HW232772   1.201   0.193   6.746 -2.1227  0.2370  0.8477
 7047SOL     OW32773   3.374   1.828   1.301 -0.6036  0.0364 -0.2738
 7047SOL    HW132774   3.308   1.872   1.354 -0.2990  0.9331 -0.6281
 7047SOL    HW232775   3.447   1.880   1.336  1.4610 -1.5118 -2.2757
 7048SOL     OW32776   0.110   2.311   8.657 -0.6933 -0.1134  0.7426
 7048SOL    HW132777   0.025   2.338   8.691 -0.9943 -1.0461  0.7403
 7048SOL    HW232778   0.100   2.217   8.671 -1.5554 -0.3419 -1.4001
 7049SOL     OW32779   0.219   2.340   7.063 -0.3093 -0.2080 -0.3564
 7049SOL    HW132780   0.203   2.246   7.067  1.4496 -0.5102 -0.3998
 7049SOL    HW232781   0.140   2.369   7.018 -2.3872 -2.2724  1.9890
 7050SOL     OW32782   3.485   1.653   7.417 -0.4615  0.3084 -0.6946
 7050SOL    HW132783   3.475   1.578   7.475 -0.8834  1.0385  0.1850
 7050SOL    HW232784   3.401   1.654   7.372  0.2490  1.5330 -1.9885
 7051SOL     OW32785   0.837   1.522   4.910 -0.4907  0.9671 -0.1018
 7051SOL    HW132786   0.917   1.524   4.857  0.1304  0.0962  0.8005
 7051SOL    HW232787   0.875   1.491   4.992 -3.0786 -0.5535  0.5494
 7052SOL     OW32788   3.977   3.163   2.492 -0.3333 -0.4031  0.0362
 7052SOL    HW132789   4.064   3.157   2.533 -0.9755 -1.6926  1.2381
 7052SOL    HW232790   3.958   3.072   2.470  0.4717 -0.7727  0.8163
 7053SOL     OW32791   0.733   1.979   6.518  0.7061  0.0796  0.4174
 7053SOL    HW132792   0.697   2.058   6.558  0.5478  0.4498 -0.4626
 7053SOL    HW232793   0.826   2.002   6.508  0.6807 -0.3056 -0.6658
 7054SOL     OW32794   0.295   4.117   8.004 -0.1292 -0.6221  0.1360
 7054SOL    HW132795   0.319   4.028   7.977 -0.6166 -0.2853 -1.4364
 7054SOL    HW232796   0.229   4.141   7.938 -0.1461  0.8313  0.6791
 7055SOL     OW32797   2.967   2.832   3.361 -0.8177  0.1720  1.0477
 7055SOL    HW132798   2.929   2.746   3.338  1.2690 -0.3502 -0.4368
 7055SOL    HW232799   2.974   2.825   3.456  2.7681 -1.3353  0.6652
 7056SOL     OW32800   4.072   0.500   9.594 -0.2107  0.0973 -0.5201
 7056SOL    HW132801   4.011   0.442   9.549  1.7022 -0.8872 -1.8394
 7056SOL    HW232802   4.106   0.441   9.661 -1.9943 -0.3797 -0.0466
 7057SOL     OW32803   1.525   3.876   7.648 -0.5461 -0.2482  0.2196
 7057SOL    HW132804   1.485   3.932   7.714  1.0250 -1.0714  1.8851
 7057SOL    HW232805   1.597   3.833   7.695 -0.3734 -0.8461 -0.6019
 7058SOL     OW32806   0.442   1.793  12.719 -0.1208  0.0024 -0.3239
 7058SOL    HW132807   0.364   1.762  12.673 -0.7308  1.7977 -0.5132
 7058SOL    HW232808   0.480   1.837  12.643 -0.7435 -1.1427 -1.2927
 7059SOL     OW32809   1.669   4.425  15.107  0.4692 -0.0508  0.3908
 7059SOL    HW132810   1.665   4.520  15.108 -0.0864 -0.0551 -1.3705
 7059SOL    HW232811   1.657   4.406  15.200 -0.9014 -0.1159  0.2010
 7060SOL     OW32812   1.121   2.011   2.940 -0.4671  0.3490 -0.2344
 7060SOL    HW132813   1.157   1.999   2.852  1.1764  1.2279  0.3269
 7060SOL    HW232814   1.189   2.063   2.982  0.6249  1.3068 -3.1781
 7061SOL     OW32815   2.428   1.177   7.458 -0.2602 -0.9419 -0.2279
 7061SOL    HW132816   2.425   1.082   7.464  2.1299 -0.9393  0.7404
 7061SOL    HW232817   2.400   1.191   7.368  0.6665  0.9307 -0.2254
 7062SOL     OW32818   3.814   0.557   2.539 -0.2769 -0.6203  0.3135
 7062SOL    HW132819   3.861   0.601   2.468 -1.4112 -0.1369 -0.1272
 7062SOL    HW232820   3.763   0.494   2.488  1.6707  0.0913 -2.5282
 7063SOL     OW32821   1.283   3.368   3.637 -0.6997  0.0071 -0.6652
 7063SOL    HW132822   1.250   3.393   3.723 -0.8592  0.1655 -0.7731
 7063SOL    HW232823   1.208   3.352   3.580  0.8790 -1.7128 -2.2975
 7064SOL     OW32824   1.544   4.157   7.235 -0.2725 -0.2547  0.0614
 7064SOL    HW132825   1.548   4.252   7.251  1.6164 -0.0861 -1.5015
 7064SOL    HW232826   1.463   4.128   7.193  0.0830 -0.7009 -0.3103
 7065SOL     OW32827   4.443   0.950   2.562  0.0442 -0.7369 -0.9206
 7065SOL    HW132828   4.424   0.937   2.655  1.0320 -0.2194 -0.6516
 7065SOL    HW232829   4.528   0.992   2.571 -0.5982 -0.2988  3.0310
 7066SOL     OW32830   3.364   3.789   1.371  0.6039  0.1548  0.7157
 7066SOL    HW132831   3.449   3.831   1.358 -0.7211  2.3295 -0.7897
 7066SOL    HW232832   3.361   3.732   1.295  2.6688 -1.8548  2.1305
 7067SOL     OW32833   1.700   4.620  14.221 -0.5898  0.2976  0.3256
 7067SOL    HW132834   1.702   4.607  14.316  2.3590  1.2965  0.4178
 7067SOL    HW232835   1.793   4.608  14.202 -0.9848 -0.9889 -0.7938
 7068SOL     OW32836   4.656   0.342   2.234 -0.0017  0.2677 -0.2752
 7068SOL    HW132837   4.681   0.434   2.235  0.6790  0.0541  2.2318
 7068SOL    HW232838   4.724   0.287   2.195  1.1008  1.1137  0.4662
 7069SOL     OW32839   2.810   1.603   3.803  0.2341  0.1774 -0.1800
 7069SOL    HW132840   2.831   1.567   3.717  0.2292 -0.8538  0.2541
 7069SOL    HW232841   2.871   1.548   3.853  0.4610 -0.8796 -1.6428
 7070SOL     OW32842   3.454   2.030   1.463  0.1163 -0.1484 -0.3042
 7070SOL    HW132843   3.513   2.079   1.520  1.0939 -0.2744 -1.2227
 7070SOL    HW232844   3.383   2.095   1.458 -0.5946 -0.9431 -0.5492
 7071SOL     OW32845   2.801   0.475   3.469  0.7393  0.3597  0.1347
 7071SOL    HW132846   2.738   0.501   3.401  0.8194  2.0861  0.7155
 7071SOL    HW232847   2.749   0.482   3.549  0.6221  1.5391 -0.0328
 7072SOL     OW32848   4.003   2.378  13.774  0.0714  0.4388  0.8940
 7072SOL    HW132849   3.983   2.290  13.740 -1.6034  0.9602  0.4903
 7072SOL    HW232850   4.064   2.412  13.709 -0.3673  0.3159  0.4135
 7073SOL     OW32851   4.281   0.574   5.528  0.0739  0.2335  0.3754
 7073SOL    HW132852   4.228   0.638   5.481  1.4381  0.9559 -0.1811
 7073SOL    HW232853   4.220   0.543   5.595  1.7131  1.0985  2.2822
 7074SOL     OW32854   4.077   4.609   3.454 -0.3738 -0.5644 -0.9626
 7074SOL    HW132855   4.110   4.519   3.447 -1.3754 -1.2739  3.1121
 7074SOL    HW232856   4.123   4.655   3.384 -0.1699 -0.9807 -1.1033
 7075SOL     OW32857   1.190   0.258  11.733  0.2886  0.9255 -0.1293
 7075SOL    HW132858   1.239   0.176  11.742 -2.2816 -0.5625  0.1253
 7075SOL    HW232859   1.233   0.315  11.797 -0.8266  0.7065  0.8097
 7076SOL     OW32860   1.077   4.162  10.104  0.2164  0.1227 -1.1055
 7076SOL    HW132861   0.994   4.186  10.145  0.9336 -2.3974  1.8437
 7076SOL    HW232862   1.145   4.223  10.133 -0.4456 -0.9752  2.6751
 7077SOL     OW32863   0.959   0.268   3.247 -0.1937  0.3432  0.0797
 7077SOL    HW132864   1.017   0.224   3.310 -0.7419 -0.3973  0.0617
 7077SOL    HW232865   0.959   0.202   3.178  1.8965  0.3473  0.0669
 7078SOL     OW32866   0.632   1.603  12.775  0.2199 -0.2155  0.2177
 7078SOL    HW132867   0.585   1.540  12.720  1.7328 -0.8146 -0.3856
 7078SOL    HW232868   0.588   1.685  12.755  2.1187  0.7767  0.0677
 7079SOL     OW32869   0.261   3.806   8.448 -0.2210  0.7882 -0.0490
 7079SOL    HW132870   0.344   3.812   8.494  0.3348  1.1113 -1.1103
 7079SOL    HW232871   0.258   3.885   8.394 -1.6096 -0.8347 -2.3858
 7080SOL     OW32872   3.626   2.774   5.857 -0.0310  0.3853 -0.1648
 7080SOL    HW132873   3.581   2.756   5.940  2.1843  1.8178  1.3487
 7080SOL    HW232874   3.636   2.869   5.850  0.7788  0.3534  0.5189
 7081SOL     OW32875   1.284   1.345   8.871 -0.0233  0.6707 -0.3820
 7081SOL    HW132876   1.270   1.285   8.944  0.0122  1.1679  0.0279
 7081SOL    HW232877   1.376   1.366   8.882  0.0216  0.2924 -0.0273
 7082SOL     OW32878   1.255   2.037  12.533  0.1699 -0.1356  0.7857
 7082SOL    HW132879   1.242   1.952  12.491  1.6234  0.0388 -0.0116
 7082SOL    HW232880   1.193   2.042  12.606 -0.5032  0.7124  0.1545
 7083SOL     OW32881   1.566   2.670   7.841 -0.5640  0.5325 -0.7109
 7083SOL    HW132882   1.536   2.583   7.867  0.0377  1.1492  2.0467
 7083SOL    HW232883   1.528   2.684   7.754  2.4830 -1.8402 -2.4259
 7084SOL     OW32884   0.996   3.725  15.688  0.1276 -0.1307 -0.9219
 7084SOL    HW132885   0.996   3.741  15.593  0.9139  1.9367 -0.5709
 7084SOL    HW232886   0.961   3.810  15.714 -1.3685 -0.9397 -0.2856
 7085SOL     OW32887   4.155   3.722   6.113 -0.1548  0.4359 -0.1344
 7085SOL    HW132888   4.107   3.754   6.190  1.8079 -0.9202  1.6617
 7085SOL    HW232889   4.206   3.647   6.143 -0.6080 -0.2093 -0.9887
 7086SOL     OW32890   4.459   3.406   2.597 -0.0267  0.0185 -0.9271
 7086SOL    HW132891   4.458   3.429   2.504 -4.0594  2.1842 -0.3393
 7086SOL    HW232892   4.551   3.429   2.611  0.5200 -1.7370 -1.6889
 7087SOL     OW32893   0.324   1.155   1.185 -0.7248  0.0877  0.3904
 7087SOL    HW132894   0.362   1.162   1.097 -0.1874 -1.8772  0.4618
 7087SOL    HW232895   0.240   1.112   1.172 -0.5189  0.1772 -1.2320
 7088SOL     OW32896   0.264   3.613  15.842  0.2822 -0.3758 -0.8873
 7088SOL    HW132897   0.184   3.597  15.891 -0.0982  1.1457 -1.0403
 7088SOL    HW232898   0.278   3.521  15.817 -0.1295  0.4100 -3.9595
 7089SOL     OW32899   1.603   0.271   9.732 -0.3951 -0.3995  0.0645
 7089SOL    HW132900   1.535   0.237   9.673 -0.6947 -2.0544  1.3493
 7089SOL    HW232901   1.682   0.220   9.717 -0.2656 -0.0921 -0.2666
 7090SOL     OW32902   0.806   1.922  12.799  0.1758 -0.2646  0.1833
 7090SOL    HW132903   0.760   1.975  12.864 -0.3958 -1.0109  0.3798
 7090SOL    HW232904   0.838   1.850  12.852 -0.5206 -1.6418 -1.2646
 7091SOL     OW32905   4.582   2.661   5.815  0.0016  0.1188  0.2973
 7091SOL    HW132906   4.663   2.631   5.773 -0.1437  0.3201 -0.1263
 7091SOL    HW232907   4.627   2.711   5.883 -0.0745  0.7635 -0.1327
 7092SOL     OW32908   2.834   1.946   7.604  0.3883  0.8208 -0.5583
 7092SOL    HW132909   2.891   1.875   7.572  1.1809  0.8690  0.7836
 7092SOL    HW232910   2.761   1.956   7.543 -0.1382 -2.5703 -0.4831
 7093SOL     OW32911   1.558   1.323   8.956  0.7646 -0.0817  0.3060
 7093SOL    HW132912   1.616   1.330   8.880 -1.2877  1.2301 -1.1451
 7093SOL    HW232913   1.601   1.379   9.021  3.0569  0.1855 -1.4336
 7094SOL     OW32914   3.015   0.496   5.727 -0.3065  0.3962 -0.2359
 7094SOL    HW132915   3.106   0.503   5.699 -0.1943  2.8960  0.8289
 7094SOL    HW232916   2.982   0.436   5.659 -1.3908  0.9349 -0.1903
 7095SOL     OW32917   3.688   0.709   8.081  0.0176 -0.0464  0.1890
 7095SOL    HW132918   3.677   0.798   8.113 -3.1279 -0.6868  0.9069
 7095SOL    HW232919   3.680   0.666   8.166  1.0261  1.2829  0.9508
 7096SOL     OW32920   1.247   4.128   8.071  0.3569 -0.7140  0.0950
 7096SOL    HW132921   1.163   4.172   8.087  0.4726 -0.4775  0.0480
 7096SOL    HW232922   1.228   4.040   8.102 -0.5053 -0.6557 -0.2558
 7097SOL     OW32923   1.303   2.571   8.191  0.1559  0.0652 -0.7892
 7097SOL    HW132924   1.235   2.618   8.143 -1.1909 -0.5943  0.4858
 7097SOL    HW232925   1.319   2.497   8.132  0.4002 -0.2651 -0.3111
 7098SOL     OW32926   3.330   2.974   8.797 -0.3915  0.0827 -0.4896
 7098SOL    HW132927   3.309   2.881   8.790 -1.7968  0.1999  2.2909
 7098SOL    HW232928   3.412   2.970   8.847 -0.9029 -2.9033  0.1153
 7099SOL     OW32929   3.967   4.176   6.134 -0.2111  0.1482  0.0150
 7099SOL    HW132930   4.036   4.242   6.141 -0.3003  0.2606 -0.1612
 7099SOL    HW232931   4.027   4.101   6.139 -0.8786 -0.4663 -1.1155
 7100SOL     OW32932   1.160   2.158   1.552  0.2414  0.2476 -0.2310
 7100SOL    HW132933   1.122   2.230   1.501  1.8496 -0.1593 -2.0369
 7100SOL    HW232934   1.165   2.191   1.641 -2.7302  3.4257 -1.2263
 7101SOL     OW32935   0.866   1.315  16.876  0.7353 -0.2775  0.2593
 7101SOL    HW132936   0.804   1.242  16.890 -0.1769  0.5370  0.4808
 7101SOL    HW232937   0.871   1.317  16.781 -0.8411  1.2316  0.2080
 7102SOL     OW32938   2.180   1.217   3.668  0.3844 -0.3699 -0.0334
 7102SOL    HW132939   2.170   1.206   3.763 -0.7348  1.2739  0.0224
 7102SOL    HW232940   2.166   1.310   3.653  2.2544  0.2269  1.8609
 7103SOL     OW32941   1.505   2.678   8.320 -0.3052 -0.0471  0.9576
 7103SOL    HW132942   1.429   2.645   8.272  1.8911  1.0229 -3.2910
 7103SOL    HW232943   1.576   2.627   8.281 -0.9719 -0.9557  0.9289
 7104SOL     OW32944   1.969   4.163   6.507 -0.2416 -0.1089  0.0029
 7104SOL    HW132945   1.953   4.248   6.549 -2.1651 -1.2675  1.5775
 7104SOL    HW232946   2.050   4.186   6.460 -0.2580  0.9413  0.4835
 7105SOL     OW32947   1.482   3.911   2.213 -0.4116 -0.6141 -0.3510
 7105SOL    HW132948   1.550   3.861   2.170 -0.0459 -1.3020  1.0353
 7105SOL    HW232949   1.431   3.929   2.134 -0.8770 -0.6348 -0.0628
 7106SOL     OW32950   1.455   1.573   0.063  0.0538 -0.6498 -0.2749
 7106SOL    HW132951   1.418   1.485   0.074 -2.8015  0.8333  1.9071
 7106SOL    HW232952   1.478   1.563  17.720  1.5867 -1.4262  0.1922
 7107SOL     OW32953   4.054   3.684   9.232  0.1276 -0.1272  0.0068
 7107SOL    HW132954   4.108   3.676   9.154 -0.4557 -0.5018 -0.3639
 7107SOL    HW232955   3.980   3.722   9.185  0.0013 -1.9220 -1.2424
 7108SOL     OW32956   4.034   2.056   3.864  0.1638 -0.4322  0.6179
 7108SOL    HW132957   3.955   2.085   3.820  1.0835  0.5264 -0.3938
 7108SOL    HW232958   4.028   2.089   3.954  0.5006 -1.0632  0.8755
 7109SOL     OW32959   1.037   0.972  13.320  0.3166  0.5606  0.4617
 7109SOL    HW132960   1.074   1.056  13.345  1.5626  0.4566 -1.0001
 7109SOL    HW232961   1.104   0.936  13.261  0.5070  1.5073  0.0977
 7110SOL     OW32962   4.263   1.649  10.706 -0.3514  0.2335 -0.1518
 7110SOL    HW132963   4.341   1.701  10.722 -2.5161  3.3772  0.3304
 7110SOL    HW232964   4.185   1.704  10.721 -1.4219 -1.1470 -0.6655
 7111SOL     OW32965   2.673   0.237  10.782  0.0813 -0.4685 -0.5264
 7111SOL    HW132966   2.587   0.252  10.821  0.0005 -1.7316 -0.2483
 7111SOL    HW232967   2.652   0.224  10.690 -0.4552  0.0856 -0.4846
 7112SOL     OW32968   2.007   4.102   8.382  0.0592 -0.2620 -0.2650
 7112SOL    HW132969   1.953   4.181   8.384 -1.4341 -1.2752 -0.8518
 7112SOL    HW232970   1.941   4.038   8.358  0.1072 -0.1324 -0.7354
 7113SOL     OW32971   3.329   2.813  16.022  0.0560  0.4712 -0.1611
 7113SOL    HW132972   3.390   2.740  16.014 -1.6399 -0.9742  0.1838
 7113SOL    HW232973   3.269   2.769  16.083 -0.6475  3.0187  0.9983
 7114SOL     OW32974   4.724   3.675   8.090  0.1844  0.0556 -0.1169
 7114SOL    HW132975   0.065   3.642   8.133 -0.0215 -4.5252 -3.2716
 7114SOL    HW232976   4.690   3.738   8.154  0.3603 -1.1553  1.1745
 7115SOL     OW32977   0.120   2.067   5.018 -0.3659  0.5133 -0.2607
 7115SOL    HW132978   0.055   2.099   4.956 -0.4343  0.6917 -0.0982
 7115SOL    HW232979   0.107   2.141   5.077 -1.3338  1.4448 -1.6448
 7116SOL     OW32980   2.926   4.168   0.384  0.4741 -0.2015  0.6436
 7116SOL    HW132981   2.951   4.205   0.300 -1.1253  1.1652  0.7680
 7116SOL    HW232982   2.859   4.234   0.403 -0.3921 -0.3469 -1.8670
 7117SOL     OW32983   2.080   1.182   8.368 -0.8419  0.0048  0.5515
 7117SOL    HW132984   2.173   1.162   8.379 -0.8677 -0.9324 -0.8751
 7117SOL    HW232985   2.052   1.129   8.293 -1.5452 -0.3760  1.0847
 7118SOL     OW32986   4.516   1.487   7.567 -0.5121  0.8398 -0.6058
 7118SOL    HW132987   4.535   1.433   7.490  2.5282  2.0821 -0.7247
 7118SOL    HW232988   4.605   1.521   7.582 -0.1095 -0.5534  0.2786
 7119SOL     OW32989   1.458   3.636   1.903  0.0402  0.0158  0.5826
 7119SOL    HW132990   1.446   3.720   1.947 -0.4078  0.2128  0.0862
 7119SOL    HW232991   1.418   3.658   1.819  1.3883 -1.5662 -0.4842
 7120SOL     OW32992   3.550   1.879   8.617  0.4014  0.0809  0.0546
 7120SOL    HW132993   3.526   1.834   8.536  1.2321 -0.8398  0.3173
 7120SOL    HW232994   3.463   1.893   8.655  0.4484  0.3746  0.0520
 7121SOL     OW32995   1.930   0.591   9.490 -0.9568  0.1563  0.2748
 7121SOL    HW132996   2.021   0.619   9.500 -0.9650  0.8553 -1.5814
 7121SOL    HW232997   1.951   0.506   9.528  1.1082  0.2970 -0.5840
 7122SOL     OW32998   3.942   3.322   4.723 -0.3261 -0.6984  0.0215
 7122SOL    HW132999   3.919   3.321   4.816 -1.6865 -2.4806 -0.3399
 7122SOL    HW233000   3.869   3.268   4.694 -0.2553 -0.6511 -0.2474
 7123SOL     OW33001   1.881   1.677  10.692  0.0738 -0.1897 -0.2812
 7123SOL    HW133002   1.972   1.648  10.692 -0.0819 -0.6736  0.6286
 7123SOL    HW233003   1.855   1.618  10.762  0.7988  0.0205  0.1626
 7124SOL     OW33004   1.054   2.301   3.940 -0.5349  0.4913 -0.0257
 7124SOL    HW133005   1.042   2.208   3.956  0.9270  0.7579  2.6262
 7124SOL    HW233006   0.976   2.305   3.885 -0.6829  2.4398  0.3065
 7125SOL     OW33007   2.919   2.003   6.694  0.5285  0.4918 -0.4390
 7125SOL    HW133008   2.988   2.057   6.732 -0.3302  0.6400  0.9029
 7125SOL    HW233009   2.879   1.968   6.773 -0.6890 -1.8872 -2.1114
 7126SOL     OW33010   1.591   4.378   9.243 -0.4762  0.4282  0.3156
 7126SOL    HW133011   1.622   4.288   9.235  1.7993  1.2308  0.0248
 7126SOL    HW233012   1.516   4.378   9.183  0.4481 -1.3067 -0.8184
 7127SOL     OW33013   1.987   0.724  12.376 -0.2664  0.0447 -0.2113
 7127SOL    HW133014   1.899   0.732  12.413  0.4913  3.9668  0.7330
 7127SOL    HW233015   2.037   0.773  12.441 -1.1893  0.6712  0.0315
 7128SOL     OW33016   2.653   2.389   8.495  0.2177  0.2331 -0.5632
 7128SOL    HW133017   2.674   2.314   8.551 -2.0854 -0.2782 -0.3728
 7128SOL    HW233018   2.580   2.426   8.546 -0.3958 -0.7827 -0.6984
 7129SOL     OW33019   1.386   3.945  15.479 -0.1724 -0.3353 -0.0282
 7129SOL    HW133020   1.359   3.918  15.391 -0.2237 -0.4852  0.0329
 7129SOL    HW233021   1.363   3.865  15.526 -0.9740  0.3192  0.7006
 7130SOL     OW33022   4.304   2.318  16.342 -0.5291  0.5999 -0.8980
 7130SOL    HW133023   4.323   2.365  16.423 -0.3121 -0.0841 -0.5554
 7130SOL    HW233024   4.371   2.348  16.281  1.2423 -1.5651  0.0387
 7131SOL     OW33025   3.125   4.420   1.688  0.2532 -0.2613  0.7003
 7131SOL    HW133026   3.117   4.473   1.767 -1.3496 -0.6824  0.8317
 7131SOL    HW233027   3.210   4.459   1.668  0.6443 -1.0157  0.9277
 7132SOL     OW33028   1.932   3.225   9.740 -0.0591 -0.0807  0.0009
 7132SOL    HW133029   2.015   3.213   9.787  0.3645  1.5660 -0.3157
 7132SOL    HW233030   1.874   3.179   9.801 -0.5725 -0.5432 -0.8440
 7133SOL     OW33031   1.837   4.210   4.957  0.0752 -0.1763  0.0913
 7133SOL    HW133032   1.880   4.151   5.019 -0.7510  0.0646  0.8947
 7133SOL    HW233033   1.889   4.289   4.973 -0.0749  0.0327 -0.4646
 7134SOL     OW33034   3.469   3.568  12.674 -0.5613 -0.6549 -0.0842
 7134SOL    HW133035   3.382   3.536  12.696 -0.3248 -2.1043 -1.2359
 7134SOL    HW233036   3.491   3.509  12.602 -1.4895 -0.5955 -0.4134
 7135SOL     OW33037   0.715   1.425   5.362 -0.0807  0.8023  0.0274
 7135SOL    HW133038   0.708   1.517   5.385 -1.3467  0.1280  2.3928
 7135SOL    HW233039   0.666   1.419   5.280 -0.9306  4.1901  0.2796
 7136SOL     OW33040   2.633   2.846  11.094  0.0244 -0.5385  0.2203
 7136SOL    HW133041   2.590   2.839  11.009 -2.1870 -1.5074  1.4402
 7136SOL    HW233042   2.635   2.755  11.123 -0.2281 -0.7216 -0.3310
 7137SOL     OW33043   1.012   4.346  17.043 -0.6224  0.0266 -0.1537
 7137SOL    HW133044   0.987   4.390  17.124  0.7863 -1.6458  1.1824
 7137SOL    HW233045   1.085   4.292  17.073 -2.4989 -1.4766  1.6875
 7138SOL     OW33046   1.730   2.801   8.502  0.2537 -0.2445 -0.0734
 7138SOL    HW133047   1.702   2.787   8.412 -2.9693 -0.4716  0.9346
 7138SOL    HW233048   1.819   2.765   8.502  1.2213  2.1999 -2.3442
 7139SOL     OW33049   3.094   3.274  17.025 -0.4735 -0.1222 -0.2222
 7139SOL    HW133050   3.175   3.237  16.990 -1.0110 -2.5844  1.1113
 7139SOL    HW233051   3.118   3.358  17.065 -1.9786 -0.6725  1.8304
 7140SOL     OW33052   4.076   0.825   3.327 -0.1679 -0.5561  0.0411
 7140SOL    HW133053   4.068   0.831   3.232 -0.1929  0.1881  0.0893
 7140SOL    HW233054   4.024   0.745   3.337 -0.5784 -0.3403 -0.3933
 7141SOL     OW33055   1.164   4.056   0.319 -0.2214 -0.1954  0.0501
 7141SOL    HW133056   1.121   4.099   0.245  1.6639 -0.1733 -1.0261
 7141SOL    HW233057   1.131   3.968   0.304  0.0759 -0.4124  0.6580
 7142SOL     OW33058   3.401   4.227   7.352  0.2430  0.1524 -0.7265
 7142SOL    HW133059   3.328   4.233   7.290 -2.3013  0.6977  2.2655
 7142SOL    HW233060   3.373   4.287   7.422  2.3549  1.0112 -0.6362
 7143SOL     OW33061   3.775   3.559   3.515 -0.0108 -0.6530  0.6625
 7143SOL    HW133062   3.860   3.553   3.559  0.1935 -0.5219  0.2952
 7143SOL    HW233063   3.779   3.644   3.470  0.8956 -0.6091  0.8204
 7144SOL     OW33064   1.645   2.587   3.147  0.5142  0.4847 -0.2518
 7144SOL    HW133065   1.626   2.677   3.121  1.0137  0.3569 -1.0510
 7144SOL    HW233066   1.645   2.533   3.068  0.0010  0.2170 -0.0707
 7145SOL     OW33067   0.983   3.385   7.317  0.1360 -0.9012 -0.1241
 7145SOL    HW133068   0.988   3.296   7.351 -1.1649 -0.6574  0.6957
 7145SOL    HW233069   1.076   3.406   7.309  0.1793 -0.5455  1.2854
 7146SOL     OW33070   0.667   3.141   1.833  0.1866 -0.1407 -0.3621
 7146SOL    HW133071   0.607   3.069   1.813 -2.4075  1.3512  2.1353
 7146SOL    HW233072   0.627   3.211   1.782  1.7672 -0.2695 -1.7779
 7147SOL     OW33073   1.060   0.999   2.058  0.3660  0.1846  0.1217
 7147SOL    HW133074   0.992   0.963   2.114  0.8658  1.2095  1.3913
 7147SOL    HW233075   1.067   1.092   2.080  1.4025 -0.6302  3.1660
 7148SOL     OW33076   4.345   4.418   9.204  0.0690 -0.4567  0.0190
 7148SOL    HW133077   4.359   4.453   9.292 -0.9055  0.6372 -0.2734
 7148SOL    HW233078   4.251   4.430   9.193 -0.1708 -2.1985  0.1309
 7149SOL     OW33079   1.717   3.851   2.782 -0.3969 -0.5992 -0.4131
 7149SOL    HW133080   1.628   3.840   2.748 -1.0055  2.1518  0.2754
 7149SOL    HW233081   1.707   3.796   2.860 -0.4400 -0.2845 -0.1941
 7150SOL     OW33082   3.886   2.677   1.492  0.2381  0.7741  0.1613
 7150SOL    HW133083   3.794   2.697   1.505  0.2645 -0.5322  2.3058
 7150SOL    HW233084   3.923   2.661   1.579  0.7609 -0.3606 -0.2635
 7151SOL     OW33085   0.346   1.550   7.849 -0.6927  0.4474  0.3173
 7151SOL    HW133086   0.411   1.620   7.842 -0.4564  0.1770 -0.1733
 7151SOL    HW233087   0.276   1.595   7.802  0.3900  0.3681 -1.3605
 7152SOL     OW33088   0.874   4.549   2.603  0.0699 -0.1497  0.3234
 7152SOL    HW133089   0.923   4.573   2.524 -1.9477 -0.6050 -1.0869
 7152SOL    HW233090   0.896   4.622   2.660 -0.8292 -1.1966  1.9973
 7153SOL     OW33091   3.094   2.841   6.409 -0.6646  0.1621  0.4384
 7153SOL    HW133092   3.142   2.921   6.428 -2.0182  1.7715 -2.9934
 7153SOL    HW233093   3.092   2.789   6.490  0.1960 -0.0502  0.3214
 7154SOL     OW33094   3.818   1.320   6.290 -0.2017 -0.6726 -0.5524
 7154SOL    HW133095   3.853   1.374   6.361  0.1145 -0.8945 -0.5362
 7154SOL    HW233096   3.880   1.317   6.218  3.2390 -0.3797  2.3559
 7155SOL     OW33097   0.935   4.231  16.381  0.2602 -0.6578 -0.9984
 7155SOL    HW133098   0.989   4.180  16.320 -0.5287 -0.6487 -1.6990
 7155SOL    HW233099   0.895   4.289  16.317  0.9715  1.3275  0.3374
 7156SOL     OW33100   3.454   1.156   9.604 -0.0005 -0.1278  0.4974
 7156SOL    HW133101   3.511   1.171   9.528 -2.3538 -1.2893 -1.5213
 7156SOL    HW233102   3.504   1.201   9.671  1.2296 -0.2655 -0.3221
 7157SOL     OW33103   3.868   0.919   2.374  0.2391  0.2194  0.1585
 7157SOL    HW133104   3.901   0.831   2.387 -0.0480  0.1603  0.4719
 7157SOL    HW233105   3.789   0.899   2.324  1.5944  0.3914 -2.0849
 7158SOL     OW33106   1.213   3.508   3.111 -0.6300 -0.4287  0.4306
 7158SOL    HW133107   1.264   3.580   3.074  0.0777 -1.1516 -0.0039
 7158SOL    HW233108   1.215   3.532   3.204 -0.0956 -0.4956  0.4364
 7159SOL     OW33109   1.247   2.897   5.085  0.2320  0.5713  0.5118
 7159SOL    HW133110   1.278   2.909   5.175  0.4678  0.1791  0.4840
 7159SOL    HW233111   1.159   2.931   5.102 -0.9431 -1.6690 -0.9987
 7160SOL     OW33112   4.433   1.212   3.128  0.0645 -0.0698 -0.2965
 7160SOL    HW133113   4.453   1.161   3.207  1.1501 -1.8182 -1.7007
 7160SOL    HW233114   4.515   1.220   3.080  0.5331  0.7014  0.6479
 7161SOL     OW33115   4.577   4.402  10.300 -0.3760 -0.3068  0.5594
 7161SOL    HW133116   4.647   4.351  10.340 -0.8193  0.1799  1.9447
 7161SOL    HW233117   4.610   4.411  10.210 -2.0468  0.8927  0.0532
 7162SOL     OW33118   0.584   3.111   3.234  0.6623 -0.3348  0.7993
 7162SOL    HW133119   0.587   3.205   3.249  0.4931 -0.2436  0.2754
 7162SOL    HW233120   0.664   3.099   3.183 -0.1463  1.2997 -0.8791
 7163SOL     OW33121   4.462   2.293   8.229  0.1301 -0.1058  0.1344
 7163SOL    HW133122   4.433   2.309   8.139 -2.3624 -1.7086  0.6522
 7163SOL    HW233123   4.398   2.225   8.246  0.4029 -0.0594  1.3474
 7164SOL     OW33124   4.630   0.126   1.861 -0.3982  0.4380 -0.7436
 7164SOL    HW133125   4.562   0.107   1.796 -1.7856 -0.2138  0.8937
 7164SOL    HW233126   4.605   0.065   1.931  0.1001 -1.9143 -2.6245
 7165SOL     OW33127   3.994   0.791   7.198  0.0677  0.1268  0.3402
 7165SOL    HW133128   3.941   0.763   7.123  0.2359 -0.9579  0.6261
 7165SOL    HW233129   4.075   0.822   7.159  0.1875 -0.3524  0.2053
 7166SOL     OW33130   3.401   0.436   8.819  0.1116  0.5678 -0.3864
 7166SOL    HW133131   3.439   0.453   8.905  0.2894  3.8734 -1.1174
 7166SOL    HW233132   3.465   0.374   8.784  0.2079 -0.6963  2.0458
 7167SOL     OW33133   2.764   1.924   2.813 -0.4510  0.5330 -0.2029
 7167SOL    HW133134   2.713   1.871   2.751  0.8530 -0.3750 -0.5216
 7167SOL    HW233135   2.854   1.908   2.783 -0.5257 -3.0708  1.4624
 7168SOL     OW33136   0.892   4.241   0.588  0.1320  0.2395 -0.2007
 7168SOL    HW133137   0.839   4.264   0.664  0.7933  0.7815  0.1010
 7168SOL    HW233138   0.902   4.324   0.541  1.1404  0.2447  0.0049
 7169SOL     OW33139   3.090   3.619   4.845  0.4701 -0.6563 -0.0185
 7169SOL    HW133140   3.023   3.607   4.912 -0.0962 -0.6843 -0.6010
 7169SOL    HW233141   3.152   3.559   4.887  0.7785  0.9864  1.8578
 7170SOL     OW33142   3.858   1.521   7.884  0.4860  0.1609 -0.1653
 7170SOL    HW133143   3.882   1.549   7.973  1.5266 -0.0133 -0.3976
 7170SOL    HW233144   3.893   1.602   7.847  0.5810  1.0657  1.8994
 7171SOL     OW33145   3.841   0.074   9.361 -0.3572 -0.3461  0.2813
 7171SOL    HW133146   3.874   0.023   9.287 -0.6561 -0.5023  0.2559
 7171SOL    HW233147   3.770   0.022   9.398  2.2723 -2.6064  2.1822
 7172SOL     OW33148   1.589   2.989  12.519  0.6008 -0.4590 -0.0194
 7172SOL    HW133149   1.623   3.074  12.548 -0.1940 -0.1185 -0.0775
 7172SOL    HW233150   1.530   2.972  12.592 -2.6759  1.0009 -2.3642
 7173SOL     OW33151   2.914   3.479  16.901  0.7854 -0.4209  0.1169
 7173SOL    HW133152   2.883   3.471  16.991  0.9714 -1.9475  0.0389
 7173SOL    HW233153   2.954   3.393  16.893  0.2027 -0.6693 -0.1465
 7174SOL     OW33154   4.100   4.056   5.868 -0.1415  0.7273 -0.1546
 7174SOL    HW133155   4.149   4.113   5.809 -0.3955  0.0284 -1.0351
 7174SOL    HW233156   4.012   4.075   5.834 -0.7571 -0.9450  0.5073
 7175SOL     OW33157   1.536   4.283   5.092 -0.4197 -0.0931  0.6345
 7175SOL    HW133158   1.584   4.201   5.104 -0.0796 -0.4396 -2.9113
 7175SOL    HW233159   1.560   4.307   5.002  2.6116  0.2179  1.5279
 7176SOL     OW33160   3.825   4.697  10.392 -0.2943 -0.0341  0.1834
 7176SOL    HW133161   3.918   4.716  10.399 -0.3711  0.5869 -0.5144
 7176SOL    HW233162   3.787   0.029  10.338  2.0928  1.9027  1.0455
 7177SOL     OW33163   4.668   3.759   1.229 -0.3531 -0.0404  0.9598
 7177SOL    HW133164   4.727   3.749   1.304  1.8641  0.5891 -0.6963
 7177SOL    HW233165   4.700   3.692   1.169  1.3134  2.6562 -1.1653
 7178SOL     OW33166   1.796   4.213  10.563 -0.2415  0.5370 -0.1765
 7178SOL    HW133167   1.722   4.260  10.525 -2.6296 -2.1646  1.1843
 7178SOL    HW233168   1.859   4.216  10.491 -0.3945 -1.7628 -0.3998
 7179SOL     OW33169   1.060   0.627  16.790 -0.0396  0.3723 -0.3016
 7179SOL    HW133170   1.133   0.671  16.833 -0.5744  1.3429 -0.3796
 7179SOL    HW233171   1.037   0.553  16.847 -0.6491  0.1465 -0.8427
 7180SOL     OW33172   1.948   4.648   6.661 -0.0016  0.1157 -0.4096
 7180SOL    HW133173   1.897   4.709   6.609 -0.4917 -1.0731 -1.3443
 7180SOL    HW233174   2.015   4.708   6.692  0.3467 -0.8063  0.6054
 7181SOL     OW33175   3.246   1.278   9.417  0.5911  0.2639 -0.4222
 7181SOL    HW133176   3.312   1.323   9.364  0.4208  0.8660 -0.1259
 7181SOL    HW233177   3.297   1.262   9.496 -2.7582 -1.2758  1.4334
 7182SOL     OW33178   4.342   1.447   4.289  0.3294 -0.3964 -0.2056
 7182SOL    HW133179   4.427   1.492   4.293  0.7301 -1.1391 -0.2785
 7182SOL    HW233180   4.360   1.365   4.243 -4.4855 -1.9849  0.8069
 7183SOL     OW33181   4.633   4.684  15.510 -0.0110 -0.3588 -0.4390
 7183SOL    HW133182   4.585   4.709  15.589 -1.0088  2.5171 -1.9697
 7183SOL    HW233183   4.637   0.022  15.451 -0.3283 -1.4866 -1.9146
 7184SOL     OW33184   1.786   4.145   9.098 -0.5894 -0.0800 -0.1579
 7184SOL    HW133185   1.782   4.240   9.083 -1.2556 -0.0992 -0.1022
 7184SOL    HW233186   1.872   4.128   9.060  0.4219 -0.4005  2.2821
 7185SOL     OW33187   0.281   2.296   2.129  0.0474 -0.0658  0.3045
 7185SOL    HW133188   0.231   2.220   2.161  0.7780  0.3294  2.3719
 7185SOL    HW233189   0.225   2.367   2.158 -0.0790  1.1165 -2.8467
 7186SOL     OW33190   1.191   4.153   0.570 -0.2386  0.4665 -0.2263
 7186SOL    HW133191   1.101   4.183   0.582 -0.3840  0.3227 -0.9376
 7186SOL    HW233192   1.185   4.144   0.475  1.3282 -1.0488 -0.1749
 7187SOL     OW33193   4.389   4.194   0.106 -0.1951  0.2965  0.0198
 7187SOL    HW133194   4.323   4.223   0.042  0.0157 -0.8378 -0.7064
 7187SOL    HW233195   4.394   4.262   0.173  0.7406 -1.5508  1.7958
 7188SOL     OW33196   0.513   0.838  15.174 -0.0827  0.0571 -0.0942
 7188SOL    HW133197   0.586   0.841  15.237 -1.9310 -3.4384  2.2220
 7188SOL    HW233198   0.563   0.858  15.095  0.1354 -0.7005 -0.1490
 7189SOL     OW33199   2.121   3.190   5.600 -0.6618 -0.4789  0.6214
 7189SOL    HW133200   2.202   3.143   5.621 -1.5216 -1.0505  2.6891
 7189SOL    HW233201   2.078   3.208   5.684 -1.3934 -1.8582  0.5430
 7190SOL     OW33202   4.386   1.083   0.907  0.0496 -0.0296  0.0802
 7190SOL    HW133203   4.329   1.159   0.919 -1.3880 -1.6797  3.7255
 7190SOL    HW233204   4.431   1.063   0.989  0.2728  0.7776  0.1526
 7191SOL     OW33205   0.632   2.565   1.350  0.1125  0.1726  0.2721
 7191SOL    HW133206   0.600   2.590   1.436 -1.0026 -0.0460 -0.0764
 7191SOL    HW233207   0.558   2.591   1.295  1.2446  0.6874 -1.0090
 7192SOL     OW33208   3.955   3.302   8.106 -0.0168  0.3651 -0.6277
 7192SOL    HW133209   3.912   3.384   8.127 -0.6063  0.2847 -1.5701
 7192SOL    HW233210   3.953   3.270   8.197 -2.0760  0.6910 -0.5611
 7193SOL     OW33211   2.581   2.653   5.892 -0.0443 -0.4701 -0.3980
 7193SOL    HW133212   2.551   2.683   5.978 -0.5336 -0.2438 -0.6460
 7193SOL    HW233213   2.494   2.628   5.860  0.6091  0.0414 -2.5417
 7194SOL     OW33214   2.915   0.609   9.775 -0.6458  0.3846 -0.2538
 7194SOL    HW133215   3.003   0.575   9.791 -0.3916  0.8363 -0.6653
 7194SOL    HW233216   2.894   0.645   9.861 -0.7930 -1.3243  0.4175
 7195SOL     OW33217   0.424   1.215   0.246 -0.1085 -0.1311 -0.0123
 7195SOL    HW133218   0.370   1.286   0.213 -1.2636 -1.6295 -1.3460
 7195SOL    HW233219   0.350   1.160   0.272  0.4402 -0.6008  0.5446
 7196SOL     OW33220   2.643   0.133   6.708 -0.4384  0.7464 -0.2768
 7196SOL    HW133221   2.547   0.130   6.707 -0.3924 -1.1880  0.4960
 7196SOL    HW233222   2.657   0.202   6.773 -0.1891  0.5491 -0.1196
 7197SOL     OW33223   1.694   4.208   6.723 -0.0803  0.6819  0.1919
 7197SOL    HW133224   1.673   4.182   6.813 -0.4833  2.4798  0.6170
 7197SOL    HW233225   1.759   4.140   6.704  0.3002  1.0705  0.0977
 7198SOL     OW33226   1.308   1.094   1.685  0.0239  0.1145  0.4799
 7198SOL    HW133227   1.361   1.024   1.723  1.1504  0.7321  0.0295
 7198SOL    HW233228   1.322   1.165   1.747 -0.7957  0.0795  0.7085
 7199SOL     OW33229   0.767   3.248   7.626  0.2473  0.2396  0.0731
 7199SOL    HW133230   0.739   3.281   7.712 -1.4757 -2.2852  0.4925
 7199SOL    HW233231   0.704   3.177   7.613  0.8251 -0.1056 -0.7733
 7200SOL     OW33232   4.550   4.694   1.190  0.3409 -0.2693 -0.5089
 7200SOL    HW133233   4.476   4.660   1.240 -0.6714 -0.5646 -2.1823
 7200SOL    HW233234   4.591   0.021   1.247 -1.0432  0.2973 -0.1467
 7201SOL     OW33235   0.457   0.893   5.737  0.6939 -0.1318 -0.5921
 7201SOL    HW133236   0.392   0.893   5.667  0.0987 -1.0174 -0.0428
 7201SOL    HW233237   0.408   0.951   5.795  0.2875  1.0914 -2.1810
 7202SOL     OW33238   3.577   4.399  10.165  0.1349 -0.0138 -0.4313
 7202SOL    HW133239   3.586   4.472  10.104  1.5054 -1.2453 -1.7188
 7202SOL    HW233240   3.650   4.414  10.226 -0.0553  2.4683 -0.8265
 7203SOL     OW33241   3.949   4.553   7.616  1.0135 -0.4633 -0.0989
 7203SOL    HW133242   3.858   4.556   7.587  0.7132  0.7196  0.9936
 7203SOL    HW233243   3.990   4.588   7.537  2.1721  3.2299  2.1836
 7204SOL     OW33244   0.383   3.183   5.162  0.1504 -0.2457 -0.4545
 7204SOL    HW133245   0.305   3.163   5.111 -0.5069 -1.7297  1.1492
 7204SOL    HW233246   0.434   3.251   5.117 -0.6034  0.7507  0.1835
 7205SOL     OW33247   2.598   3.179   4.281  0.5363 -0.0536  0.3943
 7205SOL    HW133248   2.569   3.168   4.372  0.0957 -4.5043 -0.2765
 7205SOL    HW233249   2.685   3.220   4.286  0.0291  0.9554  0.8717
 7206SOL     OW33250   1.147   0.343   6.183 -0.9351  0.3767 -0.0209
 7206SOL    HW133251   1.101   0.259   6.178 -0.0628 -0.1130  0.3220
 7206SOL    HW233252   1.135   0.360   6.276  0.1114  1.4987 -0.0984
 7207SOL     OW33253   4.700   1.204   1.404 -0.6231 -0.0335  0.1113
 7207SOL    HW133254   0.004   1.184   1.320 -0.0680  0.2653  0.3135
 7207SOL    HW233255   0.006   1.144   1.463 -0.2999 -0.8529 -0.9573
 7208SOL     OW33256   2.393   3.180   5.052  0.3039 -0.2076  0.0314
 7208SOL    HW133257   2.426   3.269   5.036  0.3029 -0.4827 -1.4518
 7208SOL    HW233258   2.401   3.169   5.147  0.9364  1.0639  0.1305
 7209SOL     OW33259   1.510   2.277  10.877  0.1216  0.3867  0.2623
 7209SOL    HW133260   1.550   2.363  10.889  1.3542 -0.2318  0.5824
 7209SOL    HW233261   1.538   2.227  10.954  1.8796  0.1328 -0.5320
 7210SOL     OW33262   0.092   2.662   5.717  0.4386  0.7726 -0.1730
 7210SOL    HW133263   0.149   2.684   5.643  0.2521 -1.4954 -0.9762
 7210SOL    HW233264   0.154   2.619   5.776 -0.3509  2.6211  1.9788
 7211SOL     OW33265   0.020   2.911   1.213 -0.6366 -0.0604 -0.0391
 7211SOL    HW133266   0.011   2.849   1.140 -3.3115 -3.6213  3.3213
 7211SOL    HW233267   4.677   2.880   1.255  0.1553 -1.6315  0.3387
 7212SOL     OW33268   3.701   4.274   3.415 -0.2682 -0.3573  0.0336
 7212SOL    HW133269   3.791   4.275   3.447  0.3547  0.8354 -1.7437
 7212SOL    HW233270   3.689   4.366   3.390  0.4703 -0.7215 -1.7061
 7213SOL     OW33271   3.325   3.624   9.502 -0.1193  0.3992  0.4246
 7213SOL    HW133272   3.245   3.596   9.546  0.0492  1.5197  1.4411
 7213SOL    HW233273   3.338   3.697   9.561  2.5813  0.9012 -0.7860
 7214SOL     OW33274   3.847   1.929   5.691 -0.1890  0.1160  0.0481
 7214SOL    HW133275   3.798   1.933   5.608  0.4888  2.4287 -0.2577
 7214SOL    HW233276   3.810   1.845   5.718  0.3341  0.2030  1.0282
 7215SOL     OW33277   4.179   0.237  12.912  0.1010 -0.0761 -0.2290
 7215SOL    HW133278   4.191   0.326  12.946  1.8269 -0.2217 -0.4403
 7215SOL    HW233279   4.123   0.260  12.838 -0.5914  0.7080  0.5383
 7216SOL     OW33280   1.393   0.347   5.046  0.3471 -0.3793  0.3330
 7216SOL    HW133281   1.334   0.327   4.973  1.4315  0.4495 -0.7741
 7216SOL    HW233282   1.396   0.267   5.098 -1.1997 -0.7911 -0.2285
 7217SOL     OW33283   0.317   3.633  16.227 -0.2058 -0.3266 -0.0003
 7217SOL    HW133284   0.393   3.690  16.215 -0.0206 -0.6637 -0.4180
 7217SOL    HW233285   0.245   3.684  16.190  1.4888  3.7829  2.4105
 7218SOL     OW33286   4.613   2.317   2.370 -0.6342  0.6660 -0.6205
 7218SOL    HW133287   4.584   2.256   2.438  0.9823 -0.2204 -0.7241
 7218SOL    HW233288   4.674   2.259   2.324 -0.0951  1.5863 -1.0596
 7219SOL     OW33289   1.675   2.903   7.888  0.5924  0.5964  0.0186
 7219SOL    HW133290   1.632   2.826   7.850  1.5823  0.6152 -1.1285
 7219SOL    HW233291   1.606   2.939   7.944 -0.9286  2.3818 -3.0325
 7220SOL     OW33292   4.529   2.068  14.191 -0.6471 -0.0820 -0.6031
 7220SOL    HW133293   4.586   2.013  14.136  0.6063  0.8485 -0.2422
 7220SOL    HW233294   4.458   2.078  14.128 -1.2214 -0.9532 -0.0884
 7221SOL     OW33295   0.314   1.303   1.465  0.3131  0.6708 -0.3104
 7221SOL    HW133296   0.231   1.347   1.482  0.3999 -0.1093  2.0910
 7221SOL    HW233297   0.291   1.214   1.437 -0.6423  0.8552 -0.0917
 7222SOL     OW33298   1.045   2.605   5.827 -0.2038 -0.2046  0.5243
 7222SOL    HW133299   0.965   2.574   5.871 -0.8226  0.7696  0.0913
 7222SOL    HW233300   1.053   2.688   5.874  0.8759  0.0732 -0.1613
 7223SOL     OW33301   0.078   3.171   9.795  0.1144  0.2356 -0.2002
 7223SOL    HW133302   0.153   3.133   9.750  0.9797 -0.5289  1.9172
 7223SOL    HW233303   0.012   3.144   9.730  0.9780  0.3144 -1.1078
 7224SOL     OW33304   0.598   1.976  11.422  0.0938 -0.2471  0.7440
 7224SOL    HW133305   0.670   2.025  11.382  0.8271 -1.8220  0.1469
 7224SOL    HW233306   0.646   1.899  11.453 -3.2564 -3.0654 -1.1208
 7225SOL     OW33307   0.353   3.859   5.481 -0.2133  0.3777 -0.3366
 7225SOL    HW133308   0.391   3.771   5.479 -0.4226  0.2879 -0.4388
 7225SOL    HW233309   0.355   3.889   5.390 -0.5617 -2.7222 -1.3871
 7226SOL     OW33310   0.711   2.246   1.502  0.1173 -0.2382 -0.1283
 7226SOL    HW133311   0.776   2.214   1.439  0.2892  0.8068 -0.4843
 7226SOL    HW233312   0.631   2.200   1.474  1.0573 -1.0069 -1.5555
 7227SOL     OW33313   3.043   3.902   8.944 -0.6388 -0.0176 -0.0128
 7227SOL    HW133314   2.982   3.946   8.886  0.7736 -1.5409 -2.6302
 7227SOL    HW233315   3.124   3.918   8.897  0.9621 -0.2224  2.6563
 7228SOL     OW33316   3.085   2.340   4.686  0.0804  0.2425 -0.4599
 7228SOL    HW133317   3.151   2.280   4.652 -1.4182  0.0541 -3.0699
 7228SOL    HW233318   3.109   2.409   4.625  2.1873  0.2129  0.3299
 7229SOL     OW33319   0.812   0.159  13.949  0.0289 -0.3652 -0.0718
 7229SOL    HW133320   0.904   0.174  13.970 -0.4181  0.7056  1.0410
 7229SOL    HW233321   0.782   0.135  14.036 -0.7779 -0.9852 -0.5156
 7230SOL     OW33322   4.498   3.740   7.118  0.4495 -0.4280 -0.3300
 7230SOL    HW133323   4.570   3.706   7.064 -0.2501 -0.5120 -1.2171
 7230SOL    HW233324   4.463   3.662   7.160  1.5490 -1.8952 -2.1299
 7231SOL     OW33325   1.410   1.472   4.757 -0.2048 -0.0142 -0.2048
 7231SOL    HW133326   1.485   1.528   4.740  0.0266 -0.5755 -1.0475
 7231SOL    HW233327   1.344   1.541   4.750 -1.1973 -0.8879  0.4254
 7232SOL     OW33328   1.474   1.145   9.338  0.0125 -0.6191 -0.0889
 7232SOL    HW133329   1.504   1.171   9.425 -0.6016 -0.0118 -0.0632
 7232SOL    HW233330   1.510   1.056   9.331  0.1068 -0.5030 -1.0243
 7233SOL     OW33331   3.734   2.246   6.959 -0.0965 -0.0035  0.3100
 7233SOL    HW133332   3.704   2.297   6.884 -1.1952  0.9157  1.3623
 7233SOL    HW233333   3.810   2.196   6.931  0.0045  1.0189 -1.2401
 7234SOL     OW33334   0.409   4.058   5.700  0.2968  0.3296  0.3270
 7234SOL    HW133335   0.399   3.980   5.646 -0.3394  1.1944 -0.8187
 7234SOL    HW233336   0.322   4.093   5.679 -0.1826 -0.7862  0.4499
 7235SOL     OW33337   3.891   3.467   9.683 -0.1430  0.2642 -0.3797
 7235SOL    HW133338   3.801   3.475   9.652  0.1027  1.6153 -0.7556
 7235SOL    HW233339   3.908   3.377   9.653 -0.5005  0.3607 -0.8714
 7236SOL     OW33340   4.735   3.526  16.284 -0.9080  0.1453  0.8170
 7236SOL    HW133341   4.674   3.588  16.325  0.8794  2.4431 -0.0099
 7236SOL    HW233342   4.715   3.438  16.314  0.4267 -0.6066 -0.5289
 7237SOL     OW33343   4.272   3.195   4.879 -0.1834 -0.5254  0.5388
 7237SOL    HW133344   4.235   3.109   4.856 -0.4663 -0.5593  1.1150
 7237SOL    HW233345   4.254   3.194   4.973  1.8808  1.8926  0.9402
 7238SOL     OW33346   4.635   4.261   7.549  0.5659 -0.3674 -0.1694
 7238SOL    HW133347   4.679   4.176   7.545  1.7797  0.2915 -0.7703
 7238SOL    HW233348   4.676   4.316   7.482 -1.4931 -0.7084 -1.7161
 7239SOL     OW33349   0.255   0.380   8.024  0.0984  0.2954 -0.5714
 7239SOL    HW133350   0.201   0.456   8.049  2.8515  2.4805 -1.2890
 7239SOL    HW233351   0.263   0.338   8.109 -0.6427  0.0084 -0.6375
 7240SOL     OW33352   0.280   3.883   9.396  0.0518 -0.0779 -0.7489
 7240SOL    HW133353   0.265   3.844   9.482  0.1324 -1.5606 -1.3879
 7240SOL    HW233354   0.207   3.836   9.354  0.2759 -0.7244 -0.4156
 7241SOL     OW33355   1.445   0.209   2.291  0.1448 -0.2951  0.4737
 7241SOL    HW133356   1.468   0.212   2.198 -1.6839  0.0361  0.0210
 7241SOL    HW233357   1.493   0.284   2.324 -0.4063 -1.6263  4.2257
 7242SOL     OW33358   2.734   2.665  13.250  0.5549 -0.4743 -0.7766
 7242SOL    HW133359   2.808   2.663  13.310 -0.2109 -0.3190  0.1634
 7242SOL    HW233360   2.754   2.739  13.193 -0.4151  1.4042  1.3246
 7243SOL     OW33361   2.906   0.262   5.606  0.2217  0.4572 -0.3085
 7243SOL    HW133362   2.986   0.233   5.562  0.4413  2.6230 -1.3907
 7243SOL    HW233363   2.861   0.283   5.524  0.0021 -0.6895 -0.4794
 7244SOL     OW33364   1.024   3.011   5.157  0.1843  0.1720  0.0857
 7244SOL    HW133365   0.962   3.010   5.229 -0.8206 -0.0748 -0.7826
 7244SOL    HW233366   1.060   3.099   5.168  0.1456 -0.0919  2.2638
 7245SOL     OW33367   1.598   1.036   4.209 -0.3371 -0.2487 -0.2030
 7245SOL    HW133368   1.577   0.952   4.249  0.0279 -0.9343 -1.4401
 7245SOL    HW233369   1.691   1.027   4.185 -0.6668 -1.2528 -1.0689
 7246SOL     OW33370   2.759   3.413   5.879  1.2877 -0.5021  0.4369
 7246SOL    HW133371   2.739   3.364   5.799  2.5331  2.2468 -1.5315
 7246SOL    HW233372   2.704   3.369   5.944  0.6552  0.2765  0.4267
 7247SOL     OW33373   3.720   1.008   9.774 -0.1400 -0.1588 -0.0891
 7247SOL    HW133374   3.692   0.926   9.735 -1.2777 -0.4133  1.2517
 7247SOL    HW233375   3.797   0.974   9.818  1.8086  1.4437 -2.2875
 7248SOL     OW33376   3.743   2.485   3.931  0.7041  0.2820  0.0475
 7248SOL    HW133377   3.681   2.420   3.899  1.7674 -1.4318  1.4803
 7248SOL    HW233378   3.700   2.567   3.906  0.6065  0.8153  1.9963
 7249SOL     OW33379   3.833   3.002   3.776 -0.0280 -0.5357  0.0642
 7249SOL    HW133380   3.745   3.022   3.808  0.2914 -2.5131  2.1552
 7249SOL    HW233381   3.840   3.074   3.713 -2.9588  1.3892  1.8704
 7250SOL     OW33382   3.296   3.092   7.105  0.0446 -0.4354 -0.4330
 7250SOL    HW133383   3.256   3.130   7.027 -0.2831  1.4317  0.6423
 7250SOL    HW233384   3.220   3.061   7.154 -0.4612  1.5153  0.0317
 7251SOL     OW33385   2.832   3.276   6.589 -0.2250  0.4614  0.2289
 7251SOL    HW133386   2.846   3.199   6.643 -1.5959  1.6881  2.3612
 7251SOL    HW233387   2.749   3.252   6.548 -0.7044  0.6091  1.1001
 7252SOL     OW33388   2.565   2.467   1.989  0.1291 -0.6157 -0.5907
 7252SOL    HW133389   2.501   2.538   1.987 -0.3133 -0.9998 -0.0025
 7252SOL    HW233390   2.520   2.393   2.031 -0.3308 -0.8862 -1.5580
 7253SOL     OW33391   2.926   2.170   5.883 -0.0657  0.2706  0.0871
 7253SOL    HW133392   2.980   2.233   5.930 -0.8033  0.6834  0.3848
 7253SOL    HW233393   2.868   2.229   5.834 -0.7824 -0.7022 -0.2416
 7254SOL     OW33394   1.983   4.614   3.886  1.1199  0.2099 -0.3771
 7254SOL    HW133395   2.035   4.642   3.961  1.6378  1.6047 -1.2613
 7254SOL    HW233396   2.043   4.593   3.815  1.1103 -0.2885 -0.2330
 7255SOL     OW33397   0.386   0.640   0.043  0.2742  0.5025  0.1685
 7255SOL    HW133398   0.390   0.677   0.131 -1.8377  0.9630  0.0627
 7255SOL    HW233399   0.470   0.673   0.010  0.5263  0.0136  0.3251
 7256SOL     OW33400   0.816   2.474   1.639 -0.2871 -0.1796 -0.1111
 7256SOL    HW133401   0.790   2.465   1.731  1.5006 -1.2912  0.2931
 7256SOL    HW233402   0.763   2.409   1.593 -0.0960 -0.1423 -0.3808
 7257SOL     OW33403   3.086   1.283   2.396  0.4626 -0.7347 -0.4150
 7257SOL    HW133404   3.080   1.188   2.408 -0.1725 -0.6996 -0.4857
 7257SOL    HW233405   3.118   1.313   2.481  0.0679 -1.3032 -0.0686
 7258SOL     OW33406   0.417   3.022   6.574 -0.7053 -0.1900  0.6667
 7258SOL    HW133407   0.477   2.949   6.589 -1.0843  0.0101  3.0775
 7258SOL    HW233408   0.449   3.090   6.632 -3.7170  0.0831  2.0146
 7259SOL     OW33409   1.842   2.170   3.077  0.0355 -0.1191  0.1278
 7259SOL    HW133410   1.896   2.145   3.001 -1.3537 -0.1899 -0.8374
 7259SOL    HW233411   1.882   2.246   3.119 -0.4409 -1.6625  3.3576
 7260SOL     OW33412   1.017   2.505   7.440  0.1908 -0.4881  0.1535
 7260SOL    HW133413   1.005   2.577   7.501 -0.0100 -2.0098  1.8878
 7260SOL    HW233414   1.112   2.500   7.437  0.2484  0.5479  0.2495
 7261SOL     OW33415   3.009   0.951  10.243 -0.5072 -0.6374 -0.0646
 7261SOL    HW133416   3.040   1.038  10.264  0.0413 -0.4200 -1.7736
 7261SOL    HW233417   3.094   0.908  10.251 -1.5678 -2.4270  1.7986
 7262SOL     OW33418   0.733   0.512  12.219  0.0749  0.2490  0.1353
 7262SOL    HW133419   0.712   0.605  12.211  0.3881  0.3816  0.8858
 7262SOL    HW233420   0.829   0.514  12.224 -0.0261 -0.2228  2.2318
 7263SOL     OW33421   2.470   4.729   2.768 -0.0189  0.1537 -0.2578
 7263SOL    HW133422   2.473   4.714   2.673 -0.9723  2.8698 -0.7045
 7263SOL    HW233423   2.375   4.729   2.780 -0.1489  2.3647 -1.2631
 7264SOL     OW33424   0.524   4.250  14.803 -0.8279 -0.2652 -0.2261
 7264SOL    HW133425   0.537   4.255  14.709  3.5493 -1.8890  0.2630
 7264SOL    HW233426   0.545   4.157  14.812  1.6682  0.0411 -3.1979
 7265SOL     OW33427   3.083   3.244   6.379  0.5059 -0.0246  0.2326
 7265SOL    HW133428   3.038   3.186   6.440 -0.0513 -1.6704 -1.7239
 7265SOL    HW233429   3.067   3.210   6.291 -0.3812  0.7859  0.0820
 7266SOL     OW33430   0.475   0.199  17.607 -0.0928 -0.4436 -0.3298
 7266SOL    HW133431   0.559   0.153  17.609 -0.5175 -1.1898  0.6614
 7266SOL    HW233432   0.489   0.243  17.691  1.6810  0.6618 -1.2031
 7267SOL     OW33433   4.682   2.469   7.652 -0.5649  0.2384  0.1337
 7267SOL    HW133434   0.015   2.467   7.715 -2.1087 -2.6115  1.7474
 7267SOL    HW233435   4.607   2.501   7.703  0.9799  0.0378  2.4966
 7268SOL     OW33436   0.122   1.128   8.001  0.4869 -0.2151 -0.2487
 7268SOL    HW133437   0.203   1.125   8.051  0.0281 -0.2446  0.4884
 7268SOL    HW233438   0.132   1.223   7.995 -0.4381 -0.1132 -0.1446
 7269SOL     OW33439   1.936   0.983   7.877 -0.3108  0.5546 -0.3971
 7269SOL    HW133440   1.843   0.959   7.881  0.1801 -1.3187  0.0395
 7269SOL    HW233441   1.914   1.072   7.902  0.0821  0.4824  0.2103
 7270SOL     OW33442   4.330   0.343   6.019 -0.1593 -0.2356 -0.0195
 7270SOL    HW133443   4.372   0.262   5.989  3.9317  1.3629  1.3660
 7270SOL    HW233444   4.287   0.320   6.101 -0.1999  1.0541  0.3309
 7271SOL     OW33445   0.459   2.770   5.680  0.2247  0.2403  0.0999
 7271SOL    HW133446   0.533   2.772   5.620 -0.2301  1.6168 -0.4203
 7271SOL    HW233447   0.388   2.758   5.617 -0.7943 -3.0686  1.8653
 7272SOL     OW33448   2.504   2.105   5.369 -0.2576  0.1878 -0.1524
 7272SOL    HW133449   2.448   2.162   5.421  0.1234  1.5785 -1.2915
 7272SOL    HW233450   2.477   2.026   5.416  0.7043 -0.6966 -1.1036
 7273SOL     OW33451   2.550   1.746  13.315 -0.3965  0.4901  0.1681
 7273SOL    HW133452   2.520   1.835  13.328 -0.4617  0.1689  2.1017
 7273SOL    HW233453   2.481   1.704  13.264  0.6018 -0.7079 -0.2270
 7274SOL     OW33454   0.383   1.180   3.620 -0.4999  0.0328 -0.2607
 7274SOL    HW133455   0.302   1.214   3.658  0.6305  0.5253  1.6949
 7274SOL    HW233456   0.452   1.195   3.685 -0.4930  1.1388 -0.5115
 7275SOL     OW33457   4.319   0.017   5.581  0.1231 -0.1622  0.0945
 7275SOL    HW133458   4.283   4.676   5.622 -0.7794 -0.8677 -2.0131
 7275SOL    HW233459   4.335   4.723   5.492 -0.9898  0.0203 -0.1693
 7276SOL     OW33460   3.063   2.719   8.102  0.1162  0.7361  0.0545
 7276SOL    HW133461   3.145   2.768   8.113  1.2960 -1.2726  0.1708
 7276SOL    HW233462   3.043   2.702   8.194 -2.8478  0.1531 -0.6880
 7277SOL     OW33463   2.283   2.624   6.732  0.1455 -0.1977 -0.5324
 7277SOL    HW133464   2.235   2.691   6.683 -0.8440  0.0662  0.8090
 7277SOL    HW233465   2.229   2.609   6.810  0.4060 -3.1318 -0.8863
 7278SOL     OW33466   3.391   0.690   8.714  0.0200  0.1288 -0.5541
 7278SOL    HW133467   3.485   0.703   8.698  0.3043  2.4438  3.1411
 7278SOL    HW233468   3.382   0.599   8.742  0.1257  0.0560 -0.7519
 7279SOL     OW33469   0.866   0.686   2.757 -0.0723 -0.4184  0.0389
 7279SOL    HW133470   0.799   0.674   2.690 -1.6191 -0.6707  1.6235
 7279SOL    HW233471   0.854   0.776   2.784  4.3738 -0.2975  1.6812
 7280SOL     OW33472   4.364   2.376   7.639  0.4885  0.0896  0.2132
 7280SOL    HW133473   4.431   2.396   7.705 -1.2908 -0.6282  2.2117
 7280SOL    HW233474   4.303   2.447   7.660  1.8570  1.4926 -0.5471
 7281SOL     OW33475   1.994   3.423   3.052 -0.5978  0.0403 -0.0793
 7281SOL    HW133476   1.948   3.431   3.136  1.4708  2.0833  0.8528
 7281SOL    HW233477   2.060   3.492   3.051 -1.1932  0.5895 -1.7449
 7282SOL     OW33478   0.572   2.565  15.733  0.2418 -0.7486 -0.0748
 7282SOL    HW133479   0.650   2.621  15.725 -0.3569  0.3102  1.5771
 7282SOL    HW233480   0.511   2.638  15.742  2.8697  1.4960 -0.5610
 7283SOL     OW33481   3.288   2.137   4.467  0.6006  0.0667  0.6217
 7283SOL    HW133482   3.350   2.156   4.396  2.0155 -2.4073  1.1901
 7283SOL    HW233483   3.204   2.125   4.422  0.6729 -0.3944  0.6126
 7284SOL     OW33484   2.746   0.752   6.274 -0.2191 -0.2319 -0.5160
 7284SOL    HW133485   2.745   0.814   6.348  0.2891  0.4282 -1.0634
 7284SOL    HW233486   2.831   0.711   6.290  1.1292  3.0264  0.6353
 7285SOL     OW33487   1.268   2.449  11.187  0.2914  0.2005 -0.5150
 7285SOL    HW133488   1.352   2.473  11.225 -1.8298  1.0161  3.7120
 7285SOL    HW233489   1.209   2.524  11.181 -0.1053 -0.2558 -2.4642
 7286SOL     OW33490   1.230   1.774   6.013 -0.0412  0.5303 -0.8626
 7286SOL    HW133491   1.216   1.680   6.026  0.3706  1.0331  3.2007
 7286SOL    HW233492   1.147   1.816   6.032 -0.2099  0.9869 -2.5524
 7287SOL     OW33493   0.052   0.995   1.679 -0.2242 -0.6013  0.1541
 7287SOL    HW133494   0.000   1.040   1.745  1.0161  1.3546 -0.2275
 7287SOL    HW233495   0.023   0.904   1.688  0.6560 -0.9028 -0.0573
 7288SOL     OW33496   4.504   3.788   3.184 -0.3853 -0.0509 -0.5003
 7288SOL    HW133497   4.524   3.703   3.223 -0.0276  0.4538  0.4264
 7288SOL    HW233498   4.424   3.820   3.226 -1.2539 -1.3429 -1.1795
 7289SOL     OW33499   2.626   1.140   0.914  0.8911  0.0121 -0.1262
 7289SOL    HW133500   2.607   1.166   1.004  0.3723 -0.9344  0.0329
 7289SOL    HW233501   2.543   1.170   0.878  0.6260  0.7555  1.1120
 7290SOL     OW33502   2.776   2.508   4.822  0.3576 -0.9819 -0.2194
 7290SOL    HW133503   2.695   2.497   4.772  1.1150 -0.7724 -1.5208
 7290SOL    HW233504   2.742   2.521   4.910 -2.7158 -0.4715 -1.4900
 7291SOL     OW33505   3.659   2.754   2.459  0.1352 -0.1047  0.6027
 7291SOL    HW133506   3.714   2.716   2.527 -0.2901 -0.7794  0.5666
 7291SOL    HW233507   3.672   2.681   2.399 -0.0090  0.7290 -0.4441
 7292SOL     OW33508   2.610   2.021   6.580 -0.8127 -0.2094  0.7283
 7292SOL    HW133509   2.695   1.979   6.571  0.6927  2.4002  2.7845
 7292SOL    HW233510   2.619   2.089   6.513 -0.9756 -0.5200  0.3884
 7293SOL     OW33511   1.141   2.156   1.181 -0.0412  0.0507  0.1889
 7293SOL    HW133512   1.183   2.200   1.107 -3.2627  2.3681 -0.2344
 7293SOL    HW233513   1.198   2.195   1.247 -0.5439  0.0597  0.6181
 7294SOL     OW33514   1.400   3.466   4.291 -0.8427 -0.2525  0.4627
 7294SOL    HW133515   1.326   3.443   4.348 -1.4149 -0.0604 -0.2062
 7294SOL    HW233516   1.354   3.482   4.209  0.7293 -2.2331 -0.8239
 7295SOL     OW33517   0.457   3.196   7.776  0.4148 -0.2499 -0.0633
 7295SOL    HW133518   0.465   3.149   7.694 -0.1158 -0.0679 -0.2190
 7295SOL    HW233519   0.366   3.222   7.768  0.1626 -2.0436 -2.7176
 7296SOL     OW33520   4.270   3.547   4.120 -0.1686 -0.1850 -0.1014
 7296SOL    HW133521   4.345   3.498   4.153  1.5035  0.6425 -2.6238
 7296SOL    HW233522   4.247   3.593   4.200 -1.3808  1.4677 -1.4093
 7297SOL     OW33523   1.974   0.368   5.023  0.2739  0.6582  0.1900
 7297SOL    HW133524   1.887   0.374   4.985  0.5383 -1.6286 -0.7924
 7297SOL    HW233525   1.964   0.286   5.071  4.0520  0.4173  0.5604
 7298SOL     OW33526   1.889   0.073   6.194 -0.5382 -0.4167 -0.5304
 7298SOL    HW133527   1.923   4.722   6.210 -0.7773 -0.2744  0.7584
 7298SOL    HW233528   1.802   0.047   6.163 -0.9267  1.5742 -1.0526
 7299SOL     OW33529   3.782   2.349   2.312  0.2097 -0.8327 -0.3557
 7299SOL    HW133530   3.870   2.331   2.278 -0.7363  0.9349 -3.7410
 7299SOL    HW233531   3.784   2.443   2.294  0.2445 -1.3452 -3.0401
 7300SOL     OW33532   0.243   1.464  16.460  0.2855  0.1660  0.3197
 7300SOL    HW133533   0.296   1.536  16.495  0.2846  0.5887 -0.5541
 7300SOL    HW233534   0.215   1.503  16.377  0.6121  0.4328  0.3366
 7301SOL     OW33535   1.002   0.442  10.036  0.0620 -0.0575  0.2248
 7301SOL    HW133536   0.914   0.414  10.063 -0.0518  0.3555  0.2808
 7301SOL    HW233537   1.000   0.534  10.011 -1.2236  0.0924  0.8880
 7302SOL     OW33538   2.117   1.274   5.945  0.9758  0.2564  0.4674
 7302SOL    HW133539   2.105   1.299   6.036  0.0082  0.6316  0.2316
 7302SOL    HW233540   2.064   1.195   5.937  0.4648  0.5151  1.3116
 7303SOL     OW33541   0.847   1.222   5.485 -0.1193  0.6796 -0.1561
 7303SOL    HW133542   0.843   1.150   5.421 -0.5198 -1.6805  2.5044
 7303SOL    HW233543   0.802   1.282   5.426  0.4924 -0.8608 -2.2196
 7304SOL     OW33544   3.000   1.472  10.006  0.4063  0.1204 -0.0111
 7304SOL    HW133545   3.054   1.428   9.940 -0.3358 -1.3295  0.3303
 7304SOL    HW233546   3.061   1.503  10.072 -0.0562  1.6790 -0.3102
 7305SOL     OW33547   3.368   1.109   0.878 -0.4758  0.3382 -0.0270
 7305SOL    HW133548   3.414   1.188   0.849 -1.6907  1.3872  0.9053
 7305SOL    HW233549   3.377   1.047   0.806 -0.8047 -0.4608  0.6204
 7306SOL     OW33550   2.823   1.795   5.675 -0.1205  0.0999  0.6022
 7306SOL    HW133551   2.890   1.762   5.734 -0.6124  0.5450  1.4087
 7306SOL    HW233552   2.751   1.825   5.730  0.2099  1.1519  0.4524
 7307SOL     OW33553   2.896   2.492   6.171 -0.1286 -0.5009 -0.7554
 7307SOL    HW133554   2.909   2.444   6.253 -1.2040 -0.2977 -0.4699
 7307SOL    HW233555   2.946   2.572   6.187  0.3829 -0.7925 -0.8918
 7308SOL     OW33556   2.889   2.967   2.609  0.0814  0.3144 -0.1061
 7308SOL    HW133557   2.863   2.878   2.632  0.7599 -0.5025 -2.5588
 7308SOL    HW233558   2.942   2.939   2.534 -2.3757  3.8005 -3.1041
 7309SOL     OW33559   0.451   1.178   7.119 -0.0018 -0.1318  0.3076
 7309SOL    HW133560   0.479   1.087   7.114  0.8058  0.0713  1.1016
 7309SOL    HW233561   0.357   1.169   7.102 -0.1119  0.9198  0.3479
 7310SOL     OW33562   3.294   1.934  15.618 -0.3112 -0.0161 -0.2909
 7310SOL    HW133563   3.243   1.915  15.539 -1.6192 -0.9103  0.7728
 7310SOL    HW233564   3.360   1.865  15.612 -0.3499 -0.0728 -0.0625
 7311SOL     OW33565   1.352   0.715   8.643  0.1206  0.3799  0.5992
 7311SOL    HW133566   1.331   0.808   8.640  3.7032  1.1133 -1.5123
 7311SOL    HW233567   1.430   0.715   8.588  0.3562 -4.0210  0.8994
 7312SOL     OW33568   2.906   2.696   2.669 -0.8086  0.4093  0.3651
 7312SOL    HW133569   2.877   2.605   2.674 -1.9901  0.7660  0.2058
 7312SOL    HW233570   2.993   2.693   2.707 -0.4993 -0.7011 -0.4283
 7313SOL     OW33571   2.917   1.311   7.501  0.2827 -0.4721  0.0708
 7313SOL    HW133572   2.831   1.341   7.471  0.8305  0.9533 -0.0889
 7313SOL    HW233573   2.964   1.313   7.418  1.0581  0.0988  0.5240
 7314SOL     OW33574   4.113   2.805   4.223  0.2242 -0.3290 -0.4865
 7314SOL    HW133575   4.091   2.748   4.150  1.6404 -2.2422  0.5769
 7314SOL    HW233576   4.029   2.807   4.269  1.3479 -0.9181  1.5899
 7315SOL     OW33577   3.878   0.706   8.450  0.3504  0.7282  0.0184
 7315SOL    HW133578   3.813   0.650   8.407  0.0465  1.0159  0.1043
 7315SOL    HW233579   3.931   0.746   8.381  0.5086  1.8107  0.7706
 7316SOL     OW33580   0.502   1.732   1.988 -0.6439 -0.3433  0.3044
 7316SOL    HW133581   0.492   1.712   1.894 -0.0725 -2.2854  0.6547
 7316SOL    HW233582   0.542   1.819   1.982 -0.3449 -0.5879 -1.3187
 7317SOL     OW33583   1.284   0.813   8.268 -0.0940  0.3365 -0.0298
 7317SOL    HW133584   1.333   0.851   8.194  0.1927  0.6592  0.3233
 7317SOL    HW233585   1.196   0.796   8.234  0.4566  0.3190 -1.4641
 7318SOL     OW33586   3.064   2.561  10.503  0.5697 -0.0160 -0.8150
 7318SOL    HW133587   3.134   2.626  10.506 -1.9042  2.5331  1.1817
 7318SOL    HW233588   3.066   2.532  10.411 -1.5027  1.6023 -1.3718
 7319SOL     OW33589   1.693   2.469   6.591 -0.2522  0.2009  0.3664
 7319SOL    HW133590   1.683   2.374   6.586 -1.5970  0.3841 -0.2244
 7319SOL    HW233591   1.633   2.498   6.523  1.7474  2.3547 -0.5053
 7320SOL     OW33592   2.361   2.325  13.905  0.4061 -0.5344 -0.0656
 7320SOL    HW133593   2.404   2.384  13.843  2.1787 -1.1451  0.5762
 7320SOL    HW233594   2.310   2.264  13.851 -0.8509  0.9792 -0.5946
 7321SOL     OW33595   3.902   3.616   6.037 -0.2694 -0.0622 -0.0583
 7321SOL    HW133596   3.957   3.551   5.993 -0.9308  0.0095 -1.0055
 7321SOL    HW233597   3.954   3.695   6.021 -0.0829 -0.3451 -0.8484
 7322SOL     OW33598   2.519   3.829   2.381  0.5777 -0.1753 -0.2440
 7322SOL    HW133599   2.523   3.771   2.457 -2.3618 -0.4606 -0.3001
 7322SOL    HW233600   2.442   3.799   2.333 -0.3730  0.4303  0.8996
 7323SOL     OW33601   3.835   0.354   9.306  0.3782  0.1451  0.1587
 7323SOL    HW133602   3.808   0.262   9.313  0.6752  0.1636  1.5832
 7323SOL    HW233603   3.888   0.348   9.226 -1.1252  2.3820 -0.9787
 7324SOL     OW33604   3.413   3.999   3.751 -0.2510 -0.2176  0.0176
 7324SOL    HW133605   3.454   4.035   3.673 -2.0973  0.8355 -0.4618
 7324SOL    HW233606   3.394   4.074   3.807  2.4222  2.0959 -2.2060
 7325SOL     OW33607   4.711   1.717   2.009  0.0186  0.5818 -0.4766
 7325SOL    HW133608   4.645   1.767   2.056 -1.2738 -0.8317 -0.7848
 7325SOL    HW233609   4.651   1.675   1.948  0.2300  0.1074 -0.3624
 7326SOL     OW33610   3.412   0.511   5.400  0.1095 -0.5960 -0.2229
 7326SOL    HW133611   3.470   0.519   5.324 -1.1814 -2.1869 -1.3853
 7326SOL    HW233612   3.379   0.421   5.392  2.2772 -1.2759 -1.5356
 7327SOL     OW33613   1.918   1.328   5.148 -0.4509  0.1815  0.5886
 7327SOL    HW133614   1.884   1.240   5.167 -0.4811 -0.1029 -0.7259
 7327SOL    HW233615   1.886   1.350   5.060  1.7697 -2.0321 -0.8154
 7328SOL     OW33616   2.659   1.863  16.427  0.2561 -0.0622 -0.3026
 7328SOL    HW133617   2.644   1.909  16.345 -1.9196 -1.3025 -0.5757
 7328SOL    HW233618   2.704   1.785  16.394  1.6643  1.1039 -1.1747
 7329SOL     OW33619   3.072   3.979   2.015 -0.0380 -0.3118  0.5183
 7329SOL    HW133620   3.052   4.035   1.941 -0.3341  0.0137  0.8449
 7329SOL    HW233621   3.030   4.022   2.090  1.4366  3.5673 -0.8800
 7330SOL     OW33622   0.594   1.665   4.925  0.3298 -0.0944  0.9409
 7330SOL    HW133623   0.680   1.624   4.937  0.8345  0.6094 -0.1698
 7330SOL    HW233624   0.613   1.757   4.944  0.9219  0.6393 -3.0696
 7331SOL     OW33625   2.181   0.502   0.168  0.3820  0.6235  0.0018
 7331SOL    HW133626   2.159   0.585   0.125  0.5316  0.2918 -0.7246
 7331SOL    HW233627   2.207   0.530   0.256  1.3213  1.3164 -0.4923
 7332SOL     OW33628   3.781   3.025   0.722  0.4924  0.4273 -0.1212
 7332SOL    HW133629   3.731   3.107   0.713 -0.1156  0.1686  0.9311
 7332SOL    HW233630   3.720   2.961   0.687  1.4450 -1.0598  0.9682
 7333SOL     OW33631   1.932   1.373   4.815  0.0233 -0.1457  0.1160
 7333SOL    HW133632   1.955   1.389   4.723  1.1643  2.1133  0.8051
 7333SOL    HW233633   1.961   1.283   4.830  0.5313 -0.3056 -1.8556
 7334SOL     OW33634   0.088   1.685   8.408  0.2520  0.2548 -0.0011
 7334SOL    HW133635   0.113   1.629   8.482 -1.5940  0.1014  0.5071
 7334SOL    HW233636   0.130   1.763   8.444 -0.3332 -0.3177  1.9474
 7335SOL     OW33637   1.989   2.929   8.319 -0.3575  0.5964  1.1282
 7335SOL    HW133638   1.898   2.909   8.298 -0.2901  2.1795 -0.7157
 7335SOL    HW233639   2.031   2.846   8.340 -2.7715 -0.2322  2.5210
 7336SOL     OW33640   2.433   1.261   5.076  0.2805  0.1077  0.2894
 7336SOL    HW133641   2.495   1.291   5.144 -0.0391 -1.3651  1.2228
 7336SOL    HW233642   2.363   1.207   5.111 -0.7028  0.0273 -1.8022
 7337SOL     OW33643   0.329   0.020   4.371 -0.1662  0.3982  0.0770
 7337SOL    HW133644   0.386   0.084   4.327  1.4556 -1.5954 -0.6853
 7337SOL    HW233645   0.364   0.034   4.459 -0.2373 -1.5652  0.4161
 7338SOL     OW33646   0.487   0.220   8.979 -0.3980  0.2335  0.2386
 7338SOL    HW133647   0.511   0.312   8.976 -0.3513  0.2187  0.1701
 7338SOL    HW233648   0.409   0.229   9.034 -1.0661  4.1520 -1.4237
 7339SOL     OW33649   1.615   3.872   8.584  0.3879 -0.4645 -0.2595
 7339SOL    HW133650   1.675   3.921   8.640 -0.4918 -1.0726  1.2039
 7339SOL    HW233651   1.567   3.807   8.636  0.7870 -0.4575  0.1116
 7340SOL     OW33652   4.487   2.836   7.934  0.1410 -0.4122 -0.1261
 7340SOL    HW133653   4.476   2.863   8.025  3.0255  1.2850 -0.2838
 7340SOL    HW233654   4.398   2.858   7.907  0.3338 -0.8663 -1.1393
 7341SOL     OW33655   3.492   1.467   5.053 -0.3582  0.2193 -0.1264
 7341SOL    HW133656   3.468   1.401   5.117  1.3429 -1.0939 -0.8551
 7341SOL    HW233657   3.545   1.523   5.109 -1.6585  0.8303  0.5017
 7342SOL     OW33658   3.468   0.634   5.993  0.3519  0.0644  0.6400
 7342SOL    HW133659   3.395   0.690   6.021 -0.6975 -0.7336 -0.4485
 7342SOL    HW233660   3.494   0.674   5.909  1.2898 -1.7808  0.0499
 7343SOL     OW33661   3.998   0.026   3.710 -0.0379 -0.1286 -0.1445
 7343SOL    HW133662   4.017   4.707   3.635  0.7032  1.1448 -0.9245
 7343SOL    HW233663   4.031   0.115   3.696 -0.1477  0.0482  0.7250
 7344SOL     OW33664   3.317   3.295   1.811  0.0662 -0.0255  0.1254
 7344SOL    HW133665   3.238   3.335   1.848  1.5729  1.5070  1.7040
 7344SOL    HW233666   3.309   3.202   1.792  2.0709 -0.1777  0.0357
 7345SOL     OW33667   4.648   0.606   8.218  0.2833  0.0167  0.1612
 7345SOL    HW133668   4.611   0.694   8.212 -0.8304 -0.5868 -1.9617
 7345SOL    HW233669   4.629   0.578   8.307  1.3132 -0.6681  0.1612
 7346SOL     OW33670   0.042   2.385   6.675 -0.3676 -0.0884  0.1592
 7346SOL    HW133671   0.086   2.319   6.728 -0.4650 -0.1417  0.1752
 7346SOL    HW233672   0.081   2.464   6.711 -1.1003  0.1019  0.5439
 7347SOL     OW33673   3.698   3.869  15.658  0.3820  0.0361 -0.4676
 7347SOL    HW133674   3.776   3.923  15.670  0.1885  0.1324  0.3695
 7347SOL    HW233675   3.635   3.930  15.696  4.1819  2.8569  1.3134
 7348SOL     OW33676   1.738   0.300  12.262  0.2000 -0.3364  0.1783
 7348SOL    HW133677   1.790   0.222  12.244 -0.1828 -0.3230 -0.9668
 7348SOL    HW233678   1.804   0.362  12.294 -1.3918  0.4727  1.9115
 7349SOL     OW33679   3.991   4.308   1.130  0.0516 -0.3851  0.0266
 7349SOL    HW133680   4.040   4.263   1.200 -1.7254  0.1425  1.5998
 7349SOL    HW233681   3.961   4.239   1.072 -1.2513  0.8117 -0.7157
 7350SOL     OW33682   2.775   2.224  13.950 -0.2228  0.0060 -1.0726
 7350SOL    HW133683   2.837   2.263  13.888 -0.9788 -0.9372 -2.4487
 7350SOL    HW233684   2.764   2.139  13.908  1.3458 -0.9454  0.4632
 7351SOL     OW33685   2.395   4.190   8.804  0.4888  0.1609 -0.0741
 7351SOL    HW133686   2.317   4.227   8.766  1.5839  0.9199 -1.5606
 7351SOL    HW233687   2.439   4.143   8.733  0.4282 -1.6814  1.0790
 7352SOL     OW33688   3.774   2.506   7.681 -0.5570 -0.0022 -0.4971
 7352SOL    HW133689   3.710   2.438   7.702 -0.4612  0.4514  1.1996
 7352SOL    HW233690   3.724   2.562   7.622  0.3656 -0.6905 -1.9502
 7353SOL     OW33691   0.526   3.065   1.455 -0.6997  0.3786 -0.0439
 7353SOL    HW133692   0.572   3.105   1.529  0.8530 -1.3034 -0.1305
 7353SOL    HW233693   0.447   3.119   1.463 -0.9866 -0.4375  2.4998
 7354SOL     OW33694   0.355   0.588   1.011  0.6754  0.5711  0.0689
 7354SOL    HW133695   0.387   0.644   0.941  1.8757  0.2898  0.3890
 7354SOL    HW233696   0.389   0.500   0.992 -0.9647 -0.2629  0.9288
 7355SOL     OW33697   4.343   0.078  12.726 -0.1989  0.2481  0.2642
 7355SOL    HW133698   4.433   0.107  12.744 -0.6749  1.0369  1.3684
 7355SOL    HW233699   4.287   0.110  12.796 -0.7135 -0.4742  0.1752
 7356SOL     OW33700   1.713   4.118   2.322  0.5187 -0.1452  0.0824
 7356SOL    HW133701   1.649   4.086   2.258  1.3089  0.0519 -0.8270
 7356SOL    HW233702   1.674   4.203   2.342  0.4755 -0.0881 -0.2435
 7357SOL     OW33703   0.046   0.018   4.885 -0.0308  0.2400  0.3326
 7357SOL    HW133704   4.734   0.003   4.965 -2.2318  1.1904 -0.8377
 7357SOL    HW233705   0.134   0.026   4.921  0.6369 -1.4844 -0.9293
 7358SOL     OW33706   4.388   0.868  10.965  0.8625  0.1043 -0.3099
 7358SOL    HW133707   4.324   0.797  10.970  1.0787 -0.1980 -1.9042
 7358SOL    HW233708   4.350   0.941  11.015  2.9702  0.6743  0.4642
 7359SOL     OW33709   2.759   2.003   1.471  0.0584  0.0996 -0.2800
 7359SOL    HW133710   2.670   2.038   1.477 -0.1316 -0.6007  0.9571
 7359SOL    HW233711   2.794   2.047   1.393 -3.4422 -0.9485 -2.4425
 7360SOL     OW33712   3.385   3.294   8.862  0.2737 -0.1965  0.1853
 7360SOL    HW133713   3.320   3.236   8.902 -2.2909  2.1623 -0.6006
 7360SOL    HW233714   3.427   3.316   8.945 -1.3096  1.5362  0.5249
 7361SOL     OW33715   0.788   1.337   3.639 -0.2253 -0.2679 -0.3057
 7361SOL    HW133716   0.733   1.317   3.562  1.5855 -1.0827 -1.3686
 7361SOL    HW233717   0.778   1.432   3.630  0.1164 -0.2452 -0.4271
 7362SOL     OW33718   2.428   2.112   7.686  0.3992 -0.1224 -0.0927
 7362SOL    HW133719   2.424   2.161   7.604  1.4043  1.8241  1.0155
 7362SOL    HW233720   2.490   2.164   7.738 -0.3885  0.7534 -0.0407
 7363SOL     OW33721   3.717   2.214  11.504 -0.3661  0.8068 -0.5722
 7363SOL    HW133722   3.685   2.134  11.463 -0.3777 -0.4293  1.8262
 7363SOL    HW233723   3.790   2.235  11.446  1.3268 -0.0591  1.2472
 7364SOL     OW33724   3.151   3.183   2.403  0.1486 -0.8483 -0.1236
 7364SOL    HW133725   3.069   3.226   2.426  1.3495  1.1534  0.4223
 7364SOL    HW233726   3.178   3.115   2.464 -0.4255 -1.1531 -0.2082
 7365SOL     OW33727   4.519   1.251   4.699 -0.3186  0.7015 -0.1698
 7365SOL    HW133728   4.476   1.166   4.707  2.2998 -0.9267 -3.5310
 7365SOL    HW233729   4.438   1.302   4.696 -0.6746 -0.0027 -2.2725
 7366SOL     OW33730   1.574   4.641   9.896 -0.2644  0.2416 -1.0480
 7366SOL    HW133731   1.625   4.580   9.949  0.1644  1.2073 -0.3465
 7366SOL    HW233732   1.633   4.716   9.899 -0.4226  0.2924  0.7175
 7367SOL     OW33733   0.079   3.649  17.310 -0.0749  0.1807 -0.3023
 7367SOL    HW133734   0.003   3.695  17.345  0.7782 -1.6153  3.8257
 7367SOL    HW233735   0.139   3.723  17.304 -0.0226  0.2336  1.0015
 7368SOL     OW33736   1.662   0.884   7.431  0.4762 -0.2822 -0.4870
 7368SOL    HW133737   1.666   0.889   7.335 -1.5732  0.8498 -0.5318
 7368SOL    HW233738   1.577   0.927   7.444 -0.3479 -1.3423 -2.4563
 7369SOL     OW33739   1.626   2.443   7.638  0.2560 -0.2642 -0.2165
 7369SOL    HW133740   1.683   2.393   7.579 -0.1892 -3.4636  2.0519
 7369SOL    HW233741   1.640   2.523   7.587 -1.6463 -0.2559 -0.7275
 7370SOL     OW33742   0.847   0.889   3.354 -0.1352 -0.3266  0.0961
 7370SOL    HW133743   0.813   0.925   3.436 -0.5865 -1.6457  0.4894
 7370SOL    HW233744   0.813   0.952   3.290 -1.6643 -0.5496  0.6750
 7371SOL     OW33745   1.607   3.283   8.908 -0.1634 -0.0603 -0.4414
 7371SOL    HW133746   1.618   3.201   8.956 -0.2560 -1.3630 -2.6213
 7371SOL    HW233747   1.665   3.261   8.835  0.6715 -1.3000  0.5959
 7372SOL     OW33748   1.314   1.269   3.710  0.3816 -0.5386 -0.2866
 7372SOL    HW133749   1.337   1.314   3.629  1.1330  2.4048  1.5321
 7372SOL    HW233750   1.250   1.206   3.677 -0.8532 -0.2093  1.4551
 7373SOL     OW33751   4.259   0.938   5.923  0.0763  0.0945  0.2306
 7373SOL    HW133752   4.181   0.982   5.956 -0.3694 -0.1135 -0.5213
 7373SOL    HW233753   4.321   1.008   5.939  0.4973 -0.1387 -0.3729
 7374SOL     OW33754   1.781   0.878   8.822 -0.0412 -0.0087 -0.4774
 7374SOL    HW133755   1.850   0.906   8.882 -0.6798  1.8906 -0.6450
 7374SOL    HW233756   1.719   0.951   8.824  0.7994  0.7049 -0.9170
 7375SOL     OW33757   0.846   1.426   5.658  0.0048  0.4514  0.2408
 7375SOL    HW133758   0.840   1.352   5.598 -1.9626  0.9234 -0.1401
 7375SOL    HW233759   0.765   1.473   5.638 -1.1779 -0.7133  2.3103
 7376SOL     OW33760   1.962   1.589   9.616  0.1007 -0.2509  0.3462
 7376SOL    HW133761   2.033   1.527   9.633  0.4948  1.3031  4.2385
 7376SOL    HW233762   1.880   1.543   9.630  0.0753 -0.0161  0.9321
 7377SOL     OW33763   1.455   1.979   8.584 -0.0890  0.0800  0.0327
 7377SOL    HW133764   1.400   1.906   8.553 -0.1867 -0.2485  0.9762
 7377SOL    HW233765   1.461   1.961   8.678  0.7084 -1.6700 -0.3548
 7378SOL     OW33766   0.783   1.104   0.853  0.7395 -0.2216 -0.2521
 7378SOL    HW133767   0.745   1.108   0.765 -0.8060 -0.7143  0.3831
 7378SOL    HW233768   0.807   1.196   0.866  0.8805 -0.1319 -1.1196
 7379SOL     OW33769   3.606   0.076  15.115  0.3703  0.5939 -0.4069
 7379SOL    HW133770   3.618   0.170  15.122 -1.0627  0.8387 -1.1926
 7379SOL    HW233771   3.515   0.070  15.146  0.7641 -1.1111  0.4180
 7380SOL     OW33772   3.272   0.761   8.290  0.5256  0.0153 -0.3019
 7380SOL    HW133773   3.314   0.842   8.260  0.3723  1.1718  2.5961
 7380SOL    HW233774   3.201   0.752   8.227  0.1285  0.2729  0.1147
 7381SOL     OW33775   1.982   2.702   8.040 -0.2505  0.1225  0.4868
 7381SOL    HW133776   2.074   2.678   8.053 -0.6156 -0.9110  1.1724
 7381SOL    HW233777   1.985   2.728   7.947 -0.0499  1.1769  0.7926
 7382SOL     OW33778   4.418   4.030   8.654 -0.4854  0.2710  0.7093
 7382SOL    HW133779   4.448   4.028   8.562  1.2975 -1.4853  1.3151
 7382SOL    HW233780   4.336   4.077   8.637 -2.3739 -2.3009  2.7966
 7383SOL     OW33781   4.109   1.945   3.599  0.6331  0.0410 -0.0213
 7383SOL    HW133782   4.195   1.906   3.608  0.4847 -0.2249  0.2273
 7383SOL    HW233783   4.105   2.000   3.677  2.1763  0.7892 -0.4627
 7384SOL     OW33784   2.608   1.348   5.303  0.1676 -0.5887  0.3751
 7384SOL    HW133785   2.560   1.319   5.380 -1.2189 -0.1423 -0.3184
 7384SOL    HW233786   2.667   1.409   5.348  0.9902 -2.7371  2.2155
 7385SOL     OW33787   1.464   0.133   2.553 -0.2342 -0.8225 -0.4457
 7385SOL    HW133788   1.466   0.119   2.458  2.0979 -1.0060 -0.3676
 7385SOL    HW233789   1.513   0.059   2.590 -0.2330  0.7761  2.7554
 7386SOL     OW33790   1.052   2.706   2.291  0.3106 -0.0034  0.0711
 7386SOL    HW133791   0.985   2.726   2.357 -1.9554  0.5668 -2.4071
 7386SOL    HW233792   1.034   2.767   2.220 -0.0508  1.3983  1.3579
 7387SOL     OW33793   2.967   2.568   8.665 -0.5979 -0.5140  0.4634
 7387SOL    HW133794   2.990   2.480   8.693 -1.6729 -0.8071  0.4312
 7387SOL    HW233795   3.014   2.623   8.728  0.1893 -0.2113 -0.3875
 7388SOL     OW33796   3.364   1.908   4.716 -0.1683  0.4893  0.6754
 7388SOL    HW133797   3.294   1.967   4.743 -0.7749  0.9236 -1.8904
 7388SOL    HW233798   3.440   1.945   4.762  0.4587 -0.0399  0.0610
 7389SOL     OW33799   0.861   2.591  16.296  0.0749  0.5908  0.0034
 7389SOL    HW133800   0.857   2.665  16.357  0.1538  1.5178 -1.1026
 7389SOL    HW233801   0.941   2.616  16.249  0.7998  0.1674  1.0188
 7390SOL     OW33802   4.453   3.519   6.866 -0.2888 -0.4796 -0.9901
 7390SOL    HW133803   4.545   3.519   6.892 -0.3892 -3.1553 -0.6576
 7390SOL    HW233804   4.429   3.610   6.884 -0.5328 -1.3425  3.0584
 7391SOL     OW33805   2.498   1.261   2.660  0.4241  0.4766  0.0707
 7391SOL    HW133806   2.530   1.186   2.710  0.1348  1.0083  1.0467
 7391SOL    HW233807   2.410   1.226   2.647  1.2732 -1.3900 -0.7654
 7392SOL     OW33808   0.584   0.288  11.343  0.3812 -0.7701 -0.5611
 7392SOL    HW133809   0.587   0.277  11.248 -2.8421 -0.5199 -0.6958
 7392SOL    HW233810   0.522   0.360  11.356  1.4098  0.1929 -1.0786
 7393SOL     OW33811   1.214   4.201   8.894  0.3746 -0.3738  0.6420
 7393SOL    HW133812   1.232   4.108   8.910 -0.3847 -1.2501 -3.6842
 7393SOL    HW233813   1.135   4.209   8.949 -0.6161 -1.8047 -0.5829
 7394SOL     OW33814   0.629   0.708   0.293 -0.3118 -0.5319 -0.5553
 7394SOL    HW133815   0.545   0.724   0.337  0.1574 -1.3155  0.6198
 7394SOL    HW233816   0.648   0.798   0.267 -1.4733  0.3075  1.4353
 7395SOL     OW33817   2.133   4.699   1.047 -0.2887 -0.0067  0.4551
 7395SOL    HW133818   2.218   4.731   1.017 -0.5185  0.0670 -0.1116
 7395SOL    HW233819   2.166   4.661   1.129 -1.2306 -2.9315 -0.5061
 7396SOL     OW33820   3.475   1.138   1.492  0.3832  0.1092  0.4996
 7396SOL    HW133821   3.434   1.224   1.495  1.7390  0.8224 -1.3792
 7396SOL    HW233822   3.400   1.078   1.494  1.3475 -1.0502  1.9276
 7397SOL     OW33823   2.668   0.001   9.195  0.2998 -0.3979 -0.3702
 7397SOL    HW133824   2.618   0.028   9.272  0.5211 -0.8524 -0.0684
 7397SOL    HW233825   2.647   4.646   9.188  0.7674 -0.6637  1.6645
 7398SOL     OW33826   4.569   2.467  15.317  0.1410 -0.2045 -0.2799
 7398SOL    HW133827   4.659   2.458  15.347 -0.4118  2.1851  2.0592
 7398SOL    HW233828   4.574   2.431  15.228 -0.5116 -2.0148  0.4074
 7399SOL     OW33829   4.716   1.395   3.571 -0.7209 -0.9348  0.2130
 7399SOL    HW133830   4.676   1.454   3.635  0.5618 -0.7473  0.8452
 7399SOL    HW233831   4.669   1.396   3.488  0.1989 -2.7624 -0.3371
 7400SOL     OW33832   0.887   3.993  15.697 -0.7157 -0.2367 -0.0002
 7400SOL    HW133833   0.927   4.031  15.618  0.9412  0.1633  1.0342
 7400SOL    HW233834   0.796   4.020  15.688 -0.0420  0.8716 -3.4148
 7401SOL     OW33835   1.773   3.436   8.614  0.2356 -0.0216 -0.0625
 7401SOL    HW133836   1.798   3.345   8.633 -0.5374 -0.6921 -2.1865
 7401SOL    HW233837   1.845   3.477   8.567  0.8530 -1.7266 -0.6218
 7402SOL     OW33838   3.304   2.505  17.583  0.0439  0.0011 -0.1739
 7402SOL    HW133839   3.224   2.547  17.552  0.6610  0.5142 -1.0797
 7402SOL    HW233840   3.280   2.412  17.585 -1.0009  0.3455  2.9718
 7403SOL     OW33841   3.146   4.155   5.773 -0.4739 -0.0991  0.3550
 7403SOL    HW133842   3.057   4.121   5.765 -1.1069  1.3265  1.3358
 7403SOL    HW233843   3.132   4.243   5.809  1.8526 -0.1082  1.3089
 7404SOL     OW33844   2.993   2.397   2.178  0.0612  0.0662 -0.2198
 7404SOL    HW133845   3.039   2.318   2.152 -3.4603 -0.8023 -3.7829
 7404SOL    HW233846   3.013   2.403   2.272  0.4176 -1.5279 -0.1988
 7405SOL     OW33847   4.519   4.173  14.287 -0.3398 -0.8455  0.4215
 7405SOL    HW133848   4.585   4.181  14.356  0.6361  0.9394 -0.7168
 7405SOL    HW233849   4.567   4.124  14.220 -0.4230 -1.8704  1.1141
 7406SOL     OW33850   3.121   1.037   7.399  0.2655  0.2650 -0.1376
 7406SOL    HW133851   3.077   1.108   7.352 -0.7210 -0.1350  0.1670
 7406SOL    HW233852   3.211   1.049   7.368  0.2838 -0.1690 -0.2497
 7407SOL     OW33853   4.677   1.780   1.104 -0.2272  0.0659 -0.5350
 7407SOL    HW133854   4.659   1.844   1.035  2.6221  0.9099 -0.5194
 7407SOL    HW233855   0.034   1.765   1.093  0.1191  0.7863  1.4266
 7408SOL     OW33856   0.614   3.082   8.483 -0.3556  0.5167 -0.0790
 7408SOL    HW133857   0.663   3.036   8.415 -2.1388 -2.2265  0.5116
 7408SOL    HW233858   0.633   3.175   8.470  1.1110 -0.1403 -2.8630
 7409SOL     OW33859   0.623   4.619  12.681  0.2627  0.3206  0.4773
 7409SOL    HW133860   0.593   4.700  12.640 -1.5148 -3.2609 -5.3148
 7409SOL    HW233861   0.693   4.656  12.736  0.9484 -0.9323  0.4513
 7410SOL     OW33862   3.599   4.396   2.948  0.9126  0.2003  0.2727
 7410SOL    HW133863   3.604   4.304   2.974  1.9072 -0.0017 -0.6121
 7410SOL    HW233864   3.535   4.430   3.010  0.2093 -2.0508  0.7714
 7411SOL     OW33865   2.635   2.038  17.137  0.5601  0.2313 -0.1852
 7411SOL    HW133866   2.643   1.954  17.092 -1.3401 -0.9262  1.6634
 7411SOL    HW233867   2.709   2.082  17.094 -0.8512  2.0933 -0.7367
 7412SOL     OW33868   0.130   2.616  16.053  0.0855 -0.8888  0.1612
 7412SOL    HW133869   0.077   2.656  15.985 -1.5591 -2.0003  0.7870
 7412SOL    HW233870   0.205   2.593  15.999 -0.5281  2.7487 -2.2451
 7413SOL     OW33871   4.499   0.097  11.881  0.1630  0.3534  0.0971
 7413SOL    HW133872   4.592   0.084  11.867  0.0077  0.3824 -1.0277
 7413SOL    HW233873   4.466   0.009  11.865 -0.3194  1.0250 -2.6387
 7414SOL     OW33874   2.717   2.556   8.771 -1.0158 -0.0970 -0.2384
 7414SOL    HW133875   2.738   2.648   8.786  0.6893 -0.5236  0.0096
 7414SOL    HW233876   2.742   2.545   8.679  0.3890 -1.5605  0.3237
 7415SOL     OW33877   3.402   2.161   3.733  0.0989 -0.1676  0.2907
 7415SOL    HW133878   3.402   2.110   3.814  3.1793 -0.6910 -0.0210
 7415SOL    HW233879   3.450   2.101   3.676 -0.3675  1.1193 -1.4592
 7416SOL     OW33880   0.246   4.485   8.441  0.4767  0.0630 -0.6342
 7416SOL    HW133881   0.191   4.495   8.518 -1.2006 -1.7158 -1.5975
 7416SOL    HW233882   0.312   4.547   8.472 -1.3048  1.9878 -0.6811
 7417SOL     OW33883   2.734   4.693   6.144 -0.1655 -0.1582 -0.5443
 7417SOL    HW133884   2.746   4.602   6.172 -0.0937 -0.0113 -0.1024
 7417SOL    HW233885   2.824   4.720   6.162 -0.4418 -0.1377  0.8389
 7418SOL     OW33886   3.356   4.581   8.465 -0.2776  0.1379 -0.0671
 7418SOL    HW133887   3.326   4.631   8.542  0.9210  0.3639  0.2634
 7418SOL    HW233888   3.342   4.493   8.500 -0.2757  0.2041  0.1007
 7419SOL     OW33889   3.570   1.474  11.182  0.3198 -0.4973 -0.4232
 7419SOL    HW133890   3.622   1.517  11.250 -1.2988  2.0394 -0.8287
 7419SOL    HW233891   3.483   1.507  11.202  0.2946 -0.2380 -0.9770
 7420SOL     OW33892   1.048   1.592   3.307 -0.3331 -0.0435  0.5876
 7420SOL    HW133893   1.073   1.674   3.350 -0.3714  0.0216  0.4863
 7420SOL    HW233894   1.133   1.548   3.303 -0.6380 -0.6922  1.2345
 7421SOL     OW33895   3.786   1.471   5.683 -0.3063 -0.2859  1.0224
 7421SOL    HW133896   3.757   1.556   5.718 -0.1423  0.5221 -0.7789
 7421SOL    HW233897   3.702   1.435   5.655 -1.0055  0.2292  2.4499
 7422SOL     OW33898   2.435   2.229   5.703  0.9002 -0.5252 -0.1923
 7422SOL    HW133899   2.401   2.252   5.617  3.3648 -2.4948 -1.6876
 7422SOL    HW233900   2.396   2.294   5.761  1.2897 -0.7919  0.3668
 7423SOL     OW33901   2.806   0.920   1.397  0.2992 -0.4415 -0.4070
 7423SOL    HW133902   2.860   0.946   1.472 -0.0216  0.8370 -0.6345
 7423SOL    HW233903   2.850   0.848   1.351 -0.1231 -0.7855 -0.2747
 7424SOL     OW33904   2.595   0.914   4.046  0.0135  0.0701  0.5194
 7424SOL    HW133905   2.675   0.948   4.005 -1.9234  1.3290 -2.1553
 7424SOL    HW233906   2.537   0.881   3.978  1.8657  0.7305 -1.3578
 7425SOL     OW33907   3.021   0.835   5.537  0.1410  0.4834  0.1200
 7425SOL    HW133908   2.999   0.824   5.444 -2.0104  1.2666  0.5298
 7425SOL    HW233909   2.931   0.862   5.558 -0.2755 -1.8844  1.4204
 7426SOL     OW33910   3.425   3.462  12.927 -0.1308  0.4624 -0.1380
 7426SOL    HW133911   3.476   3.514  12.989  0.4540 -1.6061  1.1293
 7426SOL    HW233912   3.495   3.425  12.874 -1.4961 -2.8328  0.3076
 7427SOL     OW33913   0.897   1.123   8.185 -0.7155  0.2029  0.0359
 7427SOL    HW133914   0.967   1.181   8.154 -0.5071 -1.2920 -2.2815
 7427SOL    HW233915   0.832   1.190   8.208 -2.1794 -0.0777 -3.1823
 7428SOL     OW33916   2.465   0.717   2.068 -0.3571 -0.7205  0.4842
 7428SOL    HW133917   2.398   0.783   2.082 -0.2848 -0.4935 -0.2258
 7428SOL    HW233918   2.435   0.676   1.987 -0.0617 -0.7634  0.3951
 7429SOL     OW33919   1.310   1.778   8.397  0.0323 -0.0729 -1.2490
 7429SOL    HW133920   1.251   1.853   8.388 -1.3571 -0.8908  1.0949
 7429SOL    HW233921   1.252   1.702   8.397  0.1350 -0.1501 -0.9413
 7430SOL     OW33922   1.382   3.698   2.999  0.2146 -0.2386 -0.4443
 7430SOL    HW133923   1.473   3.669   3.011 -0.1542 -1.2195 -0.1071
 7430SOL    HW233924   1.383   3.744   2.915 -4.2013 -0.4606 -0.6102
 7431SOL     OW33925   4.629   2.101  12.945  0.4379 -0.0520  0.0631
 7431SOL    HW133926   4.559   2.148  12.900  0.4024 -0.2800 -0.1217
 7431SOL    HW233927   4.703   2.134  12.894 -1.3421  0.9815 -1.8641
 7432SOL     OW33928   2.852   0.963   4.717 -0.2812 -0.4824  0.3176
 7432SOL    HW133929   2.794   1.034   4.691 -1.1808 -1.3181  0.0218
 7432SOL    HW233930   2.911   0.953   4.643  1.0061 -0.1887  1.3177
 7433SOL     OW33931   0.536   1.372   6.708  0.4536  0.9070  0.5052
 7433SOL    HW133932   0.494   1.439   6.655 -0.0188 -0.9512 -1.5022
 7433SOL    HW233933   0.624   1.381   6.671  0.4326 -0.5587  0.0774
 7434SOL     OW33934   0.167   3.158  11.362  0.2112 -0.8513  0.3770
 7434SOL    HW133935   0.222   3.200  11.428  1.8909  2.1328 -2.9360
 7434SOL    HW233936   0.227   3.155  11.288 -0.7809  2.5573 -0.5700
 7435SOL     OW33937   2.349   0.629   8.210  0.4941  0.0546  0.0267
 7435SOL    HW133938   2.433   0.583   8.215  0.6959  0.5757  1.3273
 7435SOL    HW233939   2.333   0.619   8.116  0.1305 -0.7679  0.1726
 7436SOL     OW33940   3.315   2.420  15.035 -0.0621  0.0978  1.0451
 7436SOL    HW133941   3.239   2.471  15.061 -0.4907 -1.0230  1.9860
 7436SOL    HW233942   3.366   2.432  15.115  0.4640 -2.4742  1.1054
 7437SOL     OW33943   3.642   3.482   6.909 -0.2319 -0.3649  0.0494
 7437SOL    HW133944   3.668   3.507   6.821  1.6372 -0.0615  0.6876
 7437SOL    HW233945   3.654   3.570   6.946  1.4437 -0.3725 -0.4820
 7438SOL     OW33946   4.065   2.058  12.569 -0.0922 -0.5291  0.1350
 7438SOL    HW133947   4.053   2.040  12.663  0.0155 -1.0685  0.0422
 7438SOL    HW233948   3.986   2.017  12.534 -0.9770  0.6301  0.7589
 7439SOL     OW33949   4.647   0.130   3.465  0.4326  0.3209  0.2378
 7439SOL    HW133950   4.737   0.139   3.498  0.5561 -1.4538  0.3459
 7439SOL    HW233951   4.612   0.073   3.533  0.5106  1.1597  0.9889
 7440SOL     OW33952   3.750   0.924   7.278 -0.8971  0.0471 -0.0300
 7440SOL    HW133953   3.834   0.878   7.280  0.1780  2.0036 -0.4042
 7440SOL    HW233954   3.761   0.995   7.215 -1.5331 -0.1794 -0.3943
 7441SOL     OW33955   3.646   1.540  11.456  0.5325  0.3606 -0.2125
 7441SOL    HW133956   3.570   1.507  11.505 -1.7365  1.3638 -3.0912
 7441SOL    HW233957   3.716   1.514  11.517  1.2668  0.8131 -0.8550
 7442SOL     OW33958   0.284   2.553   2.907  0.1545  0.6376 -0.5443
 7442SOL    HW133959   0.237   2.632   2.935 -0.5309 -0.5788  1.7414
 7442SOL    HW233960   0.218   2.492   2.873 -0.8697  0.1662  2.3593
 7443SOL     OW33961   0.521   4.399   3.044 -0.2313  0.2509 -0.0865
 7443SOL    HW133962   0.467   4.365   3.116  1.4633 -0.2140  0.9874
 7443SOL    HW233963   0.546   4.478   3.093 -1.0701  0.4109  0.0823
 7444SOL     OW33964   2.841   1.836   3.616 -0.0535 -0.5230 -0.2315
 7444SOL    HW133965   2.776   1.770   3.640 -0.3341 -0.8952 -2.0319
 7444SOL    HW233966   2.867   1.797   3.533  0.7642  4.3619 -2.2424
 7445SOL     OW33967   4.064   3.718   7.134  0.2021 -0.3137 -0.1298
 7445SOL    HW133968   4.077   3.671   7.216  0.0366 -0.3956 -0.1513
 7445SOL    HW233969   3.977   3.754   7.148  0.1119 -0.6849  0.2570
 7446SOL     OW33970   0.603   3.893  17.718  0.4665 -0.3164  0.7127
 7446SOL    HW133971   0.632   3.838   0.041 -1.4529  0.0899  1.7841
 7446SOL    HW233972   0.512   3.912  17.741  0.6445  3.6664 -1.8037
 7447SOL     OW33973   1.921   2.768  12.453  0.7137  0.2239 -0.3040
 7447SOL    HW133974   1.935   2.746  12.361  0.0716  0.7222 -0.5149
 7447SOL    HW233975   1.831   2.737  12.459  1.1480 -1.2722 -1.2700
 7448SOL     OW33976   2.468   1.944   2.798 -0.2399  0.1187 -0.4428
 7448SOL    HW133977   2.539   1.932   2.861 -1.3780 -0.0760  0.7927
 7448SOL    HW233978   2.469   2.040   2.793  1.5237  0.0538 -1.4867
 7449SOL     OW33979   0.391   0.385   3.595 -0.6403 -0.4759  0.1059
 7449SOL    HW133980   0.443   0.352   3.668  0.6294  0.3694 -0.4080
 7449SOL    HW233981   0.406   0.479   3.610  0.5126 -1.3820  4.5896
 7450SOL     OW33982   0.916   3.504   7.551 -0.1463  0.0800 -0.1332
 7450SOL    HW133983   0.920   3.480   7.458 -1.6844 -1.6449  0.2474
 7450SOL    HW233984   0.865   3.427   7.577 -0.9666 -0.1269 -2.3245
 7451SOL     OW33985   3.783   1.731  12.192  0.1629 -0.3452 -0.3896
 7451SOL    HW133986   3.854   1.794  12.185  0.8339 -0.8631  1.9534
 7451SOL    HW233987   3.795   1.701  12.282  0.7438 -0.1758 -0.4135
 7452SOL     OW33988   4.597   1.866   3.769  0.4747  0.3961 -0.1899
 7452SOL    HW133989   4.570   1.908   3.850 -1.3717 -2.7974  0.8512
 7452SOL    HW233990   4.691   1.886   3.768  0.0169  2.6497  1.2405
 7453SOL     OW33991   0.298   2.193   8.220 -0.0442 -0.3672 -0.1593
 7453SOL    HW133992   0.379   2.230   8.184  1.2410 -1.4951  1.5366
 7453SOL    HW233993   0.282   2.258   8.288  0.8184  0.0895 -0.3800
 7454SOL     OW33994   4.505   4.568   6.001 -0.2378  0.2544  0.6118
 7454SOL    HW133995   4.455   4.643   6.032 -1.7961  1.2384 -4.2341
 7454SOL    HW233996   4.436   4.504   5.985  2.0011 -2.2160  0.7570
 7455SOL     OW33997   4.696   4.266   2.053  0.8837 -0.0487 -0.5176
 7455SOL    HW133998   4.665   4.184   2.090 -0.6403  0.0207 -1.6556
 7455SOL    HW233999   4.680   4.243   1.961 -1.1017 -1.0846  0.1093
 7456SOL     OW34000   2.230   3.740   9.266  0.3554 -0.2124 -0.1563
 7456SOL    HW134001   2.289   3.815   9.276 -0.1791  0.3604 -1.3396
 7456SOL    HW234002   2.147   3.770   9.302  1.6286  1.5986  1.3085
 7457SOL     OW34003   1.219   2.848   8.319 -0.3447 -0.8570  0.2463
 7457SOL    HW134004   1.123   2.854   8.326 -0.4024 -0.7671 -0.6926
 7457SOL    HW234005   1.221   2.848   8.224 -1.5093  0.7682  0.2236
 7458SOL     OW34006   3.663   2.399   8.956 -0.0838 -0.4453  0.2817
 7458SOL    HW134007   3.679   2.449   9.036  2.8602 -1.1291  0.1197
 7458SOL    HW234008   3.689   2.474   8.903  2.3791  0.6516  3.0106
 7459SOL     OW34009   0.151   1.824   4.279  0.5422 -0.1303 -0.0287
 7459SOL    HW134010   0.057   1.831   4.264  0.8495  1.0338 -1.4438
 7459SOL    HW234011   0.165   1.751   4.340 -3.2027  0.8181  1.9122
 7460SOL     OW34012   0.760   1.546   3.285 -0.1473  0.6386 -0.4666
 7460SOL    HW134013   0.719   1.631   3.266 -0.8533 -0.0212 -1.8165
 7460SOL    HW234014   0.820   1.575   3.354 -1.6586 -0.6593  1.3939
 7461SOL     OW34015   1.772   1.935  14.050  0.2454  0.1867  0.3460
 7461SOL    HW134016   1.775   1.928  14.146 -0.8306  0.7609  0.4261
 7461SOL    HW234017   1.785   1.842  14.029  0.9151  0.4400 -0.3635
 7462SOL     OW34018   2.541   0.042   6.325  0.1600  0.5144  0.2627
 7462SOL    HW134019   2.545   4.709   6.390  0.7167  0.4640  0.1757
 7462SOL    HW234020   2.609   0.025   6.260  1.8773 -1.0922  2.4689
 7463SOL     OW34021   1.041   3.333   9.530  0.3226  0.4523 -0.1260
 7463SOL    HW134022   0.957   3.295   9.555 -0.8424  2.1575 -1.4398
 7463SOL    HW234023   1.023   3.355   9.439  0.0716  1.8027  0.2532
 7464SOL     OW34024   1.210   3.095   3.136 -0.1468  0.2558  0.5429
 7464SOL    HW134025   1.230   3.157   3.066 -1.6573  1.6944  1.3893
 7464SOL    HW234026   1.117   3.076   3.128 -0.3970  0.5309  2.9173
 7465SOL     OW34027   2.157   1.766   5.648 -0.1769 -0.4547 -0.3300
 7465SOL    HW134028   2.142   1.691   5.705 -4.3463 -0.7508 -1.7551
 7465SOL    HW234029   2.252   1.761   5.638 -0.3247 -1.7725 -1.1009
 7466SOL     OW34030   2.321   0.647  14.675  0.2337  0.6796  0.0520
 7466SOL    HW134031   2.328   0.721  14.736 -0.1385  1.1895 -0.5152
 7466SOL    HW234032   2.226   0.647  14.667  0.3660  0.6951 -1.5404
 7467SOL     OW34033   1.852   2.348  10.525 -0.1416  0.4776 -0.0685
 7467SOL    HW134034   1.810   2.431  10.503 -0.3091  0.1325 -1.0269
 7467SOL    HW234035   1.931   2.338  10.472  1.0032 -1.0038  1.8789
 7468SOL     OW34036   3.493   1.476  10.120 -0.0277 -0.4570  0.8562
 7468SOL    HW134037   3.509   1.437  10.205 -1.1858  1.6589  2.0459
 7468SOL    HW234038   3.536   1.560  10.138  2.2826 -1.2459 -0.8907
 7469SOL     OW34039   4.473   2.734  15.656 -0.3555 -0.4893  0.6861
 7469SOL    HW134040   4.417   2.704  15.729  0.2250 -0.2462  1.2297
 7469SOL    HW234041   4.401   2.784  15.617  1.5174  0.2234 -1.8200
 7470SOL     OW34042   0.688   1.660   9.072 -0.2039 -0.0660  0.0938
 7470SOL    HW134043   0.646   1.669   8.987  1.2068  1.1777 -0.4704
 7470SOL    HW234044   0.773   1.694   9.044  0.4217 -1.0536  0.7971
 7471SOL     OW34045   2.397   2.842   3.169  0.0113  0.0136 -0.8407
 7471SOL    HW134046   2.431   2.877   3.251 -2.2734 -2.5305  1.1915
 7471SOL    HW234047   2.326   2.899   3.140 -1.3630 -1.2155  0.0716
 7472SOL     OW34048   1.905   1.063   9.214  0.0267  0.0496 -0.0722
 7472SOL    HW134049   1.829   1.083   9.159  1.7034  0.4222 -2.2949
 7472SOL    HW234050   1.881   1.065   9.306 -1.7220  0.9884 -0.5531
 7473SOL     OW34051   0.869   2.284   5.031 -0.1961  0.2494  0.0026
 7473SOL    HW134052   0.893   2.213   4.971  1.4806 -1.3777  2.6194
 7473SOL    HW234053   0.845   2.233   5.108 -1.4346 -0.9104 -1.1473
 7474SOL     OW34054   0.364   1.135   6.686 -0.3635  0.3067  1.4582
 7474SOL    HW134055   0.416   1.209   6.718  0.0011  0.0494  1.4587
 7474SOL    HW234056   0.276   1.160   6.713 -0.8899 -0.7713  0.7274
 7475SOL     OW34057   0.362   4.647   8.174 -0.4839 -0.0172  0.2405
 7475SOL    HW134058   0.452   4.656   8.143 -0.9458 -0.8587 -1.3122
 7475SOL    HW234059   0.372   4.688   8.260 -2.1626 -2.0547  1.3845
 7476SOL     OW34060   1.317   3.829   9.511  0.5646  0.4055  0.2715
 7476SOL    HW134061   1.254   3.866   9.572 -0.0303 -0.2516  0.0589
 7476SOL    HW234062   1.365   3.779   9.577 -0.5266 -0.5443  0.3476
 7477SOL     OW34063   1.240   1.881   2.425  1.0525  0.0008  0.6254
 7477SOL    HW134064   1.180   1.877   2.350  0.7969  1.9411  0.7163
 7477SOL    HW234065   1.223   1.972   2.451  2.2328  0.4672 -0.1983
 7478SOL     OW34066   2.589   2.599   5.014  0.2353  0.0218 -0.1729
 7478SOL    HW134067   2.574   2.690   5.040  2.3474  0.1557  0.5423
 7478SOL    HW234068   2.519   2.564   5.071  0.6364  0.1708  0.4110
 7479SOL     OW34069   4.137   2.166   4.930 -0.1068  0.2843  0.3841
 7479SOL    HW134070   4.189   2.085   4.929  3.1875  2.3886  1.8681
 7479SOL    HW234071   4.104   2.169   5.019  0.8824  0.5232  0.7401
 7480SOL     OW34072   3.754   3.939  16.699 -0.0290  0.4455  0.2595
 7480SOL    HW134073   3.724   3.871  16.760  1.3952 -0.5422 -0.1523
 7480SOL    HW234074   3.837   3.904  16.669 -1.8617 -2.9602 -0.7948
 7481SOL     OW34075   4.640   0.067  17.654  0.6622  0.2251 -0.0749
 7481SOL    HW134076   4.599   0.022  17.728  1.6889 -2.8630 -1.4140
 7481SOL    HW234077   4.677   4.731  17.607 -1.0070  0.6607 -2.0847
 7482SOL     OW34078   3.870   1.958   1.638 -0.3926  0.4003  0.1926
 7482SOL    HW134079   3.910   2.043   1.660 -0.5541  0.3126  0.8216
 7482SOL    HW234080   3.941   1.919   1.586  0.1436 -0.7595  1.8057
 7483SOL     OW34081   3.590   1.590   8.429 -0.5938  0.6085 -1.0179
 7483SOL    HW134082   3.573   1.528   8.501 -1.0406 -1.0218 -2.5294
 7483SOL    HW234083   3.641   1.648   8.486  1.2455  0.0379 -2.0678
 7484SOL     OW34084   3.857   3.491   5.719  0.3966  0.4768 -0.2140
 7484SOL    HW134085   3.777   3.487   5.772  0.4000  0.6688 -0.1956
 7484SOL    HW234086   3.869   3.583   5.699 -0.4456  0.2968 -1.4960
 7485SOL     OW34087   3.943   1.762  13.126  0.2130  0.0446 -0.1492
 7485SOL    HW134088   4.025   1.717  13.107  1.1681  2.2626 -1.3573
 7485SOL    HW234089   3.887   1.745  13.050 -0.7644 -0.3526  0.6579
 7486SOL     OW34090   4.451   1.309   1.455  0.2223  1.2559  0.2265
 7486SOL    HW134091   4.538   1.275   1.437 -1.1041 -1.9799 -0.0518
 7486SOL    HW234092   4.403   1.227   1.469  0.0220  1.4978  0.9649
 7487SOL     OW34093   1.222   3.510   1.995  0.2760  0.1421  0.4890
 7487SOL    HW134094   1.286   3.552   1.938 -0.2094  0.6923  0.3477
 7487SOL    HW234095   1.223   3.564   2.073 -1.1891 -0.1561  0.7093
 7488SOL     OW34096   0.273   0.680   6.721 -0.1477 -0.5642 -0.8848
 7488SOL    HW134097   0.358   0.656   6.683 -0.2788 -0.5971 -1.1532
 7488SOL    HW234098   0.229   0.730   6.653 -3.9771 -3.3891 -0.4826
 7489SOL     OW34099   1.091   2.548   8.760 -0.2739  0.6827  0.1084
 7489SOL    HW134100   1.131   2.635   8.760 -1.9630  1.4525 -0.9502
 7489SOL    HW234101   1.113   2.516   8.673  0.2381  0.0401  0.4693
 7490SOL     OW34102   3.004   0.934   2.842  0.2485 -0.6386  0.1091
 7490SOL    HW134103   3.075   0.919   2.906  1.0046 -0.9097 -0.7986
 7490SOL    HW234104   2.958   1.008   2.881 -0.9738 -0.7257 -1.1985
 7491SOL     OW34105   3.556   3.222   7.219  0.7240  0.0261  0.3803
 7491SOL    HW134106   3.517   3.181   7.297  0.5218 -1.8633 -0.7088
 7491SOL    HW234107   3.523   3.157   7.157 -0.1027  0.4606  0.3570
 7492SOL     OW34108   3.537   2.249   3.418 -0.3139  0.8301  0.2814
 7492SOL    HW134109   3.510   2.196   3.343 -0.9087  2.4446 -0.6340
 7492SOL    HW234110   3.580   2.192   3.483  0.2064 -0.0972 -0.8795
 7493SOL     OW34111   3.612   2.902   1.005  0.3391  0.1836  0.0498
 7493SOL    HW134112   3.622   2.807   0.994  2.4136  0.6014 -1.5151
 7493SOL    HW234113   3.587   2.923   0.915 -0.6196  1.1660  0.5416
 7494SOL     OW34114   4.415   3.279   8.125  0.0709  0.3019  0.9195
 7494SOL    HW134115   4.496   3.321   8.154  2.2949 -2.7417 -0.9386
 7494SOL    HW234116   4.355   3.352   8.143 -0.1249  1.1170 -3.0406
 7495SOL     OW34117   0.444   1.379  17.151  1.0490  0.5520  0.0183
 7495SOL    HW134118   0.459   1.452  17.092  0.5924  1.0459  0.5138
 7495SOL    HW234119   0.349   1.369  17.141  1.5038 -3.1786 -0.8317
 7496SOL     OW34120   2.447   4.038  11.370  0.1955  0.1007 -0.0836
 7496SOL    HW134121   2.359   4.064  11.342 -0.2684 -0.1158  1.2038
 7496SOL    HW234122   2.425   3.973  11.437 -0.0244  0.8561  0.5700
 7497SOL     OW34123   0.607   3.098   1.196 -0.1930 -0.5648 -0.2385
 7497SOL    HW134124   0.620   3.008   1.166 -0.7145 -0.0356 -2.0746
 7497SOL    HW234125   0.610   3.087   1.291 -1.4190  0.4391 -0.0854
 7498SOL     OW34126   2.117   3.443   3.451 -0.3806  0.1521  0.7068
 7498SOL    HW134127   2.080   3.378   3.391  2.2862 -1.1802  0.4871
 7498SOL    HW234128   2.203   3.401   3.456 -0.7550 -0.6882  0.0156
 7499SOL     OW34129   2.208   0.284   4.846  0.6679  0.1984  0.4238
 7499SOL    HW134130   2.125   0.314   4.882  0.4915  1.1602 -0.7596
 7499SOL    HW234131   2.203   0.189   4.831 -1.8146  0.3723  0.0712
 7500SOL     OW34132   0.145   1.724   6.552 -0.0757  0.2388 -0.2138
 7500SOL    HW134133   0.232   1.720   6.511  0.3988  0.0477  0.7877
 7500SOL    HW234134   0.105   1.646   6.513 -1.9430  0.4883  1.2051
 7501SOL     OW34135   0.095   0.239   4.733 -0.8435  0.5356  0.8256
 7501SOL    HW134136   0.063   0.192   4.810  2.3638 -1.2272  1.0854
 7501SOL    HW234137   0.060   0.186   4.661  0.2772  0.4136  0.3703
 7502SOL     OW34138   3.450   2.105   3.176  0.3086  0.1583 -0.2546
 7502SOL    HW134139   3.465   2.084   3.084 -1.2027  0.0184 -0.4769
 7502SOL    HW234140   3.405   2.025   3.206  2.0995 -0.5358  0.5308
 7503SOL     OW34141   1.374   1.638   5.624  0.9366 -0.0011  0.0877
 7503SOL    HW134142   1.406   1.711   5.677 -0.0602  0.6611 -0.2150
 7503SOL    HW234143   1.293   1.669   5.583  1.1155  0.7158  0.2730
 7504SOL     OW34144   1.988   1.641   7.134  0.1853  0.4329 -0.1777
 7504SOL    HW134145   2.047   1.716   7.141  1.4893 -0.7330  1.3761
 7504SOL    HW234146   1.956   1.651   7.045 -0.4525 -0.9150 -0.0935
 7505SOL     OW34147   1.463   4.096   4.383  0.0460  0.0110 -0.2176
 7505SOL    HW134148   1.477   4.026   4.319 -2.9511 -0.1832 -0.6671
 7505SOL    HW234149   1.430   4.159   4.319 -1.2423 -1.5604 -1.1083
 7506SOL     OW34150   0.931   3.686   3.406 -0.1030 -0.2796 -0.5941
 7506SOL    HW134151   0.958   3.699   3.315  0.5140  2.3353 -0.0380
 7506SOL    HW234152   1.017   3.664   3.441 -0.2743  1.5848  1.0204
 7507SOL     OW34153   2.423   0.877   3.351  0.2356 -0.2729  0.0262
 7507SOL    HW134154   2.380   0.843   3.430  0.6676  1.4265  1.0159
 7507SOL    HW234155   2.352   0.931   3.318 -1.7335 -2.4014  0.7537
 7508SOL     OW34156   2.512   1.774   3.590 -0.0818  0.1124  0.0422
 7508SOL    HW134157   2.539   1.852   3.542  1.9414 -1.1813 -0.9526
 7508SOL    HW234158   2.525   1.708   3.522 -1.6572 -0.1497 -0.0116
 7509SOL     OW34159   3.406   1.874  17.394 -0.3196  0.4653 -0.5353
 7509SOL    HW134160   3.385   1.852  17.303 -2.3872  2.7483 -0.5923
 7509SOL    HW234161   3.356   1.953  17.411 -1.1000 -0.1804  0.2138
 7510SOL     OW34162   2.624   4.166   4.264  0.1602 -0.1136 -0.1777
 7510SOL    HW134163   2.594   4.166   4.355 -1.3010  2.8263 -0.6409
 7510SOL    HW234164   2.675   4.086   4.262  1.6130  0.7989  0.5988
 7511SOL     OW34165   4.211   4.330   3.719 -0.3953 -1.0146  0.4112
 7511SOL    HW134166   4.287   4.379   3.752 -1.7205  1.4263 -0.1495
 7511SOL    HW234167   4.175   4.284   3.794  0.6463  1.0521  2.2006
 7512SOL     OW34168   1.048   3.122   0.415 -0.5276  0.1350 -0.0041
 7512SOL    HW134169   1.082   3.211   0.425  0.9363 -0.5253  0.9198
 7512SOL    HW234170   1.049   3.120   0.320  0.2845 -1.9412  0.0420
 7513SOL     OW34171   4.000   4.422   4.501 -0.1774  0.0393  0.0353
 7513SOL    HW134172   3.964   4.346   4.456  0.2130 -0.2482  0.2071
 7513SOL    HW234173   4.087   4.387   4.520 -0.9202 -0.4261  2.5364
 7514SOL     OW34174   3.026   4.562   4.682  0.0067  0.4180  0.0307
 7514SOL    HW134175   3.061   4.651   4.685  3.8800 -1.0342 -2.4495
 7514SOL    HW234176   3.074   4.529   4.607  0.0867 -0.5241  0.5032
 7515SOL     OW34177   0.716   2.585   7.170  0.1272  0.2411  0.4685
 7515SOL    HW134178   0.766   2.617   7.094  0.5584  1.5151  1.2857
 7515SOL    HW234179   0.730   2.491   7.162 -0.6142  0.2223 -0.6422
 7516SOL     OW34180   0.541   1.680   8.124  0.0102 -0.4829 -0.0495
 7516SOL    HW134181   0.541   1.711   8.034  1.3388 -1.1350 -0.2723
 7516SOL    HW234182   0.516   1.757   8.176  0.9029 -0.4970  0.4041
 7517SOL     OW34183   3.224   3.332   4.831 -0.7385 -0.1741  0.0261
 7517SOL    HW134184   3.291   3.318   4.898 -1.2425 -0.1469  0.5409
 7517SOL    HW234185   3.147   3.294   4.873  0.7591 -1.9748  1.0898
 7518SOL     OW34186   1.308   1.942  14.713  0.6608 -0.3358 -0.8912
 7518SOL    HW134187   1.310   2.038  14.720  1.1725 -0.5397  2.0341
 7518SOL    HW234188   1.298   1.935  14.618 -0.0900 -0.3643 -0.8138
 7519SOL     OW34189   0.849   0.495   6.339 -0.1601  0.0967  0.0544
 7519SOL    HW134190   0.795   0.418   6.357  1.1262 -0.8894 -0.2463
 7519SOL    HW234191   0.827   0.502   6.246  0.7220 -0.0374 -0.1684
 7520SOL     OW34192   2.296   0.273   2.268  0.2808 -0.2485  0.3174
 7520SOL    HW134193   2.349   0.287   2.189 -0.3427 -3.4020 -0.6480
 7520SOL    HW234194   2.251   0.357   2.266 -0.6922 -0.7824 -0.3519
 7521SOL     OW34195   2.342   2.485   6.452  0.7620  0.0664 -0.0738
 7521SOL    HW134196   2.293   2.567   6.445  0.6332 -0.2788 -3.3360
 7521SOL    HW234197   2.428   2.524   6.439 -0.1931  1.4946 -1.9800
 7522SOL     OW34198   2.713   0.290   7.073 -0.3369 -0.7210 -0.5938
 7522SOL    HW134199   2.801   0.253   7.066  0.3681  1.3648 -2.5668
 7522SOL    HW234200   2.710   0.334   6.988 -0.1380  0.9855  0.2872
 7523SOL     OW34201   0.029   3.837   9.019 -0.0298 -0.2612 -0.1404
 7523SOL    HW134202   0.028   3.824   9.114  0.1218 -1.5645 -0.3090
 7523SOL    HW234203   4.687   3.787   9.004 -1.1872  1.4028  0.4939
 7524SOL     OW34204   1.772   0.778   4.282 -0.8811 -0.5510 -0.1112
 7524SOL    HW134205   1.677   0.768   4.276 -0.9259 -0.1130 -0.1088
 7524SOL    HW234206   1.796   0.723   4.207  2.1905  1.4639 -0.6025
 7525SOL     OW34207   2.454   1.979   5.837  0.3963 -0.0345  0.1474
 7525SOL    HW134208   2.453   2.063   5.790 -0.6137 -0.1894 -0.1095
 7525SOL    HW234209   2.383   1.934   5.791  2.0087 -3.1422  0.6993
 7526SOL     OW34210   0.781   1.362   3.098 -0.1062  0.1969  0.5733
 7526SOL    HW134211   0.742   1.408   3.173 -2.1845 -2.0283  0.8746
 7526SOL    HW234212   0.817   1.431   3.043  1.9245 -0.9592  0.4617
 7527SOL     OW34213   1.937   2.279   8.893  0.0458  0.1069 -0.1112
 7527SOL    HW134214   1.856   2.230   8.876  1.7204 -2.4382 -0.7957
 7527SOL    HW234215   2.007   2.216   8.878  0.1628 -0.0515  1.1411
 7528SOL     OW34216   3.837   4.316   1.970  0.0329 -0.4515 -0.1677
 7528SOL    HW134217   3.806   4.227   1.954 -0.6479  0.0953 -1.8340
 7528SOL    HW234218   3.912   4.318   1.912 -0.5154  1.6387 -0.7814
 7529SOL     OW34219   3.187   3.821   8.384  0.0730 -0.0660  0.6477
 7529SOL    HW134220   3.211   3.803   8.294 -1.0416 -0.3108  0.3946
 7529SOL    HW234221   3.262   3.790   8.435 -0.2533  2.5432  2.7015
 7530SOL     OW34222   0.554   1.355   6.065 -0.4367 -0.7674  0.4471
 7530SOL    HW134223   0.571   1.318   5.978 -1.1337 -0.0088 -0.0086
 7530SOL    HW234224   0.486   1.418   6.041  1.7190  1.5496  0.3974
 7531SOL     OW34225   3.656   3.510   5.920  0.2246  0.2952 -0.1823
 7531SOL    HW134226   3.574   3.552   5.947  0.7452  0.9470  0.3745
 7531SOL    HW234227   3.730   3.562   5.951  0.4968 -1.3113  1.8437
 7532SOL     OW34228   3.044   2.928   9.588  0.3263 -0.1373  0.5776
 7532SOL    HW134229   3.100   2.882   9.651 -1.2373 -0.4717  1.7214
 7532SOL    HW234230   3.104   3.002   9.586  0.4019 -0.2040  0.3867
 7533SOL     OW34231   2.822   1.111   9.106 -0.0060 -0.3329 -0.7262
 7533SOL    HW134232   2.850   1.171   9.175 -1.9686  1.3555 -1.4132
 7533SOL    HW234233   2.867   1.035   9.143 -0.5216  0.2829  1.1823
 7534SOL     OW34234   2.394   4.168   2.759 -0.2910  0.2141 -0.2770
 7534SOL    HW134235   2.459   4.236   2.778 -1.0515  0.9340 -0.2583
 7534SOL    HW234236   2.441   4.115   2.694  0.6902  0.0732  0.5387
 7535SOL     OW34237   0.658   4.406  12.503 -0.5420  0.1338 -0.0183
 7535SOL    HW134238   0.686   4.326  12.546 -0.2708  0.5297  0.5516
 7535SOL    HW234239   0.644   4.464  12.578  1.2018  0.9520 -0.3282
 7536SOL     OW34240   3.105   0.163  14.696 -0.4156  0.0495 -0.5249
 7536SOL    HW134241   3.189   0.130  14.664  0.7011  2.9652 -0.5525
 7536SOL    HW234242   3.049   0.089  14.719  0.1475 -1.1752 -3.1057
 7537SOL     OW34243   4.370   3.313   9.338  0.2172 -0.3542 -0.2760
 7537SOL    HW134244   4.368   3.297   9.244  0.9957  0.8884 -0.5022
 7537SOL    HW234245   4.322   3.394   9.357  0.6218 -0.3289  0.6593
 7538SOL     OW34246   3.984   2.320  13.424  0.6551  0.1174  0.4965
 7538SOL    HW134247   3.918   2.251  13.410  0.0239  1.1745 -1.7146
 7538SOL    HW234248   4.055   2.268  13.463 -1.5005 -3.3144 -0.1164
 7539SOL     OW34249   4.564   2.498   1.867  0.4135  0.3037  0.2025
 7539SOL    HW134250   4.601   2.485   1.780  3.1203  0.7427  1.3026
 7539SOL    HW234251   4.470   2.481   1.856  0.1796  1.0059  1.1375
 7540SOL     OW34252   0.254   2.775   8.887 -0.0118  0.1371  0.8069
 7540SOL    HW134253   0.277   2.852   8.939 -2.2637  1.1096  0.3654
 7540SOL    HW234254   0.341   2.760   8.850 -0.4090  4.2491 -1.7866
 7541SOL     OW34255   4.178   1.439   9.265 -0.0351  0.5274  0.2952
 7541SOL    HW134256   4.163   1.405   9.177 -0.5343 -0.0838  0.6186
 7541SOL    HW234257   4.225   1.367   9.307 -0.8368 -0.3506 -0.3100
 7542SOL     OW34258   3.962   0.228   9.107  0.6173  0.1848  0.2769
 7542SOL    HW134259   3.989   0.144   9.145  0.8443  0.3443  0.4652
 7542SOL    HW234260   3.906   0.204   9.034 -1.6915  2.9101  1.1401
 7543SOL     OW34261   0.937   0.049   2.727  0.2044  1.2030 -0.3777
 7543SOL    HW134262   0.952   0.123   2.787  4.1576  0.1070 -0.0247
 7543SOL    HW234263   0.874   0.095   2.672 -1.1452 -0.3379 -0.0905
 7544SOL     OW34264   1.763   1.386   5.646  0.2110 -0.6146 -0.7414
 7544SOL    HW134265   1.835   1.443   5.619 -0.9648  2.5020  2.5936
 7544SOL    HW234266   1.720   1.439   5.713 -1.4690 -3.3820  0.3802
 7545SOL     OW34267   1.273   0.365   8.705  0.8634  0.2461  0.1574
 7545SOL    HW134268   1.193   0.407   8.674 -0.1046 -1.3038  0.5903
 7545SOL    HW234269   1.232   0.315   8.775 -3.3001  1.2290 -1.5499
 7546SOL     OW34270   4.095   0.826  12.295  0.6108  0.2780 -0.3333
 7546SOL    HW134271   4.177   0.844  12.249  1.2588 -1.3502  0.2221
 7546SOL    HW234272   4.096   0.738  12.259 -2.1005  0.0336  0.2003
 7547SOL     OW34273   3.355   0.817  11.357 -0.0994 -0.0274 -0.5054
 7547SOL    HW134274   3.389   0.771  11.434  0.2596 -0.8683 -1.1670
 7547SOL    HW234275   3.419   0.887  11.366 -1.2061  0.8706  0.3668
 7548SOL     OW34276   0.615   3.014   7.604  0.1698 -0.5342 -1.1507
 7548SOL    HW134277   0.614   2.959   7.526 -0.9887 -1.5258 -0.4400
 7548SOL    HW234278   0.656   2.954   7.666 -2.0546  0.8369  1.6546
 7549SOL     OW34279   4.595   1.900  16.673 -0.0475 -0.6077  0.0500
 7549SOL    HW134280   4.556   1.971  16.724  0.2581 -0.1793 -0.3231
 7549SOL    HW234281   4.652   1.959  16.624  1.1821 -2.1087 -0.3086
 7550SOL     OW34282   4.659   2.135  16.526 -0.1076 -0.2332 -0.1357
 7550SOL    HW134283   4.635   2.134  16.434 -2.5291 -0.1589  0.4956
 7550SOL    HW234284   0.014   2.150  16.508  0.3954 -2.2336  0.7226
 7551SOL     OW34285   2.631   0.683   9.317  0.8243  0.0476  0.3383
 7551SOL    HW134286   2.643   0.681   9.412  2.5019 -0.6309  0.0988
 7551SOL    HW234287   2.711   0.645   9.281  2.1263  1.0317  2.1663
 7552SOL     OW34288   3.444   3.349   8.111 -0.2158  0.3040 -0.0834
 7552SOL    HW134289   3.353   3.337   8.081  0.2520  1.7588 -2.1212
 7552SOL    HW234290   3.478   3.429   8.071  1.1003 -0.7632 -1.0562
 7553SOL     OW34291   0.793   0.623   7.901 -0.3086  0.9860  0.2545
 7553SOL    HW134292   0.750   0.652   7.982  0.7696  1.5569  0.6237
 7553SOL    HW234293   0.728   0.647   7.836 -0.9048  1.1405  0.9040
 7554SOL     OW34294   4.508   0.873   6.530 -0.7092 -0.2816  0.1524
 7554SOL    HW134295   4.528   0.797   6.475 -2.2971 -1.3532  1.0425
 7554SOL    HW234296   4.544   0.838   6.611 -0.4729  0.9290  0.5738
 7555SOL     OW34297   0.372   4.425   7.126 -0.5408 -1.0451 -0.3872
 7555SOL    HW134298   0.324   4.350   7.161  0.3669 -0.8262  1.3641
 7555SOL    HW234299   0.300   4.487   7.115 -0.1844 -0.9684 -2.3192
 7556SOL     OW34300   2.508   2.782  15.184 -0.1507  0.2230 -0.3421
 7556SOL    HW134301   2.427   2.750  15.224 -0.3796 -0.0690 -1.0384
 7556SOL    HW234302   2.576   2.737  15.233 -0.8374 -0.5231 -0.0807
 7557SOL     OW34303   2.975   4.733   5.348 -0.3790  0.0229 -0.2481
 7557SOL    HW134304   2.916   0.028   5.281 -1.4046 -1.8434 -0.2546
 7557SOL    HW234305   3.051   4.695   5.305  0.8958  0.8340  1.3054
 7558SOL     OW34306   0.856   2.524  15.922  0.3301 -0.0549 -0.3938
 7558SOL    HW134307   0.902   2.590  15.870  0.2690 -0.0249 -0.4088
 7558SOL    HW234308   0.806   2.483  15.851  0.1348 -2.2928  1.0648
 7559SOL     OW34309   3.103   4.325   5.332  0.3141 -0.0205 -0.2660
 7559SOL    HW134310   3.159   4.357   5.403  0.4774 -0.5001 -0.1789
 7559SOL    HW234311   3.041   4.267   5.375  0.2620 -1.4096 -2.2380
 7560SOL     OW34312   3.952   1.763  10.888  0.2706 -0.6279 -0.0851
 7560SOL    HW134313   3.966   1.797  10.800 -0.5307 -1.5497 -0.5581
 7560SOL    HW234314   4.042   1.781  10.917 -0.0747 -0.4701  0.9180
 7561SOL     OW34315   2.007   4.027  10.955  0.2718  0.0976 -0.0274
 7561SOL    HW134316   2.070   4.093  10.985  0.2607  0.9293 -1.8658
 7561SOL    HW234317   1.929   4.079  10.937  0.9609  0.4892 -1.8606
 7562SOL     OW34318   0.637   2.132   7.586  0.0750  0.4650  0.1905
 7562SOL    HW134319   0.554   2.174   7.565 -0.0616  0.9079  1.6270
 7562SOL    HW234320   0.707   2.197   7.572  0.8754 -0.2769  0.6992
 7563SOL     OW34321   2.490   4.153   4.547 -0.0061  0.1628  0.1101
 7563SOL    HW134322   2.416   4.126   4.602  0.7810 -1.5709  0.3239
 7563SOL    HW234323   2.558   4.148   4.615 -1.2125 -1.3128  1.2208
 7564SOL     OW34324   1.915   1.561   6.509 -0.8805 -0.4884  0.0218
 7564SOL    HW134325   2.002   1.560   6.468 -1.2321  0.3249 -0.7255
 7564SOL    HW234326   1.893   1.651   6.489  0.9162  0.1605  0.9461
 7565SOL     OW34327   2.037   0.125  17.248 -0.4031  0.2527 -0.0466
 7565SOL    HW134328   2.047   0.098  17.157  0.6978  0.1153  0.1124
 7565SOL    HW234329   2.102   0.196  17.244  0.5344 -0.5390  1.1536
 7566SOL     OW34330   4.624   3.289   3.402 -0.0025 -0.0636  0.4198
 7566SOL    HW134331   4.605   3.296   3.308  2.1800 -1.9073 -0.1745
 7566SOL    HW234332   4.538   3.273   3.439 -0.1142  0.2705  0.3059
 7567SOL     OW34333   0.958   3.341  16.674  0.2373  0.2019  0.4689
 7567SOL    HW134334   0.983   3.293  16.595  2.0414  1.8859  0.0292
 7567SOL    HW234335   1.041   3.375  16.708 -0.0992  1.6768 -0.1824
 7568SOL     OW34336   3.828   3.521   7.412  0.2511  0.6685  0.2992
 7568SOL    HW134337   3.919   3.514   7.441  0.6227 -0.5098 -1.2009
 7568SOL    HW234338   3.838   3.483   7.325 -0.8575 -0.4600  0.6472
 7569SOL     OW34339   1.087   0.138   5.226  0.0744  0.3908  0.0839
 7569SOL    HW134340   1.078   0.099   5.313 -1.8613 -2.6661 -1.4590
 7569SOL    HW234341   1.172   0.176   5.247  0.3019  0.0876 -0.2934
 7570SOL     OW34342   0.802   3.234   9.577  0.1109  0.3250 -0.5330
 7570SOL    HW134343   0.776   3.147   9.606 -3.6480  1.3898 -0.6603
 7570SOL    HW234344   0.733   3.285   9.621  0.5460  0.7685 -0.3520
 7571SOL     OW34345   3.516   3.789   1.661  0.8634 -0.4954 -0.2933
 7571SOL    HW134346   3.563   3.722   1.613  0.2092  0.4205 -2.2174
 7571SOL    HW234347   3.436   3.801   1.609  1.3000 -0.2329 -0.9035
 7572SOL     OW34348   0.744   0.362   2.115  0.2274 -0.1642  0.7566
 7572SOL    HW134349   0.728   0.269   2.104  1.7331 -0.0663 -2.4213
 7572SOL    HW234350   0.657   0.393   2.090  0.0617  0.0794  1.6539
 7573SOL     OW34351   3.281   1.962   6.305 -0.5208 -0.3490  0.2064
 7573SOL    HW134352   3.199   1.920   6.278 -1.0952  1.6655 -1.2103
 7573SOL    HW234353   3.316   1.893   6.361 -0.7780 -1.6834 -1.2817
 7574SOL     OW34354   3.045   2.628   8.395 -0.4513 -0.0710  0.1686
 7574SOL    HW134355   3.095   2.549   8.378  1.8071  1.0646  1.6207
 7574SOL    HW234356   3.014   2.609   8.484  1.1348 -0.2075  0.6871
 7575SOL     OW34357   3.141   3.247   6.913 -0.0831  0.8014 -0.0810
 7575SOL    HW134358   3.171   3.286   6.831  1.3016 -1.6910 -0.7738
 7575SOL    HW234359   3.177   3.313   6.972  4.1335 -2.3723  0.8947
 7576SOL     OW34360   1.641   2.713   0.585 -0.3142 -0.1931 -0.4306
 7576SOL    HW134361   1.672   2.785   0.641 -0.8093 -1.1586  1.0726
 7576SOL    HW234362   1.567   2.683   0.638  2.1016 -1.6673  2.0689
 7577SOL     OW34363   0.320   2.089   1.344 -0.1050  0.3873 -0.2810
 7577SOL    HW134364   0.407   2.054   1.364  0.9550  3.3268  0.3432
 7577SOL    HW234365   0.329   2.113   1.252 -1.0741 -1.2340 -0.7916
 7578SOL     OW34366   3.576   0.517  14.744  0.2016 -0.0792 -0.4074
 7578SOL    HW134367   3.668   0.542  14.744  0.5410 -1.3240 -0.2108
 7578SOL    HW234368   3.553   0.516  14.837 -1.6937 -2.4133 -0.9017
 7579SOL     OW34369   4.189   3.708   5.176  0.1854 -0.5496 -0.2841
 7579SOL    HW134370   4.274   3.744   5.197  0.1430 -0.6707  0.1030
 7579SOL    HW234371   4.210   3.643   5.109  0.8859 -1.1110  0.4842
 7580SOL     OW34372   0.539   1.095  14.059 -0.1044  0.2165 -0.9644
 7580SOL    HW134373   0.567   1.120  14.147 -0.1504 -1.7310 -0.3860
 7580SOL    HW234374   0.462   1.039  14.071 -0.6081  1.0788 -0.2180
 7581SOL     OW34375   1.930   0.456   7.594 -0.2200  0.2337 -0.4592
 7581SOL    HW134376   1.965   0.445   7.505 -1.6601 -1.0957 -0.8572
 7581SOL    HW234377   2.006   0.426   7.645  0.1805 -0.9372 -1.7502
 7582SOL     OW34378   3.927   4.310   3.559 -0.4814 -0.4782 -0.2885
 7582SOL    HW134379   3.992   4.335   3.493 -0.2219  1.3773  0.6692
 7582SOL    HW234380   3.988   4.299   3.633 -1.7295  0.6410  0.9099
 7583SOL     OW34381   4.615   0.277   8.381 -0.1233  0.0185 -0.1835
 7583SOL    HW134382   4.562   0.339   8.431  2.1404  1.6265  0.1724
 7583SOL    HW234383   4.695   0.328   8.377 -0.7532  1.0485  0.2901
 7584SOL     OW34384   3.548   0.953   4.602  0.1064  0.6074 -0.0061
 7584SOL    HW134385   3.580   1.034   4.561  1.4629  0.5762  0.9793
 7584SOL    HW234386   3.621   0.936   4.662 -0.2757  1.9758  0.8440
 7585SOL     OW34387   1.518   1.056  14.279  0.2503  0.0337 -0.1174
 7585SOL    HW134388   1.427   1.043  14.305  0.2013  1.7774  0.6428
 7585SOL    HW234389   1.563   0.977  14.307 -1.0799 -0.2663  1.1604
 7586SOL     OW34390   0.068   3.752   4.448 -0.0281  0.1505 -0.2646
 7586SOL    HW134391   0.015   3.810   4.503 -2.9346  0.0072 -2.9238
 7586SOL    HW234392   0.001   3.730   4.383  0.0325  1.0798 -0.6361
 7587SOL     OW34393   2.164   1.155  17.642  0.0976  0.1073 -0.4553
 7587SOL    HW134394   2.184   1.200  17.560  0.3788  1.8919  0.5861
 7587SOL    HW234395   2.209   1.213  17.704  0.7000 -2.7808  1.7809
 7588SOL     OW34396   0.675   1.601  15.834 -0.5079 -0.6587 -0.3439
 7588SOL    HW134397   0.655   1.600  15.928  0.1342 -1.3992 -0.2185
 7588SOL    HW234398   0.700   1.694  15.836 -0.0461 -0.8283  2.4042
 7589SOL     OW34399   2.503   3.049  15.308  0.2112 -0.0969  0.4450
 7589SOL    HW134400   2.493   2.990  15.234  0.1197  0.6892 -0.1790
 7589SOL    HW234401   2.411   3.067  15.329  0.4984  3.1158 -0.9198
 7590SOL     OW34402   2.554   0.703   3.202 -0.2286  0.3569 -0.0120
 7590SOL    HW134403   2.474   0.659   3.172  1.0876 -0.9492 -1.6227
 7590SOL    HW234404   2.502   0.763   3.255 -1.1672 -0.0052 -0.5305
 7591SOL     OW34405   3.937   3.126   4.165 -0.1566 -0.3824 -0.0897
 7591SOL    HW134406   3.949   3.203   4.110 -0.1697 -0.8655 -0.7775
 7591SOL    HW234407   3.943   3.049   4.108  1.6100 -0.6900  0.5202
 7592SOL     OW34408   0.100   1.707   3.938  0.2514  0.5226 -0.6442
 7592SOL    HW134409   0.130   1.783   3.889 -1.3739  1.1480 -0.6680
 7592SOL    HW234410   0.010   1.733   3.956  0.6893  0.7455  1.2520
 7593SOL     OW34411   0.576   1.920   5.276  0.4807  0.2145  0.3908
 7593SOL    HW134412   0.483   1.930   5.254  0.6257 -0.3721 -0.5022
 7593SOL    HW234413   0.609   1.927   5.186  2.6387 -0.5111  1.1406
 7594SOL     OW34414   3.094   4.049  13.326 -0.0193 -0.0758 -0.3525
 7594SOL    HW134415   3.047   3.967  13.310 -1.1474  0.2873  1.1096
 7594SOL    HW234416   3.028   4.115  13.352  1.0095 -0.6420  3.7766
 7595SOL     OW34417   3.042   0.861   6.149 -0.0588  0.3876 -0.4940
 7595SOL    HW134418   2.969   0.893   6.095  0.1715 -1.7971 -2.0948
 7595SOL    HW234419   3.020   0.768   6.157 -0.0610  0.3593 -0.8223
 7596SOL     OW34420   2.694   4.696   4.670 -0.0021  0.0280 -0.0378
 7596SOL    HW134421   2.722   4.658   4.587  3.1215  0.0136  1.0394
 7596SOL    HW234422   2.633   4.629   4.702  0.2084 -0.8027 -1.3658
 7597SOL     OW34423   1.423   1.226   5.917 -0.2990  0.0558 -0.1511
 7597SOL    HW134424   1.467   1.226   5.832 -1.4534 -0.4370 -0.7578
 7597SOL    HW234425   1.404   1.133   5.931 -0.6660  0.4605  2.0401
 7598SOL     OW34426   1.660   0.541   3.445 -0.0174 -0.2464  0.2457
 7598SOL    HW134427   1.709   0.546   3.363  1.6438  1.1027  1.3173
 7598SOL    HW234428   1.714   0.497   3.510  0.3290  1.3354  1.0475
 7599SOL     OW34429   2.986   0.430   6.598 -0.3053  0.7345 -0.2766
 7599SOL    HW134430   3.061   0.371   6.597 -0.1484  0.9293  0.3013
 7599SOL    HW234431   2.919   0.370   6.567  0.8513  0.2104 -1.7902
 7600SOL     OW34432   1.313   2.723   7.279 -0.1575  0.0884  0.0098
 7600SOL    HW134433   1.347   2.790   7.219  0.7183  0.0020  0.4185
 7600SOL    HW234434   1.233   2.705   7.230  0.5303  0.2691 -1.1870
 7601SOL     OW34435   2.575   2.917   0.714 -0.3186  0.0920 -0.4661
 7601SOL    HW134436   2.660   2.955   0.737 -0.2953 -0.2308 -0.0101
 7601SOL    HW234437   2.564   2.880   0.801 -0.6603 -1.4824 -1.1845
 7602SOL     OW34438   3.976   0.187  11.640 -0.3371 -0.4395  0.2126
 7602SOL    HW134439   3.896   0.225  11.675  0.4747  0.1445  1.4596
 7602SOL    HW234440   3.972   0.103  11.685 -3.0326  0.0823  0.9568
 7603SOL     OW34441   3.528   1.710   3.210  0.4581  0.6131 -0.4299
 7603SOL    HW134442   3.435   1.732   3.203  0.4516 -0.4273 -4.0074
 7603SOL    HW234443   3.543   1.706   3.115  1.3943 -3.8060 -0.1318
 7604SOL     OW34444   0.592   1.962   4.013  0.0918 -0.5339 -0.7260
 7604SOL    HW134445   0.666   1.925   3.964  2.0564  1.4926  0.7127
 7604SOL    HW234446   0.584   2.052   3.981 -0.5484  0.3168  1.8173
 7605SOL     OW34447   3.898   3.742   5.699 -0.1448 -0.3935  0.2183
 7605SOL    HW134448   3.975   3.791   5.727  0.8841 -1.6346 -0.4477
 7605SOL    HW234449   3.872   3.787   5.619  0.3088 -1.1931 -0.3659
 7606SOL     OW34450   1.456   4.491  13.428  0.2699  0.0736 -0.1360
 7606SOL    HW134451   1.551   4.505  13.428  0.3679 -0.6046 -0.2223
 7606SOL    HW234452   1.438   4.513  13.336 -2.2306  0.1357  0.3833
 7607SOL     OW34453   1.712   2.316   3.368  0.5539 -0.3560 -0.3182
 7607SOL    HW134454   1.779   2.384   3.360 -1.0134  1.2667  0.3148
 7607SOL    HW234455   1.635   2.371   3.381  1.1373  0.2987  0.3566
 7608SOL     OW34456   1.825   1.601   6.806  0.5622 -0.3007  0.5486
 7608SOL    HW134457   1.827   1.581   6.713 -1.8204  0.3295  0.3460
 7608SOL    HW234458   1.900   1.660   6.813  0.7752 -0.7390  1.9052
 7609SOL     OW34459   3.277   3.038   6.473 -0.2451 -0.4713 -0.5648
 7609SOL    HW134460   3.302   3.008   6.561 -1.9131  0.9754  0.4111
 7609SOL    HW234461   3.303   3.131   6.471  0.4538 -0.6625 -0.4118
 7610SOL     OW34462   2.453   2.721   2.940 -0.3910 -0.0411 -0.4054
 7610SOL    HW134463   2.479   2.635   2.972 -3.8147 -0.2626  1.7224
 7610SOL    HW234464   2.426   2.765   3.021  1.4022  2.5958 -1.2526
 7611SOL     OW34465   1.064   4.655   7.586 -0.1370 -0.5639 -0.4544
 7611SOL    HW134466   1.108   4.721   7.639 -0.8933 -1.3607  1.1939
 7611SOL    HW234467   0.979   4.695   7.568 -0.8081 -1.0776  1.5635
 7612SOL     OW34468   0.891   3.171   5.991 -0.0799  0.2214  0.2984
 7612SOL    HW134469   0.811   3.200   6.035 -0.4973  0.0203 -0.3288
 7612SOL    HW234470   0.951   3.240   6.020  0.7587 -1.2170  1.9196
 7613SOL     OW34471   4.618   2.792  13.489 -0.2663 -0.1611 -0.3611
 7613SOL    HW134472   4.553   2.729  13.520 -0.3045  0.0440 -0.0250
 7613SOL    HW234473   4.571   2.850  13.428 -2.9421 -0.9773  0.9016
 7614SOL     OW34474   0.219   3.806  10.205 -0.1092  0.1647 -0.3163
 7614SOL    HW134475   0.250   3.727  10.161 -1.7611 -1.3039  1.0971
 7614SOL    HW234476   0.258   3.789  10.291  0.3201 -2.2434 -0.9793
 7615SOL     OW34477   3.639   3.829   4.579 -0.2279 -0.7833 -0.2106
 7615SOL    HW134478   3.562   3.782   4.608 -0.1525 -1.3961 -1.0014
 7615SOL    HW234479   3.693   3.850   4.655  0.2269 -4.4536  0.4648
 7616SOL     OW34480   2.283   0.384  14.752 -0.2253 -0.2620  0.3442
 7616SOL    HW134481   2.298   0.473  14.717 -2.0171 -0.0699  0.0515
 7616SOL    HW234482   2.327   0.389  14.837  1.1705  3.3832 -0.5994
 7617SOL     OW34483   1.770   3.409   2.892 -0.3530  0.1109 -0.0163
 7617SOL    HW134484   1.758   3.320   2.857  0.0952  0.8329 -2.0166
 7617SOL    HW234485   1.847   3.400   2.948 -1.5622 -3.0934  1.1169
 7618SOL     OW34486   2.768   0.228  10.441  0.0374  0.0858  0.1455
 7618SOL    HW134487   2.827   0.162  10.406 -1.4784 -1.3086  0.2140
 7618SOL    HW234488   2.691   0.176  10.464  1.6971 -2.1839  0.5457
 7619SOL     OW34489   3.914   3.246   5.511 -0.0776 -0.3155 -0.0662
 7619SOL    HW134490   3.873   3.328   5.538  1.7109  0.3906  0.5075
 7619SOL    HW234491   3.888   3.192   5.586 -1.4232 -1.0409 -1.0674
 7620SOL     OW34492   0.266   3.473   7.847 -0.2569 -0.2973  0.2854
 7620SOL    HW134493   0.225   3.416   7.782  0.7995 -1.6231  0.7763
 7620SOL    HW234494   0.261   3.428   7.931 -0.2079  0.1902  0.5518
 7621SOL     OW34495   2.026   3.099   8.560  0.1295  0.1168 -0.1018
 7621SOL    HW134496   2.047   3.050   8.481  2.2091 -1.4762  1.4286
 7621SOL    HW234497   2.073   3.044   8.624  0.8560 -1.5292 -2.0481
 7622SOL     OW34498   0.064   4.389   3.336 -0.4963 -0.6724  0.2683
 7622SOL    HW134499   0.040   4.465   3.283  2.5328  0.8058  1.0442
 7622SOL    HW234500   4.714   4.354   3.352 -0.0286 -1.8257  0.2606
 7623SOL     OW34501   0.663   1.929   4.965  0.0513 -0.4028 -0.3541
 7623SOL    HW134502   0.647   1.990   4.892 -0.6853  1.5942  1.4783
 7623SOL    HW234503   0.759   1.934   4.972  0.0685 -0.4481 -0.5549
 7624SOL     OW34504   0.970   3.583   9.642  0.7775  0.5469  0.2188
 7624SOL    HW134505   0.957   3.494   9.610 -0.1561  0.2087  1.5447
 7624SOL    HW234506   1.046   3.563   9.697 -0.5484  0.3795  1.9884
 7625SOL     OW34507   0.795   3.000   5.303  0.0712  0.1988 -0.0524
 7625SOL    HW134508   0.810   2.959   5.388 -0.9791 -0.6806 -0.3027
 7625SOL    HW234509   0.701   3.015   5.302 -0.2134 -1.8546 -2.2822
 7626SOL     OW34510   0.674   1.070  15.512 -0.1948 -0.3313 -0.3654
 7626SOL    HW134511   0.734   1.124  15.461 -1.6203  1.6173  0.0175
 7626SOL    HW234512   0.731   1.008  15.555 -0.7086  0.3035  1.2219
 7627SOL     OW34513   2.110   1.558   6.304  0.0245 -0.2505 -0.5806
 7627SOL    HW134514   2.167   1.628   6.272 -0.6901  0.1181 -1.0727
 7627SOL    HW234515   2.038   1.566   6.240  0.1608 -0.3265 -0.7448
 7628SOL     OW34516   0.215   0.256   7.605  0.2146  0.2736 -0.3848
 7628SOL    HW134517   0.238   0.348   7.621 -2.4872  0.9378 -0.2906
 7628SOL    HW234518   0.119   0.261   7.601  0.3225  1.3435 -1.5352
 7629SOL     OW34519   2.177   3.821   6.362 -0.0310 -1.2542 -0.2264
 7629SOL    HW134520   2.163   3.876   6.439  0.1245 -1.8590  0.2325
 7629SOL    HW234521   2.134   3.875   6.295  0.2930  0.4570  0.9423
 7630SOL     OW34522   1.305   1.080   6.483 -0.0084  0.3354  0.2466
 7630SOL    HW134523   1.320   0.990   6.452 -1.6561 -0.0245  0.4872
 7630SOL    HW234524   1.210   1.079   6.493 -0.1582 -0.0456 -1.1451
 7631SOL     OW34525   2.507   0.541   4.700  0.0873 -0.1274 -0.1819
 7631SOL    HW134526   2.471   0.612   4.753  0.4299 -0.0848 -0.0074
 7631SOL    HW234527   2.502   0.468   4.761  0.1792 -0.3677 -0.4637
 7632SOL     OW34528   3.181   3.136   5.383 -0.2993  0.5306 -0.3836
 7632SOL    HW134529   3.102   3.190   5.379 -1.5183 -1.1051  1.4636
 7632SOL    HW234530   3.172   3.087   5.465  0.4888 -0.7563 -1.0569
 7633SOL     OW34531   4.447   1.582   6.749 -0.7476  0.0142  0.1236
 7633SOL    HW134532   4.367   1.535   6.773 -0.9317  0.2580 -0.0122
 7633SOL    HW234533   4.483   1.618   6.830 -0.0843 -0.6419  0.1202
 7634SOL     OW34534   1.360   3.983   5.445 -0.4112 -0.3638  0.5718
 7634SOL    HW134535   1.325   3.990   5.534 -0.9507 -0.0836  0.3367
 7634SOL    HW234536   1.279   3.970   5.396 -0.4305  0.0163  0.4998
 7635SOL     OW34537   1.885   4.341  16.176  0.3207  0.0543  0.6614
 7635SOL    HW134538   1.807   4.315  16.224  0.2127  0.4711  0.7138
 7635SOL    HW234539   1.846   4.342  16.089 -0.7429 -3.6175  1.1140
 7636SOL     OW34540   1.757   4.337   5.983  0.2953 -0.2848 -0.2801
 7636SOL    HW134541   1.851   4.347   5.969  0.2803  0.4261  0.1689
 7636SOL    HW234542   1.753   4.241   5.992 -0.7042 -0.0563  1.6617
 7637SOL     OW34543   4.378   3.737   9.242  0.0204  0.0558  0.5512
 7637SOL    HW134544   4.315   3.683   9.196  1.5455 -1.0373 -0.2653
 7637SOL    HW234545   4.431   3.674   9.291  0.5299 -0.4811 -0.6897
 7638SOL     OW34546   2.302   3.429   2.134  0.0616  0.2059 -0.3731
 7638SOL    HW134547   2.341   3.439   2.047 -1.6720  2.2806 -0.9074
 7638SOL    HW234548   2.233   3.364   2.117 -0.3694 -0.1859  2.7604
 7639SOL     OW34549   3.477   0.838   7.301 -0.1817 -0.1206 -0.0969
 7639SOL    HW134550   3.564   0.873   7.286 -0.2103 -0.3053 -0.7208
 7639SOL    HW234551   3.471   0.856   7.395 -0.6746 -1.4332  0.1302
 7640SOL     OW34552   3.269   0.836   5.906 -0.0734  0.5491  0.3661
 7640SOL    HW134553   3.203   0.777   5.942  1.0879 -1.0794 -0.1726
 7640SOL    HW234554   3.279   0.794   5.820 -1.4875 -1.4727  1.1942
 7641SOL     OW34555   0.108   0.436   4.280 -0.7911 -0.1946 -0.3639
 7641SOL    HW134556   0.056   0.446   4.200 -2.0661  0.1593  0.5039
 7641SOL    HW234557   0.095   0.342   4.294 -2.6954  0.3687  1.7761
 7642SOL     OW34558   3.140   0.685   0.647  0.0100  0.1182 -0.0222
 7642SOL    HW134559   3.087   0.765   0.640  1.2915  0.9787  0.0510
 7642SOL    HW234560   3.202   0.701   0.718 -0.0550  1.7677 -0.3344
 7643SOL     OW34561   2.694   2.556   5.629 -0.4999 -0.3775  0.2713
 7643SOL    HW134562   2.602   2.557   5.603 -0.1152  1.1878 -0.9947
 7643SOL    HW234563   2.688   2.568   5.723  0.7630  1.2322  0.1441
 7644SOL     OW34564   3.071   2.585  12.504  0.1574  0.0017 -0.3252
 7644SOL    HW134565   3.159   2.622  12.511 -0.4178  1.4927 -1.2820
 7644SOL    HW234566   3.062   2.561  12.412 -0.2042  0.7295 -0.4764
 7645SOL     OW34567   2.904   3.769   6.532  0.2966 -0.1134 -0.2245
 7645SOL    HW134568   2.920   3.676   6.547  1.7173 -0.0013 -1.0746
 7645SOL    HW234569   2.963   3.790   6.460  0.3912 -2.5112 -0.8384
 7646SOL     OW34570   2.991   0.312  12.330  0.6558  0.6465  0.5406
 7646SOL    HW134571   3.074   0.356  12.346  1.4710 -0.9703  0.6624
 7646SOL    HW234572   3.012   0.278  12.243  0.9079  0.6787  0.5899
 7647SOL     OW34573   3.534   4.134   2.128  0.1377 -0.3705  0.2405
 7647SOL    HW134574   3.507   4.059   2.075 -0.3757  1.1968 -1.7473
 7647SOL    HW234575   3.455   4.161   2.175  0.7788 -1.8857  2.1369
 7648SOL     OW34576   2.618   4.382  15.687 -0.0097 -0.4655  0.1671
 7648SOL    HW134577   2.693   4.327  15.711 -0.2313  0.3263  2.7060
 7648SOL    HW234578   2.558   4.356  15.757 -0.6106 -1.5321 -0.7495
 7649SOL     OW34579   1.099   0.228  15.576  0.0479  0.4921  0.4884
 7649SOL    HW134580   1.191   0.231  15.604 -0.2412  1.4393  1.3016
 7649SOL    HW234581   1.047   0.233  15.656  0.9400  2.0090  0.9686
 7650SOL     OW34582   4.172   3.402  15.357 -0.3607 -0.4863  0.0889
 7650SOL    HW134583   4.126   3.481  15.329 -0.7490 -0.0686  1.8667
 7650SOL    HW234584   4.132   3.377  15.441 -0.3609  1.6291  0.7179
 7651SOL     OW34585   3.900   2.889   4.407  0.0666  0.2449  0.3629
 7651SOL    HW134586   3.845   2.965   4.389 -1.0315 -0.3472  1.2003
 7651SOL    HW234587   3.969   2.923   4.464 -1.1051  0.1823  1.8331
 7652SOL     OW34588   2.902   4.670   7.801  0.3777 -0.1185 -0.1401
 7652SOL    HW134589   2.868   0.006   7.750 -0.8991  1.6969  3.2885
 7652SOL    HW234590   2.863   4.598   7.752 -0.5550 -0.4201  1.0523
 7653SOL     OW34591   2.151   3.060   7.680 -0.2102  0.1098 -0.4350
 7653SOL    HW134592   2.070   3.054   7.731  1.4248 -0.1546  2.0895
 7653SOL    HW234593   2.209   3.106   7.740  1.2840  0.0268 -1.8127
 7654SOL     OW34594   0.901   2.448   6.743  0.1529 -0.0018  0.1761
 7654SOL    HW134595   0.923   2.465   6.652 -2.5258  0.3784 -0.3899
 7654SOL    HW234596   0.826   2.390   6.733  1.3003 -1.5434  0.5046
 7655SOL     OW34597   3.195   1.190   1.540 -0.0238  0.1751 -0.2458
 7655SOL    HW134598   3.175   1.175   1.633  0.4704  0.6296 -0.0660
 7655SOL    HW234599   3.180   1.284   1.531 -2.0385 -0.1851 -0.7237
 7656SOL     OW34600   1.776   0.836   2.066  0.1189  0.7280  0.2527
 7656SOL    HW134601   1.703   0.779   2.090  0.5122  0.4747  0.8506
 7656SOL    HW234602   1.832   0.816   2.141  0.8025 -0.9775 -0.7186
 7657SOL     OW34603   4.636   3.554   5.396 -0.1559 -0.1501 -0.5324
 7657SOL    HW134604   4.621   3.479   5.338 -0.3500  1.1879 -2.1853
 7657SOL    HW234605   4.571   3.612   5.358 -1.2047 -2.0593 -1.6513
 7658SOL     OW34606   3.963   4.085   6.446  0.6569  0.2552 -1.2412
 7658SOL    HW134607   3.952   4.120   6.534  1.0405 -0.2903 -0.9786
 7658SOL    HW234608   3.890   4.117   6.393 -1.3696 -0.5699  1.0712
 7659SOL     OW34609   1.497   3.172   8.249  0.2132  0.4904  0.1884
 7659SOL    HW134610   1.423   3.234   8.248  0.2527  0.5158 -1.8151
 7659SOL    HW234611   1.519   3.182   8.341 -1.4939 -1.4038  0.7797
 7660SOL     OW34612   1.678   0.473   5.908 -0.4128  0.0180 -0.6760
 7660SOL    HW134613   1.583   0.463   5.920 -0.5290  1.5900 -0.2087
 7660SOL    HW234614   1.681   0.568   5.900  0.7313  0.2726  2.7485
 7661SOL     OW34615   3.259   3.152   9.287 -0.9737  0.3042  0.0878
 7661SOL    HW134616   3.350   3.155   9.258  0.1290 -0.8912  3.4829
 7661SOL    HW234617   3.248   3.069   9.333 -0.3477 -0.1543 -0.6018
 7662SOL     OW34618   4.486   2.679   1.057  0.0156 -0.2748 -0.0273
 7662SOL    HW134619   4.429   2.720   1.123  1.2237  0.4315  0.5751
 7662SOL    HW234620   4.440   2.707   0.978 -0.3180 -2.5413 -0.6311
 7663SOL     OW34621   2.428   4.504   6.131 -0.0697  0.4952 -0.3503
 7663SOL    HW134622   2.370   4.549   6.193 -0.6104 -1.2043  0.3659
 7663SOL    HW234623   2.465   4.435   6.184 -1.6720  0.8795  1.2776
 7664SOL     OW34624   4.226   3.253   1.648 -0.4014 -0.0767 -0.1668
 7664SOL    HW134625   4.159   3.314   1.617  2.8165  2.4483 -2.1629
 7664SOL    HW234626   4.216   3.274   1.741 -0.0603  0.1159 -0.1729
 7665SOL     OW34627   4.175   4.482   8.851  0.0074 -0.1823 -0.3282
 7665SOL    HW134628   4.223   4.399   8.846  0.1026 -0.2554  1.6913
 7665SOL    HW234629   4.162   4.495   8.945 -0.7962 -3.4923  0.0276
 7666SOL     OW34630   3.220   0.299   6.608  0.5493  0.5492  0.4293
 7666SOL    HW134631   3.234   0.252   6.690  1.2534  1.8316  1.0501
 7666SOL    HW234632   3.262   0.235   6.550 -0.5540 -0.4327  0.7140
 7667SOL     OW34633   1.117   0.062   4.404 -0.2751 -0.4774 -0.4056
 7667SOL    HW134634   1.187   0.122   4.376 -0.2565  0.5894  1.9111
 7667SOL    HW234635   1.119   0.080   4.498 -0.6716 -1.4084 -0.2165
 7668SOL     OW34636   2.948   4.188   4.074 -0.2526  0.3482  0.8997
 7668SOL    HW134637   2.980   4.118   4.130 -2.8236 -0.0885  1.8360
 7668SOL    HW234638   3.026   4.239   4.051  0.5640  0.4624  3.9371
 7669SOL     OW34639   0.904   4.313  12.062  0.3913 -0.4017  0.1460
 7669SOL    HW134640   0.973   4.372  12.092 -0.3633  0.5793 -0.0254
 7669SOL    HW234641   0.954   4.232  12.056 -0.4742 -0.8783 -0.5919
 7670SOL     OW34642   3.400   2.153   0.310  0.5056  0.2900  0.4521
 7670SOL    HW134643   3.370   2.243   0.298  0.4920  0.5112  2.1096
 7670SOL    HW234644   3.368   2.145   0.400  2.1428 -2.2766  0.7953
 7671SOL     OW34645   1.954   3.471   4.856  0.3324 -0.4666  0.1484
 7671SOL    HW134646   1.879   3.449   4.910 -0.7272 -0.0715 -1.1517
 7671SOL    HW234647   1.971   3.384   4.819  0.0284 -0.5953  0.3168
 7672SOL     OW34648   0.773   0.317  11.585 -0.4308  0.5437  0.0918
 7672SOL    HW134649   0.731   0.289  11.503 -0.1768 -0.7378  0.4037
 7672SOL    HW234650   0.723   0.276  11.655  1.6906 -2.0028  0.1171
 7673SOL     OW34651   3.273   0.114   5.663  0.2660  0.0071 -0.2348
 7673SOL    HW134652   3.314   0.028   5.651 -0.4124 -0.0766 -1.9339
 7673SOL    HW234653   3.303   0.167   5.589  1.4054  0.6334  0.6867
 7674SOL     OW34654   4.151   4.200   2.000 -0.8293 -0.4098 -0.1006
 7674SOL    HW134655   4.145   4.282   1.951  1.7485 -1.7869 -2.6707
 7674SOL    HW234656   4.099   4.221   2.078  0.4733  0.9990  0.3787
 7675SOL     OW34657   0.294   0.603   7.816  0.0895 -0.2128  0.1135
 7675SOL    HW134658   0.203   0.632   7.806 -0.2522 -0.0284  3.9719
 7675SOL    HW234659   0.294   0.566   7.904 -0.8614 -0.1719  0.1365
 7676SOL     OW34660   0.446   2.287  10.705  0.3830  0.3816 -0.1109
 7676SOL    HW134661   0.369   2.312  10.653  1.0720  0.7018 -0.9783
 7676SOL    HW234662   0.398   2.258  10.782  2.4497 -0.8904  0.6724
 7677SOL     OW34663   4.337   0.290   4.290  0.0918  0.2951  0.1890
 7677SOL    HW134664   4.356   0.216   4.347 -1.3096 -1.6257 -1.8458
 7677SOL    HW234665   4.244   0.277   4.271  0.2198 -1.2816  0.7138
 7678SOL     OW34666   0.284   0.152   8.677 -0.0145  0.7141  0.4014
 7678SOL    HW134667   0.210   0.123   8.623 -1.6379  0.9888  2.4814
 7678SOL    HW234668   0.267   0.100   8.755  1.7753  1.6152  1.3887
 7679SOL     OW34669   2.912   2.964   4.994  0.2467 -0.2885  0.3862
 7679SOL    HW134670   2.938   2.873   5.000  2.0306  0.3654  2.4809
 7679SOL    HW234671   2.824   2.936   5.021  0.1766 -1.5943 -1.2123
 7680SOL     OW34672   3.774   0.220   4.934  0.2505 -0.2865  0.7990
 7680SOL    HW134673   3.714   0.224   4.859  0.8129 -3.4852  0.1891
 7680SOL    HW234674   3.851   0.171   4.906  0.7657  1.8293 -1.5696
 7681SOL     OW34675   0.398   2.005   2.366 -0.0400  0.0448  0.3715
 7681SOL    HW134676   0.377   2.086   2.413  1.0227  1.5038 -1.6963
 7681SOL    HW234677   0.312   1.986   2.326  0.9033 -0.3080 -1.4863
 7682SOL     OW34678   3.271   4.699   2.867 -0.3209  0.1843  0.6350
 7682SOL    HW134679   3.260   0.046   2.826 -0.0495  0.6257  1.4630
 7682SOL    HW234680   3.178   4.694   2.891  0.0026 -2.7324  1.3080
 7683SOL     OW34681   4.705   3.422   6.884 -0.6867  0.0236 -0.1761
 7683SOL    HW134682   0.016   3.503   6.867  0.3028 -0.2981  1.1671
 7683SOL    HW234683   0.036   3.374   6.930  0.2261  1.0370 -0.4799
 7684SOL     OW34684   0.908   1.835   5.173 -0.0327  0.7160  0.0655
 7684SOL    HW134685   0.998   1.837   5.141  0.4813  0.1803  1.4719
 7684SOL    HW234686   0.906   1.915   5.225  2.6271 -1.1389  3.0104
 7685SOL     OW34687   0.023   4.560   5.569  0.8005 -0.1372 -0.1085
 7685SOL    HW134688   4.703   4.501   5.617 -0.2351  0.9800  0.0388
 7685SOL    HW234689   0.107   4.520   5.590 -0.1565 -1.8719  0.4131
 7686SOL     OW34690   3.046   3.114   6.126  0.5463  0.4997 -0.0565
 7686SOL    HW134691   3.090   3.032   6.105 -0.0017  0.5334 -1.3369
 7686SOL    HW234692   2.957   3.093   6.098 -0.0474  2.8374  0.0887
 7687SOL     OW34693   0.684   4.158   6.522  0.4106  0.0044 -0.4200
 7687SOL    HW134694   0.644   4.152   6.609 -1.6193  1.3366 -1.2372
 7687SOL    HW234695   0.629   4.105   6.465  0.4540 -0.1663 -0.3040
 7688SOL     OW34696   2.937   4.130   5.493  0.2131  0.1655 -0.6974
 7688SOL    HW134697   2.899   4.217   5.481 -2.9704 -1.0963  0.3110
 7688SOL    HW234698   2.865   4.084   5.536  0.3052  0.8608  0.2128
 7689SOL     OW34699   3.753   2.160   6.249  0.1865 -0.0888 -0.6438
 7689SOL    HW134700   3.768   2.255   6.246 -2.5095  0.4377  2.7070
 7689SOL    HW234701   3.669   2.145   6.207 -0.2158 -2.6351  1.0844
 7690SOL     OW34702   3.283   0.935   3.904 -0.2416  0.1706 -0.3251
 7690SOL    HW134703   3.345   0.927   3.976  1.0492  1.2324 -1.3058
 7690SOL    HW234704   3.323   1.006   3.854 -1.7097  1.3255  0.1143
 7691SOL     OW34705   2.210   4.123  11.282  0.5368 -0.1768  0.0851
 7691SOL    HW134706   2.192   4.173  11.202 -0.3041 -1.8351 -0.7639
 7691SOL    HW234707   2.145   4.160  11.341  2.3417  1.2160  1.2155
 7692SOL     OW34708   1.024   4.287  17.351  0.0328 -0.0688 -0.0360
 7692SOL    HW134709   1.086   4.242  17.408 -0.8299  0.3777  1.2445
 7692SOL    HW234710   1.060   4.376  17.356  1.6383 -0.7525  0.4127
 7693SOL     OW34711   1.857   0.411   8.571  0.0262  0.0054 -0.3195
 7693SOL    HW134712   1.809   0.434   8.650  2.5137 -0.1903  1.2278
 7693SOL    HW234713   1.823   0.474   8.508  1.0649 -1.7977 -2.7328
 7694SOL     OW34714   2.728   2.303   3.392 -0.3349  0.1004 -0.2451
 7694SOL    HW134715   2.685   2.288   3.477  1.8205 -0.3738  0.7489
 7694SOL    HW234716   2.778   2.223   3.383  0.1675  0.4132 -0.2169
 7695SOL     OW34717   3.509   1.853   4.163 -0.7938  0.1524 -0.5670
 7695SOL    HW134718   3.555   1.864   4.246  0.0325  0.2066 -1.0223
 7695SOL    HW234719   3.579   1.868   4.099  1.0579  3.9500  2.3462
 7696SOL     OW34720   2.462   4.002   7.267  0.6174 -0.2102  0.3872
 7696SOL    HW134721   2.429   4.040   7.348  0.5005 -2.9390  1.6211
 7696SOL    HW234722   2.529   4.062   7.235  1.0063  0.3717  2.3162
 7697SOL     OW34723   2.030   2.085   8.627  0.4682 -1.2563  0.0564
 7697SOL    HW134724   1.961   2.125   8.574  0.9842 -0.9748 -0.4079
 7697SOL    HW234725   2.102   2.148   8.632 -2.5670  2.2503 -0.8395
 7698SOL     OW34726   0.312   1.422  11.692 -0.0229 -0.3288  0.1265
 7698SOL    HW134727   0.292   1.444  11.601 -0.6314  0.2233  0.3989
 7698SOL    HW234728   0.259   1.478  11.749  0.6420 -0.3651  0.7778
 7699SOL     OW34729   3.198   0.931   1.447 -0.2329 -0.4168 -0.2601
 7699SOL    HW134730   3.234   0.952   1.360 -1.3420  1.1768 -0.3282
 7699SOL    HW234731   3.194   1.021   1.481 -3.3281 -1.1835  1.3477
 7700SOL     OW34732   0.120   2.709   3.235  0.2208 -0.1128 -0.1193
 7700SOL    HW134733   0.087   2.627   3.273  0.3222 -0.4630 -0.7862
 7700SOL    HW234734   0.207   2.721   3.273  0.8838 -1.5224 -1.1799
 7701SOL     OW34735   0.961   1.951  10.609 -0.3698 -0.1590 -0.0665
 7701SOL    HW134736   0.948   1.914  10.696 -0.0494 -0.3801 -0.1088
 7701SOL    HW234737   0.955   2.044  10.631  6.0653  0.3123 -0.1652
 7702SOL     OW34738   0.116   2.630   6.432 -0.3637 -0.5741 -0.0740
 7702SOL    HW134739   0.198   2.630   6.483 -1.3270  0.5105  1.4844
 7702SOL    HW234740   0.046   2.640   6.497 -1.7043 -1.2376 -1.4348
 7703SOL     OW34741   1.568   4.590   5.169  0.4272  0.1702 -0.2738
 7703SOL    HW134742   1.534   4.545   5.091  0.0155 -1.7571  1.0291
 7703SOL    HW234743   1.653   4.551   5.187  1.0674  0.4219 -2.6719
 7704SOL     OW34744   4.467   3.995   7.028 -0.1453  0.0134  0.0673
 7704SOL    HW134745   4.463   3.900   7.039  1.1184 -0.0998 -0.3579
 7704SOL    HW234746   4.531   4.002   6.957  0.9313  0.7567  1.1013
 7705SOL     OW34747   2.471   2.512   7.068  0.2161  0.5582  0.1031
 7705SOL    HW134748   2.555   2.526   7.111  1.3509 -1.2212 -1.5264
 7705SOL    HW234749   2.410   2.533   7.138  0.4747 -0.8656  0.7588
 7706SOL     OW34750   1.793   1.096   5.203  0.8340  0.0230  0.4721
 7706SOL    HW134751   1.757   1.033   5.141 -2.4759  1.1997  1.2415
 7706SOL    HW234752   1.783   1.053   5.288 -1.6668 -0.6800 -0.1810
 7707SOL     OW34753   1.561   3.831   5.760 -0.2170  0.6469  0.6775
 7707SOL    HW134754   1.476   3.787   5.770 -0.9325  1.5015 -1.7438
 7707SOL    HW234755   1.599   3.807   5.844 -0.6983 -3.2815 -0.2311
 7708SOL     OW34756   1.540   0.680  14.699  0.1593  0.7452  0.0861
 7708SOL    HW134757   1.541   0.774  14.714  0.1791  0.8199 -0.3776
 7708SOL    HW234758   1.631   0.663  14.676 -0.3951 -1.6600 -0.3887
 7709SOL     OW34759   3.028   3.585   3.077  0.2202 -0.2323 -0.1132
 7709SOL    HW134760   3.007   3.535   3.156  1.7565 -0.5393  0.0941
 7709SOL    HW234761   2.987   3.528   3.012 -0.0431  1.5613 -1.5289
 7710SOL     OW34762   3.607   0.202   6.809  0.3311  0.6171 -0.7317
 7710SOL    HW134763   3.595   0.183   6.716 -1.9173  1.1915 -0.5643
 7710SOL    HW234764   3.558   0.284   6.811 -0.2916  0.2252  0.0212
 7711SOL     OW34765   3.818   3.333   1.920 -0.3546  0.4359 -0.7500
 7711SOL    HW134766   3.890   3.395   1.921 -0.3959  0.4844 -1.1033
 7711SOL    HW234767   3.733   3.377   1.921  0.2673  1.6031  0.5874
 7712SOL     OW34768   1.881   1.224   3.634  0.1529  0.4837  0.7797
 7712SOL    HW134769   1.791   1.213   3.662  0.8942  0.1595  3.0704
 7712SOL    HW234770   1.923   1.153   3.683  0.8596  0.0774 -0.4012
 7713SOL     OW34771   1.848   3.879   2.415 -0.3220 -0.3002 -0.2007
 7713SOL    HW134772   1.884   3.920   2.336 -1.6108  0.0452 -0.5993
 7713SOL    HW234773   1.758   3.904   2.394  0.5068  1.6121 -1.4525
 7714SOL     OW34774   2.495   2.938   6.778 -0.0259 -0.0071  1.1085
 7714SOL    HW134775   2.536   2.975   6.857  0.9487  0.6587  0.2951
 7714SOL    HW234776   2.491   2.846   6.803 -1.9719 -0.1747  0.1148
 7715SOL     OW34777   3.963   2.069   5.169 -0.2003 -0.0003  0.4005
 7715SOL    HW134778   3.904   2.072   5.244 -0.8546  0.3479 -0.1262
 7715SOL    HW234779   4.031   2.012   5.205  1.3069  0.8604 -1.0256
 7716SOL     OW34780   0.304   0.968  10.878  0.8594 -0.3466 -0.1517
 7716SOL    HW134781   0.244   0.899  10.904  2.6149 -2.1030 -0.7745
 7716SOL    HW234782   0.330   0.991  10.968 -0.1939 -0.4803  0.1844
 7717SOL     OW34783   1.439   2.644   8.858 -0.1677  0.2292  0.0179
 7717SOL    HW134784   1.493   2.565   8.859 -1.8478 -0.9147 -0.7587
 7717SOL    HW234785   1.463   2.686   8.941  0.5807 -1.2469  0.5499
 7718SOL     OW34786   2.371   4.372   2.378  0.6531 -0.5668  0.0176
 7718SOL    HW134787   2.396   4.325   2.299  1.0104  2.5860 -1.7447
 7718SOL    HW234788   2.309   4.308   2.414  0.0182  0.2447  0.3960
 7719SOL     OW34789   2.810   3.627  13.348 -0.1102  1.2363  0.1089
 7719SOL    HW134790   2.804   3.543  13.393 -0.2448  2.2625  2.0340
 7719SOL    HW234791   2.717   3.642  13.330  0.0008  3.3386  1.1900
 7720SOL     OW34792   1.907   4.508   6.203 -0.1622 -0.2980  0.2857
 7720SOL    HW134793   1.828   4.479   6.159  0.6049 -1.0935 -0.5690
 7720SOL    HW234794   1.978   4.461   6.158 -0.0603 -1.1337  1.3253
 7721SOL     OW34795   1.369   0.435   6.025 -0.1414 -0.4795 -0.2207
 7721SOL    HW134796   1.441   0.387   6.067  0.9652  0.9252 -0.5063
 7721SOL    HW234797   1.298   0.395   6.076  1.0510 -1.4300  0.7029
 7722SOL     OW34798   4.287   4.211   7.002  0.3391 -0.2048 -0.0313
 7722SOL    HW134799   4.206   4.174   7.036 -0.4121  0.1478 -1.4329
 7722SOL    HW234800   4.343   4.134   7.008  0.0741 -0.2371  1.9051
 7723SOL     OW34801   2.647   4.092   4.770  0.6016 -0.1335  0.2213
 7723SOL    HW134802   2.733   4.096   4.813 -0.0822 -1.0029  1.6563
 7723SOL    HW234803   2.602   4.093   4.854 -0.0788  0.3425 -0.1498
 7724SOL     OW34804   0.298   0.399   0.001  0.1351  0.1896  0.4295
 7724SOL    HW134805   0.325   0.489   0.016  0.0294 -0.0690  2.0975
 7724SOL    HW234806   0.244   0.376   0.077 -1.6022  0.1000 -0.8248
 7725SOL     OW34807   0.332   2.283   6.104 -0.4361  0.6764 -0.4338
 7725SOL    HW134808   0.315   2.191   6.084 -1.4364  0.6932  0.3469
 7725SOL    HW234809   0.250   2.333   6.106  0.1380  1.5516  1.1791
 7726SOL     OW34810   4.228   0.431   5.764  0.1144  0.3236  0.4328
 7726SOL    HW134811   4.207   0.350   5.719  2.2498  0.9073 -1.6445
 7726SOL    HW234812   4.247   0.404   5.854  1.0658  0.0521  0.1563
 7727SOL     OW34813   2.813   1.403   2.463  0.0634  0.5330 -0.5775
 7727SOL    HW134814   2.786   1.339   2.397 -0.7219  1.6574 -1.3507
 7727SOL    HW234815   2.907   1.403   2.448 -0.0709 -0.9282 -1.3619
 7728SOL     OW34816   4.600   4.640  12.084 -0.7259  0.2169 -0.3742
 7728SOL    HW134817   4.693   4.659  12.070 -0.2109 -1.7755  0.3008
 7728SOL    HW234818   4.586   4.597  12.000  1.8772 -2.5773  0.6224
 7729SOL     OW34819   1.447   3.700   8.734  0.2998  0.2722  0.2392
 7729SOL    HW134820   1.517   3.652   8.776 -0.2025 -1.4993 -0.9479
 7729SOL    HW234821   1.452   3.646   8.655  0.6157  0.4667  0.1266
 7730SOL     OW34822   3.662   0.293   7.637  0.3642 -0.0142 -0.5223
 7730SOL    HW134823   3.737   0.349   7.619  1.2475 -1.7059 -2.0434
 7730SOL    HW234824   3.705   0.212   7.665 -0.9979 -0.7117 -0.4375
 7731SOL     OW34825   1.116   1.938   7.320  0.0495  0.0248 -0.8401
 7731SOL    HW134826   1.052   1.982   7.376  0.2319  0.9917 -1.3987
 7731SOL    HW234827   1.201   1.929   7.363 -0.3797 -0.5960 -0.1113
 7732SOL     OW34828   3.476   0.915  17.609 -0.2809 -0.7175  0.2038
 7732SOL    HW134829   3.510   0.921  17.698  0.4701  1.1861 -0.2272
 7732SOL    HW234830   3.417   0.990  17.611  0.0688 -0.4339 -0.1347
 7733SOL     OW34831   4.364   4.345   4.222  0.6319  0.3497  0.0982
 7733SOL    HW134832   4.325   4.266   4.185 -2.7879  2.7274 -1.4149
 7733SOL    HW234833   4.293   4.406   4.202 -0.4669 -1.2151 -0.7934
 7734SOL     OW34834   3.753   1.338  17.193 -0.5397  0.4972 -0.5692
 7734SOL    HW134835   3.712   1.424  17.183  0.6090  1.0357 -0.7127
 7734SOL    HW234836   3.839   1.367  17.225 -0.6056 -0.6122  0.5932
 7735SOL     OW34837   4.502   0.774   2.367  0.0491 -0.8037  0.3898
 7735SOL    HW134838   4.519   0.851   2.312 -1.3739  0.6761  2.0424
 7735SOL    HW234839   4.438   0.813   2.426 -2.2922 -0.8608 -2.0652
 7736SOL     OW34840   2.284   4.273  17.475  0.2919 -0.3206  0.1093
 7736SOL    HW134841   2.290   4.178  17.477  0.2647 -0.2500  2.6491
 7736SOL    HW234842   2.327   4.294  17.557  0.0451 -0.9791  0.4026
 7737SOL     OW34843   1.719   3.814   8.125 -1.1381  0.2613 -0.0966
 7737SOL    HW134844   1.650   3.761   8.165  0.2036 -1.9134 -0.7257
 7737SOL    HW234845   1.721   3.873   8.201 -0.2493 -2.5832  2.0499
 7738SOL     OW34846   3.627   4.495  12.514 -0.2161  0.0816 -0.3613
 7738SOL    HW134847   3.657   4.459  12.597  0.8843 -0.1943 -0.8849
 7738SOL    HW234848   3.707   4.539  12.485  1.3262 -3.1666 -0.9262
 7739SOL     OW34849   3.495   2.904   8.574  0.0252  0.2016 -0.1216
 7739SOL    HW134850   3.421   2.844   8.573 -0.5105  0.9183 -2.5131
 7739SOL    HW234851   3.448   2.982   8.604 -1.5050 -1.3493  1.4572
 7740SOL     OW34852   4.031   4.001  10.017  0.3354  0.5939 -0.6413
 7740SOL    HW134853   4.012   3.939  10.088 -0.0412  0.6966 -0.6563
 7740SOL    HW234854   4.047   4.082  10.066  1.9902 -0.3408  0.3936
 7741SOL     OW34855   3.472   2.777   1.880 -0.0714  0.4270  0.5661
 7741SOL    HW134856   3.485   2.727   1.799  1.0914  1.7295 -0.0509
 7741SOL    HW234857   3.443   2.860   1.842 -0.8993  0.5029  1.3519
 7742SOL     OW34858   0.155   1.656   5.108 -0.2110 -0.8822  0.0448
 7742SOL    HW134859   0.204   1.650   5.026 -0.8255 -2.7002 -0.1877
 7742SOL    HW234860   0.069   1.672   5.068  0.0329  1.6449  0.5262
 7743SOL     OW34861   3.857   4.626   6.054 -0.3754 -0.4679 -0.6462
 7743SOL    HW134862   3.813   4.692   6.001  0.7135  0.3220 -0.5499
 7743SOL    HW234863   3.790   4.557   6.056 -1.0139  0.1576 -0.4793
 7744SOL     OW34864   2.004   4.355   3.448 -0.4648 -0.8278  0.0111
 7744SOL    HW134865   2.075   4.352   3.512  0.5641 -0.8444 -1.1337
 7744SOL    HW234866   2.026   4.280   3.392  1.0021 -0.5095  0.1696
 7745SOL     OW34867   2.991   1.316   2.892 -0.1871 -0.0555  0.6486
 7745SOL    HW134868   2.957   1.263   2.820  0.3002 -0.7031  0.9031
 7745SOL    HW234869   2.918   1.293   2.950  0.0296  1.3337  1.4697
 7746SOL     OW34870   3.339   1.977   6.672  0.2291 -0.0980  0.3195
 7746SOL    HW134871   3.334   1.907   6.607  0.3325  0.2545 -0.0764
 7746SOL    HW234872   3.428   2.006   6.653  0.0256  0.3425  0.0402
 7747SOL     OW34873   3.874   3.768   3.318  0.2137 -0.3624 -0.0375
 7747SOL    HW134874   3.821   3.742   3.242 -2.6371 -2.1592  2.5380
 7747SOL    HW234875   3.946   3.811   3.273  0.6450 -1.1939 -0.1460
 7748SOL     OW34876   1.704   1.924   5.976 -0.0634 -0.6424  0.1803
 7748SOL    HW134877   1.656   1.891   6.052 -2.8075 -2.3927 -2.2812
 7748SOL    HW234878   1.746   1.999   6.017  2.3705 -0.8649 -1.9294
 7749SOL     OW34879   2.629   2.590  11.180 -0.0683 -0.0441 -0.2278
 7749SOL    HW134880   2.596   2.501  11.191  0.4466 -0.2572 -0.4185
 7749SOL    HW234881   2.712   2.582  11.227 -0.4172  0.7580  0.5257
 7750SOL     OW34882   4.156   3.108   8.050 -0.0982 -0.1136  0.4166
 7750SOL    HW134883   4.095   3.182   8.048 -0.5119 -0.4714 -0.4302
 7750SOL    HW234884   4.237   3.158   8.054 -1.2123  1.4606  3.4961
 7751SOL     OW34885   3.104   0.664  10.540 -0.4686  0.0691  0.2305
 7751SOL    HW134886   3.020   0.638  10.502 -0.2333  0.1794 -0.3574
 7751SOL    HW234887   3.150   0.711  10.470 -1.5982 -0.3225 -0.7663
 7752SOL     OW34888   4.489   0.991   4.036 -0.0928 -0.0825 -0.4580
 7752SOL    HW134889   4.560   0.972   3.974  1.1291  0.3122  0.8236
 7752SOL    HW234890   4.486   0.916   4.095  1.6449 -1.7404 -2.4578
 7753SOL     OW34891   0.981   2.758  15.828  0.6000  0.3881  0.1345
 7753SOL    HW134892   1.064   2.797  15.801 -0.4370  3.2808  1.1205
 7753SOL    HW234893   0.977   2.794  15.917  1.6363  0.6867  0.0579
 7754SOL     OW34894   4.249   3.455   7.810  0.4512 -0.0339  0.0203
 7754SOL    HW134895   4.205   3.369   7.807  2.5049 -1.1428  1.9330
 7754SOL    HW234896   4.216   3.492   7.892 -2.7406  0.6834 -1.5655
 7755SOL     OW34897   0.598   0.745   3.233 -0.0083  0.1478  0.8604
 7755SOL    HW134898   0.551   0.674   3.190  1.0197  0.4981 -0.8285
 7755SOL    HW234899   0.649   0.692   3.294  0.6980  0.5961  0.6618
 7756SOL     OW34900   3.914   1.065   5.828  0.1979  0.0451  0.0145
 7756SOL    HW134901   3.933   0.980   5.788  1.6711  0.0880  0.6590
 7756SOL    HW234902   3.944   1.058   5.918 -0.9637  0.7505  0.4701
 7757SOL     OW34903   0.719   4.559   0.743  0.4604 -0.0220  0.1712
 7757SOL    HW134904   0.812   4.581   0.737  0.3659  0.7908  1.6931
 7757SOL    HW234905   0.728   4.469   0.775  1.3380 -0.2945 -0.8123
 7758SOL     OW34906   2.514   2.964   5.932 -0.2362 -0.7612 -0.0898
 7758SOL    HW134907   2.445   3.002   5.988  2.1870  0.7527  1.8776
 7758SOL    HW234908   2.464   2.884   5.920 -0.6499 -0.6534  0.8518
 7759SOL     OW34909   0.851   0.130   9.069 -0.4261 -0.3745 -0.6179
 7759SOL    HW134910   0.790   0.132   9.143 -1.1880  1.1777 -1.2968
 7759SOL    HW234911   0.879   0.220   9.056  1.4492 -0.6669  1.2794
 7760SOL     OW34912   4.122   1.280   5.346 -0.2763  0.0180 -0.5070
 7760SOL    HW134913   4.166   1.329   5.277 -0.2497 -0.2785 -0.7021
 7760SOL    HW234914   4.058   1.334   5.393  1.1261  0.5704  0.7692
 7761SOL     OW34915   3.640   1.287   3.150 -0.3817 -0.0834 -0.1682
 7761SOL    HW134916   3.643   1.242   3.066  0.0928  0.2109 -0.3087
 7761SOL    HW234917   3.727   1.268   3.184 -0.5690  1.7708  1.3754
 7762SOL     OW34918   1.234   0.985   4.719 -0.1669 -0.0440 -0.5044
 7762SOL    HW134919   1.201   0.944   4.799 -0.2530  2.6773  0.8652
 7762SOL    HW234920   1.207   0.927   4.648  0.9063  0.5455 -1.3986
 7763SOL     OW34921   0.146   4.632   1.431  0.3336  0.4348 -0.1358
 7763SOL    HW134922   0.201   4.706   1.408  0.1015  0.5668 -0.2684
 7763SOL    HW234923   0.076   4.674   1.481  0.5067 -2.1427  2.2779
 7764SOL     OW34924   2.404   1.519   4.949  0.1052  0.0230  0.0238
 7764SOL    HW134925   2.350   1.447   4.915 -1.2492  0.1499  1.9181
 7764SOL    HW234926   2.488   1.475   4.958 -0.5186 -1.3556 -0.8694
 7765SOL     OW34927   0.657   1.651   7.526  0.4435  0.1103 -0.6204
 7765SOL    HW134928   0.653   1.658   7.431 -0.6539  0.1425 -0.5716
 7765SOL    HW234929   0.608   1.569   7.535 -0.8211  0.9458  0.0853
 7766SOL     OW34930   3.400   2.039   8.110  0.0433 -0.1873 -0.3470
 7766SOL    HW134931   3.415   1.945   8.102  0.8326  0.2215 -3.9014
 7766SOL    HW234932   3.353   2.030   8.193 -1.7501 -2.4517 -1.6342
 7767SOL     OW34933   3.454   1.183   9.125 -0.3274 -0.0486  0.2315
 7767SOL    HW134934   3.384   1.205   9.063 -0.0462 -0.7141 -0.3223
 7767SOL    HW234935   3.538   1.187   9.080 -0.0012  1.9173  1.0191
 7768SOL     OW34936   1.919   0.227  16.258 -0.0064  0.2111  0.2811
 7768SOL    HW134937   1.863   0.245  16.183  1.3065 -1.0671 -1.0117
 7768SOL    HW234938   1.870   0.162  16.309  1.4750  0.5769  2.1777
 7769SOL     OW34939   1.585   3.581   9.233 -0.1627  0.1018  0.4288
 7769SOL    HW134940   1.644   3.654   9.215 -0.6436  0.9633  2.3539
 7769SOL    HW234941   1.652   3.514   9.221  1.4405  1.3995  2.1482
 7770SOL     OW34942   3.279   4.701  12.569 -0.0789 -0.6588 -0.0266
 7770SOL    HW134943   3.347   4.633  12.568 -0.2381 -0.8090 -0.5501
 7770SOL    HW234944   3.315   0.036  12.619 -2.2517  0.5933 -0.3031
 7771SOL     OW34945   1.124   0.344   6.461 -0.5649  0.6222 -0.5557
 7771SOL    HW134946   1.112   0.389   6.544  0.4488 -0.3490  0.1140
 7771SOL    HW234947   1.064   0.271   6.476  0.3574 -0.9472 -4.4606
 7772SOL     OW34948   3.985   3.109   5.754 -0.4184  0.2768  0.1288
 7772SOL    HW134949   4.031   3.171   5.811 -0.6000 -0.4046  1.0098
 7772SOL    HW234950   4.050   3.039   5.753 -2.3296 -1.5002 -0.4572
 7773SOL     OW34951   1.361   4.032   3.757 -0.0821  0.2137 -0.3377
 7773SOL    HW134952   1.385   4.123   3.770 -1.8387  0.7682 -0.9127
 7773SOL    HW234953   1.436   3.995   3.804  0.3313  0.2776 -0.9529
 7774SOL     OW34954   2.961   2.705   4.914 -0.2825  0.4222  0.3286
 7774SOL    HW134955   3.007   2.647   4.975  0.4537  0.2059 -0.4275
 7774SOL    HW234956   2.902   2.642   4.873  0.0527 -0.7164  1.5896
 7775SOL     OW34957   3.280   2.634   1.765 -0.0796 -0.5859  0.5117
 7775SOL    HW134958   3.344   2.626   1.836 -0.9436  2.0555  1.6033
 7775SOL    HW234959   3.200   2.616   1.814 -0.1909 -1.6668 -0.0673
 7776SOL     OW34960   2.141   0.161   7.541  0.0142  0.2111  0.0607
 7776SOL    HW134961   2.081   0.231   7.515  2.8140  2.8804  0.7845
 7776SOL    HW234962   2.100   0.077   7.521  2.9544 -1.5315  1.3839
 7777SOL     OW34963   1.100   2.307   0.111 -0.3509 -0.2862  0.2056
 7777SOL    HW134964   1.084   2.401   0.102 -1.2799 -0.4927 -0.3641
 7777SOL    HW234965   1.087   2.266   0.025 -1.3628 -0.7024  0.5558
 7778SOL     OW34966   3.359   4.407   9.328  0.4931 -0.4996 -0.2045
 7778SOL    HW134967   3.359   4.399   9.423  0.4559  0.3697 -0.1322
 7778SOL    HW234968   3.282   4.460   9.306 -1.1242 -2.9319 -0.4319
 7779SOL     OW34969   3.323   3.768   7.772 -0.2112 -0.7615  0.0133
 7779SOL    HW134970   3.236   3.732   7.790 -0.1784 -1.7032 -1.7351
 7779SOL    HW234971   3.307   3.862   7.762 -0.9464 -0.7750  1.0523
 7780SOL     OW34972   4.139   3.721  14.052 -0.3194  0.3767  0.3866
 7780SOL    HW134973   4.075   3.680  14.110  1.2582 -0.7803  1.3197
 7780SOL    HW234974   4.165   3.642  14.005 -2.3991 -0.5247  0.7622
 7781SOL     OW34975   4.312   2.603   5.535 -0.1601 -0.0023 -0.2321
 7781SOL    HW134976   4.276   2.523   5.572  1.6060 -1.2568 -1.2287
 7781SOL    HW234977   4.270   2.614   5.450  0.0051  1.1427 -0.1704
 7782SOL     OW34978   3.351   4.437   6.240  0.4621 -0.1912 -0.7433
 7782SOL    HW134979   3.256   4.429   6.249  0.3526  3.3164  1.6429
 7782SOL    HW234980   3.366   4.523   6.200  1.6968 -0.6536 -1.2522
 7783SOL     OW34981   4.735   1.579   0.872  0.6411  0.0287  0.3562
 7783SOL    HW134982   4.729   1.629   0.953 -2.5772  0.7583 -0.3520
 7783SOL    HW234983   0.043   1.645   0.819  2.0472 -2.6475 -1.7966
 7784SOL     OW34984   0.015   3.561   2.858 -0.6225  0.5265  0.8928
 7784SOL    HW134985   0.015   3.538   2.765  3.3423  1.4610  0.6925
 7784SOL    HW234986   0.041   3.474   2.890 -0.8346  0.8620  2.0002
 7785SOL     OW34987   2.659   0.318   6.338 -0.3687  0.3853  0.1559
 7785SOL    HW134988   2.672   0.277   6.253 -0.3252  1.7048 -0.4675
 7785SOL    HW234989   2.581   0.368   6.314 -1.0625 -0.2081  1.1744
 7786SOL     OW34990   1.976   0.096   3.229  0.3209 -0.4661  0.0958
 7786SOL    HW134991   1.901   0.151   3.251  0.2153 -1.0766  1.2473
 7786SOL    HW234992   1.933   0.010   3.225  3.7849 -2.1599 -0.5609
 7787SOL     OW34993   3.107   0.989  15.206  0.0299  0.3502 -0.4193
 7787SOL    HW134994   3.081   0.984  15.298  1.8648 -2.1135 -0.0048
 7787SOL    HW234995   3.143   1.078  15.207  1.1049 -0.0833  0.0111
 7788SOL     OW34996   3.032   2.376   0.379 -0.1532 -0.0320  0.2019
 7788SOL    HW134997   3.111   2.366   0.326 -0.9648 -0.1635 -0.9686
 7788SOL    HW234998   3.011   2.464   0.350  2.2930  0.5141  0.0795
 7789SOL     OW34999   3.033   0.967   9.242  0.1756 -0.4947  0.4917
 7789SOL    HW135000   3.123   0.965   9.276  0.1882  3.7586  0.7528
 7789SOL    HW235001   3.028   0.887   9.189  1.6554  0.4344 -1.0703
 7790SOL     OW35002   3.481   3.966   9.257  0.2198 -0.4130 -0.2283
 7790SOL    HW135003   3.552   3.945   9.197  0.3077  1.1740 -0.6921
 7790SOL    HW235004   3.422   4.024   9.209 -1.4747 -1.4498  0.5743
 7791SOL     OW35005   2.683   1.951   2.343 -0.2387 -1.0714 -0.0254
 7791SOL    HW135006   2.712   1.860   2.348 -0.4922 -1.1379  0.2035
 7791SOL    HW235007   2.732   1.994   2.413  2.5341 -1.3069 -1.7950
 7792SOL     OW35008   0.722   2.995   9.688 -0.1835  0.5951 -0.4444
 7792SOL    HW135009   0.634   2.959   9.704 -0.3898  0.5805 -1.6270
 7792SOL    HW235010   0.733   3.031   9.776  1.6483  0.3473 -0.5803
 7793SOL     OW35011   2.779   0.900   3.401 -0.1284 -0.1806  0.4286
 7793SOL    HW135012   2.690   0.867   3.386 -0.0590 -0.2983  0.2772
 7793SOL    HW235013   2.771   0.930   3.491 -2.6375 -0.6562  0.3840
 7794SOL     OW35014   2.826   1.643   2.969 -0.2312 -0.7216  0.2074
 7794SOL    HW135015   2.861   1.648   2.880 -1.1442 -0.3192 -0.1283
 7794SOL    HW235016   2.902   1.617   3.022  0.0380  0.9240  0.6191
 7795SOL     OW35017   0.298   3.752  15.617 -0.3921  0.1279 -0.3961
 7795SOL    HW135018   0.303   3.703  15.699  1.3922  1.7695  0.4543
 7795SOL    HW235019   0.228   3.709  15.567 -0.1016 -2.1817  1.1315
 7796SOL     OW35020   3.072   4.359  10.049  0.0568 -0.2469  0.1852
 7796SOL    HW135021   3.044   4.323   9.965 -1.1167 -0.3325  0.6110
 7796SOL    HW235022   3.162   4.329  10.062 -0.4795 -2.5390 -1.5138
 7797SOL     OW35023   0.545   1.780  16.851 -0.1087  0.3762 -0.6629
 7797SOL    HW135024   0.596   1.848  16.808 -1.4635  0.5741 -1.9861
 7797SOL    HW235025   0.477   1.837  16.886 -0.0065 -0.5160  1.0016
 7798SOL     OW35026   2.159   0.200   4.155 -0.1021  0.2825  0.0176
 7798SOL    HW135027   2.087   0.247   4.195 -1.0253 -0.0698 -1.2319
 7798SOL    HW235028   2.228   0.254   4.192 -0.5235  0.5231  0.4455
 7799SOL     OW35029   4.426   0.429   7.114  0.6014 -0.0348  0.0289
 7799SOL    HW135030   4.462   0.488   7.048 -1.1146  0.0834 -0.8158
 7799SOL    HW235031   4.445   0.480   7.192 -0.6505  1.9046 -0.9519
 7800SOL     OW35032   4.623   3.992  14.086  0.1868  0.3745 -0.1842
 7800SOL    HW135033   4.667   3.920  14.040  1.3992  0.6607  0.5197
 7800SOL    HW235034   4.532   3.968  14.066  0.4026 -0.0352 -0.6645
 7801SOL     OW35035   2.434   0.915   2.642  0.1344  0.6820 -0.0732
 7801SOL    HW135036   2.399   0.829   2.665 -1.1946  1.2002 -0.1897
 7801SOL    HW235037   2.365   0.935   2.580 -0.1301  2.3587  0.7407
 7802SOL     OW35038   3.261   2.796   8.497 -0.0106  0.5248 -0.7186
 7802SOL    HW135039   3.216   2.767   8.419 -0.8998 -0.6537  0.2383
 7802SOL    HW235040   3.259   2.892   8.487  1.4094  0.5906 -0.3888
 7803SOL     OW35041   2.631   3.685   9.702  0.5866 -0.2770 -0.0836
 7803SOL    HW135042   2.607   3.680   9.794  1.3229 -0.2120  0.1094
 7803SOL    HW235043   2.553   3.725   9.662  1.5959 -0.7852 -2.5924
 7804SOL     OW35044   1.597   3.100   3.942 -0.0830 -0.4865  0.0806
 7804SOL    HW135045   1.572   3.138   4.027  1.7715  0.2782  0.2930
 7804SOL    HW235046   1.524   3.129   3.888  0.3449 -2.1424 -1.3467
 7805SOL     OW35047   1.165   4.089   9.591 -0.7076 -0.6010 -0.4645
 7805SOL    HW135048   1.250   4.131   9.581 -0.1506 -1.0283  2.4143
 7805SOL    HW235049   1.166   4.080   9.687 -0.1502 -1.9285 -0.5968
 7806SOL     OW35050   4.397   2.104   2.245 -0.2299 -0.3686  0.3170
 7806SOL    HW135051   4.395   2.171   2.313  1.0320 -0.2531  0.2300
 7806SOL    HW235052   4.356   2.028   2.288 -2.9126  0.8325 -0.0948
 7807SOL     OW35053   4.081   0.381  11.806 -0.2200  0.4185 -0.1346
 7807SOL    HW135054   4.059   0.334  11.725  0.4841  1.0751 -0.7047
 7807SOL    HW235055   4.171   0.354  11.826 -0.6524 -0.5412  0.5172
 7808SOL     OW35056   0.605   0.803  12.459 -0.7953 -0.1878 -0.4104
 7808SOL    HW135057   0.675   0.868  12.465 -2.1572  1.1775  0.5361
 7808SOL    HW235058   0.622   0.751  12.537  0.1092 -0.7672 -0.9896
 7809SOL     OW35059   2.877   2.680  13.494  0.3139  0.1307 -0.2445
 7809SOL    HW135060   2.901   2.671  13.586  2.1409 -1.5891 -0.8973
 7809SOL    HW235061   2.795   2.728  13.501  0.6787  0.7333 -0.1437
 7810SOL     OW35062   1.157   0.984   9.498 -0.0407  0.0756  0.3182
 7810SOL    HW135063   1.217   0.920   9.537 -0.6749  0.6941  2.2979
 7810SOL    HW235064   1.161   1.054   9.563  1.4860  0.3755 -0.0921
 7811SOL     OW35065   3.647   2.106   4.043 -0.0997 -0.1074  0.1690
 7811SOL    HW135066   3.558   2.100   4.007  0.1989 -1.8627 -0.2680
 7811SOL    HW235067   3.628   2.132   4.134  0.8673 -1.8003  0.8394
 7812SOL     OW35068   2.930   1.047   7.583  0.8233 -0.3868  0.2113
 7812SOL    HW135069   2.926   1.138   7.552 -3.8278 -0.6230  0.1037
 7812SOL    HW235070   3.015   1.028   7.543  0.5078 -1.1354 -0.0887
 7813SOL     OW35071   2.204   2.998  15.429  0.3326  0.0622 -0.0860
 7813SOL    HW135072   2.239   3.024  15.514  1.1948 -2.1643  0.2515
 7813SOL    HW235073   2.140   3.066  15.409  0.0226 -0.5203 -1.0860
 7814SOL     OW35074   2.334   3.096   8.357  0.4010  0.1008  0.2576
 7814SOL    HW135075   2.422   3.129   8.345  1.5673 -3.0727 -0.0742
 7814SOL    HW235076   2.333   3.056   8.444 -0.3864 -1.7347 -0.5829
 7815SOL     OW35077   0.668   0.411   6.048  0.4814 -0.1374 -0.2237
 7815SOL    HW135078   0.611   0.351   6.095  0.6597  0.2875  0.5299
 7815SOL    HW235079   0.643   0.501   6.069  0.2878  0.6464 -3.7604
 7816SOL     OW35080   3.248   1.693   7.287 -0.3313 -0.0408  0.3306
 7816SOL    HW135081   3.306   1.758   7.247  2.4707 -3.7055 -1.5816
 7816SOL    HW235082   3.165   1.734   7.260  0.5769  1.3645 -0.3406
 7817SOL     OW35083   3.795   4.538   7.982 -0.3967  0.2218 -0.8258
 7817SOL    HW135084   3.738   4.612   7.959 -1.9976 -0.4030  1.1594
 7817SOL    HW235085   3.836   4.568   8.063 -0.9530 -1.9208  0.2339
 7818SOL     OW35086   2.232   1.497  11.707 -0.5329 -0.1509  0.2143
 7818SOL    HW135087   2.188   1.518  11.789  0.0297 -2.7658  1.1989
 7818SOL    HW235088   2.318   1.475  11.744 -0.4081  1.9084  1.1711
 7819SOL     OW35089   0.122   2.638  10.283  0.2707  0.5953  0.0549
 7819SOL    HW135090   0.137   2.703  10.213 -0.8788 -2.9651 -3.4981
 7819SOL    HW235091   0.051   2.581  10.254  0.3493  1.7670 -2.4510
 7820SOL     OW35092   2.624   0.941   7.035 -0.2329  0.0917  0.2880
 7820SOL    HW135093   2.578   0.902   6.961  0.7467  0.2854 -0.4280
 7820SOL    HW235094   2.713   0.950   7.000  0.1652  0.1158  1.3279
 7821SOL     OW35095   2.240   0.650  16.306  0.3295  0.4570  0.4195
 7821SOL    HW135096   2.155   0.616  16.336  1.4332 -3.3511 -0.7043
 7821SOL    HW235097   2.279   0.563  16.295  0.9541  0.8686 -0.6310
 7822SOL     OW35098   1.134   1.798   5.000  0.5635  0.5203 -0.2749
 7822SOL    HW135099   1.090   1.731   4.948 -2.0781  1.5798  0.6046
 7822SOL    HW235100   1.199   1.740   5.040  0.3950  0.5891  0.0959
 7823SOL     OW35101   2.494   4.273   4.076  0.6730 -0.0601  0.6117
 7823SOL    HW135102   2.528   4.210   4.139 -1.1048 -2.5263 -0.8893
 7823SOL    HW235103   2.572   4.284   4.022 -1.9341  2.2604 -2.7273
 7824SOL     OW35104   2.152   1.307   6.847  0.4498 -0.2567  0.0655
 7824SOL    HW135105   2.172   1.284   6.938  0.6170  2.4640  0.7203
 7824SOL    HW235106   2.127   1.217   6.825  0.6716 -0.7693  1.8459
 7825SOL     OW35107   4.007   0.493   0.158 -0.5768  0.3542 -0.2365
 7825SOL    HW135108   4.060   0.422   0.195  3.6713  3.6326  0.0027
 7825SOL    HW235109   3.938   0.435   0.125 -0.2598 -0.3150  0.2763
 7826SOL     OW35110   2.652   3.603   3.996 -0.1893 -0.5565  0.7097
 7826SOL    HW135111   2.680   3.695   3.994  0.3588 -0.7712 -2.0886
 7826SOL    HW235112   2.713   3.561   3.935 -1.0668  0.8858 -1.1726
 7827SOL     OW35113   0.966   3.220   1.934  0.5885 -0.4879  0.2149
 7827SOL    HW135114   0.883   3.199   1.893 -0.0175  0.9762  0.7103
 7827SOL    HW235115   1.018   3.231   1.854  0.7913 -0.5971  0.3298
 7828SOL     OW35116   3.315   1.278  13.774  0.0555  0.2861  0.4564
 7828SOL    HW135117   3.382   1.224  13.733 -0.4365 -1.7214  2.3096
 7828SOL    HW235118   3.359   1.362  13.761 -0.2489  0.6445  1.6743
 7829SOL     OW35119   2.025   0.960   8.166 -0.6354  0.3099 -0.3676
 7829SOL    HW135120   1.971   0.884   8.184  1.2042 -1.3635 -1.9043
 7829SOL    HW235121   1.996   0.993   8.081  2.1838  2.0053 -0.6852
 7830SOL     OW35122   2.620   2.045   8.597 -0.2726  0.3488  0.1611
 7830SOL    HW135123   2.701   2.070   8.641 -0.3593 -0.2366  0.6580
 7830SOL    HW235124   2.622   1.950   8.584  0.9822  0.5152 -0.8392
 7831SOL     OW35125   3.992   4.617   9.650  0.7423  0.2508  0.1171
 7831SOL    HW135126   3.938   4.682   9.695  0.0631 -0.6093  0.5621
 7831SOL    HW235127   3.923   4.553   9.632 -0.6225  1.9530 -0.6710
 7832SOL     OW35128   4.288   1.332   2.890 -0.0409 -0.1616 -0.0216
 7832SOL    HW135129   4.347   1.292   2.827  0.1685  2.5106 -1.5238
 7832SOL    HW235130   4.317   1.287   2.969  0.8540  0.2130 -0.1373
 7833SOL     OW35131   2.062   2.588  10.633  0.1830  0.1923  0.3881
 7833SOL    HW135132   2.157   2.597  10.630  0.3701 -1.1411  2.7554
 7833SOL    HW235133   2.052   2.550  10.720  0.4962  1.3434  0.9232
 7834SOL     OW35134   1.901   1.648   3.127  0.0557  0.1217  0.3568
 7834SOL    HW135135   1.965   1.621   3.193 -0.1077  0.1573  0.5320
 7834SOL    HW235136   1.934   1.610   3.046  1.7134  1.0171  0.6129
 7835SOL     OW35137   1.761   0.317  17.136  0.3231  0.3243 -0.1718
 7835SOL    HW135138   1.685   0.322  17.193  0.2504  0.3644 -0.2718
 7835SOL    HW235139   1.838   0.316  17.192  1.4394  0.1713 -1.6881
 7836SOL     OW35140   0.680   2.734  16.122  0.5897 -0.3955  0.1130
 7836SOL    HW135141   0.715   2.820  16.147  0.5875  0.0788 -1.4925
 7836SOL    HW235142   0.733   2.663  16.158 -2.6853 -2.6207  0.4726
 7837SOL     OW35143   3.775   4.706   2.889  0.1161  0.3948  0.4275
 7837SOL    HW135144   3.715   4.661   2.949  0.4693 -1.5252 -0.6602
 7837SOL    HW235145   3.831   4.635   2.858 -0.9833  0.3851 -1.5109
 7838SOL     OW35146   3.438   4.493   3.465  0.5099 -0.3056 -0.0600
 7838SOL    HW135147   3.352   4.534   3.455 -0.6296 -2.9302 -0.9069
 7838SOL    HW235148   3.477   4.576   3.491 -2.8848  0.4308  2.7279
 7839SOL     OW35149   3.720   3.316   7.867 -0.8794  0.2191  0.2427
 7839SOL    HW135150   3.671   3.378   7.922  2.1291  0.8110  2.2234
 7839SOL    HW235151   3.711   3.232   7.913 -1.3021 -0.7328 -1.6087
 7840SOL     OW35152   3.600   2.984  11.574 -0.0659 -0.1295  0.3069
 7840SOL    HW135153   3.582   2.977  11.668 -2.4526  0.7173 -0.0851
 7840SOL    HW235154   3.695   2.995  11.568 -0.2100  1.9541  1.9639
 7841SOL     OW35155   4.461   2.611   3.390 -0.6655 -0.1121  0.2040
 7841SOL    HW135156   4.422   2.557   3.322  1.2168 -2.3638  0.9231
 7841SOL    HW235157   4.478   2.698   3.353  0.5940 -1.2868 -1.9808
 7842SOL     OW35158   0.986   0.701   6.441 -0.1804  0.2039 -0.1037
 7842SOL    HW135159   0.955   0.758   6.371  3.4531 -0.3093 -2.1328
 7842SOL    HW235160   0.965   0.621   6.393 -2.3873  1.4154 -1.1437
 7843SOL     OW35161   0.669   1.275   8.253 -0.1602 -0.0311 -0.0022
 7843SOL    HW135162   0.670   1.294   8.347  0.2418 -0.5479  0.1008
 7843SOL    HW235163   0.602   1.331   8.216  0.9304  1.7646  0.7233
 7844SOL     OW35164   4.182   0.293   3.426 -0.0056 -0.0804 -0.1084
 7844SOL    HW135165   4.235   0.372   3.441  0.9895 -0.7065 -0.3188
 7844SOL    HW235166   4.128   0.301   3.505 -1.0110 -2.0922 -0.5993
 7845SOL     OW35167   0.517   3.829   8.866 -0.5677  0.1170  0.1937
 7845SOL    HW135168   0.546   3.843   8.956 -1.7924 -1.2816  0.7991
 7845SOL    HW235169   0.441   3.887   8.863  1.2592  2.6561  3.0130
 7846SOL     OW35170   1.197   2.625  13.507  0.0023 -0.5623 -0.0502
 7846SOL    HW135171   1.207   2.554  13.444 -1.4405 -1.1769  0.4316
 7846SOL    HW235172   1.244   2.578  13.577  0.7092  0.2710  0.0398
 7847SOL     OW35173   1.157   3.371   0.399  0.2451  0.6662  0.0577
 7847SOL    HW135174   1.196   3.424   0.330  0.1201  0.0152 -0.5101
 7847SOL    HW235175   1.156   3.444   0.461  1.7613  0.7232  0.0157
 7848SOL     OW35176   1.090   1.541  11.954  0.5878 -0.1672 -0.4169
 7848SOL    HW135177   1.005   1.499  11.970 -0.0037  0.2511 -2.3958
 7848SOL    HW235178   1.104   1.502  11.868  0.5498  0.7942 -0.8575
 7849SOL     OW35179   2.485   2.894   7.937 -0.5530  0.1888 -0.7387
 7849SOL    HW135180   2.422   2.941   7.992 -0.1791 -0.1425 -0.0271
 7849SOL    HW235181   2.511   2.829   8.002  1.3533  1.3806 -0.3151
 7850SOL     OW35182   2.315   4.036  14.711 -0.1679  0.4333 -0.0591
 7850SOL    HW135183   2.392   4.073  14.755  0.2450  1.2312 -1.4520
 7850SOL    HW235184   2.276   4.109  14.662 -2.0480  0.8445  2.0626
 7851SOL     OW35185   0.719   0.742   4.536 -0.0432 -0.3799 -0.0199
 7851SOL    HW135186   0.758   0.829   4.531 -0.6466 -0.0351  1.2882
 7851SOL    HW235187   0.783   0.692   4.587  1.8108  1.6484 -0.3707
 7852SOL     OW35188   3.983   0.944   9.864 -0.2878 -0.4750 -0.3813
 7852SOL    HW135189   4.052   0.891   9.824 -1.0126 -1.5408 -0.2215
 7852SOL    HW235190   4.043   1.001   9.912 -1.3473 -0.2998  0.7493
 7853SOL     OW35191   4.244   1.224   8.960 -0.4671  0.0953  0.3123
 7853SOL    HW135192   4.300   1.154   8.927 -0.2263  0.5855 -0.3100
 7853SOL    HW235193   4.175   1.168   8.997 -0.2943  0.8072  1.7339
 7854SOL     OW35194   2.915   3.665   6.174  0.1417  0.4041  0.3745
 7854SOL    HW135195   2.890   3.588   6.225 -1.5798 -0.2698 -1.4973
 7854SOL    HW235196   2.917   3.636   6.083  1.8086 -1.8671  1.1568
 7855SOL     OW35197   3.691   1.867   6.840  0.0000  0.4029  0.2872
 7855SOL    HW135198   3.755   1.883   6.910 -1.6863 -1.7834  2.3281
 7855SOL    HW235199   3.733   1.904   6.762 -0.9240  0.3458 -0.2370
 7856SOL     OW35200   3.044   1.056   9.657 -0.2133  0.3296  0.6802
 7856SOL    HW135201   2.971   1.033   9.600  0.8322 -0.5057 -0.2956
 7856SOL    HW235202   3.111   1.005   9.613  0.1644  0.8888  0.6196
 7857SOL     OW35203   1.391   2.839   8.528  0.1042 -0.5356 -0.6455
 7857SOL    HW135204   1.321   2.862   8.466  0.6713  1.8805 -0.3848
 7857SOL    HW235205   1.450   2.791   8.470  2.3081  0.2763  0.9568
 7858SOL     OW35206   2.795   2.569   3.325 -0.4273  0.1112  0.4617
 7858SOL    HW135207   2.877   2.539   3.287 -2.0514 -0.2610 -2.7733
 7858SOL    HW235208   2.754   2.485   3.344  0.1034 -0.3922 -0.6388
 7859SOL     OW35209   2.390   1.033   7.914 -0.1361  0.6186 -0.0687
 7859SOL    HW135210   2.372   0.980   7.992 -1.9210  1.4581  0.0799
 7859SOL    HW235211   2.432   0.966   7.860 -1.2761 -1.1113  1.1975
 7860SOL     OW35212   2.555   4.585  16.533  0.0923  0.9730  0.2317
 7860SOL    HW135213   2.632   4.546  16.573 -0.9700  0.9617  2.2370
 7860SOL    HW235214   2.562   4.545  16.446 -1.3429  0.5473  0.3251
 7861SOL     OW35215   1.947   0.075   1.235 -0.7336 -0.3204  0.0425
 7861SOL    HW135216   1.990   0.038   1.158 -3.2412  2.2682 -2.6226
 7861SOL    HW235217   1.947   4.733   1.288 -1.5178  0.1268  0.7305
 7862SOL     OW35218   0.123   3.825   6.185  0.0809 -0.0494 -0.1116
 7862SOL    HW135219   0.047   3.775   6.215 -1.6410  3.4581  1.3088
 7862SOL    HW235220   0.193   3.777   6.231  1.4993 -0.3809 -2.6062
 7863SOL     OW35221   4.149   4.473  16.019 -0.6524  0.5543  0.6677
 7863SOL    HW135222   4.091   4.409  16.061  1.6253 -2.0301 -0.2098
 7863SOL    HW235223   4.175   4.434  15.936 -0.0063  1.0929  0.6181
 7864SOL     OW35224   4.032   4.719   9.188  0.3797  0.0524  0.6514
 7864SOL    HW135225   4.124   4.730   9.212  1.0164  0.7874 -2.1545
 7864SOL    HW235226   4.032   4.627   9.160  0.3357  0.2493  0.0227
 7865SOL     OW35227   0.315   0.275   3.357  0.1511  0.1808 -0.6737
 7865SOL    HW135228   0.364   0.313   3.429  0.2613  1.1137 -1.2350
 7865SOL    HW235229   0.384   0.229   3.309  0.3419 -0.7209  0.4810
 7866SOL     OW35230   3.620   0.272   1.909  0.2356  0.4227 -0.2508
 7866SOL    HW135231   3.713   0.258   1.927 -0.2410 -0.2677  1.7257
 7866SOL    HW235232   3.624   0.354   1.860 -0.6715 -0.2714 -1.4758
 7867SOL     OW35233   2.997   1.789   1.980  0.1661 -0.2410  0.1137
 7867SOL    HW135234   3.062   1.856   1.957  2.1237 -1.8324  1.0171
 7867SOL    HW235235   2.916   1.834   1.956 -0.9940 -1.5719  1.4648
 7868SOL     OW35236   1.591   4.697  17.404  0.4518  0.4353 -0.2599
 7868SOL    HW135237   1.642   4.724  17.328  0.5198  0.7689 -0.0980
 7868SOL    HW235238   1.652   4.734  17.468  1.4422 -1.8449  0.1253
 7869SOL     OW35239   4.001   2.186   3.104  0.4808 -0.3869 -0.4968
 7869SOL    HW135240   3.911   2.202   3.076  0.6391  0.5347 -0.4741
 7869SOL    HW235241   3.989   2.162   3.196 -2.3562  1.4030 -0.3897
 7870SOL     OW35242   1.054   3.984  16.488 -0.3832  0.6452  0.3444
 7870SOL    HW135243   0.974   4.022  16.453 -0.2902  0.0623 -0.5009
 7870SOL    HW235244   1.028   3.954  16.575  2.7865 -1.1139  0.6740
 7871SOL     OW35245   2.098   3.806  14.404 -0.4552 -0.1078 -0.4301
 7871SOL    HW135246   2.163   3.821  14.473 -0.7827 -0.2417 -0.0960
 7871SOL    HW235247   2.159   3.787  14.332  0.4532 -2.5627  0.9914
 7872SOL     OW35248   0.964   2.764   3.766  0.2633 -0.3667  0.0846
 7872SOL    HW135249   0.888   2.821   3.775  0.7619  0.8618 -3.8226
 7872SOL    HW235250   1.014   2.801   3.839  0.2664 -0.7326  0.2716
 7873SOL     OW35251   2.134   0.846   8.723 -0.6798 -0.0464 -0.0803
 7873SOL    HW135252   2.160   0.874   8.811  0.2670 -2.3261  0.3703
 7873SOL    HW235253   2.068   0.780   8.743  1.2770 -2.2115 -0.6954
 7874SOL     OW35254   4.524   3.516  10.642  0.2150  0.5541 -0.4633
 7874SOL    HW135255   4.576   3.547  10.568  0.9066  0.7247  0.1016
 7874SOL    HW235256   4.539   3.584  10.708 -1.5858  0.0405  0.4744
 7875SOL     OW35257   3.646   3.657   0.767 -0.1675  0.1414 -0.1830
 7875SOL    HW135258   3.636   3.609   0.685 -1.2561  3.5164 -2.0140
 7875SOL    HW235259   3.564   3.655   0.816  0.3053 -0.6026  0.5656
 7876SOL     OW35260   0.446   0.778   0.808  0.0641 -0.5892 -0.4083
 7876SOL    HW135261   0.461   0.844   0.740 -0.1280 -0.0703  0.0629
 7876SOL    HW235262   0.494   0.813   0.882 -1.7706  0.7762  0.1256
 7877SOL     OW35263   2.910   4.531   2.873 -0.5464  0.4435  0.4117
 7877SOL    HW135264   2.842   4.599   2.880 -0.2774  0.3389  4.2848
 7877SOL    HW235265   2.940   4.533   2.782 -0.3881  0.4524  0.4647
 7878SOL     OW35266   1.217   0.341   0.892 -0.1737 -0.0291  0.0654
 7878SOL    HW135267   1.196   0.413   0.833 -1.5207 -1.2752 -0.9870
 7878SOL    HW235268   1.139   0.309   0.938 -2.2694  2.8478 -1.4916
 7879SOL     OW35269   3.063   4.549   1.899  0.1051 -0.0647  0.3160
 7879SOL    HW135270   3.010   4.620   1.934  0.0530  0.5064 -0.9215
 7879SOL    HW235271   3.134   4.554   1.963 -0.5350  0.0396  1.0148
 7880SOL     OW35272   3.545   1.752   9.725  0.5961  0.2875  0.3546
 7880SOL    HW135273   3.568   1.693   9.797  0.8168 -1.2613 -0.9869
 7880SOL    HW235274   3.567   1.691   9.655  1.6774 -1.0430  1.8549
 7881SOL     OW35275   1.045   0.100   5.529 -0.0846 -0.0091  0.2780
 7881SOL    HW135276   0.953   0.079   5.513 -0.3871 -0.3374  2.4082
 7881SOL    HW235277   1.059   0.078   5.621 -0.6495 -1.3001  0.0590
 7882SOL     OW35278   1.215   3.534   9.791 -0.4414  0.6243  0.0135
 7882SOL    HW135279   1.272   3.597   9.835 -0.7302 -0.8439  2.4843
 7882SOL    HW235280   1.275   3.491   9.730 -1.6597 -0.3737 -0.4867
 7883SOL     OW35281   4.093   3.802   8.433 -0.5746  0.0441  0.1834
 7883SOL    HW135282   4.087   3.876   8.372 -2.7997  0.1191  0.5006
 7883SOL    HW235283   4.165   3.826   8.491  0.0540 -1.3290 -0.0353
 7884SOL     OW35284   1.888   0.137   3.617 -0.2142  0.0417  0.6500
 7884SOL    HW135285   1.983   0.130   3.627  0.0049  0.8575 -0.9067
 7884SOL    HW235286   1.870   0.058   3.565  1.6938  1.1503 -1.6888
 7885SOL     OW35287   1.421   1.895   8.896 -0.1560  0.1203 -0.3209
 7885SOL    HW135288   1.437   1.811   8.941 -0.8642  0.5137  0.6623
 7885SOL    HW235289   1.328   1.906   8.914 -0.8555 -1.7040 -2.9583
 7886SOL     OW35290   2.864   2.982   5.582  0.4400 -0.7202  0.1855
 7886SOL    HW135291   2.824   2.913   5.530  1.3723 -1.9409  1.1085
 7886SOL    HW235292   2.956   2.961   5.562  0.4082  1.1202 -1.9070
 7887SOL     OW35293   0.581   2.869  13.164  0.0855  0.2902 -0.9845
 7887SOL    HW135294   0.535   2.931  13.222  0.2097  0.7403 -1.3636
 7887SOL    HW235295   0.565   2.785  13.206 -0.7011  1.8646  1.8554
 7888SOL     OW35296   1.325   0.962   2.230 -0.3815  0.8639 -0.8579
 7888SOL    HW135297   1.393   1.027   2.213 -0.0908  0.8593  0.2924
 7888SOL    HW235298   1.293   0.946   2.141  1.8333 -0.6996 -1.3502
 7889SOL     OW35299   1.199   0.121   7.134  0.4435 -0.1075  0.0499
 7889SOL    HW135300   1.260   0.184   7.096  1.1934  0.3613  2.0522
 7889SOL    HW235301   1.238   0.110   7.221  0.5826 -1.1770 -0.1431
 7890SOL     OW35302   1.544   4.145  11.578 -0.0739  0.0180 -0.0907
 7890SOL    HW135303   1.639   4.134  11.585 -0.0576 -0.1974 -0.7205
 7890SOL    HW235304   1.533   4.211  11.647 -1.3520 -0.3410  0.0518
 7891SOL     OW35305   1.857   3.058   3.927  0.1203  0.4103 -0.3503
 7891SOL    HW135306   1.765   3.083   3.925  0.0527  0.1455 -0.6639
 7891SOL    HW235307   1.893   3.101   3.849  1.5152  1.9883  1.1663
 7892SOL     OW35308   3.328   2.280   8.817 -0.3508 -0.1853  0.5429
 7892SOL    HW135309   3.364   2.368   8.818 -0.1260 -0.2418 -2.3807
 7892SOL    HW235310   3.320   2.274   8.722  0.3169  2.8288  0.2943
 7893SOL     OW35311   2.210   0.166   7.811  0.0712  0.0159 -0.0737
 7893SOL    HW135312   2.166   0.146   7.729  0.0253  0.0259 -0.0514
 7893SOL    HW235313   2.201   0.260   7.822 -0.2486 -0.1339  0.9062
 7894SOL     OW35314   3.765   0.950   8.457  0.7505 -0.3008  0.3204
 7894SOL    HW135315   3.801   0.869   8.491 -0.0557 -1.2764 -1.1639
 7894SOL    HW235316   3.708   0.984   8.526  1.0073  0.1066  0.3299
 7895SOL     OW35317   3.462   0.202  12.573 -0.2481 -0.1519 -0.0600
 7895SOL    HW135318   3.529   0.162  12.629  1.1050  0.7679 -1.0055
 7895SOL    HW235319   3.510   0.246  12.503 -0.8230  0.1851 -0.2415
 7896SOL     OW35320   2.871   4.506   6.859 -0.4462 -0.2090 -0.9067
 7896SOL    HW135321   2.909   4.592   6.840 -0.1939 -0.5072 -1.7664
 7896SOL    HW235322   2.800   4.516   6.922  0.2282  0.5749 -0.2721
 7897SOL     OW35323   0.713   0.777  15.367 -0.6443  0.2471 -0.6280
 7897SOL    HW135324   0.678   0.689  15.384  1.6107 -0.4122  0.6207
 7897SOL    HW235325   0.700   0.820  15.451 -1.6101  0.3031 -0.8103
 7898SOL     OW35326   2.774   1.379   8.277 -0.0727 -0.4049 -0.6208
 7898SOL    HW135327   2.756   1.446   8.343 -1.1557  0.5984 -1.9481
 7898SOL    HW235328   2.682   1.359   8.261 -0.3588  1.1623 -0.8872
 7899SOL     OW35329   0.350   1.030  11.393 -0.0461 -0.4450 -0.1953
 7899SOL    HW135330   0.416   1.016  11.461 -0.2700 -0.1618  0.0784
 7899SOL    HW235331   0.317   0.941  11.389 -2.6690  0.5245  0.1216
 7900SOL     OW35332   3.871   1.197   6.821 -0.0164  0.0681  0.0615
 7900SOL    HW135333   3.794   1.244   6.788  1.2729  1.3230 -1.1494
 7900SOL    HW235334   3.924   1.274   6.840 -0.9871  0.7561 -0.0340
 7901SOL     OW35335   1.459   0.253   2.821  0.1869 -0.4108 -0.5960
 7901SOL    HW135336   1.448   0.200   2.742  1.4020 -1.5780  0.0205
 7901SOL    HW235337   1.401   0.211   2.884 -1.0054  0.4407 -1.1279
 7902SOL     OW35338   2.716   0.755  16.725  0.1689 -0.1565  0.0261
 7902SOL    HW135339   2.639   0.721  16.680  1.0384 -2.0983  0.0319
 7902SOL    HW235340   2.695   0.846  16.703  3.3675  0.1556 -1.7504
 7903SOL     OW35341   2.991   1.662   7.573  0.5117  0.3731 -0.4713
 7903SOL    HW135342   2.902   1.653   7.606 -0.3941 -0.0163 -2.9894
 7903SOL    HW235343   2.987   1.620   7.486  0.4952 -0.2281 -0.1801
 7904SOL     OW35344   2.400   2.692   7.325  0.1746  0.2089 -0.1343
 7904SOL    HW135345   2.375   2.663   7.412  1.4856 -2.0156 -0.4893
 7904SOL    HW235346   2.492   2.718   7.335  0.1525  0.7143 -1.2158
 7905SOL     OW35347   4.708   3.986  12.968 -0.7173 -0.4695  0.5214
 7905SOL    HW135348   4.682   4.029  13.050  0.9717 -1.4952  1.5940
 7905SOL    HW235349   4.630   3.934  12.949 -0.6443  0.3006 -1.8069
 7906SOL     OW35350   1.275   1.438   4.222  0.0111  0.2153 -0.2593
 7906SOL    HW135351   1.347   1.412   4.279  1.3606  1.0514 -1.5914
 7906SOL    HW235352   1.327   1.479   4.153  0.7489  0.5005  0.4770
 7907SOL     OW35353   2.370   3.836  11.522 -0.0944  0.3147 -0.6237
 7907SOL    HW135354   2.299   3.794  11.571  1.5742 -0.4534  1.1067
 7907SOL    HW235355   2.422   3.757  11.530 -0.3550  0.2503  0.4423
 7908SOL     OW35356   2.809   2.962   7.352  0.1795  0.1059 -0.0232
 7908SOL    HW135357   2.787   3.055   7.342  0.5520 -0.0589 -2.2418
 7908SOL    HW235358   2.805   2.951   7.447 -1.1261  0.9234  0.0129
 7909SOL     OW35359   0.322   3.699   4.046  0.7720  0.6111  1.1013
 7909SOL    HW135360   0.393   3.755   4.014  1.6981 -2.1421 -1.6958
 7909SOL    HW235361   0.279   3.757   4.109 -1.8779 -0.9586  0.7636
 7910SOL     OW35362   0.380   2.390  17.120 -0.0767 -0.1136  0.0403
 7910SOL    HW135363   0.462   2.403  17.071  0.2668  2.7176  1.3350
 7910SOL    HW235364   0.365   2.480  17.149 -0.3928 -0.3213  0.5159
 7911SOL     OW35365   2.463   1.780   9.863  0.2621  0.5528  0.6459
 7911SOL    HW135366   2.477   1.875   9.856  0.4951  0.5760  1.5005
 7911SOL    HW235367   2.526   1.746   9.799  1.0791  1.1228  1.1482
 7912SOL     OW35368   2.939   1.719   4.214 -0.2239  0.3882 -0.0796
 7912SOL    HW135369   3.025   1.757   4.201 -1.3244  2.5491 -1.0308
 7912SOL    HW235370   2.956   1.627   4.193  0.5476  0.5445 -0.1466
 7913SOL     OW35371   4.133   4.199  12.777 -0.3927  0.0821 -0.0581
 7913SOL    HW135372   4.086   4.168  12.700  2.1043 -0.9851 -1.1506
 7913SOL    HW235373   4.068   4.267  12.797 -1.4395 -0.8548 -0.2866
 7914SOL     OW35374   4.067   1.816   8.071  0.6235  0.1014  0.3680
 7914SOL    HW135375   4.131   1.773   8.014 -1.0379 -0.3955 -1.1286
 7914SOL    HW235376   4.048   1.901   8.032 -1.3870 -0.4623  0.1125
 7915SOL     OW35377   1.759   0.143  15.294 -0.1939  0.4461 -0.7656
 7915SOL    HW135378   1.838   0.191  15.270 -0.2278  1.6450  1.5316
 7915SOL    HW235379   1.765   0.130  15.389  1.0502  0.5753 -0.8236
 7916SOL     OW35380   1.843   0.809   3.100 -0.2608 -0.4618  0.1912
 7916SOL    HW135381   1.924   0.807   3.152  0.0467  2.2610 -0.1613
 7916SOL    HW235382   1.871   0.873   3.035  0.6273 -0.1873  0.8309
 7917SOL     OW35383   0.312   0.324   4.045 -0.6179  0.4905 -0.4290
 7917SOL    HW135384   0.274   0.412   4.049  0.2696  0.8673 -0.3780
 7917SOL    HW235385   0.235   0.274   4.018  0.7021 -1.4722 -0.5949
 7918SOL     OW35386   2.645   0.546   2.261 -0.0021  0.3571 -0.7473
 7918SOL    HW135387   2.659   0.614   2.195  1.2970  1.9991  1.1961
 7918SOL    HW235388   2.718   0.572   2.318 -0.8290 -2.2612  1.5477
 7919SOL     OW35389   2.071   1.253   1.187  0.5036 -0.1616 -0.2160
 7919SOL    HW135390   2.094   1.340   1.220 -1.4043  0.1567  0.2899
 7919SOL    HW235391   2.059   1.267   1.093 -0.4970 -1.9206 -0.3482
 7920SOL     OW35392   1.830   1.022   4.736  0.0320 -0.3297  0.1248
 7920SOL    HW135393   1.769   1.095   4.731  0.1896 -0.2425 -0.5633
 7920SOL    HW235394   1.842   1.002   4.643 -1.1925  1.1103 -0.3404
 7921SOL     OW35395   0.558   4.014  16.355 -0.0825 -0.0621  0.4363
 7921SOL    HW135396   0.603   4.095  16.379  1.4253  0.7582 -5.2277
 7921SOL    HW235397   0.523   3.989  16.441 -0.9104  0.3269  0.2024
 7922SOL     OW35398   3.167   0.783   3.342  0.1066 -0.3024  0.4257
 7922SOL    HW135399   3.156   0.839   3.418 -0.4959  2.6310 -1.8372
 7922SOL    HW235400   3.080   0.752   3.320 -0.9737  1.6871  1.9075
 7923SOL     OW35401   4.357   4.705   8.092  0.0268  0.2991 -0.6068
 7923SOL    HW135402   4.411   4.724   8.168  0.1508  1.7266 -1.0411
 7923SOL    HW235403   4.417   4.718   8.019  2.4484  0.9189  1.4932
 7924SOL     OW35404   4.711   3.961  16.327  0.2239 -0.0535  0.0578
 7924SOL    HW135405   0.018   3.942  16.244  0.9380  1.2670  0.1432
 7924SOL    HW235406   4.674   3.874  16.346  1.1760  0.2331  3.2167
 7925SOL     OW35407   0.597   2.810   1.579 -0.1117 -0.7039  0.2333
 7925SOL    HW135408   0.572   2.895   1.541  0.8915 -0.7394 -0.5213
 7925SOL    HW235409   0.690   2.812   1.556 -0.3750  2.6286 -0.6783
 7926SOL     OW35410   1.122   0.799   4.226 -0.5150 -0.8038  0.1858
 7926SOL    HW135411   1.158   0.760   4.147  5.0817  0.3229  2.1765
 7926SOL    HW235412   1.031   0.770   4.217 -0.7603 -1.0452  3.2826
 7927SOL     OW35413   3.158   1.382  12.470 -0.1056 -0.1674  0.0248
 7927SOL    HW135414   3.088   1.358  12.531 -0.1399 -2.2483 -0.8144
 7927SOL    HW235415   3.145   1.477  12.468  1.6769  0.0471 -0.8007
 7928SOL     OW35416   0.016   0.262  16.308 -0.4199 -0.2837 -0.5438
 7928SOL    HW135417   0.089   0.233  16.254 -0.7444  0.8816 -1.6058
 7928SOL    HW235418   4.700   0.183  16.301  0.9372 -1.1097 -1.6173
 7929SOL     OW35419   3.836   2.349   6.713 -0.2138  0.1049 -0.4590
 7929SOL    HW135420   3.855   2.418   6.649  0.9570  3.0578  3.0369
 7929SOL    HW235421   3.921   2.329   6.753 -0.2873  1.7794  0.5287
 7930SOL     OW35422   1.764   2.408   9.190 -0.2961 -0.2766 -0.0089
 7930SOL    HW135423   1.786   2.490   9.233 -1.6267 -0.0285  0.2130
 7930SOL    HW235424   1.722   2.432   9.107  0.6246 -0.9452 -0.6704
 7931SOL     OW35425   0.261   3.893   4.239  0.6545  0.2561 -0.0971
 7931SOL    HW135426   0.339   3.852   4.277  0.5976 -0.2700 -0.5425
 7931SOL    HW235427   0.192   3.861   4.298  1.0099  1.0316  0.7347
 7932SOL     OW35428   0.404   3.780   6.526 -0.3645 -0.0765  0.7613
 7932SOL    HW135429   0.339   3.785   6.596  0.4939 -1.3019  1.6433
 7932SOL    HW235430   0.479   3.816   6.574  1.9479 -2.4689 -1.0225
 7933SOL     OW35431   1.100   0.166  17.392  0.1776 -0.1526  0.6074
 7933SOL    HW135432   1.170   0.100  17.394  0.3124 -0.1197 -3.1491
 7933SOL    HW235433   1.144   0.243  17.428  0.2116 -0.2173  0.7029
 7934SOL     OW35434   0.680   1.471   1.694  0.4458 -0.0093  0.2431
 7934SOL    HW135435   0.617   1.543   1.696  2.3370  1.6558 -0.0083
 7934SOL    HW235436   0.753   1.522   1.660  0.3620 -1.0501 -1.5365
 7935SOL     OW35437   4.690   4.485   6.219 -0.1184 -0.5623  0.1163
 7935SOL    HW135438   0.045   4.505   6.206 -0.9376  2.2427 -1.3544
 7935SOL    HW235439   4.645   4.544   6.159  0.9482  0.8674  0.7203
 7936SOL     OW35440   2.058   0.280  13.820 -0.2826  0.1503 -0.5364
 7936SOL    HW135441   2.144   0.262  13.780  0.0016 -0.3650  0.3111
 7936SOL    HW235442   2.075   0.277  13.914 -1.5206  0.8040 -0.3024
 7937SOL     OW35443   4.712   4.365   0.991  0.2967  0.1916 -0.6494
 7937SOL    HW135444   4.681   4.454   0.975 -0.7843  0.1718  1.4148
 7937SOL    HW235445   4.635   4.309   0.982  0.7125 -0.2408 -1.5037
 7938SOL     OW35446   1.515   1.000   3.261 -0.5308  0.1900 -0.0690
 7938SOL    HW135447   1.564   1.082   3.251 -2.1368  1.2542  0.8739
 7938SOL    HW235448   1.567   0.964   3.332 -0.6769  1.2372  0.5657
 7939SOL     OW35449   3.641   2.162   8.036  0.2279 -0.2848  0.4985
 7939SOL    HW135450   3.555   2.125   8.058 -0.2107  1.4588  1.7317
 7939SOL    HW235451   3.665   2.114   7.957 -1.0674  1.3624 -0.8795
 7940SOL     OW35452   1.341   3.891   6.217  0.3031  0.2813  0.2301
 7940SOL    HW135453   1.280   3.818   6.208  1.8415 -0.7835 -1.4989
 7940SOL    HW235454   1.281   3.964   6.233 -0.8200 -0.3655 -1.0677
 7941SOL     OW35455   3.701   1.468   9.011  0.3072 -0.4702  0.0436
 7941SOL    HW135456   3.733   1.482   9.100  0.7575 -0.8950 -0.0522
 7941SOL    HW235457   3.750   1.536   8.964  0.2466 -0.5488 -0.1365
 7942SOL     OW35458   2.493   2.549   8.627  0.3514  0.5577 -0.0788
 7942SOL    HW135459   2.553   2.580   8.695  2.1343  2.2185 -2.3642
 7942SOL    HW235460   2.412   2.562   8.676 -0.8106 -0.4568 -1.7684
 7943SOL     OW35461   4.655   3.389   8.130  0.0909  0.3377  0.0172
 7943SOL    HW135462   4.703   3.465   8.100  0.7347 -0.2339 -0.4076
 7943SOL    HW235463   4.715   3.362   8.200 -0.3200 -0.4022  0.0921
 7944SOL     OW35464   0.075   4.163   7.844  0.4398  0.4558  0.2129
 7944SOL    HW135465   0.031   4.166   7.759  0.4069  0.0786  0.2164
 7944SOL    HW235466   0.029   4.231   7.895 -0.7093  0.2683 -0.5671
 7945SOL     OW35467   0.270   1.605  15.418  0.1995 -0.1389 -0.1477
 7945SOL    HW135468   0.300   1.690  15.387 -2.0443  1.1660  1.3047
 7945SOL    HW235469   0.177   1.612  15.438 -0.1727 -4.4255 -0.3003
 7946SOL     OW35470   1.691   3.870   1.116  0.2062  0.0304 -0.1993
 7946SOL    HW135471   1.770   3.838   1.073 -0.6140 -1.4495 -0.6253
 7946SOL    HW235472   1.665   3.940   1.056 -1.9655 -0.6651 -0.0870
 7947SOL     OW35473   4.383   2.048   3.230 -0.6325 -0.4391  0.3436
 7947SOL    HW135474   4.406   2.109   3.300 -2.6865  0.4524  0.2442
 7947SOL    HW235475   4.407   1.967   3.275 -1.1473 -1.3511 -1.0157
 7948SOL     OW35476   2.852   1.980   6.079 -0.1343  0.2108 -0.1715
 7948SOL    HW135477   2.840   2.041   6.152  1.4357  2.0548 -1.4494
 7948SOL    HW235478   2.854   2.031   5.997  0.5557  1.4730  0.6223
 7949SOL     OW35479   3.421   4.063  10.878  0.0948 -0.5184 -0.3069
 7949SOL    HW135480   3.504   4.060  10.830  0.8448  0.1834  0.9362
 7949SOL    HW235481   3.364   4.099  10.811 -1.2623 -0.8536  0.6724
 7950SOL     OW35482   1.310   4.281  16.355 -0.1453 -0.1144 -0.2607
 7950SOL    HW135483   1.317   4.247  16.266  1.9310  0.8609 -0.4625
 7950SOL    HW235484   1.237   4.233  16.394  1.0306 -1.1342  0.6808
 7951SOL     OW35485   4.202   4.224   4.938 -0.1735  0.1475 -0.3112
 7951SOL    HW135486   4.216   4.189   4.850  0.6399  1.3987 -0.6929
 7951SOL    HW235487   4.283   4.276   4.941  0.4900 -0.8982  0.0008
 7952SOL     OW35488   1.386   0.319  13.204  0.1713  0.1743 -0.3658
 7952SOL    HW135489   1.332   0.334  13.281  1.6117  2.9810  0.1263
 7952SOL    HW235490   1.472   0.334  13.243  1.2158  1.2063 -3.0046
 7953SOL     OW35491   1.506   2.958   2.398  0.1784 -0.3966 -0.0107
 7953SOL    HW135492   1.514   2.922   2.310 -2.7401 -1.0185 -0.0409
 7953SOL    HW235493   1.454   3.038   2.390  0.0374 -0.3821  1.1217
 7954SOL     OW35494   1.207   3.220   7.554  0.0244 -0.1301  0.4716
 7954SOL    HW135495   1.209   3.300   7.501 -1.6134 -0.9955 -0.9027
 7954SOL    HW235496   1.255   3.248   7.632  0.0487 -1.3597  0.9009
 7955SOL     OW35497   4.115   3.355   3.259  0.4786 -0.6260 -0.3821
 7955SOL    HW135498   4.060   3.396   3.192  0.3998  1.0043  0.6671
 7955SOL    HW235499   4.056   3.289   3.295 -0.9465  2.1979  2.5061
 7956SOL     OW35500   2.434   3.160   5.375  0.2448 -0.0886  0.1730
 7956SOL    HW135501   2.399   3.108   5.447  0.8651 -0.6948  0.0392
 7956SOL    HW235502   2.370   3.230   5.363 -2.0430 -1.8343  2.0635
 7957SOL     OW35503   4.531   3.136   8.595  0.3100  0.3318 -0.4880
 7957SOL    HW135504   4.522   3.057   8.541 -0.4185 -0.1282  0.3245
 7957SOL    HW235505   4.625   3.136   8.614 -0.3224 -3.0544  2.5328
 7958SOL     OW35506   0.409   3.042   5.578  0.9856  0.1378  0.7055
 7958SOL    HW135507   0.317   3.058   5.555  1.7110 -1.0623 -3.1039
 7958SOL    HW235508   0.448   3.006   5.499  0.9314  0.0413  0.7234
 7959SOL     OW35509   1.562   3.636   5.218 -0.2878 -0.2842 -0.2293
 7959SOL    HW135510   1.512   3.645   5.299  0.6184  1.9503  0.0780
 7959SOL    HW235511   1.505   3.578   5.168 -1.4130  1.7252 -1.2283
 7960SOL     OW35512   2.258   2.918   0.150  0.6499 -0.3930 -0.3086
 7960SOL    HW135513   2.199   2.865   0.095  0.0870 -0.9958  0.8808
 7960SOL    HW235514   2.339   2.892   0.107  0.5514 -0.1305 -0.6555
 7961SOL     OW35515   1.890   2.377   4.233  0.2469  0.3587 -0.0024
 7961SOL    HW135516   1.952   2.382   4.160 -1.8163  3.7160 -1.5422
 7961SOL    HW235517   1.927   2.435   4.299 -0.0601  0.0635  0.4378
 7962SOL     OW35518   4.650   0.380   9.357  0.5599 -0.6408  0.1146
 7962SOL    HW135519   4.568   0.358   9.315 -0.4928  1.1171  1.2542
 7962SOL    HW235520   4.632   0.386   9.451  1.0597  1.1395  0.0958
 7963SOL     OW35521   0.716   3.680   6.466  0.3916  0.1032 -0.2519
 7963SOL    HW135522   0.762   3.621   6.525  1.2921  0.2998 -0.7642
 7963SOL    HW235523   0.676   3.739   6.530  0.2724  0.6480 -0.8207
 7964SOL     OW35524   0.010   3.412   4.919 -0.3527  0.0542  0.0336
 7964SOL    HW135525   4.670   3.376   4.961 -1.6355  1.8955 -0.7655
 7964SOL    HW235526   4.706   3.490   4.882  0.5060  1.0333  1.1142
 7965SOL     OW35527   3.380   1.455   7.605  0.0028 -1.5527 -0.2951
 7965SOL    HW135528   3.296   1.425   7.640 -1.4872  1.9872 -0.7262
 7965SOL    HW235529   3.431   1.394   7.658  1.4344 -1.0536 -1.1331
 7966SOL     OW35530   4.698   2.794   4.691  0.1639 -0.9133 -0.3027
 7966SOL    HW135531   4.666   2.807   4.601  0.3854  0.8398 -0.1304
 7966SOL    HW235532   4.643   2.717   4.705 -1.3362  0.1123 -0.5238
 7967SOL     OW35533   0.011   0.500   4.618  0.0712 -0.2305 -0.1778
 7967SOL    HW135534   4.664   0.461   4.641 -0.2604  0.1801 -0.6997
 7967SOL    HW235535   0.074   0.430   4.636  1.3526  0.5171 -1.7919
 7968SOL     OW35536   0.868   4.188   4.752  0.2567 -0.3163  0.8085
 7968SOL    HW135537   0.839   4.157   4.666  0.0438 -1.2711  1.2205
 7968SOL    HW235538   0.924   4.260   4.723  1.3810 -1.9822 -1.1886
 7969SOL     OW35539   3.662   3.208   5.330  0.1684  0.3243 -0.0064
 7969SOL    HW135540   3.580   3.225   5.376  0.2942 -0.8123  0.6556
 7969SOL    HW235541   3.710   3.286   5.357  0.4881  0.2319 -0.3026
 7970SOL     OW35542   3.626   3.397   2.543 -0.3435 -0.0169  0.0193
 7970SOL    HW135543   3.613   3.348   2.623 -1.2224  1.5422  0.8381
 7970SOL    HW235544   3.621   3.334   2.471 -0.6731  0.1836 -0.1327
 7971SOL     OW35545   1.794   1.897  14.328  0.2329 -0.3192 -0.1152
 7971SOL    HW135546   1.889   1.897  14.323  0.2483 -0.1643  0.1775
 7971SOL    HW235547   1.779   1.984  14.365  2.4629  0.7835 -1.7645
 7972SOL     OW35548   3.090   0.886   3.660  0.2557 -0.0898  0.7774
 7972SOL    HW135549   3.168   0.837   3.687  1.5339  1.2682 -0.4165
 7972SOL    HW235550   3.040   0.820   3.613 -1.7952  1.0585  1.3183
 7973SOL     OW35551   1.271   1.936   2.738  0.4950  0.0374 -0.3035
 7973SOL    HW135552   1.230   1.893   2.663 -3.2066  2.2497  0.4458
 7973SOL    HW235553   1.333   1.871   2.772 -1.6258 -2.0747 -0.4722
 7974SOL     OW35554   4.604   0.226  11.319 -0.2706  0.3694  0.0582
 7974SOL    HW135555   4.628   0.174  11.242 -0.0468 -0.6320  0.8019
 7974SOL    HW235556   4.608   0.158  11.387 -1.9447  0.1978 -0.0268
 7975SOL     OW35557   4.675   2.873   4.172  0.1780  0.4850 -0.4189
 7975SOL    HW135558   4.688   2.952   4.226 -1.5826 -0.7696  1.8414
 7975SOL    HW235559   0.014   2.820   4.196  0.5427  2.4346  2.8171
 7976SOL     OW35560   4.660   2.911   5.124  0.2216 -0.3753 -0.1568
 7976SOL    HW135561   4.712   2.886   5.201 -0.9112 -1.4552  0.2465
 7976SOL    HW235562   4.734   2.897   5.065 -0.8115 -1.4131 -1.2096
 7977SOL     OW35563   0.195   2.889  16.126 -0.7353 -0.3258  0.0964
 7977SOL    HW135564   0.286   2.889  16.155 -0.4336  0.3086 -0.8547
 7977SOL    HW235565   0.156   2.805  16.149  0.4284 -1.3795 -1.8533
 7978SOL     OW35566   3.775   1.484   1.613  0.2190  0.1129  0.0497
 7978SOL    HW135567   3.839   1.446   1.674 -0.3133  0.7925  1.0245
 7978SOL    HW235568   3.742   1.556   1.666 -0.4992 -0.2067  0.0363
 7979SOL     OW35569   4.491   3.605   5.003 -0.1854 -0.0774  0.6527
 7979SOL    HW135570   4.422   3.538   5.006 -2.9862  2.9081  3.1324
 7979SOL    HW235571   4.479   3.661   5.079  1.3990 -1.1761  1.7263
 7980SOL     OW35572   0.957   3.590   5.932  0.1570 -0.5496  0.3004
 7980SOL    HW135573   0.868   3.561   5.917 -0.7880  1.6415  1.7064
 7980SOL    HW235574   0.952   3.670   5.880 -0.3523 -1.1819 -0.6211
 7981SOL     OW35575   3.268   0.964   5.261  0.0192  0.1086  0.6010
 7981SOL    HW135576   3.260   0.869   5.271 -0.0606  0.2886  2.2365
 7981SOL    HW235577   3.178   0.989   5.278  0.0964  1.2708 -0.6791
 7982SOL     OW35578   1.047   4.035   8.534  0.1507  0.1974  0.1282
 7982SOL    HW135579   1.076   4.119   8.497  3.0150 -1.2173 -0.7797
 7982SOL    HW235580   0.979   4.072   8.590 -0.5639  2.4678 -2.2216
 7983SOL     OW35581   3.095   2.334  10.001  0.1832  0.3067  0.3677
 7983SOL    HW135582   3.038   2.378  10.064  1.5437  0.0696  1.7924
 7983SOL    HW235583   3.099   2.240  10.019 -0.1941  0.0790 -0.7521
 7984SOL     OW35584   3.249   1.273   2.174 -0.2467  0.4125  0.0390
 7984SOL    HW135585   3.171   1.260   2.229 -2.2879  3.4471 -2.1618
 7984SOL    HW235586   3.298   1.335   2.229  0.0784 -0.3685  0.6392
 7985SOL     OW35587   3.948   4.725   1.687  0.3633  0.2328  0.5279
 7985SOL    HW135588   3.888   4.721   1.762 -2.4032  1.1849 -1.6388
 7985SOL    HW235589   3.881   4.691   1.628 -0.4775  1.4753  0.7665
 7986SOL     OW35590   2.547   4.069   6.922 -0.1057  0.0832 -0.4151
 7986SOL    HW135591   2.548   3.999   6.857 -0.8726 -1.9020  1.7302
 7986SOL    HW235592   2.542   4.015   7.000  0.4821 -0.2938 -0.6325
 7987SOL     OW35593   4.064   1.300   8.214  0.4208 -0.5909  0.0797
 7987SOL    HW135594   4.055   1.270   8.124 -1.0277  0.5674 -0.1659
 7987SOL    HW235595   4.036   1.221   8.259 -0.2453 -0.5449 -0.2528
 7988SOL     OW35596   2.369   1.736   8.554 -0.2244 -0.1556 -0.4464
 7988SOL    HW135597   2.463   1.751   8.542 -0.1114 -0.9041 -0.5051
 7988SOL    HW235598   2.364   1.640   8.546 -2.6309 -0.0837  0.3914
 7989SOL     OW35599   0.907   2.047   4.918 -0.1852 -0.0949 -0.0399
 7989SOL    HW135600   0.982   2.032   4.975 -1.0364  0.5876  1.2533
 7989SOL    HW235601   0.954   2.019   4.839 -0.6397  0.7884 -0.6295
 7990SOL     OW35602   1.133   2.994   1.299 -0.1143  0.1203 -0.5472
 7990SOL    HW135603   1.142   2.995   1.204  2.3485  1.9531 -0.2744
 7990SOL    HW235604   1.072   3.067   1.311 -0.5133  0.0635 -2.2066
 7991SOL     OW35605   0.354   2.865   4.675 -0.4448 -0.5150 -0.1866
 7991SOL    HW135606   0.300   2.800   4.719  0.0290 -1.6384 -1.2512
 7991SOL    HW235607   0.438   2.819   4.674 -0.4820 -0.6001  0.4953
 7992SOL     OW35608   2.273   2.162   7.034 -0.0234  0.2946 -0.1691
 7992SOL    HW135609   2.247   2.224   6.967 -0.3297  0.1348 -0.1981
 7992SOL    HW235610   2.229   2.208   7.105  1.7600  1.4145  0.2082
 7993SOL     OW35611   2.333   3.770  13.113 -0.4737 -0.1899 -0.0642
 7993SOL    HW135612   2.371   3.683  13.102  0.4546  0.2525 -0.3865
 7993SOL    HW235613   2.282   3.758  13.194  1.7118  0.5304  1.4171
 7994SOL     OW35614   4.736   3.783   1.969 -0.0481 -0.2577  0.2312
 7994SOL    HW135615   4.657   3.830   1.944  0.5782  1.0842  0.7438
 7994SOL    HW235616   0.039   3.787   1.883  0.7655 -0.8092  0.5931
 7995SOL     OW35617   3.323   3.666   6.961 -0.1705  0.2384  0.3405
 7995SOL    HW135618   3.368   3.622   6.890 -1.0355 -0.6516  0.3366
 7995SOL    HW235619   3.298   3.591   7.015 -0.9575  0.2415 -0.0213
 7996SOL     OW35620   1.566   1.912  13.252 -0.4967  0.3966 -0.5487
 7996SOL    HW135621   1.628   1.873  13.190 -0.7044  2.6909 -2.2089
 7996SOL    HW235622   1.609   1.997  13.257  1.7157 -0.6345 -2.3439
 7997SOL     OW35623   2.343   0.056   1.502 -0.2126  0.8309 -0.1636
 7997SOL    HW135624   2.259   0.067   1.547 -1.2839  1.1563 -2.2402
 7997SOL    HW235625   2.409   0.070   1.570 -0.3178 -0.5262  0.2231
 7998SOL     OW35626   2.948   3.850   1.356  0.3137  0.0605  0.6057
 7998SOL    HW135627   2.956   3.892   1.442 -2.6253  3.6086 -0.8430
 7998SOL    HW235628   2.862   3.811   1.373 -0.0397 -0.3259 -2.0427
 7999SOL     OW35629   0.078   3.609   9.768  0.3309 -0.2247 -0.5169
 7999SOL    HW135630   0.123   3.541   9.818 -1.5407 -0.7221  0.4597
 7999SOL    HW235631   4.724   3.582   9.777  0.0133  0.2318 -2.4524
 8000SOL     OW35632   1.774   2.716  15.761 -0.0712  0.7234  0.2947
 8000SOL    HW135633   1.821   2.715  15.677  0.0253 -2.8253  0.3887
 8000SOL    HW235634   1.683   2.721  15.733  0.3534  1.3620 -0.9669
 8001SOL     OW35635   4.603   0.388  15.506  0.5608  0.2874 -0.4738
 8001SOL    HW135636   4.636   0.456  15.448  0.4685  0.9889  0.3041
 8001SOL    HW235637   4.561   0.430  15.580  0.3775 -2.3808  0.9221
 8002SOL     OW35638   0.097   1.497   8.636  0.8659  0.0691  0.1122
 8002SOL    HW135639   0.082   1.415   8.589 -0.3516  0.1958  0.2691
 8002SOL    HW235640   0.010   1.510   8.675  0.8807  0.1189  0.1287
 8003SOL     OW35641   4.632   3.507   3.598  0.0070  0.0861  0.0434
 8003SOL    HW135642   4.649   3.418   3.565  2.4757 -0.4849  2.8821
 8003SOL    HW235643   4.716   3.553   3.597  1.2323 -2.1204 -1.2532
 8004SOL     OW35644   4.689   0.310   5.388  0.2024  0.2068  0.0650
 8004SOL    HW135645   4.678   0.404   5.403  0.6394  0.2770 -0.0567
 8004SOL    HW235646   4.655   0.271   5.468 -0.9324 -0.4018 -0.7130
 8005SOL     OW35647   2.811   0.426   2.659 -0.9524  0.0191 -0.5046
 8005SOL    HW135648   2.798   0.333   2.639 -1.6222 -0.3826  1.8247
 8005SOL    HW235649   2.838   0.417   2.750 -3.0513 -1.8609 -0.0780
 8006SOL     OW35650   2.254   1.814   9.513  0.5354 -0.4592 -0.2207
 8006SOL    HW135651   2.234   1.876   9.443 -1.7660 -0.1841  0.6554
 8006SOL    HW235652   2.186   1.840   9.576 -1.1341 -1.0381 -1.7677
 8007SOL     OW35653   1.767   0.895  13.529  0.3692  1.1167  0.5106
 8007SOL    HW135654   1.751   0.822  13.469  0.1390  0.7458  1.0240
 8007SOL    HW235655   1.735   0.969  13.477  0.7049 -0.9922 -2.6736
 8008SOL     OW35656   4.018   0.650  11.210  0.1442 -0.0511 -0.8000
 8008SOL    HW135657   4.079   0.646  11.283 -1.8062 -0.6009  0.7873
 8008SOL    HW235658   3.940   0.600  11.236  2.4287 -1.6688  2.8732
 8009SOL     OW35659   2.166   1.379  11.448 -0.4953  0.5259 -0.0523
 8009SOL    HW135660   2.173   1.415  11.536 -0.3540 -0.6589  0.4295
 8009SOL    HW235661   2.173   1.288  11.479 -2.0398  0.6522  0.6351
 8010SOL     OW35662   0.015   1.103  13.092  0.1132 -0.1634  0.1740
 8010SOL    HW135663   4.657   1.101  13.083  0.1952  2.0666 -1.2186
 8010SOL    HW235664   0.044   1.014  13.074 -0.1732 -0.0025 -1.1115
 8011SOL     OW35665   0.333   2.302   5.789 -0.0884 -0.7528  0.7073
 8011SOL    HW135666   0.344   2.243   5.864  1.0686 -0.7805  0.5092
 8011SOL    HW235667   0.389   2.377   5.804  2.6268 -2.6853  0.2145
 8012SOL     OW35668   1.344   3.802   2.750  0.3107 -0.3934  0.2537
 8012SOL    HW135669   1.278   3.733   2.759  0.8605 -0.9442  0.0657
 8012SOL    HW235670   1.391   3.767   2.675  1.6614  0.2961  0.7874
 8013SOL     OW35671   2.176   3.389   9.388 -0.0018  0.6923 -0.4286
 8013SOL    HW135672   2.224   3.468   9.415 -2.3565  2.5346 -1.6487
 8013SOL    HW235673   2.099   3.396   9.444 -1.4662 -1.9448 -2.1223
 8014SOL     OW35674   2.273   3.104  13.675 -0.0526 -0.1667 -0.3319
 8014SOL    HW135675   2.319   3.053  13.608 -0.8908  2.5312 -2.9544
 8014SOL    HW235676   2.207   3.158  13.632  0.3601  2.0667  1.8282
 8015SOL     OW35677   4.158   1.581   1.986  0.1535  0.3821  0.0512
 8015SOL    HW135678   4.101   1.507   2.008 -0.2032  1.2648  2.0379
 8015SOL    HW235679   4.110   1.612   1.909  1.2139  0.8391 -0.4288
 8016SOL     OW35680   0.157   4.192   5.679 -0.1425 -0.3560 -0.2691
 8016SOL    HW135681   0.108   4.139   5.617 -2.4712  2.7864 -1.1215
 8016SOL    HW235682   0.137   4.141   5.758 -1.6703  0.8604  0.1148
 8017SOL     OW35683   3.689   4.460   0.749  0.6825  0.1649  0.3518
 8017SOL    HW135684   3.715   4.469   0.841 -0.4506  1.4483  0.5496
 8017SOL    HW235685   3.755   4.514   0.706  1.7033 -1.0434  0.4200
 8018SOL     OW35686   1.205   3.526   6.673 -0.2829  0.5364  0.4040
 8018SOL    HW135687   1.258   3.572   6.739 -1.1657  1.4207  0.5113
 8018SOL    HW235688   1.174   3.451   6.723 -0.0546 -0.2534 -0.6419
 8019SOL     OW35689   1.178   0.249   9.650  0.6539 -0.1984  0.6314
 8019SOL    HW135690   1.128   0.219   9.726  1.6206 -0.2193  1.2638
 8019SOL    HW235691   1.106   0.242   9.587  1.5391 -0.2049 -0.3783
 8020SOL     OW35692   1.190   2.793  15.299 -0.2736  0.2929  0.1182
 8020SOL    HW135693   1.110   2.839  15.322  0.6921  1.3815  1.3321
 8020SOL    HW235694   1.201   2.818  15.208  0.0602 -1.9936 -0.4721
 8021SOL     OW35695   3.784   4.098   1.851 -0.2448  0.0501  0.1335
 8021SOL    HW135696   3.855   4.054   1.805 -0.7144  0.7634 -1.2514
 8021SOL    HW235697   3.719   4.029   1.865 -0.1661  0.2358  1.4521
 8022SOL     OW35698   3.149   2.033   2.448 -0.4151 -0.0720  0.5863
 8022SOL    HW135699   3.182   2.121   2.467  0.5040 -0.3818  0.4225
 8022SOL    HW235700   3.229   1.985   2.426 -1.3690 -1.3487 -0.0893
 8023SOL     OW35701   2.152   2.472  15.875  0.2484  0.1629 -0.2261
 8023SOL    HW135702   2.199   2.456  15.956 -0.0016 -2.5658 -0.6081
 8023SOL    HW235703   2.115   2.560  15.880  0.6831  0.3595 -0.5009
 8024SOL     OW35704   4.269   0.187   4.045  0.0579 -0.4560  0.2293
 8024SOL    HW135705   4.322   0.211   4.121 -0.8087  1.8091  0.1130
 8024SOL    HW235706   4.183   0.183   4.087  0.8864  3.4380  2.3158
 8025SOL     OW35707   3.853   3.469   6.261 -0.0703  0.3643 -0.4537
 8025SOL    HW135708   3.803   3.493   6.184  1.7055 -1.5672 -2.2030
 8025SOL    HW235709   3.943   3.474   6.228  0.6094 -0.7859  1.2285
 8026SOL     OW35710   2.637   3.064  13.138  0.1234 -0.1400  0.0236
 8026SOL    HW135711   2.616   3.046  13.047  1.1529  2.0775 -0.6522
 8026SOL    HW235712   2.731   3.046  13.137  0.0778 -0.4445  0.8794
 8027SOL     OW35713   1.527   2.468   4.421  0.1311 -0.8564  0.0133
 8027SOL    HW135714   1.477   2.548   4.406  1.3350  0.3217  2.2933
 8027SOL    HW235715   1.613   2.507   4.438 -0.4123  0.6607 -0.7489
 8028SOL     OW35716   3.075   4.555   3.755 -0.5080  0.3873 -0.4002
 8028SOL    HW135717   3.079   4.617   3.828 -1.8760  1.5162 -1.2663
 8028SOL    HW235718   3.168   4.533   3.753 -0.4541  0.6631 -0.9123
 8029SOL     OW35719   4.080   3.034   4.519 -0.5012 -0.3372 -0.4251
 8029SOL    HW135720   4.111   3.037   4.610 -1.5955 -0.3911 -0.0529
 8029SOL    HW235721   4.161   3.056   4.474 -0.0868 -1.1807 -0.0889
 8030SOL     OW35722   2.909   2.788  16.385  0.3507 -0.9691  0.8124
 8030SOL    HW135723   2.990   2.756  16.422  0.1457 -0.0814  2.0467
 8030SOL    HW235724   2.888   2.843  16.461  0.6987  1.6760 -0.9911
 8031SOL     OW35725   0.229   3.321   8.094 -0.0524 -0.0009 -0.2368
 8031SOL    HW135726   0.303   3.278   8.138 -1.0810 -0.7575  0.7567
 8031SOL    HW235727   0.233   3.413   8.119 -1.0473 -0.1580  0.4806
 8032SOL     OW35728   3.447   3.621   4.608 -0.2033  0.1170 -0.0892
 8032SOL    HW135729   3.443   3.613   4.513 -0.1251  2.3442 -0.2769
 8032SOL    HW235730   3.354   3.606   4.629  0.0415  0.3386  1.1496
 8033SOL     OW35731   3.845   1.945   1.908 -0.3343 -0.6664  0.1649
 8033SOL    HW135732   3.912   2.010   1.929 -2.8689  1.4326  1.6798
 8033SOL    HW235733   3.830   1.968   1.816 -3.0350 -0.4669  0.6589
 8034SOL     OW35734   3.588   2.911   3.061 -0.5292 -0.7823 -0.3077
 8034SOL    HW135735   3.515   2.851   3.048  0.1207 -1.6939  0.2250
 8034SOL    HW235736   3.635   2.897   2.978 -0.4912 -0.0612 -0.4067
 8035SOL     OW35737   4.133   2.286   5.944 -0.0882 -0.2235  0.0090
 8035SOL    HW135738   4.048   2.250   5.969 -0.7632 -0.0961 -2.0834
 8035SOL    HW235739   4.144   2.348   6.016  0.1201  0.3885 -0.5482
 8036SOL     OW35740   4.584   1.024   3.390  0.1978 -0.2558  0.5909
 8036SOL    HW135741   4.503   0.988   3.355  0.0798  0.5619  0.0187
 8036SOL    HW235742   4.626   0.941   3.411 -0.4985 -0.3022  1.7583
 8037SOL     OW35743   0.634   3.436  11.852  0.1403  0.1938 -0.2111
 8037SOL    HW135744   0.609   3.419  11.943 -1.8551  0.3688 -0.7458
 8037SOL    HW235745   0.591   3.362  11.808 -0.6472 -1.2327  2.9188
 8038SOL     OW35746   2.675   2.245  13.292  0.1655  0.5634  0.0408
 8038SOL    HW135747   2.632   2.303  13.230  1.1633  0.5482 -0.6627
 8038SOL    HW235748   2.708   2.175  13.236 -0.5947  0.8702 -0.7919
 8039SOL     OW35749   1.703   2.791   3.795 -0.8655  0.1777 -0.2450
 8039SOL    HW135750   1.651   2.861   3.834  0.3520  0.2509  1.2609
 8039SOL    HW235751   1.715   2.728   3.866  0.1829 -2.0978 -2.4456
 8040SOL     OW35752   1.082   4.021   7.721  0.5004 -0.5950  0.1469
 8040SOL    HW135753   1.096   3.942   7.775 -1.4916  0.1690  1.7778
 8040SOL    HW235754   0.995   4.041   7.757  0.4179 -0.7516  0.0360
 8041SOL     OW35755   0.824   2.920   1.440 -0.2441 -0.1507  0.0721
 8041SOL    HW135756   0.890   2.871   1.489  0.0274  0.1541  0.0143
 8041SOL    HW235757   0.837   2.879   1.355  0.1905 -0.0726  0.0972
 8042SOL     OW35758   0.660   0.612   8.736  0.1594  0.1259  0.6726
 8042SOL    HW135759   0.736   0.557   8.714 -0.9379 -1.3013  0.4461
 8042SOL    HW235760   0.623   0.568   8.812  1.2239 -2.8187 -0.4789
 8043SOL     OW35761   2.946   0.675   2.846  0.1363  0.0560 -0.3484
 8043SOL    HW135762   2.860   0.653   2.884  0.3143 -2.2001 -1.2485
 8043SOL    HW235763   2.948   0.770   2.859 -0.2493 -0.0538  0.5633
 8044SOL     OW35764   3.771   3.393   7.149 -0.2205  0.5498 -0.1811
 8044SOL    HW135765   3.700   3.340   7.187  0.3365 -0.4455 -0.5138
 8044SOL    HW235766   3.747   3.390   7.056 -1.6270 -0.0062  0.1996
 8045SOL     OW35767   0.708   1.402  13.949  0.3118 -0.1199  0.6703
 8045SOL    HW135768   0.778   1.430  13.890 -0.8869 -1.0706 -1.2139
 8045SOL    HW235769   0.645   1.361  13.889 -0.2008  0.2523  0.9481
 8046SOL     OW35770   2.060   4.067   9.281 -0.0726  0.0601  0.1336
 8046SOL    HW135771   2.074   4.069   9.186 -0.7115  1.4542  0.0739
 8046SOL    HW235772   2.003   4.143   9.297 -1.4014 -1.3593  2.1025
 8047SOL     OW35773   1.114   4.022  17.624 -0.1549  0.3441  0.0077
 8047SOL    HW135774   1.026   4.022  17.585  0.1529  0.5070 -0.6820
 8047SOL    HW235775   1.159   4.090  17.574  2.3000 -1.4477 -0.2101
 8048SOL     OW35776   1.213   3.550   2.738  0.7964  0.0324 -0.7568
 8048SOL    HW135777   1.186   3.532   2.648  4.6396  2.3297 -2.3848
 8048SOL    HW235778   1.306   3.532   2.729  0.7343  0.1178 -1.5136
 8049SOL     OW35779   2.947   2.260   4.907  0.5447  0.5766  0.3535
 8049SOL    HW135780   2.991   2.296   4.830 -0.3298 -2.5263 -1.5705
 8049SOL    HW235781   2.870   2.316   4.893 -0.5897 -1.7630 -2.6767
 8050SOL     OW35782   3.694   2.635   6.994 -0.2398  0.0309  0.1164
 8050SOL    HW135783   3.689   2.668   6.905  2.6053 -0.9460 -0.3911
 8050SOL    HW235784   3.647   2.553   6.983  0.9320 -0.5322 -0.6268
 8051SOL     OW35785   1.731   3.395   8.069 -0.2348 -1.0781 -0.5987
 8051SOL    HW135786   1.700   3.364   8.154 -1.5482  1.7573 -0.0448
 8051SOL    HW235787   1.667   3.459   8.039  1.6112 -0.1960 -2.6462
 8052SOL     OW35788   3.822   4.094   5.777  0.4539 -0.1666  0.2268
 8052SOL    HW135789   3.735   4.059   5.755 -0.5382  3.3866 -1.4459
 8052SOL    HW235790   3.828   4.066   5.869  0.2728 -1.2516 -0.0856
 8053SOL     OW35791   3.891   2.984   1.839  0.4911 -0.3348  0.0020
 8053SOL    HW135792   3.976   2.946   1.861  0.7336  0.4732  0.4577
 8053SOL    HW235793   3.914   3.036   1.761 -0.6645  0.3601  0.1287
 8054SOL     OW35794   0.086   0.751   6.282  0.0674  0.0942 -0.6224
 8054SOL    HW135795   0.105   0.836   6.243 -0.5355  0.3558 -0.3515
 8054SOL    HW235796   0.042   0.715   6.205 -3.7940 -1.7181  2.4162
 8055SOL     OW35797   1.050   1.883   5.749  0.6047  0.1045  0.3071
 8055SOL    HW135798   1.088   1.800   5.719 -0.9339 -0.6441  0.4614
 8055SOL    HW235799   1.117   1.905   5.815 -1.0004  1.1882  1.5835
 8056SOL     OW35800   2.618   0.363  14.963 -0.4340 -0.1359  0.2169
 8056SOL    HW135801   2.708   0.344  14.936  0.1217  1.6144  0.8144
 8056SOL    HW235802   2.634   0.454  14.991  0.6136 -0.0193 -0.7523
 8057SOL     OW35803   2.657   4.173   3.503  0.4214  0.0101 -0.3667
 8057SOL    HW135804   2.721   4.119   3.456  0.2949  0.0809 -0.6210
 8057SOL    HW235805   2.665   4.138   3.592  0.0711 -1.1011 -0.7774
 8058SOL     OW35806   2.627   3.415   9.509  0.0315 -0.0223 -0.6099
 8058SOL    HW135807   2.662   3.350   9.449 -0.4253 -0.7239 -0.1084
 8058SOL    HW235808   2.571   3.471   9.455 -0.6839  0.8981  1.0823
 8059SOL     OW35809   4.693   0.580   8.971 -0.0889  0.4413 -0.3944
 8059SOL    HW135810   4.684   0.670   8.939  0.2899  0.8262  0.5945
 8059SOL    HW235811   4.607   0.543   8.955  0.7937 -1.1576 -1.4694
 8060SOL     OW35812   1.781   4.432   5.220 -0.0504  0.1008 -0.0936
 8060SOL    HW135813   1.796   4.373   5.147  1.0604  0.3950 -0.1052
 8060SOL    HW235814   1.742   4.372   5.283  5.5706 -1.9654  1.4395
 8061SOL     OW35815   2.551   2.485   3.001 -0.2100 -0.3811  0.0804
 8061SOL    HW135816   2.630   2.537   2.987  1.2254 -1.9821  2.2229
 8061SOL    HW235817   2.573   2.431   3.077  0.4182  0.0257  0.1885
 8062SOL     OW35818   1.058   0.290  15.119 -0.1284  0.3329 -0.6010
 8062SOL    HW135819   1.092   0.231  15.186 -1.1207  0.1310 -0.2713
 8062SOL    HW235820   1.129   0.340  15.079 -1.2006  1.6206 -0.9062
 8063SOL     OW35821   0.975   4.487   9.001 -0.4378 -0.3618 -0.4409
 8063SOL    HW135822   1.000   4.515   8.912 -0.1637  1.1497  0.1074
 8063SOL    HW235823   1.055   4.505   9.050  0.3118 -2.9577 -0.7133
 8064SOL     OW35824   4.262   2.514   6.887 -0.0326 -0.0265  0.2893
 8064SOL    HW135825   4.341   2.462   6.877  0.7646  1.1761  0.4120
 8064SOL    HW235826   4.260   2.513   6.983 -2.0108 -0.5164  0.2418
 8065SOL     OW35827   4.697   1.875   7.632  0.6736 -0.7404 -0.4453
 8065SOL    HW135828   4.629   1.870   7.565  0.7919 -0.3341 -0.5921
 8065SOL    HW235829   4.733   1.790   7.606  1.9312 -0.2662 -0.2767
 8066SOL     OW35830   4.226   1.425   6.833 -0.4407 -0.6069  0.6190
 8066SOL    HW135831   4.145   1.406   6.879 -0.3673  0.7204  1.2861
 8066SOL    HW235832   4.204   1.390   6.746 -1.8778  0.2337  0.6398
 8067SOL     OW35833   2.433   4.331   4.926 -0.2144  0.0460  0.5021
 8067SOL    HW135834   2.384   4.371   4.997  0.8907  1.3635  0.5198
 8067SOL    HW235835   2.509   4.306   4.978  0.4880  0.2272 -0.4434
 8068SOL     OW35836   2.007   0.342   7.087 -0.0793 -0.4378 -0.1391
 8068SOL    HW135837   2.096   0.365   7.063 -1.1303  4.1208  0.2744
 8068SOL    HW235838   1.962   0.367   7.006 -0.1542  2.2618  0.7451
 8069SOL     OW35839   2.238   1.355   6.451 -0.0648 -0.1880  0.1016
 8069SOL    HW135840   2.327   1.335   6.424 -0.4189 -1.2201 -0.3141
 8069SOL    HW235841   2.216   1.426   6.391  1.6733  0.2057 -0.0582
 8070SOL     OW35842   1.716   3.274   2.360 -0.4100 -0.4009 -0.0762
 8070SOL    HW135843   1.632   3.306   2.392 -0.9017  0.1584 -1.9603
 8070SOL    HW235844   1.690   3.259   2.270 -0.2059  1.2445 -0.4005
 8071SOL     OW35845   2.915   2.616  10.048  0.1184  0.5752 -0.0508
 8071SOL    HW135846   2.822   2.621  10.070  0.0705 -1.5357  0.1838
 8071SOL    HW235847   2.912   2.561   9.970  1.4501 -0.5167  0.6759
 8072SOL     OW35848   4.084   3.834   4.890  0.2219 -0.2807  0.3622
 8072SOL    HW135849   4.061   3.749   4.927  0.0093 -0.4076 -0.0629
 8072SOL    HW235850   4.008   3.851   4.835  1.0079  0.2481 -0.5663
 8073SOL     OW35851   4.268   3.856  11.792  0.3905  0.4268 -0.1922
 8073SOL    HW135852   4.348   3.826  11.835 -1.1342 -0.0306  2.3276
 8073SOL    HW235853   4.298   3.863  11.701 -0.0438  2.2155 -0.1870
 8074SOL     OW35854   1.303   4.543   2.366  0.7563 -1.0653 -0.0019
 8074SOL    HW135855   1.390   4.581   2.373  0.0413  0.4004  1.0117
 8074SOL    HW235856   1.317   4.467   2.422 -0.7501  0.8053  2.9764
 8075SOL     OW35857   0.308   2.377  12.145 -0.0576 -0.1503  0.5295
 8075SOL    HW135858   0.261   2.301  12.111  0.4974 -0.0985 -0.3480
 8075SOL    HW235859   0.380   2.396  12.085 -0.6719 -2.9448 -1.0601
 8076SOL     OW35860   0.140   2.428  16.888  0.1800 -0.4485  0.1036
 8076SOL    HW135861   0.157   2.349  16.838  1.7307 -0.4823  0.6851
 8076SOL    HW235862   0.226   2.468  16.896  1.5336 -3.0114 -1.7742
 8077SOL     OW35863   2.810   1.637   9.898 -0.2561  0.0215 -0.5783
 8077SOL    HW135864   2.849   1.552   9.919  1.7342  1.9469  3.6834
 8077SOL    HW235865   2.747   1.604   9.834 -1.7349 -0.3058  1.0586
 8078SOL     OW35866   0.694   2.983   2.113  0.1385  0.4676 -0.2566
 8078SOL    HW135867   0.754   3.038   2.163  1.6075 -1.1728 -0.1757
 8078SOL    HW235868   0.672   3.049   2.048  1.5981  0.4583 -0.7542
 8079SOL     OW35869   4.374   2.986   7.467 -0.0051  0.1086 -0.1504
 8079SOL    HW135870   4.289   3.016   7.434 -0.7744 -1.6635  0.2035
 8079SOL    HW235871   4.403   2.944   7.386 -1.8359 -0.5879 -0.4434
 8080SOL     OW35872   3.354   1.702   5.317 -0.4200 -0.3336  0.5748
 8080SOL    HW135873   3.421   1.652   5.362  2.5470  1.7197 -1.5154
 8080SOL    HW235874   3.327   1.652   5.240  2.4501 -0.5750 -0.2771
 8081SOL     OW35875   2.429   1.181  10.321  0.2245 -0.0519  0.2377
 8081SOL    HW135876   2.525   1.178  10.318  0.2479  2.0089 -0.8103
 8081SOL    HW235877   2.410   1.197  10.228 -0.7818 -1.4282  0.2069
 8082SOL     OW35878   3.074   0.618   5.980  0.0514  0.3763 -0.2243
 8082SOL    HW135879   3.051   0.585   5.893  0.6345  0.2136 -0.3124
 8082SOL    HW235880   3.048   0.550   6.042 -0.0517  0.8175  0.2229
 8083SOL     OW35881   4.605   0.450   4.969 -0.0036  0.0856 -0.3818
 8083SOL    HW135882   4.684   0.473   4.920  0.0811 -0.3930 -0.4682
 8083SOL    HW235883   4.631   0.373   5.019 -1.5708 -1.3341 -1.7834
 8084SOL     OW35884   3.823   3.617  11.578  0.3448 -0.1738  0.3453
 8084SOL    HW135885   3.772   3.570  11.644 -0.4863 -0.6823 -0.6482
 8084SOL    HW235886   3.852   3.550  11.517 -0.4306  2.2298 -2.6650
 8085SOL     OW35887   4.535   3.795   2.650  0.0873  0.5474 -0.3646
 8085SOL    HW135888   4.514   3.797   2.744  3.1327 -1.1221  0.3425
 8085SOL    HW235889   4.542   3.886   2.622 -1.4029  0.5989 -0.5854
 8086SOL     OW35890   1.873   1.793   5.665 -0.3503 -0.0539  0.1846
 8086SOL    HW135891   1.804   1.768   5.604 -1.4973 -0.1481  1.5364
 8086SOL    HW235892   1.952   1.767   5.617 -0.8350 -1.4021  0.1250
 8087SOL     OW35893   1.733   3.332   7.237  0.4827 -0.0626  0.0809
 8087SOL    HW135894   1.741   3.373   7.151 -0.2805  0.6050  0.3357
 8087SOL    HW235895   1.706   3.243   7.215  0.7974  0.0179 -0.6473
 8088SOL     OW35896   3.657   2.130   7.189 -0.7907  0.2010 -0.6067
 8088SOL    HW135897   3.739   2.095   7.226 -1.0774  1.5060  1.2323
 8088SOL    HW235898   3.693   2.166   7.107  0.4624 -0.4598 -0.3614
 8089SOL     OW35899   0.332   2.701   6.991 -0.4418 -0.0744  0.4544
 8089SOL    HW135900   0.417   2.673   6.959  0.2441  0.9003  1.4123
 8089SOL    HW235901   0.353   2.774   7.050  0.2597 -0.1355  0.2704
 8090SOL     OW35902   4.636   0.768  16.091 -0.5890 -0.1999 -0.0865
 8090SOL    HW135903   4.729   0.748  16.080 -0.2429  1.4056 -0.0361
 8090SOL    HW235904   4.623   0.845  16.035 -0.4549 -0.4877 -0.5160
 8091SOL     OW35905   4.415   0.035   0.740  0.8127  0.9767  0.2545
 8091SOL    HW135906   4.430   0.089   0.663  1.6341  1.4394  0.7323
 8091SOL    HW235907   4.473   0.062   0.812 -0.5589 -0.3929  1.8795
 8092SOL     OW35908   3.777   1.554  10.658  0.0215 -0.0421  0.1420
 8092SOL    HW135909   3.846   1.614  10.683  0.5908 -0.2314 -0.9590
 8092SOL    HW235910   3.697   1.598  10.688  0.4478 -0.1435  1.4069
 8093SOL     OW35911   4.353   2.717   2.170  0.0007  0.7473 -0.3644
 8093SOL    HW135912   4.440   2.685   2.193  1.0341  1.9035 -2.6903
 8093SOL    HW235913   4.359   2.757   2.084  0.3790 -1.6663 -1.4500
 8094SOL     OW35914   3.325   3.569   5.924  0.2991 -0.1854 -0.0266
 8094SOL    HW135915   3.388   3.634   5.891 -0.8943  0.7968 -0.3972
 8094SOL    HW235916   3.239   3.610   5.910 -0.0601 -0.7054  0.6576
 8095SOL     OW35917   4.003   2.559   4.019  0.1244 -0.6156  0.0088
 8095SOL    HW135918   3.922   2.528   3.979  0.4702 -0.3772 -0.8826
 8095SOL    HW235919   4.041   2.614   3.951  0.4727 -2.2486 -1.1191
 8096SOL     OW35920   3.176   2.123  11.220  0.1916 -0.8111  0.0177
 8096SOL    HW135921   3.220   2.203  11.251 -0.8287 -0.7161  1.2255
 8096SOL    HW235922   3.176   2.142  11.126 -0.5389 -0.8424  0.0092
 8097SOL     OW35923   1.321   2.204   4.975  0.1752 -0.0695  0.9496
 8097SOL    HW135924   1.250   2.181   4.915  0.4683  0.2892  0.4662
 8097SOL    HW235925   1.376   2.127   4.964  1.8405  1.4272 -1.2283
 8098SOL     OW35926   4.732   3.135   7.061  0.3267 -0.4052  0.4123
 8098SOL    HW135927   4.673   3.176   7.125 -0.5021  0.5002 -0.9518
 8098SOL    HW235928   4.674   3.080   7.009 -0.7079  1.5867 -0.5242
 8099SOL     OW35929   2.237   1.066   4.580  0.2831  0.4612 -0.3037
 8099SOL    HW135930   2.282   1.034   4.501 -1.4928  2.8403 -2.2584
 8099SOL    HW235931   2.284   1.033   4.657 -0.6926 -0.4448 -0.1018
 8100SOL     OW35932   0.145   2.461   1.225 -0.1718  0.4449 -0.4217
 8100SOL    HW135933   0.227   2.508   1.239 -0.6528  1.2302 -0.2686
 8100SOL    HW235934   0.116   2.498   1.142  0.6154  0.0174 -0.8867
 8101SOL     OW35935   3.664   3.902  16.004  0.4419  0.0678  0.1783
 8101SOL    HW135936   3.753   3.905  16.038  0.5057 -0.9536  0.1016
 8101SOL    HW235937   3.643   3.808  16.005 -0.3693  0.2505  0.6010
 8102SOL     OW35938   1.235   4.484   8.790  0.1045 -0.3970 -0.3737
 8102SOL    HW135939   1.203   4.462   8.702  0.8610 -0.2782 -0.6777
 8102SOL    HW235940   1.245   4.397   8.829  1.7950 -0.7485 -1.5780
 8103SOL     OW35941   2.403   1.886   6.680  0.1814 -0.1108  0.3072
 8103SOL    HW135942   2.471   1.926   6.626  1.2026 -1.6990  0.4114
 8103SOL    HW235943   2.386   1.804   6.634 -2.3375 -0.0192  1.0797
 8104SOL     OW35944   1.560   3.019   6.906  0.1564  0.1741  0.0993
 8104SOL    HW135945   1.631   3.083   6.897 -0.6554  0.7467 -2.1847
 8104SOL    HW235946   1.527   3.022   6.816  2.2874 -1.1285 -0.7310
 8105SOL     OW35947   3.944   1.369   4.785  0.0331  0.0899 -0.5147
 8105SOL    HW135948   3.860   1.389   4.827  0.5588  1.1405  0.0454
 8105SOL    HW235949   3.972   1.458   4.762 -1.6825  1.1431  1.5164
 8106SOL     OW35950   1.716   0.653  11.351  0.0676 -0.5523  0.6602
 8106SOL    HW135951   1.669   0.662  11.434 -1.7350 -1.7311 -0.2315
 8106SOL    HW235952   1.769   0.577  11.374  0.3199 -0.8173 -0.8523
 8107SOL     OW35953   3.248   2.108  17.356 -0.2857  0.3570 -0.3498
 8107SOL    HW135954   3.173   2.150  17.314 -1.5018 -2.0370 -0.5854
 8107SOL    HW235955   3.252   2.164  17.433 -1.7638  0.0111 -0.0225
 8108SOL     OW35956   0.349   1.301   9.071 -0.2991  0.3276  0.4374
 8108SOL    HW135957   0.353   1.297   8.976 -0.0827  1.7166  0.3912
 8108SOL    HW235958   0.279   1.366   9.082 -0.4482  0.0136  1.3652
 8109SOL     OW35959   0.658   3.935  10.809  0.0920 -0.4747 -0.1984
 8109SOL    HW135960   0.732   3.937  10.870  0.0999  0.9489 -0.2525
 8109SOL    HW235961   0.675   4.008  10.749 -1.9920 -0.3452 -0.6131
 8110SOL     OW35962   4.340   3.701   7.666 -0.4168  0.5949 -0.1389
 8110SOL    HW135963   4.247   3.707   7.644 -0.4480 -0.2514 -0.2467
 8110SOL    HW235964   4.344   3.614   7.707 -1.9629  1.3267  1.5960
 8111SOL     OW35965   2.780   1.693   2.358 -0.5078  0.4632 -0.4698
 8111SOL    HW135966   2.868   1.694   2.395 -0.5590 -3.0680 -0.2509
 8111SOL    HW235967   2.782   1.608   2.313  0.1803  0.0526  0.3489
 8112SOL     OW35968   1.545   4.615  10.240  0.1820  0.8036 -0.3940
 8112SOL    HW135969   1.502   4.564  10.171 -2.1397  1.0711  0.8673
 8112SOL    HW235970   1.637   4.624  10.215  0.5504  0.1774  0.7449
 8113SOL     OW35971   2.359   4.637   5.675 -0.6422  0.4965  0.9875
 8113SOL    HW135972   2.328   4.726   5.660 -2.0530 -0.2616 -0.5826
 8113SOL    HW235973   2.418   4.650   5.749 -0.2213 -2.4883  1.2028
 8114SOL     OW35974   0.387   2.161   7.488 -0.2459 -0.7222  0.7103
 8114SOL    HW135975   0.329   2.224   7.532  0.9218  0.5314  0.4403
 8114SOL    HW235976   0.346   2.081   7.520 -0.7583 -0.7748 -0.0858
 8115SOL     OW35977   0.332   2.723   7.820 -0.3139  0.0795 -0.1844
 8115SOL    HW135978   0.278   2.679   7.887  0.9099 -0.6436  0.3142
 8115SOL    HW235979   0.391   2.777   7.873  1.6429 -1.4960 -0.7693
 8116SOL     OW35980   3.122   4.566   8.928 -0.4779 -0.2622  0.2241
 8116SOL    HW135981   3.061   4.517   8.873 -0.6192  0.0601  0.0959
 8116SOL    HW235982   3.057   4.600   8.989  0.6600  2.3044  0.0186
 8117SOL     OW35983   4.609   4.253   6.677 -0.2591  0.2640  0.0657
 8117SOL    HW135984   4.532   4.220   6.630  0.0274  0.0465 -0.2533
 8117SOL    HW235985   4.650   4.307   6.610  1.9105  0.5846  1.6680
 8118SOL     OW35986   3.375   1.407  13.481  0.1589  0.1769  0.2152
 8118SOL    HW135987   3.310   1.467  13.444 -1.3569  0.6070  3.5694
 8118SOL    HW235988   3.337   1.320  13.479  0.6365 -0.0236 -0.1305
 8119SOL     OW35989   4.701   3.605   2.178 -0.2813  0.0475 -0.3938
 8119SOL    HW135990   4.726   3.682   2.127 -1.4484  0.9200  0.3691
 8119SOL    HW235991   0.048   3.561   2.181 -0.4712 -0.0786  2.8992
 8120SOL     OW35992   2.003   3.502  11.638 -0.4445 -0.3005  0.2208
 8120SOL    HW135993   2.044   3.584  11.664 -0.1980 -0.6487  0.9430
 8120SOL    HW235994   1.984   3.475  11.728 -1.0608  2.1859  0.8352
 8121SOL     OW35995   2.315   2.451  11.076 -0.0348 -0.3243 -0.2830
 8121SOL    HW135996   2.361   2.451  11.160  0.4615 -3.1260 -0.5586
 8121SOL    HW235997   2.331   2.363  11.042  0.3136 -0.9743  1.5612
 8122SOL     OW35998   2.217   0.666   7.412 -0.1509  0.6814 -0.0904
 8122SOL    HW135999   2.240   0.585   7.456  0.7155  1.5414  1.0505
 8122SOL    HW236000   2.172   0.707   7.486  2.4779  2.2592  0.6161
 8123SOL     OW36001   2.748   1.225   2.976  0.4532 -0.0773  0.1375
 8123SOL    HW136002   2.729   1.198   3.066 -0.9397  0.3737 -0.0250
 8123SOL    HW236003   2.715   1.159   2.914  1.0665 -0.2080 -0.0515
 8124SOL     OW36004   2.665   1.102   1.755 -0.0444  0.3224 -0.7694
 8124SOL    HW136005   2.667   1.106   1.851 -1.0705  1.6435 -0.7921
 8124SOL    HW236006   2.735   1.162   1.732 -1.1670  2.2966  0.9222
 8125SOL     OW36007   3.392   0.400   7.786 -0.6118 -0.4279  0.0482
 8125SOL    HW136008   3.480   0.389   7.749 -0.5205  0.4667 -0.0210
 8125SOL    HW236009   3.401   0.472   7.849  1.3546 -0.0284 -0.6764
 8126SOL     OW36010   0.976   3.733   4.114  0.3099  0.3403  0.2701
 8126SOL    HW136011   1.068   3.758   4.103  0.1613  0.2397 -1.1906
 8126SOL    HW236012   0.958   3.744   4.021  1.9264 -0.5350 -0.1564
 8127SOL     OW36013   2.039   4.104   9.012  0.1410  0.4485  0.0454
 8127SOL    HW136014   2.053   4.170   8.944 -1.2462  0.8613  0.1804
 8127SOL    HW236015   2.121   4.054   9.016 -0.1824 -0.1060 -0.3211
 8128SOL     OW36016   0.031   0.948  17.397 -0.3395  0.4216  0.4384
 8128SOL    HW136017   0.011   0.902  17.478 -2.0553 -1.2689 -0.9488
 8128SOL    HW236018   0.009   1.038  17.419  1.0705  0.7533  0.5362
 8129SOL     OW36019   0.044   2.238   6.234 -0.0486 -0.4584  0.0467
 8129SOL    HW136020   4.721   2.285   6.291 -0.4400 -0.4240 -0.4097
 8129SOL    HW236021   0.083   2.175   6.295  0.8777 -0.8855 -0.9775
 8130SOL     OW36022   3.078   3.696   5.861  0.2300  1.0926 -0.7264
 8130SOL    HW136023   2.989   3.721   5.834 -0.6644 -1.7739 -0.3867
 8130SOL    HW236024   3.088   3.613   5.815  0.2239  1.6598 -1.7503
 8131SOL     OW36025   2.990   2.830   3.661  0.2915 -1.0951  0.9148
 8131SOL    HW136026   2.915   2.861   3.713 -2.0990 -1.9418 -1.9993
 8131SOL    HW236027   3.001   2.739   3.688 -0.3758 -1.3720  0.2440
 8132SOL     OW36028   4.434   1.710   6.133 -0.1727  0.6154 -0.1331
 8132SOL    HW136029   4.406   1.800   6.148 -1.6692  0.1636 -0.1804
 8132SOL    HW236030   4.359   1.654   6.154 -0.9436  1.8473  0.4254
 8133SOL     OW36031   1.689   4.363   2.758 -0.0420  0.1748  0.1853
 8133SOL    HW136032   1.599   4.371   2.725 -0.7377  1.4494  2.4240
 8133SOL    HW236033   1.687   4.269   2.742  0.6408  0.5534 -2.1168
 8134SOL     OW36034   4.449   2.752   4.070 -0.1629 -0.0250 -0.7369
 8134SOL    HW136035   4.393   2.731   4.144 -0.6753  1.2458 -0.7655
 8134SOL    HW236036   4.521   2.806   4.102  0.4676 -3.3594  3.4393
 8135SOL     OW36037   1.000   0.331   6.997 -0.2007  0.2561 -0.2889
 8135SOL    HW136038   1.027   0.240   6.990 -2.2278 -0.2853 -1.3448
 8135SOL    HW236039   1.072   0.369   7.047 -1.5880  0.3213  1.6997
 8136SOL     OW36040   0.975   3.068   2.774  0.5189  0.6891  0.3057
 8136SOL    HW136041   0.961   3.145   2.719 -0.4363 -0.8635 -1.6331
 8136SOL    HW236042   1.070   3.058   2.781  0.7492  3.2405  0.8139
 8137SOL     OW36043   4.115   4.564   4.928  0.1503  0.3572  1.0891
 8137SOL    HW136044   4.172   4.543   4.854 -1.2643  0.3181 -0.0061
 8137SOL    HW236045   4.142   4.514   5.004 -0.2130  0.5617  1.3523
 8138SOL     OW36046   1.090   3.405   4.911 -0.1528  0.3276 -0.0226
 8138SOL    HW136047   0.999   3.378   4.900  0.3336 -0.5691 -1.9156
 8138SOL    HW236048   1.130   3.374   4.830  1.8667  0.7858  0.7971
 8139SOL     OW36049   0.751   4.346   8.841  0.5207  0.5804  0.3361
 8139SOL    HW136050   0.745   4.402   8.918 -0.5305 -0.8193  1.2581
 8139SOL    HW236051   0.736   4.260   8.881  2.5896 -0.2114 -0.5824
 8140SOL     OW36052   2.499   4.424  15.416  0.4829  0.4341 -0.6980
 8140SOL    HW136053   2.537   4.388  15.495 -2.2831  1.0406  0.9066
 8140SOL    HW236054   2.523   4.514  15.437  1.7403 -0.1189  0.2312
 8141SOL     OW36055   3.126   3.164   4.158  0.1727  0.0053  0.4024
 8141SOL    HW136056   3.120   3.230   4.227 -0.3886 -0.8074  1.1297
 8141SOL    HW236057   3.198   3.112   4.194  1.4172  0.6061 -1.2168
 8142SOL     OW36058   4.313   0.566   4.362  0.0405 -0.7194 -0.0100
 8142SOL    HW136059   4.346   0.477   4.348  0.7316 -0.2203 -1.6402
 8142SOL    HW236060   4.341   0.577   4.453 -0.9843 -2.9846  0.5805
 8143SOL     OW36061   0.571   4.476   1.110  0.3371  0.1096  0.0145
 8143SOL    HW136062   0.568   4.564   1.148 -1.8424  0.5837 -1.2633
 8143SOL    HW236063   0.666   4.468   1.105  0.2106 -1.2200 -0.0844
 8144SOL     OW36064   1.795   0.161  16.901 -0.1183 -0.1312 -0.7588
 8144SOL    HW136065   1.795   0.235  16.962 -1.3887  1.1552 -2.3113
 8144SOL    HW236066   1.855   0.178  16.828 -1.0701 -0.7918 -1.6964
 8145SOL     OW36067   3.947   3.604   6.514 -0.2426  0.1894 -0.4325
 8145SOL    HW136068   3.948   3.578   6.422  3.2678 -0.3428 -0.2399
 8145SOL    HW236069   4.042   3.605   6.528 -0.2372 -0.9690 -0.4379
 8146SOL     OW36070   2.718   0.807   2.098 -0.1549  0.2978  0.3841
 8146SOL    HW136071   2.625   0.798   2.077 -0.4690  0.6509  1.6341
 8146SOL    HW236072   2.740   0.893   2.061  2.0551 -1.2232 -1.8734
 8147SOL     OW36073   4.158   2.571   4.501  0.0111 -0.1364  0.4267
 8147SOL    HW136074   4.071   2.557   4.465  0.4505  0.3826 -0.8443
 8147SOL    HW236075   4.212   2.578   4.423  2.3887 -1.3367  1.9466
 8148SOL     OW36076   3.003   2.346  13.844 -0.1895 -0.1275  0.1806
 8148SOL    HW136077   3.039   2.361  13.932 -1.4626  0.1727  0.6502
 8148SOL    HW236078   3.076   2.338  13.783 -0.3307  2.3620 -0.3356
 8149SOL     OW36079   1.963   1.106  13.318  0.5079 -0.2370  0.3493
 8149SOL    HW136080   1.892   1.163  13.346  0.7630 -1.0206  2.5380
 8149SOL    HW236081   1.917   1.035  13.272  0.8313  0.3308 -0.8450
 8150SOL     OW36082   1.158   0.419   5.736  0.0266 -0.4246 -0.1247
 8150SOL    HW136083   1.147   0.507   5.773  1.5166 -0.5121  0.5438
 8150SOL    HW236084   1.070   0.397   5.768  0.6319 -2.2904  0.2977
 8151SOL     OW36085   0.043   1.245  14.814 -0.6859 -0.0228 -0.2776
 8151SOL    HW136086   0.061   1.189  14.738 -2.0309 -0.2384 -0.4379
 8151SOL    HW236087   0.092   1.208  14.887 -0.7099  0.5248  0.0188
 8152SOL     OW36088   4.489   2.672  10.518  0.0655  0.0664  0.0324
 8152SOL    HW136089   4.411   2.659  10.572 -0.8019 -2.3741 -1.8088
 8152SOL    HW236090   4.502   2.588  10.475 -0.7645  0.2812 -0.6460
 8153SOL     OW36091   4.634   4.538  17.001  0.0625  0.2655 -0.5375
 8153SOL    HW136092   4.651   4.446  16.983  1.1183 -0.0175  1.7677
 8153SOL    HW236093   4.684   4.577  16.929  1.8498 -0.1185  0.4894
 8154SOL     OW36094   0.800   2.516   3.806 -0.6853 -0.5116 -0.6600
 8154SOL    HW136095   0.793   2.572   3.883 -1.7270 -1.4695 -0.0508
 8154SOL    HW236096   0.872   2.548   3.753  2.6485 -2.0790  2.9382
 8155SOL     OW36097   1.544   0.707   8.874 -0.0903  0.7468 -0.7209
 8155SOL    HW136098   1.477   0.691   8.808 -0.9169 -2.1461  0.7773
 8155SOL    HW236099   1.617   0.726   8.815  0.5919 -0.6330 -0.3251
 8156SOL     OW36100   2.655   0.072   7.994  0.6820  0.5333  0.3649
 8156SOL    HW136101   2.561   0.090   7.987  0.4213 -1.5158 -1.6559
 8156SOL    HW236102   2.686   0.112   7.913  1.7014  1.2682  1.1220
 8157SOL     OW36103   4.509   1.973   4.006 -0.3393  0.4998  0.4367
 8157SOL    HW136104   4.419   1.939   3.998  0.2989 -0.5706 -2.0221
 8157SOL    HW236105   4.499   2.062   4.040  0.0192  0.7802 -0.2100
 8158SOL     OW36106   4.194   2.043   3.016  0.4605  0.0777  0.0311
 8158SOL    HW136107   4.246   2.038   3.096 -0.5326 -2.5085  0.4752
 8158SOL    HW236108   4.126   2.103   3.047  1.9295  0.8049  1.8833
 8159SOL     OW36109   1.352   0.644   5.850  0.0479  0.8341  0.3637
 8159SOL    HW136110   1.361   0.561   5.896  2.2583 -0.5037 -2.4299
 8159SOL    HW236111   1.364   0.704   5.923 -2.0223  0.9474  0.6112
 8160SOL     OW36112   3.616   0.958   1.710 -0.0512  0.0570 -0.0327
 8160SOL    HW136113   3.595   1.048   1.737  0.7340  0.0650  0.5633
 8160SOL    HW236114   3.525   0.930   1.700 -0.6602  1.6994  0.7352
 8161SOL     OW36115   3.226   3.777   0.106  0.1929  0.5452 -0.1815
 8161SOL    HW136116   3.136   3.761   0.079  0.8633 -1.1301 -1.3757
 8161SOL    HW236117   3.250   3.840   0.038  1.6455  1.0103  0.7512
 8162SOL     OW36118   1.360   4.163   2.814 -0.0781 -0.4821  0.1427
 8162SOL    HW136119   1.424   4.118   2.758 -1.2976 -0.3699 -1.3422
 8162SOL    HW236120   1.356   4.098   2.884  0.3747 -0.3846  0.2619
 8163SOL     OW36121   3.036   2.843  13.354 -0.3646  0.1322 -0.0831
 8163SOL    HW136122   2.983   2.781  13.404  0.3309 -1.9519 -1.9329
 8163SOL    HW236123   3.058   2.902  13.426 -0.5231  1.2718 -0.9723
 8164SOL     OW36124   0.989   0.131   6.187 -0.0218  0.2057 -0.3635
 8164SOL    HW136125   0.960   0.127   6.279  0.1489  1.8736 -0.2320
 8164SOL    HW236126   0.906   0.112   6.144 -0.1095 -0.8145  0.2471
 8165SOL     OW36127   3.132   0.894   8.922 -0.2708  0.2571  0.2552
 8165SOL    HW136128   3.078   0.820   8.949  1.4894 -0.1091  2.7846
 8165SOL    HW236129   3.085   0.914   8.841  1.8587  0.6392 -0.8728
 8166SOL     OW36130   2.565   0.173   1.760  0.1910  0.0781  0.2475
 8166SOL    HW136131   2.569   0.244   1.825 -2.4916  1.1558 -0.7281
 8166SOL    HW236132   2.604   0.098   1.804 -0.9327 -1.0853 -0.7344
 8167SOL     OW36133   4.109   1.943   0.798 -0.1126  0.1929 -0.4540
 8167SOL    HW136134   4.091   1.853   0.824  0.3863 -0.4273 -2.2481
 8167SOL    HW236135   4.033   1.967   0.745  0.7614  1.5242 -1.1167
 8168SOL     OW36136   2.572   1.874   9.186 -0.2293 -0.0525 -0.0820
 8168SOL    HW136137   2.655   1.870   9.232  0.4779  2.2118 -1.1881
 8168SOL    HW236138   2.580   1.962   9.148  0.9435 -0.5104 -0.8936
 8169SOL     OW36139   0.179   1.097   3.308  0.1014 -0.5625  0.4326
 8169SOL    HW136140   0.095   1.111   3.265  0.1175 -0.8799  0.3002
 8169SOL    HW236141   0.167   1.010   3.345 -1.8558 -1.9654 -3.4396
 8170SOL     OW36142   4.156   1.916  16.815  0.5096  0.7988  0.6089
 8170SOL    HW136143   4.182   1.983  16.878 -2.5634 -0.1404  2.8610
 8170SOL    HW236144   4.244   1.888  16.788  1.2167  3.9560 -0.3990
 8171SOL     OW36145   3.639   3.180   4.784  0.1574  0.2598  0.0897
 8171SOL    HW136146   3.614   3.172   4.876  0.3563 -0.2167  0.1042
 8171SOL    HW236147   3.573   3.238   4.747  0.6725  0.7265 -0.0963
 8172SOL     OW36148   1.265   0.524  12.263  0.1103 -0.5853  0.0675
 8172SOL    HW136149   1.346   0.493  12.222 -0.1324  0.1803 -0.9861
 8172SOL    HW236150   1.266   0.464  12.338  1.4108 -2.9684 -1.8669
 8173SOL     OW36151   0.366   1.249   2.790 -0.6036 -0.2741 -0.3474
 8173SOL    HW136152   0.309   1.307   2.840 -0.5366 -0.3777 -0.1498
 8173SOL    HW236153   0.452   1.282   2.816 -0.7348 -0.9787  0.9778
 8174SOL     OW36154   0.483   0.561   8.497 -0.7970  0.0718  0.5241
 8174SOL    HW136155   0.539   0.574   8.574  1.1354  1.2118 -1.0556
 8174SOL    HW236156   0.436   0.488   8.535 -1.2433 -0.0466 -0.2634
 8175SOL     OW36157   4.082   0.255  11.380  0.0304  0.2891  0.2021
 8175SOL    HW136158   4.050   0.233  11.468  1.5852 -2.6387  0.0387
 8175SOL    HW236159   4.068   0.168  11.343 -0.1012 -0.1260  1.2338
 8176SOL     OW36160   3.938   1.010   7.877 -0.0544 -0.1554  0.7032
 8176SOL    HW136161   3.851   1.009   7.918  0.1298  3.7677  1.1631
 8176SOL    HW236162   3.924   0.964   7.794 -2.4613  1.3107  0.3038
 8177SOL     OW36163   2.846   4.295   6.679  0.0088  0.0477 -0.1232
 8177SOL    HW136164   2.838   4.366   6.743 -1.0799  0.7469 -1.0189
 8177SOL    HW236165   2.859   4.218   6.734  0.2533  0.1652 -0.0187
 8178SOL     OW36166   4.475   2.115  14.892  0.0878  0.0602 -0.8335
 8178SOL    HW136167   4.515   2.047  14.838 -2.3047 -1.5962 -0.5239
 8178SOL    HW236168   4.407   2.068  14.940  1.0674 -0.0831  0.3881
 8179SOL     OW36169   3.668   0.435   2.340 -0.3286  0.2000 -0.2125
 8179SOL    HW136170   3.700   0.344   2.343  1.3516  0.8661  2.4221
 8179SOL    HW236171   3.595   0.412   2.283 -0.2145  1.6458 -0.9293
 8180SOL     OW36172   1.054   2.141   6.128  0.1349  0.0803  0.0283
 8180SOL    HW136173   1.024   2.051   6.115  2.1936 -0.5040 -0.5784
 8180SOL    HW236174   1.138   2.145   6.082  0.5165  1.7646  0.8717
 8181SOL     OW36175   0.262   4.420   5.357 -0.0010  0.4873  0.0468
 8181SOL    HW136176   0.259   4.440   5.450 -2.7586  1.4325 -0.2164
 8181SOL    HW236177   0.342   4.369   5.348 -0.9086 -0.6562 -1.6510
 8182SOL     OW36178   1.076   4.077   2.880 -0.1900  0.0769 -0.3979
 8182SOL    HW136179   1.137   4.151   2.880 -0.3880  0.2411  0.3479
 8182SOL    HW236180   1.081   4.060   2.786 -1.6250 -0.1579 -0.4309
 8183SOL     OW36181   2.060   2.073  13.103 -0.3185 -0.3875 -0.4825
 8183SOL    HW136182   2.087   2.157  13.066  1.1861 -0.7978 -0.3407
 8183SOL    HW236183   2.144   2.049  13.142 -1.3183  0.6508  2.2705
 8184SOL     OW36184   4.173   0.376   0.834  0.4484 -0.3873 -0.0806
 8184SOL    HW136185   4.237   0.346   0.899  2.0051  0.7170 -1.0962
 8184SOL    HW236186   4.135   0.458   0.864 -0.7115 -1.2186  0.6993
 8185SOL     OW36187   3.975   0.983   6.315 -0.1183 -0.3089  0.0834
 8185SOL    HW136188   3.894   0.933   6.300 -0.7780  0.8685 -0.3063
 8185SOL    HW236189   4.046   0.925   6.342 -2.3052 -2.7400  0.6369
 8186SOL     OW36190   3.178   0.798   4.171  0.3369  0.1737 -0.2497
 8186SOL    HW136191   3.215   0.786   4.259  0.3808 -2.6887 -0.6491
 8186SOL    HW236192   3.099   0.850   4.182  0.3685 -0.0455  0.9792
 8187SOL     OW36193   0.818   0.855   8.182  0.0003  0.0708  0.3829
 8187SOL    HW136194   0.819   0.823   8.272  3.1561  1.0667  0.6984
 8187SOL    HW236195   0.829   0.948   8.200  0.9401 -0.0705  0.5346
 8188SOL     OW36196   4.675   1.345   9.219  0.3648  0.2047 -0.0974
 8188SOL    HW136197   0.012   1.340   9.159  0.1975  0.6989 -0.3501
 8188SOL    HW236198   4.675   1.438   9.242  0.1906  0.0512  0.5183
 8189SOL     OW36199   2.862   3.639   7.327  0.8101 -0.0273 -0.5499
 8189SOL    HW136200   2.781   3.589   7.338 -0.1194  1.3107 -1.1616
 8189SOL    HW236201   2.851   3.661   7.234  0.6601 -1.1849 -0.7976
 8190SOL     OW36202   1.430   0.472   1.022  1.0243  0.3391 -0.3599
 8190SOL    HW136203   1.510   0.419   1.014 -0.8170 -2.4046 -0.8233
 8190SOL    HW236204   1.374   0.409   0.976  0.1968  0.7826  0.0555
 8191SOL     OW36205   1.193   3.508   2.461  0.1098  0.2660  0.0582
 8191SOL    HW136206   1.106   3.514   2.423 -0.9648 -1.7639  2.2153
 8191SOL    HW236207   1.221   3.429   2.415 -0.9329  0.1857 -0.4369
 8192SOL     OW36208   0.159   1.860   2.168 -0.8369  0.0989  0.6040
 8192SOL    HW136209   0.215   1.889   2.096  2.3966  0.1088  3.1269
 8192SOL    HW236210   0.093   1.818   2.113  2.2119 -1.1336 -2.1736
 8193SOL     OW36211   0.094   2.471   4.038 -0.1875 -0.3398  0.3745
 8193SOL    HW136212   0.097   2.554   3.989 -0.0399 -0.3320  0.3965
 8193SOL    HW236213   0.097   2.495   4.131 -0.1136  3.1217 -0.4987
 8194SOL     OW36214   4.655   4.172   1.792 -0.5228 -0.6851 -0.5321
 8194SOL    HW136215   4.656   4.181   1.696  0.1230 -1.9770 -0.6390
 8194SOL    HW236216   4.562   4.157   1.809 -0.6578  1.0790  0.2971
 8195SOL     OW36217   1.369   3.329   8.604  0.3154 -0.1662 -0.1808
 8195SOL    HW136218   1.336   3.246   8.572 -1.0430  0.4552 -0.4087
 8195SOL    HW236219   1.350   3.312   8.696 -1.1707 -1.3120 -0.7005
 8196SOL     OW36220   0.196   2.905   2.804 -0.1639  0.3938 -0.2064
 8196SOL    HW136221   0.152   2.840   2.858  0.0469  1.8455  1.6948
 8196SOL    HW236222   0.239   2.959   2.870  0.5896 -1.2289  0.6312
 8197SOL     OW36223   2.054   0.491   8.017 -0.0946  0.2793 -1.1701
 8197SOL    HW136224   2.001   0.423   7.976  0.9971 -1.3541  0.0906
 8197SOL    HW236225   2.057   0.555   7.946 -0.3374 -0.5284 -1.9116
 8198SOL     OW36226   1.127   4.297   5.324  0.2909 -0.4376  0.1107
 8198SOL    HW136227   1.201   4.265   5.376  1.8163  1.1712 -1.0512
 8198SOL    HW236228   1.129   4.391   5.342  0.4990 -0.1211 -1.6278
 8199SOL     OW36229   3.920   0.143   0.954  0.3765  0.1849 -0.0829
 8199SOL    HW136230   3.919   0.130   1.049 -1.8122 -1.9990 -0.4160
 8199SOL    HW236231   4.002   0.096   0.935 -0.0805 -0.3017 -0.8381
 8200SOL     OW36232   3.249   1.599   7.913  0.0696 -0.5674  0.0926
 8200SOL    HW136233   3.191   1.524   7.906 -1.8778  1.1861 -2.5611
 8200SOL    HW236234   3.238   1.639   7.827  1.5925 -3.4239 -1.4201
 8201SOL     OW36235   3.075   4.534   2.589 -0.0962  0.5346 -0.1728
 8201SOL    HW136236   3.038   4.452   2.556  0.2354 -0.0951  0.9970
 8201SOL    HW236237   2.994   4.582   2.602 -0.1765  0.0128  1.2325
 8202SOL     OW36238   2.849   3.084   7.903 -0.1173 -0.0706 -0.7462
 8202SOL    HW136239   2.786   3.128   7.961  1.3396  1.1425 -0.0702
 8202SOL    HW236240   2.906   3.159   7.887  0.2039  0.2043  1.6518
 8203SOL     OW36241   3.315   2.780   4.228 -0.3635 -0.2956  0.7902
 8203SOL    HW136242   3.383   2.749   4.289  0.6357 -0.2248 -0.2956
 8203SOL    HW236243   3.349   2.868   4.214 -0.6772 -0.4182 -0.7314
 8204SOL     OW36244   0.196   1.134   2.607 -0.4317 -0.3346 -0.6765
 8204SOL    HW136245   0.224   1.179   2.526  1.3690  2.2639  1.3799
 8204SOL    HW236246   0.252   1.179   2.670 -1.3749 -1.2452  0.7875
 8205SOL     OW36247   2.928   4.431   8.700 -0.1756 -0.4455  0.0015
 8205SOL    HW136248   2.895   4.370   8.767 -0.9955 -2.2319 -2.0239
 8205SOL    HW236249   2.901   4.383   8.622  1.2611 -2.6439  0.8453
 8206SOL     OW36250   1.232   2.957   6.493 -0.1363 -0.0268  0.4212
 8206SOL    HW136251   1.197   2.875   6.531 -2.8783  0.1305 -1.7485
 8206SOL    HW236252   1.154   3.006   6.466  0.0356 -0.4409 -0.8117
 8207SOL     OW36253   1.389   4.390  15.710 -0.0432  0.0477  0.5594
 8207SOL    HW136254   1.422   4.435  15.632 -0.5056 -0.7455 -0.0922
 8207SOL    HW236255   1.413   4.447  15.783 -0.8669  1.2202 -0.0869
 8208SOL     OW36256   3.386   1.510   7.065 -0.8516  0.3633 -0.4659
 8208SOL    HW136257   3.334   1.571   7.013  0.5587  0.7180 -1.4676
 8208SOL    HW236258   3.345   1.492   7.150 -1.7530  1.8749 -0.5891
 8209SOL     OW36259   2.182   1.664   5.077  0.2115  0.1497 -0.2190
 8209SOL    HW136260   2.204   1.750   5.111 -4.6515  1.8350 -1.3219
 8209SOL    HW236261   2.256   1.660   5.016  1.5361 -1.8523  1.5028
 8210SOL     OW36262   4.634   4.235   6.133 -0.0090  0.0529 -0.0093
 8210SOL    HW136263   4.663   4.326   6.142 -1.0314  0.4200 -0.4817
 8210SOL    HW236264   4.672   4.195   6.211 -0.1738 -2.1596 -1.0785
 8211SOL     OW36265   3.431   1.272   4.048 -0.2981  0.2674  0.6316
 8211SOL    HW136266   3.480   1.354   4.037  1.1337 -0.7676 -0.5946
 8211SOL    HW236267   3.435   1.255   4.142 -2.3238 -2.7949  0.1589
 8212SOL     OW36268   0.040   1.507  16.667 -0.3333 -0.3223 -0.0610
 8212SOL    HW136269   0.101   1.568  16.625 -1.6278  1.5451  0.7910
 8212SOL    HW236270   0.098   1.431  16.664  0.6373  0.5235 -3.2637
 8213SOL     OW36271   2.381   1.232   6.691  0.7469 -0.6197  0.2477
 8213SOL    HW136272   2.318   1.254   6.759  0.4459 -0.5179 -0.0610
 8213SOL    HW236273   2.352   1.149   6.653 -0.0930 -0.2128  0.0037
 8214SOL     OW36274   3.169   1.535   1.927  0.6898  0.5190  0.2913
 8214SOL    HW136275   3.080   1.501   1.922  0.5429  0.7545  1.2574
 8214SOL    HW236276   3.181   1.548   2.021  1.1930  0.1630  0.2808
 8215SOL     OW36277   4.002   3.860   2.028  0.3021 -0.3389 -0.2293
 8215SOL    HW136278   3.921   3.861   2.079  1.2576  2.8470  1.1789
 8215SOL    HW236279   3.971   3.871   1.938 -0.3058  0.7933  0.1292
 8216SOL     OW36280   0.699   0.451  16.447 -0.4317  0.1841 -0.3976
 8216SOL    HW136281   0.760   0.470  16.376  0.1398  0.1433  0.0809
 8216SOL    HW236282   0.754   0.388  16.493  0.3936 -0.3215 -2.1086
 8217SOL     OW36283   2.847   2.012   1.952 -0.8672 -0.2270 -0.6405
 8217SOL    HW136284   2.786   1.986   1.883 -0.1061  0.4442 -1.5723
 8217SOL    HW236285   2.788   2.037   2.023  3.1639 -0.8522  2.9622
 8218SOL     OW36286   0.588   0.105   3.491  0.5801  0.2551  0.6861
 8218SOL    HW136287   0.529   0.107   3.416 -1.6766 -0.2586  2.4372
 8218SOL    HW236288   0.534   0.076   3.565 -1.3543 -2.0844 -1.6330
 8219SOL     OW36289   1.296   1.435   3.281  0.2941 -0.5859 -0.3903
 8219SOL    HW136290   1.338   1.476   3.206  1.7670  0.3574  0.9524
 8219SOL    HW236291   1.377   1.403   3.322 -0.8608 -1.3790  1.2950
 8220SOL     OW36292   1.417   4.706   1.750  0.6718  0.2544  0.9906
 8220SOL    HW136293   1.450   4.679   1.664 -0.8103  0.1669  0.4436
 8220SOL    HW236294   1.333   4.660   1.746  1.9976 -2.0480 -1.1788
 8221SOL     OW36295   4.098   2.851   1.473 -0.3631  0.6716 -0.5037
 8221SOL    HW136296   4.037   2.781   1.450 -0.9674  0.0417  3.0511
 8221SOL    HW236297   4.042   2.900   1.532 -0.4656 -0.6358  0.4745
 8222SOL     OW36298   3.889   1.870  10.403  0.4120 -0.3165  0.2884
 8222SOL    HW136299   3.796   1.873  10.425  0.2748  0.5721 -0.4187
 8222SOL    HW236300   3.884   1.821  10.321  0.9680  0.2873 -0.1032
 8223SOL     OW36301   2.594   2.258   0.695  0.0895 -0.0019 -0.2943
 8223SOL    HW136302   2.537   2.282   0.622 -2.2954 -0.2754  1.4747
 8223SOL    HW236303   2.677   2.248   0.649  0.7733 -1.3997  1.2353
 8224SOL     OW36304   3.123   0.322  11.230 -0.4975 -0.4422  0.1843
 8224SOL    HW136305   3.113   0.244  11.175  1.0352 -1.8734  1.9271
 8224SOL    HW236306   3.101   0.288  11.317 -1.0417  0.8897  0.5660
 8225SOL     OW36307   2.012   0.909   8.988 -0.1848 -0.3922  0.6471
 8225SOL    HW136308   2.098   0.879   9.019  0.1380 -0.3452 -0.2079
 8225SOL    HW236309   1.969   0.948   9.064 -0.7090 -0.5653  0.4412
 8226SOL     OW36310   4.320   1.678   7.490 -0.0231  0.1909 -0.3834
 8226SOL    HW136311   4.352   1.616   7.555 -2.0287 -0.2351  0.1762
 8226SOL    HW236312   4.286   1.752   7.539 -1.0508 -1.3706  1.2447
 8227SOL     OW36313   1.295   0.032   7.381 -0.3840 -0.6862 -0.2067
 8227SOL    HW136314   1.351   4.695   7.402 -1.8211 -1.9148 -0.7802
 8227SOL    HW236315   1.215   0.018   7.431  0.6453  0.1778  1.6589
 8228SOL     OW36316   3.497   3.188   3.080  0.4940  0.5102 -0.2159
 8228SOL    HW136317   3.462   3.181   2.992 -2.5641  1.3052  0.9524
 8228SOL    HW236318   3.546   3.107   3.097  0.0243  0.0179 -1.2021
 8229SOL     OW36319   0.847   1.763   4.158  0.3361 -0.2988 -0.1259
 8229SOL    HW136320   0.829   1.774   4.251  0.8947 -1.7670  0.1661
 8229SOL    HW236321   0.925   1.709   4.168 -0.3750 -1.3407 -0.2065
 8230SOL     OW36322   2.458   1.936   2.505 -0.1312  0.1400  0.3392
 8230SOL    HW136323   2.514   1.915   2.430 -3.8755 -1.7540 -1.9197
 8230SOL    HW236324   2.511   1.904   2.579 -0.5601 -2.3847 -0.4442
 8231SOL     OW36325   4.478   2.241   5.406 -0.3453 -0.4195 -0.2471
 8231SOL    HW136326   4.552   2.260   5.463 -1.7345 -1.9938  2.1153
 8231SOL    HW236327   4.404   2.255   5.466  0.9103 -0.3098  1.3000
 8232SOL     OW36328   0.835   1.007  15.104 -0.0040  0.2091 -0.2680
 8232SOL    HW136329   0.818   1.089  15.151  2.0366  0.7557 -0.5198
 8232SOL    HW236330   0.750   0.993  15.061 -0.3900  3.3639 -0.5704
 8233SOL     OW36331   3.402   0.217   5.420 -0.3046 -0.1437  1.6752
 8233SOL    HW136332   3.313   0.252   5.422 -0.6702 -0.8808 -0.9375
 8233SOL    HW236333   3.379   0.126   5.440 -2.1816 -0.2511 -0.8678
 8234SOL     OW36334   3.262   4.509  14.165 -0.3823 -0.0869  0.1498
 8234SOL    HW136335   3.305   4.423  14.165 -0.1982  0.0120 -0.7662
 8234SOL    HW236336   3.176   4.490  14.128  0.3288 -0.6804 -1.2153
 8235SOL     OW36337   2.758   4.523  16.086  0.2588  0.3637 -0.1971
 8235SOL    HW136338   2.822   4.459  16.056 -0.4716 -0.8476  0.8170
 8235SOL    HW236339   2.823   4.571  16.138  1.3682 -2.1405  0.7028
 8236SOL     OW36340   0.352   1.958  16.992 -0.5449  0.0369 -0.5472
 8236SOL    HW136341   0.422   1.928  17.051  0.0535 -0.1780 -1.3614
 8236SOL    HW236342   0.332   2.028  17.054  4.2537  1.6742 -0.8448
 8237SOL     OW36343   2.406   2.317   9.890 -0.8328 -0.3656  0.2180
 8237SOL    HW136344   2.368   2.335   9.976  3.5641  2.7378  1.5362
 8237SOL    HW236345   2.403   2.222   9.894  0.2917 -0.3585  1.3512
 8238SOL     OW36346   1.144   0.704  10.050 -0.5148 -0.3872  0.3965
 8238SOL    HW136347   1.164   0.739   9.964  1.8110 -1.3385  0.5648
 8238SOL    HW236348   1.202   0.629  10.064  0.0458  0.1200  0.7641
 8239SOL     OW36349   0.332   2.082  11.389 -0.2583  0.2629 -0.1493
 8239SOL    HW136350   0.413   2.035  11.407 -0.1804  0.3657 -0.2342
 8239SOL    HW236351   0.310   2.100  11.481 -2.4894  0.2364 -0.6802
 8240SOL     OW36352   4.516   3.243   0.291 -0.3746  0.2661 -0.4175
 8240SOL    HW136353   4.608   3.246   0.262 -0.1877 -0.2109  0.1183
 8240SOL    HW236354   4.524   3.160   0.338 -2.1379 -0.1375 -0.8509
 8241SOL     OW36355   1.942   4.520   1.976  0.8600  0.0458 -0.2774
 8241SOL    HW136356   1.893   4.439   1.963 -1.3467  1.5660 -1.6268
 8241SOL    HW236357   1.885   4.567   2.038 -1.2476 -1.9496 -0.6926
 8242SOL     OW36358   1.089   1.649   5.634  0.5160  0.1849  0.1387
 8242SOL    HW136359   1.110   1.651   5.541 -1.1532  1.9845 -0.2210
 8242SOL    HW236360   1.055   1.562   5.655 -2.0732  1.9643  3.5330
 8243SOL     OW36361   0.567   4.717   8.865  0.4367  0.0706  0.1138
 8243SOL    HW136362   0.647   4.678   8.900 -0.2731 -0.4140  1.1752
 8243SOL    HW236363   0.542   0.054   8.920 -0.6412 -0.5472  0.4657
 8244SOL     OW36364   0.908   2.400   8.903  0.4238 -0.1238  0.0872
 8244SOL    HW136365   0.944   2.465   8.842  1.2240  0.7726  1.4990
 8244SOL    HW236366   0.974   2.407   8.972 -0.0473  0.8142  0.4459
 8245SOL     OW36367   3.666   2.682   8.814 -0.6712  0.0186 -0.6366
 8245SOL    HW136368   3.709   2.701   8.897 -1.0077 -0.7377 -0.2810
 8245SOL    HW236369   3.644   2.773   8.795  2.1520  0.3178 -2.3873
 8246SOL     OW36370   1.333   2.027  12.906  0.1454  0.3550  0.2508
 8246SOL    HW136371   1.243   2.013  12.876 -0.5395 -0.2894  2.6291
 8246SOL    HW236372   1.354   2.120  12.903 -1.4825  0.6706 -1.7476
 8247SOL     OW36373   4.612   0.706   5.120  0.0480  0.1989  0.3389
 8247SOL    HW136374   4.661   0.646   5.064  0.7223 -0.1053  1.2599
 8247SOL    HW236375   4.575   0.646   5.184 -2.0520  1.1859  0.0817
 8248SOL     OW36376   1.739   0.548   8.339  0.0972 -0.2887  0.1999
 8248SOL    HW136377   1.789   0.469   8.318 -0.2213 -0.0194 -1.4988
 8248SOL    HW236378   1.724   0.589   8.254 -1.0164  0.4142  0.7338
 8249SOL     OW36379   3.936   1.352  12.811 -0.1538 -0.0549  0.2402
 8249SOL    HW136380   3.906   1.436  12.777  0.5025 -0.2180 -0.7392
 8249SOL    HW236381   4.029   1.374  12.817 -0.4188  0.5626  1.9868
 8250SOL     OW36382   2.769   4.199   2.387 -0.0129 -0.3357  0.4641
 8250SOL    HW136383   2.770   4.248   2.305  0.7516 -0.1691  0.5779
 8250SOL    HW236384   2.812   4.252   2.454 -0.5850 -1.1302  1.4635
 8251SOL     OW36385   4.271   3.052   8.372  0.1617 -0.4068  0.3529
 8251SOL    HW136386   4.229   2.971   8.345 -2.6279  1.3377 -0.5216
 8251SOL    HW236387   4.343   3.049   8.308  0.1277  1.9522  0.1909
 8252SOL     OW36388   1.789   1.776   3.965  0.2434  0.0572 -0.1129
 8252SOL    HW136389   1.761   1.748   3.878  0.7608 -0.7148 -0.0348
 8252SOL    HW236390   1.819   1.693   4.003  0.3612  0.2328  0.1775
 8253SOL     OW36391   4.045   3.946  11.917 -0.2074  0.7694  0.0350
 8253SOL    HW136392   4.026   3.865  11.964 -1.7182  0.1675 -1.6342
 8253SOL    HW236393   4.119   3.917  11.863 -0.0060 -0.5546  1.0470
 8254SOL     OW36394   1.931   3.159   5.895 -0.0747  0.2553  0.2871
 8254SOL    HW136395   1.973   3.220   5.956 -0.3467  0.2043  0.5228
 8254SOL    HW236396   1.840   3.186   5.892 -0.3546 -0.5672  1.6462
 8255SOL     OW36397   0.481   2.650   4.370 -0.1397 -0.2873 -0.0225
 8255SOL    HW136398   0.419   2.629   4.440 -0.1443  1.2372  0.4172
 8255SOL    HW236399   0.523   2.566   4.353 -3.9935 -1.5043 -3.6769
 8256SOL     OW36400   4.552   1.729   9.411 -0.0096  0.1813  0.2337
 8256SOL    HW136401   4.648   1.728   9.412  0.0439  2.4620 -1.7751
 8256SOL    HW236402   4.536   1.823   9.405 -0.5679  0.2187  2.6867
 8257SOL     OW36403   4.439   2.985  11.938  0.2777  0.1027  0.2183
 8257SOL    HW136404   4.494   3.061  11.920 -0.3508  0.4467 -0.2179
 8257SOL    HW236405   4.363   2.996  11.881  0.9081  0.7944 -0.4910
 8258SOL     OW36406   1.011   2.999   4.220  0.0154 -0.5588  0.2484
 8258SOL    HW136407   0.920   3.029   4.209  0.8121  1.1250 -1.6944
 8258SOL    HW236408   0.995   2.912   4.182 -1.1446  0.0756 -0.7371
 8259SOL     OW36409   0.883   2.969   4.556  0.3362 -0.5937  0.0313
 8259SOL    HW136410   0.818   2.926   4.500 -0.9148 -0.9524  1.7463
 8259SOL    HW236411   0.853   2.960   4.647 -0.3909 -1.6370 -0.3140
 8260SOL     OW36412   3.528   3.387   3.400 -0.1819  0.0908  0.2605
 8260SOL    HW136413   3.568   3.464   3.439  0.7630 -0.0230 -0.4790
 8260SOL    HW236414   3.446   3.372   3.448 -0.5812  1.9546  0.1702
 8261SOL     OW36415   2.833   2.655  10.621 -0.3738  0.0409  0.4851
 8261SOL    HW136416   2.898   2.597  10.582  0.3693  2.1981 -1.4788
 8261SOL    HW236417   2.895   2.718  10.659  1.8628 -1.1600 -1.1788
 8262SOL     OW36418   4.039   0.773  10.111  0.2499 -0.1333  0.6294
 8262SOL    HW136419   4.079   0.840  10.055  0.5687 -1.4888 -0.7851
 8262SOL    HW236420   4.108   0.707  10.104 -0.0628 -0.4077  0.1295
 8263SOL     OW36421   1.776   4.202  12.155 -0.7425  0.1272 -0.4499
 8263SOL    HW136422   1.771   4.113  12.190  1.1404  0.2674  0.2106
 8263SOL    HW236423   1.726   4.249  12.222 -0.8503 -0.0893 -0.3803
 8264SOL     OW36424   0.245   2.208   3.934 -0.4346  0.0153 -0.2811
 8264SOL    HW136425   0.175   2.272   3.949  0.5894  1.4146 -1.4946
 8264SOL    HW236426   0.262   2.191   4.027 -3.7794  0.2390  0.3761
 8265SOL     OW36427   0.788   4.445  16.705  0.1752 -0.0014 -0.2934
 8265SOL    HW136428   0.775   4.357  16.740 -0.2021  0.2828  0.2806
 8265SOL    HW236429   0.770   4.499  16.782  0.9200 -2.9648  1.9496
 8266SOL     OW36430   3.135   0.622   1.732 -0.1145  0.6683  0.2228
 8266SOL    HW136431   3.222   0.588   1.712 -0.3608  0.2743 -0.1709
 8266SOL    HW236432   3.117   0.592   1.821 -1.2224 -1.0676 -0.5856
 8267SOL     OW36433   2.154   1.069  17.255 -0.3562 -0.0394 -0.1900
 8267SOL    HW136434   2.081   1.013  17.283 -0.3267 -0.9669 -2.0231
 8267SOL    HW236435   2.150   1.151  17.305  1.7608  0.7712 -1.3726
 8268SOL     OW36436   1.697   0.068  13.676  0.1138 -0.1340 -0.0666
 8268SOL    HW136437   1.671   0.148  13.720  0.7822  0.4634 -0.7650
 8268SOL    HW236438   1.792   0.069  13.682  0.1554 -1.1244 -0.4841
 8269SOL     OW36439   1.758   3.909   0.761  0.0733 -0.1597  0.6921
 8269SOL    HW136440   1.710   3.941   0.685  1.1433  2.9321  1.3471
 8269SOL    HW236441   1.741   3.815   0.751 -0.3841 -0.0137  0.0555
 8270SOL     OW36442   2.152   2.390   5.984  0.9102  0.2435 -0.0029
 8270SOL    HW136443   2.132   2.336   6.060 -0.2172  0.1982 -0.3267
 8270SOL    HW236444   2.133   2.479   6.012  1.1856  0.5793 -0.8841
 8271SOL     OW36445   1.743   1.353   8.747 -0.2346  0.0212  0.0594
 8271SOL    HW136446   1.723   1.266   8.713 -1.2449  0.4414 -0.4280
 8271SOL    HW236447   1.833   1.340   8.777  0.0850 -2.0493 -1.8143
 8272SOL     OW36448   1.537   2.805  13.481 -0.0226  0.3970  0.4261
 8272SOL    HW136449   1.617   2.819  13.530 -1.4962 -1.7626  3.4564
 8272SOL    HW236450   1.556   2.778  13.391 -0.8851 -0.1117  0.3955
 8273SOL     OW36451   2.758   2.807  11.604  0.2616  0.4200  0.7427
 8273SOL    HW136452   2.743   2.835  11.514  0.1087 -2.2979 -0.0820
 8273SOL    HW236453   2.853   2.815  11.607  0.2857  1.4318 -2.5768
 8274SOL     OW36454   2.435   1.880  17.268 -0.0630 -0.2489  0.4332
 8274SOL    HW136455   2.513   1.824  17.260  0.6114  0.3211  3.0597
 8274SOL    HW236456   2.466   1.954  17.215  3.0245 -1.4343  0.5703
 8275SOL     OW36457   2.628   1.215   9.487 -0.1499 -0.0181  0.7417
 8275SOL    HW136458   2.575   1.276   9.436  0.0464  0.2835  0.9015
 8275SOL    HW236459   2.690   1.267   9.538 -1.0459  1.9712 -0.1857
 8276SOL     OW36460   3.595   2.185  15.939  0.1012 -0.3181  0.5521
 8276SOL    HW136461   3.529   2.152  16.001 -0.8090 -2.3904 -1.5187
 8276SOL    HW236462   3.644   2.109  15.907 -0.2419 -0.7243  0.9817
 8277SOL     OW36463   1.103   4.258   9.842  0.0457  0.3108  0.0987
 8277SOL    HW136464   1.077   4.342   9.880  1.9255  0.4853  0.9736
 8277SOL    HW236465   1.086   4.208   9.921 -2.4675  0.3978 -0.3897
 8278SOL     OW36466   0.784   0.437   2.394 -0.2214  0.3497  0.0270
 8278SOL    HW136467   0.780   0.531   2.414 -2.9981  0.5268 -1.2503
 8278SOL    HW236468   0.821   0.434   2.305 -0.3312  2.6809 -0.0980
 8279SOL     OW36469   3.952   4.327   4.940 -0.4621 -0.9608  0.0572
 8279SOL    HW136470   3.957   4.421   4.920 -1.8325 -0.9572 -0.2572
 8279SOL    HW236471   4.043   4.296   4.938 -0.0312  0.3866 -1.2809
 8280SOL     OW36472   2.420   4.453  14.776 -1.2510  0.1757 -0.2666
 8280SOL    HW136473   2.392   4.435  14.686  0.6176  1.1045 -1.0323
 8280SOL    HW236474   2.430   4.545  14.755 -1.5696 -0.4294 -3.0843
 8281SOL     OW36475   1.358   3.590   4.727 -0.2540 -0.2614  0.0080
 8281SOL    HW136476   1.325   3.502   4.745 -4.3278  0.9908 -1.4985
 8281SOL    HW236477   1.293   3.622   4.664 -0.4992 -2.0425 -0.6425
 8282SOL     OW36478   2.817   4.494  17.371 -0.4610  0.1046  0.2711
 8282SOL    HW136479   2.908   4.504  17.399 -0.8537  0.6892  1.3751
 8282SOL    HW236480   2.808   4.568  17.312  0.2584  1.1436  1.4504
 8283SOL     OW36481   3.011   2.217  17.278 -0.0205  0.2344 -0.0525
 8283SOL    HW136482   2.936   2.208  17.337 -0.6474  0.1444 -0.8598
 8283SOL    HW236483   2.977   2.192  17.192 -0.6070 -1.2840  0.6322
 8284SOL     OW36484   3.449   4.548   2.764 -0.6373 -0.1441  0.5022
 8284SOL    HW136485   3.506   4.505   2.828  1.2446 -0.3808 -1.3756
 8284SOL    HW236486   3.387   4.596   2.820  0.8206  1.5321  0.6914
 8285SOL     OW36487   1.844   1.878  17.514 -0.5766  0.0134 -0.1865
 8285SOL    HW136488   1.932   1.886  17.551 -1.1030  0.4899  0.9349
 8285SOL    HW236489   1.789   1.850  17.587  0.6291  1.4206  1.2475
 8286SOL     OW36490   3.019   3.505  15.044 -0.0193  0.0272  0.1463
 8286SOL    HW136491   3.059   3.449  15.111 -2.0868 -1.1693  0.3927
 8286SOL    HW236492   2.979   3.580  15.088  3.1919 -0.3524  3.7358
 8287SOL     OW36493   3.203   2.291   8.149  0.0268 -0.0218 -0.0594
 8287SOL    HW136494   3.244   2.213   8.112 -1.9457 -0.9712 -0.2546
 8287SOL    HW236495   3.117   2.254   8.170  0.2632  0.9307  2.6174
 8288SOL     OW36496   0.161   1.192  10.292  0.5480  0.0226  0.0299
 8288SOL    HW136497   0.234   1.139  10.259  1.1910  0.1268  1.2739
 8288SOL    HW236498   0.088   1.159  10.240  0.5131  1.6625 -0.9593
 8289SOL     OW36499   4.605   0.127   4.098 -0.9114 -0.1108  0.3582
 8289SOL    HW136500   4.553   0.068   4.153  2.0898 -1.8542  1.3149
 8289SOL    HW236501   4.663   0.161   4.166  0.0123 -0.5259 -0.2281
 8290SOL     OW36502   2.979   3.489   6.524  0.3516  0.1099 -0.2846
 8290SOL    HW136503   3.015   3.419   6.470 -1.1741 -0.5357 -0.4873
 8290SOL    HW236504   2.916   3.429   6.566  1.1580  0.6629  1.7205
 8291SOL     OW36505   4.034   0.216   4.255  0.1803 -0.1710 -0.1125
 8291SOL    HW136506   3.967   0.158   4.220 -1.0672 -0.3876  2.6469
 8291SOL    HW236507   3.973   0.283   4.286 -0.3488 -0.5448 -0.3602
 8292SOL     OW36508   3.601   3.823   6.156  0.4170  0.1555 -0.6404
 8292SOL    HW136509   3.632   3.861   6.238 -1.3746  0.2459 -0.0046
 8292SOL    HW236510   3.664   3.869   6.100  2.7043 -2.5146 -0.2198
 8293SOL     OW36511   1.670   1.951   9.231  0.0190  0.2075 -0.3490
 8293SOL    HW136512   1.743   2.013   9.240 -1.1957  1.4471  0.8883
 8293SOL    HW236513   1.605   2.002   9.279 -0.1074  1.5580 -1.9578
 8294SOL     OW36514   1.364   0.416   7.726 -0.0002  0.2818  0.2693
 8294SOL    HW136515   1.327   0.380   7.645 -1.0139  1.1096  0.3615
 8294SOL    HW236516   1.294   0.386   7.783 -1.7724  3.4520 -0.2515
 8295SOL     OW36517   0.706   2.385  10.728  0.0479 -0.2402  0.1718
 8295SOL    HW136518   0.730   2.408  10.818 -0.5707 -0.4410  0.3909
 8295SOL    HW236519   0.612   2.365  10.730  0.5704 -2.9272 -2.6497
 8296SOL     OW36520   0.315   3.354   9.624 -0.3055 -0.3024  0.5431
 8296SOL    HW136521   0.317   3.360   9.719  1.8922  1.4150  0.3856
 8296SOL    HW236522   0.407   3.375   9.607 -0.0527 -0.0742  2.1846
 8297SOL     OW36523   1.479   4.618  13.690 -0.2875 -0.1071 -0.6162
 8297SOL    HW136524   1.448   4.612  13.600 -1.2582  1.5355 -0.3943
 8297SOL    HW236525   1.564   4.660  13.679 -0.3895  0.2580 -0.0296
 8298SOL     OW36526   0.896   0.103   6.457  0.0400 -0.2155 -0.5814
 8298SOL    HW136527   0.868   0.012   6.444  1.3260 -0.6901 -0.0270
 8298SOL    HW236528   0.893   0.126   6.550  1.1578 -0.9581 -0.3613
 8299SOL     OW36529   4.134   1.763  12.400 -0.8482  0.1059 -0.2719
 8299SOL    HW136530   4.163   1.717  12.321  0.3479  1.1958 -0.4609
 8299SOL    HW236531   4.045   1.729  12.405 -0.3647 -0.9787  0.8230
 8300SOL     OW36532   0.743   2.753  12.954 -0.7934  0.1961  0.1809
 8300SOL    HW136533   0.735   2.843  12.986  0.6202  1.0776 -1.9245
 8300SOL    HW236534   0.690   2.754  12.874  0.3541 -1.0054 -0.5922
 8301SOL     OW36535   0.303   2.831   5.904  0.0901 -0.4187 -0.3311
 8301SOL    HW136536   0.367   2.818   5.834  0.6234 -2.9222  0.6048
 8301SOL    HW236537   0.262   2.746   5.923  0.7025 -0.7811 -0.6213
 8302SOL     OW36538   2.313   0.850   4.392  0.2609  0.3063 -0.4344
 8302SOL    HW136539   2.313   0.847   4.296 -0.4586 -2.4154 -0.3311
 8302SOL    HW236540   2.255   0.782   4.424 -0.3506  0.6350 -0.8554
 8303SOL     OW36541   2.097   0.054   2.077  0.1288 -0.2415 -0.2106
 8303SOL    HW136542   2.068   0.016   1.994 -0.2106 -0.8579  0.1875
 8303SOL    HW236543   2.048   0.136   2.079  0.1941 -0.2218  0.6382
 8304SOL     OW36544   2.748   2.439   8.039 -0.0112 -0.2763  0.1719
 8304SOL    HW136545   2.816   2.424   7.973  0.3093 -1.8163  0.8459
 8304SOL    HW236546   2.763   2.372   8.106 -1.0166 -1.8737 -1.1966
 8305SOL     OW36547   3.210   0.295  15.784 -0.6577  0.1868 -0.2793
 8305SOL    HW136548   3.134   0.243  15.812  1.3354 -1.4292  2.0586
 8305SOL    HW236549   3.282   0.235  15.798  0.6545  1.5002 -1.4064
 8306SOL     OW36550   0.102   1.811  12.940 -0.6197 -0.1619 -0.7339
 8306SOL    HW136551   0.146   1.727  12.957  0.7133  1.0246  1.8007
 8306SOL    HW236552   0.099   1.829  12.847  1.1663  1.4718 -0.4761
 8307SOL     OW36553   0.577   4.384   6.930 -0.1667  0.0653 -0.7683
 8307SOL    HW136554   0.657   4.425   6.963 -1.0147  2.5422 -1.7837
 8307SOL    HW236555   0.517   4.407   7.000  0.0432 -1.0576 -0.2240
 8308SOL     OW36556   4.570   0.778   7.477 -0.6937  0.6480  0.4385
 8308SOL    HW136557   4.607   0.841   7.415  2.2887 -1.2370  0.3315
 8308SOL    HW236558   4.553   0.829   7.557 -1.4991  0.6299  0.2770
 8309SOL     OW36559   3.281   3.718   5.590  0.2644 -0.4747 -0.1387
 8309SOL    HW136560   3.358   3.727   5.647  0.0501  1.3015 -0.1216
 8309SOL    HW236561   3.249   3.808   5.604  2.2502  0.0603  1.1053
 8310SOL     OW36562   1.632   1.432   2.861 -0.7397  0.0225  0.0854
 8310SOL    HW136563   1.661   1.478   2.782 -2.0866 -0.1526 -0.5066
 8310SOL    HW236564   1.714   1.414   2.907 -0.0820  2.7958 -0.0066
 8311SOL     OW36565   1.957   1.868   8.814 -0.4110 -0.7826  0.2109
 8311SOL    HW136566   1.984   1.933   8.748 -3.8934  0.6948  0.2095
 8311SOL    HW236567   2.015   1.797   8.786 -0.2203 -0.0850 -1.1966
 8312SOL     OW36568   0.120   4.215   6.922  0.2228  0.0008 -0.1767
 8312SOL    HW136569   0.096   4.238   7.012 -0.1365  2.8564 -1.0071
 8312SOL    HW236570   0.134   4.301   6.882  0.0774 -0.8249 -1.9982
 8313SOL     OW36571   0.147   4.632   6.508 -0.1753 -0.0324 -0.1707
 8313SOL    HW136572   0.152   4.711   6.562 -0.3706 -1.1051  1.3981
 8313SOL    HW236573   0.153   4.564   6.575  1.6762 -0.8349 -1.1638
 8314SOL     OW36574   1.655   2.194   6.561  0.3022 -0.2296 -0.1389
 8314SOL    HW136575   1.569   2.169   6.525 -0.4907  2.1705  0.0673
 8314SOL    HW236576   1.670   2.127   6.627 -3.1854 -0.7513  0.1589
 8315SOL     OW36577   3.281   1.404   7.346 -0.1264  0.2060 -0.0343
 8315SOL    HW136578   3.325   1.411   7.431 -0.5644  2.7521 -0.0394
 8315SOL    HW236579   3.230   1.484   7.341 -0.0147  0.2481 -0.4745
 8316SOL     OW36580   3.744   4.045   6.041  0.2267  0.6132  0.4886
 8316SOL    HW136581   3.822   4.066   6.091  0.1930  1.4639  0.1711
 8316SOL    HW236582   3.670   4.091   6.081 -0.1873  2.1274 -2.0509
 8317SOL     OW36583   0.126   3.160   1.233 -0.4976  0.0330 -0.1419
 8317SOL    HW136584   0.084   3.076   1.221  0.7710 -0.7188  0.6433
 8317SOL    HW236585   0.170   3.171   1.149  1.0100  0.6951  0.7254
 8318SOL     OW36586   2.517   3.605   9.289 -0.2177  0.1518  0.2341
 8318SOL    HW136587   2.437   3.658   9.282 -0.8055 -0.6163  1.1127
 8318SOL    HW236588   2.566   3.644   9.216 -2.9607  1.2162 -1.0629
 8319SOL     OW36589   1.443   2.940   3.641  0.0444 -0.7766 -0.1313
 8319SOL    HW136590   1.369   2.963   3.586 -1.3758 -1.7437  1.3805
 8319SOL    HW236591   1.470   3.030   3.661 -0.6550 -1.1133  2.3345
 8320SOL     OW36592   1.143   1.966   8.965  0.2971 -0.6591 -0.6430
 8320SOL    HW136593   1.078   1.898   8.951 -3.0434  2.1358  1.2252
 8320SOL    HW236594   1.131   1.987   9.058  1.3066 -2.0721 -0.2004
 8321SOL     OW36595   1.075   2.997   5.508  0.0682 -0.1724  0.4727
 8321SOL    HW136596   1.027   2.920   5.539  1.6270 -0.3148  2.5302
 8321SOL    HW236597   1.011   3.066   5.525  0.3236  0.3872 -0.8165
 8322SOL     OW36598   2.935   0.457  15.082  0.1195  0.1103 -0.1629
 8322SOL    HW136599   2.985   0.408  15.017  1.0009 -0.3614  0.8735
 8322SOL    HW236600   3.010   0.508  15.113  0.3815 -1.0236  1.0340
 8323SOL     OW36601   1.140   0.966   7.769  0.6190  0.2719  0.0518
 8323SOL    HW136602   1.110   0.973   7.678 -0.5537  0.5252  0.4460
 8323SOL    HW236603   1.116   0.875   7.784  1.0309 -0.1788 -2.0387
 8324SOL     OW36604   0.224   2.688  15.299  0.0172  0.3357  1.0708
 8324SOL    HW136605   0.152   2.742  15.268  1.4718  2.3807  1.2543
 8324SOL    HW236606   0.281   2.754  15.338  0.4605 -0.5259  1.8655
 8325SOL     OW36607   0.714   1.978  16.746 -0.6344  0.0451 -0.0622
 8325SOL    HW136608   0.709   1.920  16.669  0.4932  1.1155 -0.9437
 8325SOL    HW236609   0.674   2.058  16.711 -0.6638  0.2678  0.4886
 8326SOL     OW36610   3.888   1.217   3.231  0.5547  0.9028  0.5772
 8326SOL    HW136611   3.881   1.262   3.315 -1.0313  1.7932 -0.0341
 8326SOL    HW236612   3.983   1.204   3.223  0.5389  0.8928  0.3976
 8327SOL     OW36613   1.081   3.502   9.296 -0.0076  0.4465 -0.3617
 8327SOL    HW136614   1.118   3.496   9.207  0.5500  0.3029 -0.1209
 8327SOL    HW236615   1.165   3.511   9.340 -0.5116  1.2777  0.4325
 8328SOL     OW36616   2.229   4.251   5.546  0.2142  0.4930 -0.5699
 8328SOL    HW136617   2.149   4.292   5.580 -1.8634 -2.9833 -1.2558
 8328SOL    HW236618   2.238   4.185   5.614 -0.6378  1.7880  0.7956
 8329SOL     OW36619   0.158   1.756  16.601  0.2706  0.1516 -0.6205
 8329SOL    HW136620   0.156   1.804  16.518 -0.8017  0.2510 -0.5342
 8329SOL    HW236621   0.251   1.739  16.611 -0.1690 -1.6983  0.3851
 8330SOL     OW36622   1.749   2.667  11.537 -0.7195  0.4045  0.1269
 8330SOL    HW136623   1.671   2.617  11.515  0.3797 -1.5654  0.6954
 8330SOL    HW236624   1.799   2.655  11.457  0.5563  1.6365  0.7365
 8331SOL     OW36625   1.893   4.720   9.782 -0.0073 -0.1743  0.3491
 8331SOL    HW136626   1.849   0.024   9.855 -0.1098  0.0599  0.1512
 8331SOL    HW236627   1.869   0.042   9.711 -0.2200 -1.0290 -0.3007
 8332SOL     OW36628   3.536   1.561  11.880  0.2635  0.4467  0.1064
 8332SOL    HW136629   3.552   1.640  11.829  0.7743  0.2452 -0.0519
 8332SOL    HW236630   3.553   1.496  11.812 -0.6447  0.3981 -0.0698
 8333SOL     OW36631   2.564   4.629   5.160 -0.0623 -0.5097 -0.1491
 8333SOL    HW136632   2.600   4.573   5.091 -1.6402 -0.6244 -0.9017
 8333SOL    HW236633   2.498   4.569   5.194 -1.7121 -0.1716 -2.6946
 8334SOL     OW36634   2.105   0.656  16.720  0.0996 -0.0507  0.2016
 8334SOL    HW136635   2.136   0.575  16.680 -0.7574  0.7270 -2.0368
 8334SOL    HW236636   2.041   0.626  16.784 -0.6667 -0.6930 -0.8700
 8335SOL     OW36637   1.366   0.470   2.679  0.7402  0.4295  0.9560
 8335SOL    HW136638   1.406   0.405   2.737 -0.3820 -0.0230  1.2087
 8335SOL    HW236639   1.274   0.460   2.703  0.1326 -0.5791 -1.8365
 8336SOL     OW36640   1.006   2.069   4.054  0.5381  0.1897  0.0072
 8336SOL    HW136641   1.025   1.978   4.077 -0.3812 -0.1343 -0.4922
 8336SOL    HW236642   1.044   2.117   4.127  0.7810 -0.0996  0.0743
 8337SOL     OW36643   4.215   0.618  11.917 -0.1593  0.1627 -0.1659
 8337SOL    HW136644   4.160   0.560  11.865  0.5750 -2.1842  1.6680
 8337SOL    HW236645   4.173   0.621  12.003  3.3074  0.3348  1.5338
 8338SOL     OW36646   1.093   1.119   5.969  0.1177  0.2586  0.5567
 8338SOL    HW136647   1.030   1.190   5.962  1.3525  1.1038 -1.9474
 8338SOL    HW236648   1.074   1.081   5.883  1.8348  0.7119 -0.0277
 8339SOL     OW36649   1.486   0.979   8.578 -0.1994  0.2095  0.2323
 8339SOL    HW136650   1.404   1.017   8.548 -0.5813 -0.9347 -0.1703
 8339SOL    HW236651   1.533   0.951   8.499 -1.2114 -3.1741  0.8454
 8340SOL     OW36652   4.702   1.725   4.895 -0.2503 -0.4922 -0.4493
 8340SOL    HW136653   4.718   1.636   4.863  0.8767  0.0175 -1.2597
 8340SOL    HW236654   0.034   1.777   4.855 -0.8563  0.5860 -0.1191
 8341SOL     OW36655   1.912   3.158   0.028  0.1939  0.0371  0.7279
 8341SOL    HW136656   1.880   3.078   0.071 -0.8202 -1.0051 -1.9672
 8341SOL    HW236657   1.831   3.209   0.033  1.4608  2.4010 -3.0091
 8342SOL     OW36658   0.654   1.288  12.721 -0.2541 -0.1819  0.5452
 8342SOL    HW136659   0.629   1.200  12.751  0.1557 -0.7947 -0.9397
 8342SOL    HW236660   0.573   1.340  12.722 -0.2919 -0.2507  0.9744
 8343SOL     OW36661   3.870   2.605   9.262  0.7166 -0.1057 -0.2246
 8343SOL    HW136662   3.863   2.680   9.203 -0.2625  0.1685  0.2369
 8343SOL    HW236663   3.789   2.560   9.236  1.0166 -0.3491 -0.7157
 8344SOL     OW36664   4.327   0.739  14.638  0.7048  0.2574  0.0602
 8344SOL    HW136665   4.410   0.760  14.681 -0.1461  0.3094  1.6825
 8344SOL    HW236666   4.303   0.826  14.606  0.2558  0.2321  0.3306
 8345SOL     OW36667   4.314   0.716   4.977  0.0587  0.4078 -0.1895
 8345SOL    HW136668   4.388   0.733   4.919  0.1036 -1.6759 -0.7523
 8345SOL    HW236669   4.347   0.654   5.042 -1.3447 -1.3537 -1.1697
 8346SOL     OW36670   1.658   1.344   3.958 -0.7663 -0.2132  0.7043
 8346SOL    HW136671   1.678   1.310   4.045 -1.9412 -0.4509  0.8755
 8346SOL    HW236672   1.732   1.403   3.944  0.6813 -2.5087 -1.3025
 8347SOL     OW36673   1.521   1.301  12.773 -0.4549  0.7772 -0.6978
 8347SOL    HW136674   1.532   1.393  12.749 -1.0718  0.2802 -2.9022
 8347SOL    HW236675   1.504   1.252  12.692 -0.0591 -0.4118 -0.0591
 8348SOL     OW36676   3.314   3.897   0.346  0.6105  0.0627  0.0342
 8348SOL    HW136677   3.288   3.849   0.268  5.1261 -0.3552 -1.2407
 8348SOL    HW236678   3.291   3.987   0.325 -0.2406 -0.6181 -1.9072
 8349SOL     OW36679   1.821   1.089   2.101 -0.2840  0.3445 -0.9210
 8349SOL    HW136680   1.789   1.002   2.081  0.0151  0.1300 -0.4792
 8349SOL    HW236681   1.754   1.116   2.164  1.4871  0.6626  0.8563
 8350SOL     OW36682   1.462   2.878   7.135 -0.0954 -0.4969 -0.5576
 8350SOL    HW136683   1.496   2.904   7.050 -2.1434  1.2192 -0.8568
 8350SOL    HW236684   1.389   2.940   7.137  0.1633 -0.2195  0.3897
 8351SOL     OW36685   1.876   3.618  16.544 -0.0702  0.8488 -0.3544
 8351SOL    HW136686   1.843   3.663  16.622  1.3001  0.6723  0.3368
 8351SOL    HW236687   1.964   3.595  16.573 -0.5707 -0.6696 -0.0424
 8352SOL     OW36688   0.558   1.714  11.972  0.4734 -0.1886 -0.6560
 8352SOL    HW136689   0.553   1.736  12.065  0.9485  0.4480 -0.7780
 8352SOL    HW236690   0.467   1.718  11.942  0.1373  1.8419  0.5858
 8353SOL     OW36691   0.200   2.161   2.749 -0.4456  0.1212  0.6702
 8353SOL    HW136692   0.164   2.078   2.781  0.2082 -1.2069 -2.0128
 8353SOL    HW236693   0.165   2.233   2.801 -1.3313  0.2286 -0.0718
 8354SOL     OW36694   3.079   1.054   5.819  0.4031 -0.1024  0.3901
 8354SOL    HW136695   3.152   1.115   5.805  1.4347 -1.3143  0.4866
 8354SOL    HW236696   3.129   0.974   5.836  0.5716  0.0344  0.5325
 8355SOL     OW36697   2.326   0.239  16.487  1.0988 -0.1652 -0.1502
 8355SOL    HW136698   2.296   0.164  16.539  0.6795  0.2526  0.2146
 8355SOL    HW236699   2.398   0.200  16.437  1.3588  0.1781 -0.0406
 8356SOL     OW36700   0.003   3.044  10.493 -0.1487 -0.1742 -0.3253
 8356SOL    HW136701   0.015   3.010  10.582 -0.5739 -0.4822 -0.3877
 8356SOL    HW236702   4.715   2.960  10.455  0.0343  1.0829 -3.1625
 8357SOL     OW36703   1.052   4.055  12.017 -0.6245  0.0824  0.1859
 8357SOL    HW136704   1.024   4.054  11.926 -1.4971 -1.7408  0.4671
 8357SOL    HW236705   1.141   4.019  12.011 -0.9652 -0.6355 -0.6513
 8358SOL     OW36706   3.850   0.703   3.627 -0.5350  0.7119 -0.3585
 8358SOL    HW136707   3.883   0.651   3.554 -0.2750  0.1758  0.1421
 8358SOL    HW236708   3.823   0.638   3.692 -0.7871  0.1704 -0.9985
 8359SOL     OW36709   2.076   0.791  14.954  0.3852 -0.2307  0.0825
 8359SOL    HW136710   2.103   0.878  14.984 -2.2736  1.4429 -2.2896
 8359SOL    HW236711   2.151   0.739  14.981 -0.0408  0.0215  1.7353
 8360SOL     OW36712   4.528   2.325   3.013 -0.4928 -0.1332  0.0929
 8360SOL    HW136713   4.479   2.358   3.088 -1.6588 -0.0748 -0.6778
 8360SOL    HW236714   4.561   2.243   3.049  1.3853  0.4345 -0.3848
 8361SOL     OW36715   1.986   2.892   5.874 -0.4135 -0.4246 -0.3610
 8361SOL    HW136716   1.937   2.853   5.946  2.8769 -3.3598  0.3063
 8361SOL    HW236717   1.972   2.986   5.879 -0.1254 -0.4819  1.4074
 8362SOL     OW36718   4.668   1.964   7.188  0.4645  0.2780  0.5388
 8362SOL    HW136719   4.729   1.978   7.260 -1.0653  1.3227  1.6261
 8362SOL    HW236720   4.627   1.883   7.218  0.5021  0.9440  2.3977
 8363SOL     OW36721   3.515   2.418   3.808 -0.0814 -0.5209  0.4454
 8363SOL    HW136722   3.458   2.355   3.765  0.5479  0.3348 -1.6524
 8363SOL    HW236723   3.463   2.497   3.794  2.5861  1.3636  1.0833
 8364SOL     OW36724   1.121   0.251   2.040 -0.1837 -0.0420  1.0231
 8364SOL    HW136725   1.075   0.335   2.039 -0.5370 -0.2116  2.1640
 8364SOL    HW236726   1.053   0.189   2.013  0.0690  0.5512 -0.9611
 8365SOL     OW36727   3.494   2.419   4.187 -0.0027  0.0796  0.2167
 8365SOL    HW136728   3.575   2.377   4.161  0.8495  0.4119  2.3279
 8365SOL    HW236729   3.450   2.352   4.239 -1.9193 -0.3422 -1.9101
 8366SOL     OW36730   4.712   1.023   2.956 -0.2137  0.3699 -0.8377
 8366SOL    HW136731   4.717   1.105   3.005 -1.9169 -0.2012  0.2885
 8366SOL    HW236732   0.064   1.012   2.927  0.0023 -1.4555  0.5054
 8367SOL     OW36733   4.557   0.642   6.378  0.1821  0.0674  0.1300
 8367SOL    HW136734   4.649   0.661   6.362 -0.1520  0.9985 -0.6791
 8367SOL    HW236735   4.531   0.624   6.287 -0.4875 -0.1237  0.3563
 8368SOL     OW36736   0.165   4.384   5.094  0.8496  0.1954 -0.1823
 8368SOL    HW136737   0.086   4.434   5.112  0.2802 -0.6946 -0.2017
 8368SOL    HW236738   0.214   4.393   5.176 -1.2185  0.7257  0.9742
 8369SOL     OW36739   2.732   1.888   1.709  0.0237 -0.7014 -0.3215
 8369SOL    HW136740   2.725   1.920   1.619 -1.0087  1.0640  0.3849
 8369SOL    HW236741   2.789   1.814   1.689  2.5563  1.2254 -0.3247
 8370SOL     OW36742   3.889   1.117   4.880  0.6945 -0.4867  0.5477
 8370SOL    HW136743   3.895   1.205   4.842  1.4269 -0.2852  1.1288
 8370SOL    HW236744   3.817   1.146   4.936 -0.7009 -0.9360 -0.9995
 8371SOL     OW36745   0.417   3.423  12.584 -0.5061  0.3906  0.1600
 8371SOL    HW136746   0.440   3.513  12.561 -0.5307  0.7704  1.6302
 8371SOL    HW236747   0.480   3.404  12.654 -0.7513 -2.1039 -0.2784
 8372SOL     OW36748   2.127   0.281   0.354  0.3810  0.2690  0.2900
 8372SOL    HW136749   2.136   0.336   0.277 -1.2207  0.9457  0.5760
 8372SOL    HW236750   2.214   0.245   0.368  0.2822 -0.9152 -2.2230
 8373SOL     OW36751   0.051   1.219   1.155  0.3579  0.1248  0.3520
 8373SOL    HW136752   0.055   1.312   1.178 -0.6323 -0.2073  1.8778
 8373SOL    HW236753   4.730   1.210   1.080  1.5769  0.8797 -0.6915
 8374SOL     OW36754   0.003   2.448   3.217 -0.1215  0.0651  0.2898
 8374SOL    HW136755   0.061   2.399   3.159 -0.2193  1.8971 -1.3445
 8374SOL    HW236756   4.723   2.393   3.294  0.6713 -1.0550 -0.3191
 8375SOL     OW36757   0.133   4.556   4.523 -0.2518 -0.0058  0.6159
 8375SOL    HW136758   0.123   4.571   4.429  2.8471  1.3383  0.4979
 8375SOL    HW236759   0.189   4.478   4.519 -1.0041 -0.4892 -0.5600
 8376SOL     OW36760   0.220   0.042  11.127 -0.0506 -0.1971 -0.4409
 8376SOL    HW136761   0.246   0.088  11.206 -2.3254 -0.2734  0.3612
 8376SOL    HW236762   0.132   0.076  11.108 -0.3386 -0.2176  0.8931
 8377SOL     OW36763   3.620   1.698  10.231  0.7096  0.4025 -0.1751
 8377SOL    HW136764   3.706   1.717  10.195  0.5107  0.6461 -0.5248
 8377SOL    HW236765   3.619   1.731  10.320 -1.1098 -0.3284  0.0880
 8378SOL     OW36766   4.572   4.377   5.212 -0.0351 -0.3209  0.0618
 8378SOL    HW136767   4.634   4.314   5.249  0.2796  1.6226  2.8573
 8378SOL    HW236768   4.515   4.394   5.287  0.2545  3.0371 -0.4868
 8379SOL     OW36769   3.075   2.000   8.095 -0.1763 -0.2045  0.1121
 8379SOL    HW136770   3.165   1.978   8.119  0.3732  1.0724 -0.7461
 8379SOL    HW236771   3.054   2.034   8.182  2.3237  0.6379  0.4034
 8380SOL     OW36772   0.722   0.954  17.393 -0.1170 -0.0257  0.3276
 8380SOL    HW136773   0.637   0.910  17.388 -0.6990  1.2039 -0.4167
 8380SOL    HW236774   0.703   1.001  17.312  0.3972 -2.4020 -1.1965
 8381SOL     OW36775   3.241   1.803   0.033  0.0036  0.7814 -0.2615
 8381SOL    HW136776   3.320   1.792  17.730 -1.7661  1.9388 -3.2369
 8381SOL    HW236777   3.180   1.832  17.714 -1.7714 -1.0501  0.5408
 8382SOL     OW36778   1.577   0.946  17.599  0.7359  0.4581 -0.2570
 8382SOL    HW136779   1.627   0.866  17.612  2.3088  1.0181 -2.9852
 8382SOL    HW236780   1.585   0.981  17.688 -2.5015  0.0170  0.2290
 8383SOL     OW36781   0.773   3.976   7.043 -0.1340  0.2179  0.4904
 8383SOL    HW136782   0.813   4.058   7.014  1.8903 -1.0260 -0.2191
 8383SOL    HW236783   0.678   3.984   7.036 -0.0242  1.3583  0.3273
 8384SOL     OW36784   0.677   1.881   3.718 -0.3470 -0.3040 -0.2758
 8384SOL    HW136785   0.744   1.938   3.756 -0.1770  0.4166 -1.6453
 8384SOL    HW236786   0.599   1.936   3.706 -0.1589  0.7093  3.1855
 8385SOL     OW36787   4.455   3.291   2.860 -0.4288 -0.3457  0.2687
 8385SOL    HW136788   4.448   3.382   2.889  0.1946  0.4100 -1.9868
 8385SOL    HW236789   4.441   3.311   2.768  2.0500 -1.1958 -0.2923
 8386SOL     OW36790   0.410   1.017   0.483 -0.2668 -0.7948 -1.0330
 8386SOL    HW136791   0.329   0.986   0.442 -0.7223  0.0139 -0.7516
 8386SOL    HW236792   0.484   1.017   0.423  1.3844  1.0108  0.9954
 8387SOL     OW36793   1.527   4.688   0.885  0.1102 -0.2296  0.2390
 8387SOL    HW136794   1.495   4.636   0.811  0.6691 -0.4898  0.1803
 8387SOL    HW236795   1.438   4.715   0.911  0.6333  1.3711  0.3299
 8388SOL     OW36796   3.584   2.891   4.318 -0.5344 -0.1592 -0.2583
 8388SOL    HW136797   3.624   2.804   4.309  0.6050  0.3770 -0.2516
 8388SOL    HW236798   3.609   2.915   4.407  2.1045  2.8137 -1.8413
 8389SOL     OW36799   0.584   4.525   1.775 -0.1353 -0.0799  0.2914
 8389SOL    HW136800   0.568   4.514   1.681  0.8658 -0.9086  0.2216
 8389SOL    HW236801   0.605   4.436   1.805 -2.5159 -0.6383  0.2989
 8390SOL     OW36802   1.627   0.468   7.007 -0.2488  0.2079 -0.2160
 8390SOL    HW136803   1.645   0.503   7.094  3.0811  0.6393 -1.0580
 8390SOL    HW236804   1.604   0.550   6.963  0.1282 -1.6068 -3.8203
 8391SOL     OW36805   0.428   0.842   7.785  0.0108 -0.2102  0.2367
 8391SOL    HW136806   0.379   0.761   7.777 -1.1511  0.6328 -1.1375
 8391SOL    HW236807   0.499   0.811   7.841  1.1031  1.7321 -0.0565
 8392SOL     OW36808   2.477   3.327   6.727  0.0956  0.1409 -0.2354
 8392SOL    HW136809   2.557   3.366   6.692 -1.1024  0.6901 -2.3913
 8392SOL    HW236810   2.424   3.405   6.746  0.0193  0.4248 -1.5903
 8393SOL     OW36811   2.713   1.191  10.402 -0.3608 -0.5275 -0.7010
 8393SOL    HW136812   2.780   1.159  10.463  0.0437  1.3837 -0.1607
 8393SOL    HW236813   2.751   1.274  10.373  0.4902 -0.2775  1.1158
 8394SOL     OW36814   4.273   4.110  14.414 -0.0911  0.3841  0.1557
 8394SOL    HW136815   4.225   4.041  14.368 -2.7411  0.5508  2.7187
 8394SOL    HW236816   4.336   4.132  14.344 -0.5960  3.7119  0.7470
 8395SOL     OW36817   4.366   0.593   4.637 -0.2294 -0.3664 -0.2524
 8395SOL    HW136818   4.273   0.570   4.645 -0.6435  1.6726  0.8477
 8395SOL    HW236819   4.350   0.684   4.662  0.3760 -0.3041 -0.1049
 8396SOL     OW36820   3.861   0.605   9.965  0.0516  0.4032 -0.7223
 8396SOL    HW136821   3.868   0.639   9.875 -0.0369 -0.3374 -1.0053
 8396SOL    HW236822   3.868   0.684  10.018 -0.1352 -0.3380  0.3938
 8397SOL     OW36823   2.841   1.068   8.520  1.0579 -0.7322  0.2484
 8397SOL    HW136824   2.872   1.000   8.579  1.1195  0.4287  1.5664
 8397SOL    HW236825   2.867   1.029   8.436  0.9297  0.3436 -0.2930
 8398SOL     OW36826   3.826   0.901   5.220  0.7488 -0.2206  0.0832
 8398SOL    HW136827   3.890   0.972   5.216  0.4619  0.0624  0.5497
 8398SOL    HW236828   3.821   0.874   5.128  0.1966 -0.2547  0.1275
 8399SOL     OW36829   4.134   0.756   5.371  0.0581  0.1572  0.1465
 8399SOL    HW136830   4.082   0.687   5.329 -0.7394 -0.0235  1.4419
 8399SOL    HW236831   4.068   0.775   5.438 -2.9973  0.3761 -2.9170
 8400SOL     OW36832   4.128   1.882   5.329 -0.1183  0.6244 -0.0846
 8400SOL    HW136833   4.170   1.803   5.295  0.5985  2.0386 -2.5460
 8400SOL    HW236834   4.189   1.914   5.395  0.3183 -1.0798  0.3255
 8401SOL     OW36835   2.043   0.790   1.787 -0.3492  0.0931  0.1277
 8401SOL    HW136836   2.069   0.700   1.804 -1.1106 -0.1966 -0.2469
 8401SOL    HW236837   2.014   0.781   1.696  0.6922 -1.2845 -0.0582
 8402SOL     OW36838   1.602   3.577   7.748  0.0000 -0.8631  0.6079
 8402SOL    HW136839   1.537   3.571   7.818  0.5833  1.7347  1.3469
 8402SOL    HW236840   1.657   3.648   7.779  0.5136 -1.3604  0.8471
 8403SOL     OW36841   4.359   1.943   8.066 -0.1692  0.1902  0.1842
 8403SOL    HW136842   4.323   2.008   8.005  1.1139  0.9920  0.2819
 8403SOL    HW236843   4.329   1.866   8.017  0.7105  0.4232 -0.7120
 8404SOL     OW36844   3.314   1.283  10.001  0.0075 -0.2265 -0.4029
 8404SOL    HW136845   3.367   1.360  10.022  0.0581 -0.1025 -0.9972
 8404SOL    HW236846   3.379   1.213  10.002 -1.5053 -1.6088  0.6839
 8405SOL     OW36847   3.538   4.661   2.040 -0.6443 -0.0438 -0.0709
 8405SOL    HW136848   3.558   4.683   2.131 -1.6450  1.3873 -0.2011
 8405SOL    HW236849   3.567   4.570   2.049 -0.4845  0.1228  1.1284
 8406SOL     OW36850   0.077   0.002   7.427  0.1140 -0.5353  0.5716
 8406SOL    HW136851   0.172   4.731   7.412  0.5798  3.2030  1.4246
 8406SOL    HW236852   0.052   0.049   7.348  1.9289  2.0575  1.5178
 8407SOL     OW36853   3.213   0.430   3.123  0.6823 -0.7691  0.0050
 8407SOL    HW136854   3.204   0.354   3.066  1.7679 -0.3659 -0.7093
 8407SOL    HW236855   3.214   0.388   3.209  2.0046  0.0983  0.4076
 8408SOL     OW36856   2.925   2.286   5.182  0.5153  0.1186  0.4306
 8408SOL    HW136857   2.897   2.255   5.096  1.3401  0.2471  0.1131
 8408SOL    HW236858   2.893   2.217   5.241 -1.2090 -0.2256 -0.9053
 8409SOL     OW36859   2.673   1.774   8.530  0.1665 -0.4927 -0.2571
 8409SOL    HW136860   2.687   1.713   8.603  0.5114  2.5962  2.2556
 8409SOL    HW236861   2.733   1.740   8.464 -0.6560 -1.4474 -0.5205
 8410SOL     OW36862   4.066   3.959   2.955 -0.2029 -0.1198 -0.2915
 8410SOL    HW136863   4.077   3.916   2.870 -1.3156 -0.3023 -0.3502
 8410SOL    HW236864   3.973   3.983   2.950 -0.2789 -0.3193  0.2052
 8411SOL     OW36865   2.434   1.037   9.258 -0.7428  0.3613  0.0411
 8411SOL    HW136866   2.465   1.124   9.232  0.4795 -0.0704  0.0872
 8411SOL    HW236867   2.492   1.017   9.332  0.2510  1.2019 -0.5192
 8412SOL     OW36868   2.557   4.151   6.576  0.0654  0.5842  0.1214
 8412SOL    HW136869   2.508   4.106   6.644 -0.3614 -0.7712 -1.0923
 8412SOL    HW236870   2.634   4.094   6.579 -1.2668 -1.3152 -2.3732
 8413SOL     OW36871   3.068   4.688  15.128 -0.3522  0.1639  0.0341
 8413SOL    HW136872   3.126   0.018  15.093  1.2896 -1.4100 -0.2926
 8413SOL    HW236873   3.129   4.649  15.190  0.7181  1.9715  0.1098
 8414SOL     OW36874   2.523   0.303   2.949 -0.3296 -0.8372  0.4113
 8414SOL    HW136875   2.515   0.299   2.854  1.1610 -0.7802  0.2926
 8414SOL    HW236876   2.534   0.398   2.957 -0.2685 -0.8361  0.3013
 8415SOL     OW36877   0.704   4.435   4.102 -0.5882  0.4669  0.3614
 8415SOL    HW136878   0.672   4.523   4.121  1.1493  0.8028  1.7094
 8415SOL    HW236879   0.668   4.384   4.174 -0.4023 -1.7503 -1.1165
 8416SOL     OW36880   2.338   0.990   0.487  0.0857 -0.1035 -0.2793
 8416SOL    HW136881   2.333   0.950   0.574  1.4353  1.3672  0.4704
 8416SOL    HW236882   2.419   1.038   0.503  0.0840 -0.8814  1.9851
 8417SOL     OW36883   4.224   0.618   2.928  0.7098 -0.1355  0.2097
 8417SOL    HW136884   4.306   0.622   2.879  1.1866  1.2164  1.1257
 8417SOL    HW236885   4.167   0.591   2.856  0.2724 -3.6386  1.8938
 8418SOL     OW36886   0.395   3.326   2.984  0.2001 -0.1438  0.1534
 8418SOL    HW136887   0.447   3.379   2.923  1.0072  0.2755  1.2237
 8418SOL    HW236888   0.448   3.316   3.062 -0.3576 -1.4777  0.3569
 8419SOL     OW36889   0.935   2.717   2.946  0.8374  0.2613 -0.0928
 8419SOL    HW136890   1.024   2.726   2.980  1.1463  0.4033 -0.9294
 8419SOL    HW236891   0.942   2.761   2.861 -3.6469 -0.3343 -0.7511
 8420SOL     OW36892   0.219   4.656   0.630 -0.0500  0.4454  0.4242
 8420SOL    HW136893   0.199   4.641   0.722 -1.6883 -0.2014 -0.0225
 8420SOL    HW236894   0.314   4.645   0.637 -0.2992 -2.4036 -0.5543
 8421SOL     OW36895   1.347   1.975   1.466 -0.0179  0.4084  0.2208
 8421SOL    HW136896   1.270   2.030   1.482 -0.7737  0.1536 -2.5123
 8421SOL    HW236897   1.424   2.032   1.468  0.5204 -0.3101 -0.1840
 8422SOL     OW36898   0.319   1.209   5.638 -0.1287 -0.1752 -0.2581
 8422SOL    HW136899   0.308   1.221   5.544 -1.7692  3.2583  0.3906
 8422SOL    HW236900   0.267   1.129   5.646 -4.7687  2.9699  0.6589
 8423SOL     OW36901   2.130   3.055   4.236 -0.1488 -0.1081 -0.1955
 8423SOL    HW136902   2.218   3.031   4.207  0.2671  1.2625 -0.0745
 8423SOL    HW236903   2.133   3.145   4.203  1.4337 -0.4902 -1.1114
 8424SOL     OW36904   0.050   3.174   3.630 -0.1820 -0.1796 -0.5761
 8424SOL    HW136905   0.004   3.169   3.546  1.0912  0.0707 -1.2891
 8424SOL    HW236906   0.108   3.100   3.612  1.9779  1.6350 -1.1129
 8425SOL     OW36907   1.004   0.551  12.274 -0.4791  0.5991  0.3463
 8425SOL    HW136908   1.000   0.553  12.370  3.3608 -0.9768  0.5384
 8425SOL    HW236909   1.098   0.547  12.259 -0.2652  0.5431  1.7421
 8426SOL     OW36910   1.922   2.793   2.926  0.3818 -0.0517 -0.1778
 8426SOL    HW136911   1.898   2.881   2.898 -0.4659  0.3951  1.9432
 8426SOL    HW236912   1.839   2.748   2.908  1.1753 -0.7643 -2.1189
 8427SOL     OW36913   0.201   0.647  17.594 -0.1400  0.1783  0.2522
 8427SOL    HW136914   0.112   0.633  17.627 -0.1027  0.6193  0.5455
 8427SOL    HW236915   0.257   0.643  17.671 -1.4513  0.5613  1.2212
 8428SOL     OW36916   0.585   4.499   3.334  0.4189 -0.3369 -0.1720
 8428SOL    HW136917   0.637   4.448   3.397 -1.2162  1.3092  2.5236
 8428SOL    HW236918   0.497   4.476   3.363 -0.6287  2.3666 -1.2054
 8429SOL     OW36919   0.256   4.620   0.308  0.9430 -0.5228 -0.6118
 8429SOL    HW136920   0.323   4.552   0.298  0.2932 -0.9767 -1.8464
 8429SOL    HW236921   0.234   4.624   0.401  1.6224  1.9576 -0.5553
 8430SOL     OW36922   0.174   2.191  17.549  0.2296  0.0036  0.7530
 8430SOL    HW136923   0.124   2.216  17.626  0.5435  1.8484  0.3396
 8430SOL    HW236924   0.264   2.183  17.583  0.1989  0.5052  0.9467
 8431SOL     OW36925   2.078   2.527  10.891  0.5661 -0.2096 -0.2313
 8431SOL    HW136926   2.126   2.469  10.951  2.4263 -0.2805 -1.8005
 8431SOL    HW236927   2.107   2.615  10.917 -0.9036  0.5813 -1.2723
 8432SOL     OW36928   2.596   1.875   7.763 -0.2673 -0.0832  0.5039
 8432SOL    HW136929   2.548   1.955   7.740  0.0984  0.1887  0.6775
 8432SOL    HW236930   2.684   1.905   7.738 -0.0054 -0.2182  1.2546
 8433SOL     OW36931   1.358   3.949   8.413 -0.3346  0.4048  0.5644
 8433SOL    HW136932   1.415   3.873   8.424 -1.3348 -0.4447 -0.1377
 8433SOL    HW236933   1.316   3.923   8.331  0.3154  0.5212  0.1926
 8434SOL     OW36934   3.588   1.988   3.596 -0.5390 -0.2044 -0.5131
 8434SOL    HW136935   3.602   1.998   3.502  0.7652 -0.2882 -0.3333
 8434SOL    HW236936   3.586   1.892   3.598  0.4465 -0.3131 -5.0980
 8435SOL     OW36937   2.479   0.857   7.707  0.4277 -0.2672  0.5691
 8435SOL    HW136938   2.471   0.882   7.615  0.8940 -0.7703  0.3912
 8435SOL    HW236939   2.572   0.835   7.715 -0.1389 -3.1203 -0.6900
 8436SOL     OW36940   2.945   0.695   6.604  0.0788 -0.0483 -0.3156
 8436SOL    HW136941   2.976   0.608   6.628 -1.3778 -0.5452 -0.2425
 8436SOL    HW236942   3.017   0.754   6.626  1.1742 -0.5860 -2.4390
 8437SOL     OW36943   3.884   2.608   8.957 -0.8443  0.7055  0.5991
 8437SOL    HW136944   3.964   2.658   8.942 -1.2173  1.1340  0.0509
 8437SOL    HW236945   3.917   2.524   8.990  0.7469  0.3770 -1.8630
 8438SOL     OW36946   2.476   3.848   3.129  0.0262  0.0582  0.4925
 8438SOL    HW136947   2.557   3.848   3.078  0.7212  1.2000  1.6259
 8438SOL    HW236948   2.439   3.762   3.109 -1.3778  1.1802 -1.7168
 8439SOL     OW36949   2.574   4.274  11.573  0.1860  0.0013  0.1393
 8439SOL    HW136950   2.556   4.367  11.588 -0.1989  0.2671 -1.8795
 8439SOL    HW236951   2.561   4.265  11.478 -3.2469 -0.5838  0.6584
 8440SOL     OW36952   0.262   2.973   1.976  0.3530  0.0403 -0.5810
 8440SOL    HW136953   0.259   2.976   1.880  1.0475 -1.2868 -0.6292
 8440SOL    HW236954   0.334   2.911   1.986  0.5279  0.4953  1.0494
 8441SOL     OW36955   3.808   2.667   4.645  0.3025  0.3546  0.1813
 8441SOL    HW136956   3.730   2.720   4.665  1.1911  1.0873  1.7139
 8441SOL    HW236957   3.870   2.733   4.614 -0.1166 -0.2530 -1.9009
 8442SOL     OW36958   1.367   3.905   1.975  0.4161 -0.5077  0.2511
 8442SOL    HW136959   1.286   3.863   1.948  0.7576 -0.7100 -0.4671
 8442SOL    HW236960   1.379   3.971   1.907 -0.8113  0.5925  1.1222
 8443SOL     OW36961   2.791   0.723   8.449 -0.3003  0.4280  0.0772
 8443SOL    HW136962   2.846   0.666   8.396 -1.5658  0.1090 -0.8929
 8443SOL    HW236963   2.807   0.706   8.542 -0.2495 -1.7232 -0.3130
 8444SOL     OW36964   0.050   2.533  12.362 -0.2564  0.0025  0.1707
 8444SOL    HW136965   0.104   2.608  12.386 -1.7510  0.7855  1.0297
 8444SOL    HW236966   4.707   2.569  12.327 -0.0773 -0.2968 -0.5480
 8445SOL     OW36967   0.814   3.439   4.896 -0.3182  0.5688 -0.4058
 8445SOL    HW136968   0.827   3.527   4.931  1.4765 -0.0414  0.4926
 8445SOL    HW236969   0.724   3.419   4.921  0.2739 -0.7963  0.6112
 8446SOL     OW36970   3.129   1.388   5.403  0.2384 -0.8814  0.6246
 8446SOL    HW136971   3.157   1.402   5.494 -0.2629  0.4707  0.5689
 8446SOL    HW236972   3.071   1.314   5.418 -1.3678 -0.0738 -1.6713
 8447SOL     OW36973   2.118   0.694   4.782 -0.2399 -0.6777  0.5175
 8447SOL    HW136974   2.038   0.722   4.827  0.2447  0.6820  0.5346
 8447SOL    HW236975   2.094   0.604   4.758 -2.3775 -0.1325  0.5475
 8448SOL     OW36976   1.486   1.560   7.851 -0.0341 -0.1134 -0.3661
 8448SOL    HW136977   1.526   1.644   7.872 -1.2873  0.8102 -1.7272
 8448SOL    HW236978   1.568   1.510   7.846 -0.5772 -1.0107 -0.2625
 8449SOL     OW36979   1.141   3.149  12.763 -0.1600 -0.2054 -0.2469
 8449SOL    HW136980   1.052   3.166  12.733 -0.3488 -0.1512  0.3418
 8449SOL    HW236981   1.175   3.239  12.772  0.2473 -0.1653 -2.2883
 8450SOL     OW36982   1.242   3.573   4.101 -0.7689  0.7700  0.3169
 8450SOL    HW136983   1.299   3.634   4.055 -0.7252  3.0494  3.3776
 8450SOL    HW236984   1.215   3.620   4.180 -0.4924 -1.8633  1.9865
 8451SOL     OW36985   0.912   4.425   8.352 -0.2073  0.2069  0.7784
 8451SOL    HW136986   0.874   4.400   8.267  1.2742  0.4901  0.0299
 8451SOL    HW236987   0.937   4.512   8.322  2.2166 -1.2630 -1.4807
 8452SOL     OW36988   0.637   2.161   3.362 -0.3347 -0.4258 -0.4524
 8452SOL    HW136989   0.674   2.174   3.449  0.3461 -1.7729 -0.5470
 8452SOL    HW236990   0.572   2.097   3.392  0.1607  0.7506  3.0836
 8453SOL     OW36991   0.501   3.699   6.946  0.1382  0.3620  0.2292
 8453SOL    HW136992   0.516   3.715   7.039  1.4005  1.4417 -0.1651
 8453SOL    HW236993   0.405   3.710   6.943  0.0066 -0.3805  1.8861
 8454SOL     OW36994   3.946   3.490  11.343 -0.0412  0.0285  0.4122
 8454SOL    HW136995   3.953   3.399  11.373 -1.0436  0.8472  3.0997
 8454SOL    HW236996   4.035   3.517  11.320 -0.1777 -1.9647 -2.4296
 8455SOL     OW36997   0.162   0.958   8.552 -0.0972  0.6947 -0.1326
 8455SOL    HW136998   0.147   0.883   8.608  1.9346  0.1981 -0.2343
 8455SOL    HW236999   0.257   0.953   8.540  0.2100  0.7627  2.3710
 8456SOL     OW37000   1.070   3.748   3.809 -0.8983 -0.1539 -0.3776
 8456SOL    HW137001   1.115   3.766   3.727  0.7152 -1.6181  0.1847
 8456SOL    HW237002   1.080   3.653   3.813 -1.8598 -0.2536 -0.3706
 8457SOL     OW37003   3.227   2.672  13.988 -0.1014 -0.0694 -0.0211
 8457SOL    HW137004   3.133   2.683  13.973 -0.2162  0.4658  1.1192
 8457SOL    HW237005   3.223   2.577  13.999  0.6219 -0.3696 -2.3673
 8458SOL     OW37006   2.163   4.705   9.782 -0.0625 -0.0577  0.4088
 8458SOL    HW137007   2.090   4.665   9.829 -0.3115 -0.2035 -0.1003
 8458SOL    HW237008   2.114   0.043   9.748  3.0324  2.4215  1.5060
 8459SOL     OW37009   1.724   1.854  11.742 -0.4909 -0.4888  0.4567
 8459SOL    HW137010   1.654   1.825  11.800 -1.3444 -2.5483 -1.6027
 8459SOL    HW237011   1.703   1.793  11.671  2.4363 -0.4743 -0.4293
 8460SOL     OW37012   2.852   2.574   7.010 -0.2881 -0.9678 -0.5684
 8460SOL    HW137013   2.884   2.662   7.031  0.2527 -1.4953  0.7887
 8460SOL    HW237014   2.851   2.532   7.096  0.7285  0.6677  0.2614
 8461SOL     OW37015   2.963   1.291   7.957  0.3164 -0.2455 -0.7788
 8461SOL    HW137016   2.988   1.283   8.049 -3.1698  2.9195  0.3983
 8461SOL    HW237017   2.899   1.362   7.959  1.0684  0.4967 -2.8188
 8462SOL     OW37018   4.003   2.550   2.782 -0.0824 -0.4447  0.5740
 8462SOL    HW137019   4.094   2.549   2.754 -0.0502  2.1277  0.6218
 8462SOL    HW237020   3.993   2.464   2.822 -0.9224 -1.1767 -1.2114
 8463SOL     OW37021   2.557   4.401  10.318 -0.4904  0.0452  0.3397
 8463SOL    HW137022   2.650   4.404  10.341 -0.3893 -3.0592  0.2865
 8463SOL    HW237023   2.553   4.407  10.223 -0.3805 -0.2429  0.3164
 8464SOL     OW37024   1.475   3.422   2.795  0.3075 -0.0478  0.1677
 8464SOL    HW137025   1.496   3.363   2.722  0.0573 -0.5637  0.5136
 8464SOL    HW237026   1.561   3.417   2.837  0.5869  2.6910 -0.1016
 8465SOL     OW37027   1.007   1.742  14.564  0.0830  0.3962 -0.0114
 8465SOL    HW137028   1.085   1.687  14.568 -1.9772 -2.4543  1.2421
 8465SOL    HW237029   1.001   1.785  14.649 -0.6762 -1.3870  0.8439
 8466SOL     OW37030   3.850   1.503   2.684  0.0549 -0.2322 -0.0440
 8466SOL    HW137031   3.811   1.552   2.756  2.2470  0.8454  0.4107
 8466SOL    HW237032   3.901   1.444   2.740  0.7822  3.2694  2.9487
 8467SOL     OW37033   3.305   0.794   6.208 -0.5281  0.1646 -0.9642
 8467SOL    HW137034   3.261   0.787   6.293 -1.5824  1.2313 -1.4293
 8467SOL    HW237035   3.232   0.829   6.158 -0.6517  0.7833 -0.3520
 8468SOL     OW37036   1.028   3.548   8.772 -0.5967  0.5211  0.3694
 8468SOL    HW137037   1.063   3.469   8.811  2.9921  1.2095 -1.4782
 8468SOL    HW237038   0.969   3.584   8.838  0.4194  0.4622  1.3141
 8469SOL     OW37039   1.299   3.404   8.309 -0.1166 -0.0105  0.1992
 8469SOL    HW137040   1.245   3.467   8.358  0.1089 -0.1167  0.5851
 8469SOL    HW237041   1.273   3.332   8.366 -0.4121  0.4896  0.7065
 8470SOL     OW37042   2.004   3.821   8.088  0.4086  0.2073  0.5316
 8470SOL    HW137043   2.005   3.732   8.054 -2.7821  0.8714 -1.3442
 8470SOL    HW237044   1.912   3.815   8.113 -0.0482  0.1876 -1.1314
 8471SOL     OW37045   4.105   0.850   6.561 -0.6744 -0.7078 -0.3458
 8471SOL    HW137046   4.163   0.823   6.632  2.1623 -1.1700 -2.8666
 8471SOL    HW237047   4.178   0.875   6.505 -1.3962 -0.8241 -1.3398
 8472SOL     OW37048   2.111   1.550   5.883  0.0082  0.4551  0.4957
 8472SOL    HW137049   2.027   1.592   5.899  0.1320  0.4276  1.1972
 8472SOL    HW237050   2.104   1.466   5.929  0.0555  0.6365  0.8303
 8473SOL     OW37051   0.097   1.529   4.211 -0.1019  0.8257 -0.0662
 8473SOL    HW137052   0.171   1.472   4.232  0.6040  1.2395 -1.4653
 8473SOL    HW237053   0.134   1.589   4.146  0.6623 -0.3745 -0.7386
 8474SOL     OW37054   4.706   1.038   4.979 -0.1226  0.2754  0.5097
 8474SOL    HW137055   4.658   1.034   5.061 -2.5631 -1.5981 -0.9911
 8474SOL    HW237056   0.013   1.122   4.975 -2.8313  1.6144 -1.9366
 8475SOL     OW37057   0.979   3.313   6.302 -0.3735  0.3348 -0.1723
 8475SOL    HW137058   0.926   3.374   6.250 -1.0765  0.9551  1.2619
 8475SOL    HW237059   1.046   3.291   6.238  0.2428 -1.9733  1.2563
 8476SOL     OW37060   0.368   1.643   8.423  0.1143  0.0964 -0.3088
 8476SOL    HW137061   0.302   1.621   8.357  0.8002 -0.9099 -0.6538
 8476SOL    HW237062   0.414   1.718   8.385 -0.2223  1.5818  2.1970
 8477SOL     OW37063   1.164   0.189   0.124 -0.0668  0.3046  0.7561
 8477SOL    HW137064   1.214   0.221   0.199  1.0349  0.4656 -0.0482
 8477SOL    HW237065   1.176   0.095   0.128 -1.0976  0.0772 -1.1135
 8478SOL     OW37066   3.777   1.617   8.626 -0.6908  0.2348  0.3797
 8478SOL    HW137067   3.810   1.651   8.710 -0.6557 -1.3053  0.9823
 8478SOL    HW237068   3.691   1.582   8.650 -1.2512  0.5766 -1.1602
 8479SOL     OW37069   2.617   1.606   9.690 -0.4939 -0.1825 -0.2433
 8479SOL    HW137070   2.601   1.516   9.716 -0.6211 -0.1737 -0.2870
 8479SOL    HW237071   2.651   1.586   9.603  0.5529  1.7332 -0.2779
 8480SOL     OW37072   4.529   4.125   7.922  0.0181 -0.3206 -0.0485
 8480SOL    HW137073   4.520   4.043   7.873 -1.4481 -0.1135 -0.1150
 8480SOL    HW237074   4.479   4.191   7.875  2.0757  2.0769  1.1680
 8481SOL     OW37075   1.929   1.930  13.340  0.8153 -0.3231 -0.0472
 8481SOL    HW137076   1.968   2.002  13.290 -0.4483  0.3957  0.0025
 8481SOL    HW237077   1.850   1.912  13.288  0.9086 -0.5149 -0.1207
 8482SOL     OW37078   0.140   3.426   7.214  0.6616 -0.0038 -0.2743
 8482SOL    HW137079   0.116   3.508   7.169  3.2527  0.5126 -0.7244
 8482SOL    HW237080   0.184   3.447   7.296 -0.5924  0.7179  0.2080
 8483SOL     OW37081   3.186   3.178   3.149 -0.4804  0.5254 -0.2811
 8483SOL    HW137082   3.272   3.215   3.167 -0.8346  1.8801 -1.2881
 8483SOL    HW237083   3.129   3.237   3.198  0.2135  1.7597 -0.9543
 8484SOL     OW37084   0.887   1.011  14.757  0.5768 -0.2925  0.1924
 8484SOL    HW137085   0.864   1.043  14.670 -1.4483  2.1958  1.6475
 8484SOL    HW237086   0.975   0.975  14.745  1.0083  0.5695  0.6843
 8485SOL     OW37087   1.313   2.134  13.534 -0.0405  0.3431  0.1221
 8485SOL    HW137088   1.394   2.170  13.569 -1.2797  3.0712  0.2179
 8485SOL    HW237089   1.269   2.128  13.620 -0.1821  1.3858  0.1160
 8486SOL     OW37090   1.983   2.195   2.170  0.0334  0.1212 -0.0921
 8486SOL    HW137091   1.993   2.112   2.123  0.5596  0.2226 -0.1552
 8486SOL    HW237092   1.925   2.174   2.243 -1.2462  0.4136 -1.0138
 8487SOL     OW37093   0.962   4.424   3.964  0.1044 -0.1133  0.1873
 8487SOL    HW137094   0.979   4.509   3.924  0.8114 -0.5676 -0.4781
 8487SOL    HW237095   0.876   4.428   4.005 -0.4796 -0.7180 -0.9617
 8488SOL     OW37096   2.922   0.768   5.299 -0.0073  0.1293  0.0216
 8488SOL    HW137097   2.934   0.814   5.215 -2.0182 -0.2089 -0.4530
 8488SOL    HW237098   2.839   0.807   5.328 -1.1721 -0.9512 -1.8749
 8489SOL     OW37099   2.950   2.824   7.883  0.0765 -0.1700  0.2075
 8489SOL    HW137100   2.967   2.805   7.975 -1.5761  0.7834  0.7114
 8489SOL    HW237101   2.912   2.911   7.891 -0.9458 -0.2303 -3.7234
 8490SOL     OW37102   0.603   0.949   0.967  0.1926 -0.3036 -0.3695
 8490SOL    HW137103   0.678   1.005   0.947  0.0381  0.0084 -0.0716
 8490SOL    HW237104   0.534   1.010   0.993  1.5287  0.6521  0.9265
 8491SOL     OW37105   2.366   2.979   0.909 -0.0732  0.0039 -0.0168
 8491SOL    HW137106   2.306   3.019   0.972 -0.9328 -0.6681 -0.4198
 8491SOL    HW237107   2.317   3.016   0.835 -1.0443 -1.0282  0.1069
 8492SOL     OW37108   3.592   0.050  12.383  0.2098  0.0674  0.4747
 8492SOL    HW137109   3.628   4.729  12.449 -0.7216  2.1361  2.8169
 8492SOL    HW237110   3.519   0.083  12.436  1.1103  0.2914  1.5827
 8493SOL     OW37111   4.170   1.203   3.225 -0.1524 -0.3207 -0.8587
 8493SOL    HW137112   4.195   1.281   3.275 -1.4590 -1.1228  1.0358
 8493SOL    HW237113   4.255   1.181   3.187 -1.2914  1.3722 -4.3712
 8494SOL     OW37114   3.857   3.023  14.600 -0.0921 -0.2913 -0.0354
 8494SOL    HW137115   3.937   3.010  14.550 -0.1888  2.0567 -0.7789
 8494SOL    HW237116   3.874   2.975  14.681 -1.2360 -1.9630 -0.7711
 8495SOL     OW37117   3.207   2.877   6.027 -0.0627  0.5748  0.3029
 8495SOL    HW137118   3.236   2.856   5.938 -0.8106  0.7738  0.0031
 8495SOL    HW237119   3.286   2.917   6.061 -0.5496  1.9052 -0.1095
 8496SOL     OW37120   1.288   3.999   1.727  0.4985  0.2400  0.6370
 8496SOL    HW137121   1.334   4.061   1.671  1.7099  0.2735  1.6652
 8496SOL    HW237122   1.297   3.915   1.682 -0.5815  0.2465  0.4250
 8497SOL     OW37123   4.052   1.857   6.172 -0.1861 -0.4060 -0.3513
 8497SOL    HW137124   4.004   1.899   6.101  0.2421  1.2110  0.3123
 8497SOL    HW237125   4.001   1.895   6.244 -1.6224 -0.6293 -1.2584
 8498SOL     OW37126   0.898   0.670   4.150  0.1304  0.4152 -0.7947
 8498SOL    HW137127   0.955   0.668   4.073  1.1738  1.5517 -0.0668
 8498SOL    HW237128   0.845   0.592   4.134 -0.5379  0.4251  1.3937
 8499SOL     OW37129   1.496   1.547   4.083  0.7000 -0.6642  0.3909
 8499SOL    HW137130   1.557   1.498   4.028  0.3490 -2.1529  1.3193
 8499SOL    HW237131   1.551   1.587   4.151 -1.4456 -0.1401  1.8418
 8500SOL     OW37132   3.773   0.353   8.185  0.4098  0.0307  0.1969
 8500SOL    HW137133   3.728   0.290   8.129  0.9329  1.0499 -1.3884
 8500SOL    HW237134   3.823   0.308   8.253  0.2653 -1.1525 -0.4729
 8501SOL     OW37135   0.729   0.434   1.321  0.5794  0.2765 -0.1736
 8501SOL    HW137136   0.648   0.484   1.322  0.2708 -0.2362 -0.0236
 8501SOL    HW237137   0.712   0.356   1.267  1.9440 -1.7475  2.3160
 8502SOL     OW37138   3.919   0.212   8.373  0.4772  0.2009 -0.3410
 8502SOL    HW137139   4.012   0.220   8.351  1.2270 -1.7072  2.1222
 8502SOL    HW237140   3.919   0.119   8.396  0.2278  0.0675 -0.8827
 8503SOL     OW37141   0.508   3.960   7.751 -0.1784  0.6566 -0.5926
 8503SOL    HW137142   0.545   3.931   7.667 -0.4953 -2.6911  0.4180
 8503SOL    HW237143   0.508   4.051   7.720 -4.1197  1.1586  0.8942
 8504SOL     OW37144   0.841   0.720   1.959 -0.4152  0.4345  0.3849
 8504SOL    HW137145   0.767   0.685   1.911  0.3570  0.1383 -0.5943
 8504SOL    HW237146   0.843   0.810   1.928  3.0009 -0.6086 -2.4528
 8505SOL     OW37147   1.012   2.354   9.374  0.6881 -0.1609 -0.0300
 8505SOL    HW137148   0.967   2.270   9.386  0.7923 -0.0701  0.9657
 8505SOL    HW237149   0.956   2.414   9.423  1.3091  1.0366 -0.8007
 8506SOL     OW37150   2.649   2.909   5.159  0.3997 -0.2840 -0.6519
 8506SOL    HW137151   2.649   2.985   5.217 -2.6308 -0.7673  0.0037
 8506SOL    HW237152   2.560   2.910   5.121  0.5742  1.5787 -1.0000
 8507SOL     OW37153   1.303   0.353  12.470 -0.4575  0.0075  0.4854
 8507SOL    HW137154   1.311   0.335  12.564  0.2814 -1.5182  0.1324
 8507SOL    HW237155   1.226   0.299  12.457 -0.3724 -0.2202  0.8988
 8508SOL     OW37156   0.557   4.219   7.643  0.5311 -0.1866 -0.0782
 8508SOL    HW137157   0.525   4.163   7.572  2.2295 -0.3416 -0.7112
 8508SOL    HW237158   0.537   4.310   7.621 -1.1934 -0.0899  1.9066
 8509SOL     OW37159   0.489   0.407   5.122 -0.0593  0.1452  0.2841
 8509SOL    HW137160   0.514   0.463   5.195  2.3811 -0.2535 -0.2486
 8509SOL    HW237161   0.567   0.416   5.068 -0.0533 -2.6595 -0.1768
 8510SOL     OW37162   0.100   3.123   2.684  0.0663 -0.2657 -0.0556
 8510SOL    HW137163   0.141   3.044   2.719  2.4483 -0.2083 -2.6990
 8510SOL    HW237164   0.009   3.098   2.695  0.2815  0.4001  3.3396
 8511SOL     OW37165   3.971   2.543   7.043 -0.3149 -0.0457 -0.4120
 8511SOL    HW137166   3.979   2.608   6.972 -0.4568  2.3723  1.7750
 8511SOL    HW237167   3.876   2.542   7.051 -0.1963  2.9443  1.6088
 8512SOL     OW37168   0.199   2.918   3.718 -0.2976 -0.1761  0.2063
 8512SOL    HW137169   0.133   2.881   3.776  0.2420 -1.2046  0.1732
 8512SOL    HW237170   0.167   2.902   3.629 -0.1555 -0.6387  0.2348
 8513SOL     OW37171   2.993   1.938   8.758 -0.1241  0.0902  0.2287
 8513SOL    HW137172   2.911   1.982   8.734  0.0055  0.7678  1.0157
 8513SOL    HW237173   3.025   1.981   8.837  0.7582 -0.3749  0.1204
 8514SOL     OW37174   4.705   2.548   8.538 -0.7165 -0.2344  0.2717
 8514SOL    HW137175   4.723   2.607   8.611  0.9130 -0.8104  0.3328
 8514SOL    HW237176   0.007   2.465   8.564  1.2722  0.2540 -1.1748
 8515SOL     OW37177   2.115   3.446   5.220 -0.3373 -0.0551 -0.1057
 8515SOL    HW137178   2.152   3.523   5.176  1.2438 -0.0411  1.2465
 8515SOL    HW237179   2.024   3.470   5.240  0.1516  0.4581  1.5092
 8516SOL     OW37180   0.687   1.859  16.492  0.9732  0.3241  0.2924
 8516SOL    HW137181   0.614   1.921  16.483  0.9693  0.1170 -1.0939
 8516SOL    HW237182   0.700   1.829  16.402  1.1889 -2.1300  1.1594
 8517SOL     OW37183   2.354   2.811   2.368  0.2609  0.1222 -0.6483
 8517SOL    HW137184   2.431   2.797   2.424 -0.7696 -2.4974  0.1135
 8517SOL    HW237185   2.301   2.732   2.380 -0.4326  0.4998 -1.2794
 8518SOL     OW37186   4.243   2.163   8.905  0.6733 -0.0115 -0.3291
 8518SOL    HW137187   4.181   2.119   8.964  1.3821  0.7456  0.9649
 8518SOL    HW237188   4.226   2.256   8.920 -0.5957 -0.7787  3.0638
 8519SOL     OW37189   3.742   0.782  15.356 -0.3262  0.7640  0.1602
 8519SOL    HW137190   3.789   0.860  15.387  0.6294  0.6263 -0.9571
 8519SOL    HW237191   3.674   0.818  15.300  0.0021  0.8950 -0.1576
 8520SOL     OW37192   2.635   2.474  10.571 -0.0364 -0.3860 -0.0191
 8520SOL    HW137193   2.655   2.450  10.480 -1.4525 -2.1263  0.1251
 8520SOL    HW237194   2.695   2.549  10.574 -1.5335  0.8114  0.1813
 8521SOL     OW37195   1.127   1.253   8.683 -0.1086 -0.7005 -0.2644
 8521SOL    HW137196   1.061   1.322   8.675  1.2568  0.6247 -0.0844
 8521SOL    HW237197   1.198   1.286   8.739 -1.5019 -0.6963  1.5043
 8522SOL     OW37198   4.131   1.724  16.460 -0.0994 -0.2258 -0.1930
 8522SOL    HW137199   4.137   1.636  16.497 -3.7802  0.2241  1.4956
 8522SOL    HW237200   4.197   1.775  16.506  0.9842 -2.3155  0.5437
 8523SOL     OW37201   2.663   1.245   7.347 -0.0737 -0.3037 -0.3416
 8523SOL    HW137202   2.589   1.228   7.406  0.5952  2.1788  1.2291
 8523SOL    HW237203   2.626   1.313   7.290 -2.7761 -1.5095 -0.0252
 8524SOL     OW37204   2.623   3.495   7.383 -0.1328  0.2870 -0.2745
 8524SOL    HW137205   2.585   3.576   7.418 -1.9590 -0.0738 -1.3640
 8524SOL    HW237206   2.552   3.437   7.410  1.0303 -0.8773  0.2535
 8525SOL     OW37207   0.796   0.986   5.796  0.8672  0.0366 -0.1768
 8525SOL    HW137208   0.823   0.895   5.787 -0.4572 -0.3406 -0.2037
 8525SOL    HW237209   0.702   0.975   5.801  1.0660 -0.6882  1.9582
 8526SOL     OW37210   0.052   4.056   7.518 -0.2152 -0.0536 -0.7479
 8526SOL    HW137211   0.040   3.990   7.450 -0.7603 -2.1842  1.4367
 8526SOL    HW237212   0.114   4.025   7.584  0.4605  0.1086 -1.3109
 8527SOL     OW37213   2.281   0.905   0.749  0.0881 -0.0430 -0.2252
 8527SOL    HW137214   2.301   0.812   0.764 -0.4247 -0.4819 -2.2275
 8527SOL    HW237215   2.257   0.932   0.838  0.0985  0.7867 -0.4762
 8528SOL     OW37216   3.217   2.895   7.808  0.2805 -0.2205 -0.1973
 8528SOL    HW137217   3.128   2.892   7.843  0.7025 -0.5083  0.8531
 8528SOL    HW237218   3.264   2.850   7.879 -0.3687 -2.2112 -1.0210
 8529SOL     OW37219   3.629   3.135   5.067 -0.7350  0.0063 -0.2280
 8529SOL    HW137220   3.646   3.046   5.097 -1.3600 -0.1704 -0.4161
 8529SOL    HW237221   3.633   3.179   5.153  0.9340 -0.8055  0.1009
 8530SOL     OW37222   1.163   3.345   8.921 -0.8368 -0.2838 -0.0244
 8530SOL    HW137223   1.239   3.391   8.955 -2.4824  1.3035  1.4846
 8530SOL    HW237224   1.206   3.281   8.864 -1.8579 -2.4602  1.6616
 8531SOL     OW37225   1.948   2.008   4.604 -0.5084  0.2567 -0.5199
 8531SOL    HW137226   1.944   2.091   4.652 -1.3743 -0.2166  0.2263
 8531SOL    HW237227   2.022   1.970   4.650 -1.4134 -0.3443  0.4494
 8532SOL     OW37228   0.768   2.346   7.081  0.1994  0.3044 -0.0210
 8532SOL    HW137229   0.749   2.256   7.055  0.5739  0.2134  0.0194
 8532SOL    HW237230   0.859   2.333   7.108  0.0669 -0.0529  0.2540
 8533SOL     OW37231   2.454   1.105   2.025 -0.0617 -0.2337  0.1835
 8533SOL    HW137232   2.409   1.146   2.099  0.3440 -0.1228  0.3727
 8533SOL    HW237233   2.532   1.148   2.060 -0.3567  1.7614 -1.5871
 8534SOL     OW37234   2.067   2.241  10.378  0.0871  0.0331  0.5529
 8534SOL    HW137235   2.089   2.169  10.319 -1.3484  0.3196 -0.3273
 8534SOL    HW237236   2.052   2.180  10.450 -1.5798 -1.8094 -1.3805
 8535SOL     OW37237   2.861   1.899  10.149  0.2131  0.1726 -0.4458
 8535SOL    HW137238   2.799   1.953  10.101  0.2117 -1.1942 -1.9818
 8535SOL    HW237239   2.932   1.958  10.175 -1.1532  1.7943 -0.4037
 8536SOL     OW37240   1.743   2.389   4.960 -0.5899  0.5990  0.5088
 8536SOL    HW137241   1.720   2.398   4.868 -1.5027 -0.4877  0.6251
 8536SOL    HW237242   1.794   2.470   4.965  0.2205  0.0117  1.6481
 8537SOL     OW37243   4.558   2.588   2.542  0.2188 -0.4140  0.1490
 8537SOL    HW137244   4.493   2.658   2.553 -0.7644 -1.2692 -0.2713
 8537SOL    HW237245   4.521   2.537   2.471 -0.0235  0.1379 -0.1219
 8538SOL     OW37246   3.835   0.582  14.686  0.1128  0.1293 -0.7147
 8538SOL    HW137247   3.918   0.560  14.729 -0.7551 -1.6633  0.0622
 8538SOL    HW237248   3.844   0.594  14.592 -1.4437  1.9408 -0.6191
 8539SOL     OW37249   3.455   3.708   5.366  0.0964  0.1940 -0.6521
 8539SOL    HW137250   3.382   3.693   5.426 -1.2733  1.4242 -2.0471
 8539SOL    HW237251   3.441   3.637   5.303 -2.0580 -0.5552  0.6927
 8540SOL     OW37252   4.675   2.883   1.789  0.3174 -0.2367  0.2596
 8540SOL    HW137253   0.028   2.854   1.788  0.5962  0.6790 -1.0667
 8540SOL    HW237254   4.631   2.822   1.730 -2.6990  1.1206  1.0768
 8541SOL     OW37255   1.493   4.513   2.610 -0.1502 -0.3504 -0.9123
 8541SOL    HW137256   1.406   4.524   2.649  0.6502 -0.9660  1.0312
 8541SOL    HW237257   1.537   4.583   2.659  0.0815 -0.9569 -0.2429
 8542SOL     OW37258   1.657   1.527   5.856  0.2507  0.0766 -0.1314
 8542SOL    HW137259   1.688   1.572   5.935 -1.9794 -2.4417  2.1616
 8542SOL    HW237260   1.581   1.584   5.843 -0.2319 -0.5757 -0.1111
 8543SOL     OW37261   1.884   2.599   6.280 -0.2392 -0.1433 -0.3791
 8543SOL    HW137262   1.853   2.682   6.316 -0.1043 -0.2659  0.0166
 8543SOL    HW237263   1.805   2.564   6.240  0.7234 -2.7344  0.0056
 8544SOL     OW37264   4.583   2.586   2.191  0.2486  0.4747 -0.0578
 8544SOL    HW137265   4.676   2.595   2.209 -0.1526  1.1269  1.7114
 8544SOL    HW237266   4.593   2.531   2.114  1.2689  1.6253 -0.7410
 8545SOL     OW37267   4.398   3.944   3.945 -0.2807 -0.1628 -0.7597
 8545SOL    HW137268   4.310   3.969   3.915 -0.1133  2.0404  0.5103
 8545SOL    HW237269   4.450   3.991   3.880  2.4546 -0.7624  0.9938
 8546SOL     OW37270   3.650   1.846   1.516 -0.8415 -0.2898  0.0627
 8546SOL    HW137271   3.705   1.909   1.564 -0.6355  0.3620 -1.0214
 8546SOL    HW237272   3.587   1.909   1.480  0.5207  0.0881 -1.7130
 8547SOL     OW37273   0.452   4.724   8.425  0.2424  0.3813  0.2668
 8547SOL    HW137274   0.450   0.048   8.499  0.5600  0.2396  0.3924
 8547SOL    HW237275   0.490   4.651   8.474  0.9543  1.3375  1.1357
 8548SOL     OW37276   0.535   2.336  15.889  0.3061  0.4878  0.0742
 8548SOL    HW137277   0.548   2.418  15.937 -1.3532  0.0211  1.3442
 8548SOL    HW237278   0.537   2.383  15.806  0.0080  1.6976  0.7516
 8549SOL     OW37279   3.646   0.316  13.687  0.7005  0.6774 -0.4344
 8549SOL    HW137280   3.635   0.269  13.770 -0.2221 -0.0855 -0.9866
 8549SOL    HW237281   3.739   0.335  13.693  1.0736 -1.0177 -0.7544
 8550SOL     OW37282   2.760   3.592   2.273  0.2895 -0.0898  0.1648
 8550SOL    HW137283   2.668   3.615   2.287  0.6085  1.2270  0.1399
 8550SOL    HW237284   2.797   3.677   2.249  1.2369 -1.2536 -2.4485
 8551SOL     OW37285   3.374   3.345  13.275 -0.2291 -0.4740  0.8980
 8551SOL    HW137286   3.400   3.279  13.211  0.9673  1.1124 -0.2457
 8551SOL    HW237287   3.366   3.288  13.351  1.1122 -0.0009  1.3925
 8552SOL     OW37288   4.444   2.665   4.710 -0.2705  0.5964 -0.0363
 8552SOL    HW137289   4.399   2.706   4.636 -0.0801  1.7537  0.4777
 8552SOL    HW237290   4.437   2.737   4.774 -1.7990  0.3233  0.1154
 8553SOL     OW37291   4.154   1.572  15.162  0.1166  0.0110  0.2013
 8553SOL    HW137292   4.219   1.531  15.105 -1.4441 -3.2701  0.7840
 8553SOL    HW237293   4.144   1.656  15.116 -2.6102 -0.9357 -0.9558
 8554SOL     OW37294   3.636   3.700  15.113 -0.1413 -0.1142  0.6291
 8554SOL    HW137295   3.592   3.634  15.167  0.1135 -1.4490 -0.8010
 8554SOL    HW237296   3.710   3.722  15.170  1.0384 -0.5173 -0.7587
 8555SOL     OW37297   1.544   0.950   5.731  0.4165  0.5653 -0.2909
 8555SOL    HW137298   1.572   1.041   5.722  0.7007  0.5705  0.6427
 8555SOL    HW237299   1.466   0.958   5.676  1.3968  1.6142 -1.5430
 8556SOL     OW37300   1.213   2.719   6.633 -0.6119  0.6329 -0.2390
 8556SOL    HW137301   1.222   2.645   6.574 -2.3176  1.1276 -1.1256
 8556SOL    HW237302   1.215   2.664   6.712  0.3014 -0.3047 -0.9163
 8557SOL     OW37303   1.083   1.230   7.107  0.4585 -0.3119  0.5877
 8557SOL    HW137304   1.021   1.263   7.042  2.2440  2.2772  0.1979
 8557SOL    HW237305   1.161   1.268   7.067 -0.1456  0.6844  0.3768
 8558SOL     OW37306   4.554   3.132   7.936  0.0854  0.2968  0.3317
 8558SOL    HW137307   4.485   3.168   7.992  1.1572  3.6160 -0.4845
 8558SOL    HW237308   4.618   3.101   8.001 -0.4365 -0.6757  0.3849
 8559SOL     OW37309   2.115   2.535   9.936  0.2566 -0.5057 -0.1382
 8559SOL    HW137310   2.135   2.569  10.023 -0.6765  3.1360 -1.3674
 8559SOL    HW237311   2.146   2.446   9.954 -0.2563 -0.6285  0.1333
 8560SOL     OW37312   0.967   0.959   1.432 -0.3853  0.5410  0.5590
 8560SOL    HW137313   1.036   1.023   1.449  0.3437 -0.1241  0.0967
 8560SOL    HW237314   0.891   1.018   1.428  0.6173  1.7893 -0.3953
 8561SOL     OW37315   0.372   2.147   1.096 -0.6004  0.4025 -0.8262
 8561SOL    HW137316   0.294   2.134   1.042 -0.9650  1.0110 -0.4379
 8561SOL    HW237317   0.435   2.129   1.026 -0.3631 -1.8958 -0.0116
 8562SOL     OW37318   4.245   0.638  17.430  0.2927 -0.1523  0.5969
 8562SOL    HW137319   4.162   0.592  17.426  0.3353 -0.3229  1.6083
 8562SOL    HW237320   4.299   0.584  17.488  0.1148 -0.3414  0.5866
 8563SOL     OW37321   0.732   0.241   6.979  0.2085  0.6599 -0.1575
 8563SOL    HW137322   0.693   0.277   7.058 -0.6363 -2.0276  0.6461
 8563SOL    HW237323   0.826   0.255   6.992 -0.0137 -0.3910  2.4838
 8564SOL     OW37324   2.068   2.262   7.698 -0.1080 -0.0463  0.8827
 8564SOL    HW137325   2.145   2.206   7.704 -0.7193 -0.9489  0.2270
 8564SOL    HW237326   2.102   2.325   7.762 -0.1569  1.8656 -0.9847
 8565SOL     OW37327   0.277   0.634   2.534  0.5388 -0.0384  0.2802
 8565SOL    HW137328   0.234   0.717   2.553  0.5880 -0.5141  2.4520
 8565SOL    HW237329   0.274   0.635   2.438 -0.5542  0.8623  0.3271
 8566SOL     OW37330   2.385   1.529   1.757  0.5602 -0.3995 -0.1757
 8566SOL    HW137331   2.297   1.565   1.748  0.8604  0.3118 -0.2516
 8566SOL    HW237332   2.375   1.435   1.740  1.3572 -0.1456 -2.0740
 8567SOL     OW37333   3.603   0.677   6.837  0.3901 -0.1256 -0.4049
 8567SOL    HW137334   3.580   0.749   6.896  2.3608 -0.3384  0.6302
 8567SOL    HW237335   3.636   0.736   6.769  0.2366  1.7227  1.1231
 8568SOL     OW37336   4.591   4.114   8.855 -0.5209 -0.0128  0.7341
 8568SOL    HW137337   4.543   4.112   8.773  1.3612 -0.4475 -0.3513
 8568SOL    HW237338   4.529   4.074   8.916 -2.0751  1.7757  0.3291
 8569SOL     OW37339   1.596   4.321   2.450  0.0391 -0.2992 -0.2480
 8569SOL    HW137340   1.573   4.392   2.510  0.7796 -0.9156  0.7535
 8569SOL    HW237341   1.603   4.361   2.363  2.3040 -2.2067 -0.9275
 8570SOL     OW37342   4.584   0.178   0.255 -0.2845 -0.5797 -0.6271
 8570SOL    HW137343   4.555   0.251   0.201 -2.1032 -0.7367  0.1591
 8570SOL    HW237344   4.671   0.211   0.280 -0.4657 -0.5122 -0.0814
 8571SOL     OW37345   0.362   0.681  13.969  0.5850  0.2419 -0.0028
 8571SOL    HW137346   0.338   0.654  13.880  3.4999 -1.3541 -0.2784
 8571SOL    HW237347   0.452   0.649  13.970 -0.2156 -1.9695  1.8352
 8572SOL     OW37348   2.733   1.346   6.022  0.2323 -0.3593  0.3783
 8572SOL    HW137349   2.724   1.392   6.105  2.5570  0.1893  0.3368
 8572SOL    HW237350   2.788   1.275   6.053  2.2805  1.5109  1.0719
 8573SOL     OW37351   1.234   4.305  14.124  0.4524  0.1697 -0.5994
 8573SOL    HW137352   1.187   4.339  14.047  1.2170 -2.0953 -2.0910
 8573SOL    HW237353   1.185   4.365  14.180 -0.8999 -2.4457  1.0234
 8574SOL     OW37354   4.336   3.655  16.875  0.3350  0.4142 -0.1067
 8574SOL    HW137355   4.291   3.739  16.870 -0.7751 -0.2542 -1.7266
 8574SOL    HW237356   4.371   3.654  16.964 -1.5748  1.9246  0.6629
 8575SOL     OW37357   2.966   1.223   5.537 -0.1960 -0.5885  0.3693
 8575SOL    HW137358   2.932   1.136   5.555  0.4187 -0.9735 -0.3620
 8575SOL    HW237359   2.925   1.273   5.608  1.2827  0.3417  0.5675
 8576SOL     OW37360   0.125   2.500   6.162 -0.6976 -0.2362 -0.7992
 8576SOL    HW137361   0.109   2.573   6.221  2.7784  0.0527 -0.2329
 8576SOL    HW237362   0.101   2.420   6.209 -0.4588 -0.0208 -0.3060
 8577SOL     OW37363   0.598   2.433  16.961  0.6134 -0.3106 -0.4614
 8577SOL    HW137364   0.677   2.381  16.945  1.4817  0.8360  0.1866
 8577SOL    HW237365   0.608   2.507  16.901  1.8451  0.1742  0.3444
 8578SOL     OW37366   0.317   1.074   7.757  0.5613  0.0165 -0.0593
 8578SOL    HW137367   0.359   0.988   7.763 -1.8308 -1.1471  0.0805
 8578SOL    HW237368   0.264   1.085   7.835 -1.3452  0.7456 -1.4801
 8579SOL     OW37369   0.110   1.983  16.844 -1.0747  0.0587  0.7911
 8579SOL    HW137370   0.105   2.066  16.796 -1.6880 -1.2637 -1.4619
 8579SOL    HW237371   0.179   1.995  16.909 -0.4980  0.9409  0.0164
 8580SOL     OW37372   3.189   0.833   4.643  0.6764  0.2576 -0.0560
 8580SOL    HW137373   3.234   0.889   4.706 -1.3014  0.5353  1.1036
 8580SOL    HW237374   3.107   0.873   4.614  0.9534  1.6285  1.0752
 8581SOL     OW37375   1.754   3.743  13.270 -0.6143 -0.2257  0.1394
 8581SOL    HW137376   1.782   3.831  13.296 -1.4858  0.5625 -1.6047
 8581SOL    HW237377   1.840   3.710  13.244 -0.2192  1.3029 -0.5125
 8582SOL     OW37378   4.058   3.442   1.501  0.2359 -0.1049  0.0677
 8582SOL    HW137379   3.980   3.422   1.449  0.8982 -0.8259 -0.6517
 8582SOL    HW237380   4.085   3.530   1.478  0.9560 -0.2910  0.2052
 8583SOL     OW37381   4.197   0.687   7.634 -0.2560 -0.9783 -0.2222
 8583SOL    HW137382   4.270   0.685   7.696 -1.1782  3.2483  1.0109
 8583SOL    HW237383   4.143   0.610   7.656  0.1534 -1.0911  0.3893
 8584SOL     OW37384   0.871   0.767  13.525  0.6672 -0.4353  0.1369
 8584SOL    HW137385   0.779   0.787  13.509  0.8686  0.1533 -0.2501
 8584SOL    HW237386   0.907   0.783  13.438 -0.3301  0.3269 -0.1407
 8585SOL     OW37387   0.438   3.439   0.890 -0.0377 -0.0111  0.0211
 8585SOL    HW137388   0.466   3.510   0.832  0.5406  0.4537  0.8544
 8585SOL    HW237389   0.526   3.409   0.914  1.1271  2.4781 -1.0495
 8586SOL     OW37390   1.492   4.133   8.600 -0.0144 -0.5575  0.3227
 8586SOL    HW137391   1.440   4.057   8.573  0.5345 -0.7754 -0.1159
 8586SOL    HW237392   1.426   4.190   8.639 -3.6603 -3.8324 -1.0250
 8587SOL     OW37393   2.433   1.088   4.817  0.8059 -0.2804  0.0635
 8587SOL    HW137394   2.402   1.071   4.905 -0.3845  2.2196  0.1198
 8587SOL    HW237395   2.476   1.172   4.834  0.0731 -0.1927  1.4666
 8588SOL     OW37396   0.824   1.950  11.696 -0.0972 -0.8303  0.0950
 8588SOL    HW137397   0.738   1.909  11.699 -1.0103  1.1536  1.0621
 8588SOL    HW237398   0.872   1.892  11.637  1.2098  0.9674 -0.6172
 8589SOL     OW37399   0.004   2.346  13.091 -0.0175 -0.3117 -0.1900
 8589SOL    HW137400   0.043   2.431  13.068  0.0573 -0.0501  0.9260
 8589SOL    HW237401   0.044   2.289  13.025  1.3980 -0.5621  0.8781
 8590SOL     OW37402   1.373   1.527   2.735  0.3526  0.3374  0.5545
 8590SOL    HW137403   1.376   1.434   2.710 -0.7822 -0.3855  3.0982
 8590SOL    HW237404   1.295   1.528   2.791  0.4139  1.1846  0.6146
 8591SOL     OW37405   2.127   3.582   4.560  0.0430 -0.3324 -0.0764
 8591SOL    HW137406   2.139   3.561   4.467  1.3014 -0.1789  0.0548
 8591SOL    HW237407   2.057   3.648   4.553  0.7901  0.5277  0.5649
 8592SOL     OW37408   3.560   3.547   7.952  0.1156 -0.5967  0.5692
 8592SOL    HW137409   3.557   3.641   7.964 -1.8772 -0.5480 -0.4153
 8592SOL    HW237410   3.538   3.543   7.859 -0.6461 -2.6376  0.8180
 8593SOL     OW37411   4.211   4.496   5.179  0.4217 -0.2964 -0.7313
 8593SOL    HW137412   4.286   4.553   5.166  0.0203  0.1242 -1.2278
 8593SOL    HW237413   4.156   4.551   5.236  1.4558 -0.2238  0.1789
 8594SOL     OW37414   3.556   4.576  12.841 -0.2545 -0.3890 -0.1921
 8594SOL    HW137415   3.609   4.496  12.833  4.3100  2.7511 -1.4369
 8594SOL    HW237416   3.505   4.561  12.921  0.1506  0.5496  0.2377
 8595SOL     OW37417   1.201   0.968   3.193 -0.0102 -0.3455 -0.0097
 8595SOL    HW137418   1.158   1.051   3.173  0.0165 -0.1910  0.5814
 8595SOL    HW237419   1.291   0.999   3.185 -0.4757 -0.0637 -4.1745
 8596SOL     OW37420   3.756   3.944  14.841  0.1872  0.3056  0.5363
 8596SOL    HW137421   3.799   3.861  14.820  1.5012  1.1504 -0.0944
 8596SOL    HW237422   3.818   3.986  14.900 -1.2212  1.2188  1.3434
 8597SOL     OW37423   2.597   3.477   6.925  0.2379  0.1012 -0.0891
 8597SOL    HW137424   2.546   3.456   7.003 -0.6534 -0.4541 -0.8328
 8597SOL    HW237425   2.526   3.512   6.872  0.7787  0.8657 -0.3200
 8598SOL     OW37426   2.119   2.812   6.580  0.1269 -0.4169 -0.4415
 8598SOL    HW137427   2.089   2.886   6.527  0.5166  1.6785  2.2477
 8598SOL    HW237428   2.048   2.747   6.585  0.4524 -0.8674 -1.7094
 8599SOL     OW37429   4.087   2.883  16.800 -0.2503  0.2622 -0.1941
 8599SOL    HW137430   4.099   2.957  16.859  0.9597 -0.5788  0.6108
 8599SOL    HW237431   4.054   2.812  16.853  1.5497  1.7134  2.8643
 8600SOL     OW37432   0.432   0.073  11.410 -0.4642  0.7263 -0.1070
 8600SOL    HW137433   0.493   0.146  11.398 -0.3165  0.7156  0.5270
 8600SOL    HW237434   0.480   4.728  11.406 -1.4928  0.0320  1.4974
 8601SOL     OW37435   4.303   0.203   5.198  0.1215  0.2646  0.4216
 8601SOL    HW137436   4.344   0.283   5.168  0.5776 -0.6640 -1.4263
 8601SOL    HW237437   4.268   0.171   5.115 -2.0944  1.2218  0.9882
 8602SOL     OW37438   0.888   3.753   8.399  0.1882  0.2532 -0.8692
 8602SOL    HW137439   0.869   3.846   8.414 -2.7121 -0.6116  0.7671
 8602SOL    HW237440   0.952   3.741   8.469  0.8085 -0.4390 -1.5637
 8603SOL     OW37441   1.428   3.832   5.071 -0.0714  0.1311  1.0293
 8603SOL    HW137442   1.508   3.856   5.025 -0.0895  0.6807  1.2831
 8603SOL    HW237443   1.461   3.777   5.141 -2.9824 -1.3852  1.2500
 8604SOL     OW37444   3.124   2.898   3.159  0.3406  0.4654  0.7632
 8604SOL    HW137445   3.065   2.889   3.234 -0.6802  1.0827  0.0233
 8604SOL    HW237446   3.155   2.988   3.153 -0.2689  0.8189  2.9004
 8605SOL     OW37447   0.314   1.937   8.698 -0.6665 -0.2327  0.5726
 8605SOL    HW137448   0.384   1.919   8.634 -0.1092 -1.6956  1.5979
 8605SOL    HW237449   0.250   1.976   8.638  0.9198  0.4709 -0.7089
 8606SOL     OW37450   2.667   3.428   5.405  0.0057 -0.4143  0.5332
 8606SOL    HW137451   2.627   3.506   5.444  0.3746 -0.6475  1.3967
 8606SOL    HW237452   2.596   3.371   5.378 -0.6772 -0.2235  1.9085
 8607SOL     OW37453   4.570   1.562   4.266  0.4833  0.8883 -0.5609
 8607SOL    HW137454   4.601   1.653   4.261 -0.6857  1.4892  2.7765
 8607SOL    HW237455   4.652   1.515   4.273  0.3057  0.4226 -1.7259
 8608SOL     OW37456   0.495   4.667   0.637 -0.1361 -0.5680  0.0744
 8608SOL    HW137457   0.574   4.626   0.674 -0.9416 -0.6623  1.6832
 8608SOL    HW237458   0.529   0.001   0.583 -0.4254 -1.1058 -0.8107
 8609SOL     OW37459   2.209   0.638   5.540  0.5634  0.2156  0.1378
 8609SOL    HW137460   2.250   0.705   5.595  1.0669 -1.9030  2.3290
 8609SOL    HW237461   2.151   0.598   5.606  1.3839  0.4218  0.9803
 8610SOL     OW37462   0.837   2.815   1.187  0.2653  0.2154 -0.0706
 8610SOL    HW137463   0.893   2.818   1.110 -1.2477  1.3215 -1.1282
 8610SOL    HW237464   0.753   2.808   1.142 -0.7465  3.5033  1.3406
 8611SOL     OW37465   3.763   2.485  10.775  0.7656  0.1463 -0.0879
 8611SOL    HW137466   3.687   2.539  10.752  0.1356 -0.8898 -0.4173
 8611SOL    HW237467   3.732   2.403  10.738  2.3728 -1.2766  1.7612
 8612SOL     OW37468   1.002   3.879   6.625 -0.4957 -0.2627  0.1996
 8612SOL    HW137469   1.049   3.924   6.554 -0.4398 -0.7364 -0.0634
 8612SOL    HW237470   1.016   3.787   6.603 -0.0294  0.3316 -2.1040
 8613SOL     OW37471   0.310   0.616   0.596 -0.4765 -0.1044  0.4217
 8613SOL    HW137472   0.246   0.672   0.640 -0.8608 -0.9594  0.9456
 8613SOL    HW237473   0.299   0.532   0.640 -0.0112 -0.0456  0.6606
 8614SOL     OW37474   3.396   3.777   3.929  0.1245 -0.0036  0.2699
 8614SOL    HW137475   3.397   3.846   3.862  1.4740 -0.9487 -0.6911
 8614SOL    HW237476   3.354   3.818   4.004 -1.7919 -0.4631 -0.5648
 8615SOL     OW37477   0.716   2.400   2.221  0.3828 -0.1801  0.2071
 8615SOL    HW137478   0.704   2.305   2.221  3.1042 -0.5367  2.0202
 8615SOL    HW237479   0.701   2.404   2.315 -0.0984 -2.4385  0.2227
 8616SOL     OW37480   4.622   1.833   4.241 -0.2739  0.0388  0.5901
 8616SOL    HW137481   4.594   1.869   4.157  3.2527 -0.5584 -0.8293
 8616SOL    HW237482   4.554   1.866   4.300  0.7293 -0.4906  2.0228
 8617SOL     OW37483   0.423   0.354   7.364  0.5722 -0.0428  0.2489
 8617SOL    HW137484   0.388   0.265   7.376 -1.1209  0.6528  0.3611
 8617SOL    HW237485   0.349   0.412   7.378  0.4650 -0.4345  1.2696
 8618SOL     OW37486   3.124   1.576  11.017 -0.3682 -0.3686 -0.3549
 8618SOL    HW137487   3.048   1.614  11.060  0.1479  0.6214 -0.3159
 8618SOL    HW237488   3.147   1.513  11.086 -0.6173 -0.3176 -0.2256
 8619SOL     OW37489   0.951   3.956   2.493 -0.6297 -0.2178  0.1857
 8619SOL    HW137490   0.889   4.026   2.515  0.6670  1.3373 -1.0762
 8619SOL    HW237491   1.027   3.974   2.548 -0.9096 -0.8276  0.7747
 8620SOL     OW37492   0.532   2.170  12.753 -0.5601  0.0700 -0.0586
 8620SOL    HW137493   0.466   2.237  12.768 -0.1404  0.7282 -1.1531
 8620SOL    HW237494   0.542   2.140  12.844 -0.5737 -2.2383 -0.8129
 8621SOL     OW37495   2.896   3.292   1.798 -0.0215  0.5031  0.1527
 8621SOL    HW137496   2.920   3.351   1.726 -0.0185 -1.4042 -1.4072
 8621SOL    HW237497   2.962   3.305   1.867 -0.6481  0.0027  0.8416
 8622SOL     OW37498   0.094   0.425   2.953  0.0514  0.0923  0.1609
 8622SOL    HW137499   0.069   0.336   2.929 -0.8458  0.4199 -0.1118
 8622SOL    HW237500   0.121   0.454   2.866  1.8128 -2.5134 -0.1583
 8623SOL     OW37501   1.717   0.957   5.465 -0.5017 -0.2140  0.1959
 8623SOL    HW137502   1.791   0.933   5.521 -1.6537 -2.6285  0.6737
 8623SOL    HW237503   1.657   0.998   5.527  1.5932  2.1501  0.6970
 8624SOL     OW37504   3.310   2.061  13.591 -0.0484 -0.7691 -0.2361
 8624SOL    HW137505   3.282   1.970  13.603  2.1204 -1.6573 -1.7536
 8624SOL    HW237506   3.270   2.105  13.666  1.4913 -1.5381  1.0516
 8625SOL     OW37507   4.605   1.914   2.211  0.0799  0.6287  0.3490
 8625SOL    HW137508   4.617   1.889   2.303 -0.0913  1.3100  0.5582
 8625SOL    HW237509   4.556   1.996   2.216 -1.7905 -0.5164  0.9862
 8626SOL     OW37510   4.730   2.975  10.001 -0.7909 -0.5546  0.0401
 8626SOL    HW137511   0.050   3.018  10.065 -0.0457  0.3324 -1.2398
 8626SOL    HW237512   4.706   3.048   9.944 -0.1902 -0.5423 -0.1931
 8627SOL     OW37513   1.096   1.879   3.691  0.3847  0.5412 -0.2380
 8627SOL    HW137514   1.110   1.799   3.640  0.7222 -0.3619  1.2600
 8627SOL    HW237515   1.123   1.857   3.780  1.7023  1.7042 -0.3468
 8628SOL     OW37516   2.162   3.496   3.799  0.3233  0.2588 -0.3903
 8628SOL    HW137517   2.258   3.498   3.794  0.2589 -1.4223 -2.0847
 8628SOL    HW237518   2.157   3.432   3.728  1.8559  0.5705 -0.7773
 8629SOL     OW37519   2.757   0.753   7.956  0.5995  0.3389 -0.0114
 8629SOL    HW137520   2.753   0.836   7.907  0.3492  0.9772  1.0966
 8629SOL    HW237521   2.808   0.704   7.892  0.6662  1.8228 -1.1071
 8630SOL     OW37522   1.789   0.699  14.567  0.8333  0.4172  0.0637
 8630SOL    HW137523   1.876   0.710  14.606  0.9174  0.1706 -0.0606
 8630SOL    HW237524   1.757   0.784  14.598 -2.0103 -0.5301 -0.3027
 8631SOL     OW37525   4.447   3.797   2.317 -0.0755  0.0860 -0.2423
 8631SOL    HW137526   4.464   3.735   2.388  0.2961 -0.7207 -1.0432
 8631SOL    HW237527   4.387   3.742   2.267 -0.6158 -0.0348  0.5335
 8632SOL     OW37528   1.216   4.391  12.957  0.3754  0.1739 -0.0967
 8632SOL    HW137529   1.192   4.483  12.963 -0.5027  0.2962 -5.3897
 8632SOL    HW237530   1.305   4.391  12.992  1.3357 -3.4834 -2.5196
 8633SOL     OW37531   1.281   0.089   7.992  0.4255 -0.3458 -0.1152
 8633SOL    HW137532   1.315   0.162   8.045 -2.5936  1.1745 -0.2741
 8633SOL    HW237533   1.355   0.031   8.007  0.5087 -0.4184 -0.7977
 8634SOL     OW37534   1.178   2.339  12.959  0.3201  0.4716  1.0116
 8634SOL    HW137535   1.104   2.279  12.962  2.6031 -2.3588  0.2259
 8634SOL    HW237536   1.148   2.395  12.887  1.1353  0.3277  0.5649
 8635SOL     OW37537   3.023   0.682   7.567  0.4105 -0.6509  0.5834
 8635SOL    HW137538   3.098   0.681   7.507 -1.2269 -0.9714 -1.4645
 8635SOL    HW237539   2.949   0.704   7.510  2.7872  2.1025 -1.4562
 8636SOL     OW37540   1.236   4.575   6.400  0.0952  0.1834 -0.6796
 8636SOL    HW137541   1.298   4.636   6.440 -2.4639  1.5639  1.1904
 8636SOL    HW237542   1.293   4.506   6.365  0.1924 -0.4557  0.7262
 8637SOL     OW37543   0.260   2.502   2.568  0.0050 -0.5846 -0.0225
 8637SOL    HW137544   0.181   2.528   2.614 -0.2698  0.3447 -1.0158
 8637SOL    HW237545   0.299   2.587   2.550 -0.6581 -0.1268  0.7480
 8638SOL     OW37546   4.097   3.249   6.650  0.6676 -1.0308  0.3063
 8638SOL    HW137547   4.137   3.336   6.650 -1.1982 -0.1702 -0.1076
 8638SOL    HW237548   4.155   3.203   6.710  1.1850 -0.0065  0.5841
 8639SOL     OW37549   2.919   1.453   4.461 -0.1925 -0.3595  0.2272
 8639SOL    HW137550   2.990   1.516   4.473 -3.1393  2.9238  0.9099
 8639SOL    HW237551   2.967   1.373   4.443 -0.7376 -1.3444  3.1136
 8640SOL     OW37552   2.692   2.608   4.362 -1.0515  0.2222  0.4721
 8640SOL    HW137553   2.746   2.624   4.440 -1.6492 -0.5929  1.0538
 8640SOL    HW237554   2.723   2.679   4.305 -0.0240 -0.8020 -0.2468
 8641SOL     OW37555   4.267   1.804   6.682 -0.5502  0.1665  0.3442
 8641SOL    HW137556   4.330   1.740   6.715  0.4393  0.8056 -0.2833
 8641SOL    HW237557   4.327   1.866   6.640 -0.2567 -0.5530 -0.2942
 8642SOL     OW37558   1.855   0.588   4.463 -0.1536  0.0458 -0.4579
 8642SOL    HW137559   1.825   0.668   4.420  0.7494  1.4242  1.4757
 8642SOL    HW237560   1.805   0.587   4.545 -0.8829 -0.3362 -0.9055
 8643SOL     OW37561   0.187   3.792   3.453 -0.5344  0.0404  0.2794
 8643SOL    HW137562   0.116   3.735   3.422 -1.5288  1.7410 -0.5674
 8643SOL    HW237563   0.181   3.757   3.542 -0.6426 -1.2119 -0.2158
 8644SOL     OW37564   1.484   2.577   5.814  0.2538  0.2147  0.0910
 8644SOL    HW137565   1.499   2.562   5.721  2.3999  0.1105  0.4628
 8644SOL    HW237566   1.425   2.652   5.806 -2.1618 -1.5312  1.5392
 8645SOL     OW37567   1.199   0.753  14.400 -0.0857  0.0574 -0.3169
 8645SOL    HW137568   1.190   0.786  14.311 -0.4901  0.7375 -0.0198
 8645SOL    HW237569   1.153   0.670  14.387  1.2724 -1.1178  2.1781
 8646SOL     OW37570   2.939   2.969   9.040  0.2472 -0.0451  0.5754
 8646SOL    HW137571   2.865   3.028   9.023 -0.2996 -1.7292 -2.7837
 8646SOL    HW237572   3.017   3.025   9.047 -0.0981  0.4274  0.6854
 8647SOL     OW37573   2.890   2.653   4.544 -0.3862  0.6652 -0.5453
 8647SOL    HW137574   2.891   2.634   4.638 -0.1664 -0.9846 -0.8779
 8647SOL    HW237575   2.975   2.615   4.521  0.1575  0.0188  2.5184
 8648SOL     OW37576   0.250   4.026   8.276  0.0566  0.0496 -0.2587
 8648SOL    HW137577   0.232   4.112   8.314 -0.4574 -0.0882 -0.1811
 8648SOL    HW237578   0.253   4.053   8.184  1.0347  2.0024  0.3446
 8649SOL     OW37579   2.492   3.552   5.687  1.0225  0.0502  0.3284
 8649SOL    HW137580   2.482   3.457   5.683 -0.7259  0.2761 -0.3992
 8649SOL    HW237581   2.401   3.581   5.688  1.1398  0.3830  1.4828
 8650SOL     OW37582   2.800   3.046   3.354  0.5562 -0.0103 -0.1659
 8650SOL    HW137583   2.772   3.039   3.262  2.0686 -1.4550 -0.5207
 8650SOL    HW237584   2.852   2.966   3.357  1.1815  0.4835  2.3658
 8651SOL     OW37585   3.726   2.271   4.875  0.3335  0.1022  0.3742
 8651SOL    HW137586   3.795   2.320   4.831  0.0785  1.2202  1.2085
 8651SOL    HW237587   3.746   2.294   4.966  1.2206 -1.1092  0.4772
 8652SOL     OW37588   1.131   2.472   3.249 -0.3143  0.3459 -0.5486
 8652SOL    HW137589   1.082   2.553   3.235 -2.6250 -0.9187  0.2613
 8652SOL    HW237590   1.152   2.431   3.165 -0.4316  0.2557 -0.5340
 8653SOL     OW37591   1.425   1.705   3.675 -0.3691 -0.0674  0.4924
 8653SOL    HW137592   1.483   1.780   3.665  2.0918 -1.8303  1.4869
 8653SOL    HW237593   1.404   1.717   3.767 -0.8246  1.3765  0.1896
 8654SOL     OW37594   4.558   3.437   5.857  0.2669 -0.6049 -0.2098
 8654SOL    HW137595   4.474   3.413   5.895  0.7923  1.4635  2.2697
 8654SOL    HW237596   4.613   3.359   5.860  1.0129  0.0124  2.1024
 8655SOL     OW37597   1.677   2.238   4.682  0.0089  0.3081  1.0271
 8655SOL    HW137598   1.678   2.212   4.590  0.3604 -0.6531  1.2986
 8655SOL    HW237599   1.603   2.297   4.693  0.1002  0.4969  0.6275
 8656SOL     OW37600   1.154   4.362   9.602 -0.0943 -0.3333  0.7130
 8656SOL    HW137601   1.164   4.287   9.544  0.7476  1.3103 -1.2391
 8656SOL    HW237602   1.130   4.313   9.681 -2.4155  1.9525  1.4334
 8657SOL     OW37603   2.201   0.501   3.297 -0.4141 -0.6021  0.0290
 8657SOL    HW137604   2.113   0.532   3.319  0.0593  1.2131 -0.6760
 8657SOL    HW237605   2.187   0.411   3.327 -1.4285 -0.1847  0.8294
 8658SOL     OW37606   4.385   2.613   6.346  0.2924  0.1783  0.1397
 8658SOL    HW137607   4.467   2.651   6.379  0.3115 -0.5827  0.9785
 8658SOL    HW237608   4.316   2.677   6.364 -0.8395 -1.6349  2.2566
 8659SOL     OW37609   3.765   1.695  15.712  0.8292 -0.7816  0.3853
 8659SOL    HW137610   3.687   1.715  15.660  0.6874  1.3065  1.3832
 8659SOL    HW237611   3.825   1.704  15.637 -1.5876  2.1457 -1.1816
 8660SOL     OW37612   2.667   4.677   7.346 -0.5360 -0.5256 -0.2112
 8660SOL    HW137613   2.615   4.631   7.412 -1.5666  1.9314  0.6808
 8660SOL    HW237614   2.741   4.693   7.405  1.4069 -1.7384 -2.3160
 8661SOL     OW37615   4.483   3.864   7.821 -0.2899 -0.1332  0.1456
 8661SOL    HW137616   4.424   3.826   7.756 -0.2537 -0.2309  0.1693
 8661SOL    HW237617   4.565   3.814   7.816  0.5716  1.1799  0.8404
 8662SOL     OW37618   3.106   0.256   2.961 -0.2367 -0.0853  0.4621
 8662SOL    HW137619   3.047   0.202   2.909  0.6418  1.0625 -1.7115
 8662SOL    HW237620   3.073   0.232   3.048 -0.5368 -0.1238  0.3373
 8663SOL     OW37621   0.459   0.955   4.894  0.3214 -0.7478 -0.0943
 8663SOL    HW137622   0.423   0.910   4.970  0.6559 -1.0121 -0.0929
 8663SOL    HW237623   0.478   0.884   4.833  1.7388 -1.0808  0.7363
 8664SOL     OW37624   0.961   4.684   8.468  0.0131  0.0792  0.1348
 8664SOL    HW137625   1.035   4.650   8.518  0.3959  2.1053  0.9375
 8664SOL    HW237626   0.908   4.719   8.539 -0.8172 -0.4426 -0.2215
 8665SOL     OW37627   0.675   3.894  13.439  0.4319  0.1060 -0.7049
 8665SOL    HW137628   0.765   3.923  13.453  0.3768  0.0227 -0.1800
 8665SOL    HW237629   0.620   3.955  13.488 -1.9867 -1.5740 -1.3366
 8666SOL     OW37630   2.937   4.193   2.139  0.4455 -0.4485 -0.2403
 8666SOL    HW137631   3.009   4.252   2.158  0.4425 -0.1642 -1.1073
 8666SOL    HW237632   2.938   4.151   2.225  0.0792 -0.2464 -0.1355
 8667SOL     OW37633   2.384   3.585   6.772 -0.0848 -0.0665  0.4448
 8667SOL    HW137634   2.350   3.582   6.683  0.8197  0.9569  0.0752
 8667SOL    HW237635   2.322   3.640   6.819 -0.1037  1.9508 -1.9676
 8668SOL     OW37636   3.301   4.631  15.293  0.1888  0.4460 -0.0496
 8668SOL    HW137637   3.372   4.585  15.248 -0.6758 -1.8612  0.9904
 8668SOL    HW237638   3.348   4.714  15.302 -1.7956  1.6138 -0.4506
 8669SOL     OW37639   3.791   4.538   1.563  0.3300 -0.2527 -0.6221
 8669SOL    HW137640   3.773   4.445   1.580  1.5834 -0.7332 -1.9596
 8669SOL    HW237641   3.717   4.555   1.505 -0.5417  1.9442  1.1390
 8670SOL     OW37642   0.819   2.538   4.636  0.6237 -0.2027  0.1322
 8670SOL    HW137643   0.748   2.601   4.650  0.3010 -0.0519 -2.0743
 8670SOL    HW237644   0.887   2.593   4.673  0.3767 -0.0864  0.4106
 8671SOL     OW37645   0.663   4.318  17.389  0.2056  0.3325  0.1579
 8671SOL    HW137646   0.687   4.410  17.403  3.6180 -0.2538 -1.9171
 8671SOL    HW237647   0.709   4.306  17.306  2.0875  1.4314  1.0324
 8672SOL     OW37648   0.370   2.827   5.130  0.0272 -0.0123 -0.2072
 8672SOL    HW137649   0.419   2.877   5.065  1.2621 -1.1374 -0.1319
 8672SOL    HW237650   0.395   2.738   5.108 -0.2305 -0.9441  3.1241
 8673SOL     OW37651   1.515   1.153   2.268 -0.4461 -0.2227  0.6226
 8673SOL    HW137652   1.575   1.138   2.341  0.9651  1.9596 -0.0849
 8673SOL    HW237653   1.491   1.244   2.287  0.5716  0.0979  0.3771
 8674SOL     OW37654   0.825   0.032   7.844  0.5852  0.6387 -0.1531
 8674SOL    HW137655   0.739   0.052   7.882  1.1677  0.2115  1.3835
 8674SOL    HW237656   0.887   0.067   7.908 -1.0233 -0.3505  1.9382
 8675SOL     OW37657   4.692   4.670   8.321  0.2965 -0.7114 -0.2794
 8675SOL    HW137658   4.716   4.694   8.231 -1.9289  0.1064 -0.6538
 8675SOL    HW237659   4.674   4.576   8.312 -0.3261 -0.4708 -1.6104
 8676SOL     OW37660   0.177   0.454   6.008 -0.1285  0.3193  0.4063
 8676SOL    HW137661   0.116   0.404   5.953  0.1561 -0.7453  1.0562
 8676SOL    HW237662   0.138   0.431   6.092 -1.4071 -0.0876 -0.2836
 8677SOL     OW37663   2.371   0.182  10.793  0.0046  0.3172  0.3786
 8677SOL    HW137664   2.317   0.247  10.839 -1.1568 -1.0426  0.9449
 8677SOL    HW237665   2.310   0.164  10.722  1.3508 -0.1262 -0.6553
 8678SOL     OW37666   1.819   4.161  10.825  0.0419  0.2419  0.3576
 8678SOL    HW137667   1.726   4.185  10.830  0.5528  2.2726 -0.0723
 8678SOL    HW237668   1.824   4.162  10.730 -3.6339 -2.5714  0.1355
 8679SOL     OW37669   0.796   3.528   6.224 -0.2912 -0.0993  0.0400
 8679SOL    HW137670   0.781   3.604   6.167 -1.5587 -1.0719 -0.9225
 8679SOL    HW237671   0.792   3.554   6.316  2.0963  1.6376 -0.3412
 8680SOL     OW37672   1.366   4.654   6.953 -0.0029  0.5323 -0.8471
 8680SOL    HW137673   1.295   4.654   6.889 -0.4425  1.1196 -0.3559
 8680SOL    HW237674   1.318   4.672   7.033 -0.8264  0.4482 -1.3250
 8681SOL     OW37675   0.408   4.575   7.836  0.3466  0.3505  0.0016
 8681SOL    HW137676   0.434   4.528   7.914 -1.3597 -2.4763 -1.1535
 8681SOL    HW237677   0.448   4.660   7.854  1.3186 -0.6223  2.4359
 8682SOL     OW37678   1.122   3.860   6.890  0.2918 -0.4667  0.1897
 8682SOL    HW137679   1.033   3.825   6.899 -0.5601  1.5147 -0.5464
 8682SOL    HW237680   1.125   3.858   6.794  0.5534  2.7754  0.1113
 8683SOL     OW37681   1.802   4.629   6.928  0.2997  0.3478  0.2272
 8683SOL    HW137682   1.889   4.652   6.894  0.0986  0.3769 -0.2750
 8683SOL    HW237683   1.819   4.535   6.933  1.2330  0.5712  1.2455
 8684SOL     OW37684   2.618   1.828   6.212 -0.3935 -0.4365  0.2092
 8684SOL    HW137685   2.663   1.874   6.142  0.7784  0.7067  1.7292
 8684SOL    HW237686   2.537   1.878   6.220  0.0420  0.3547 -0.3540
 8685SOL     OW37687   2.319   2.832   0.383  0.2201  0.1163  0.5603
 8685SOL    HW137688   2.293   2.868   0.299 -1.0431  0.0812  0.9373
 8685SOL    HW237689   2.410   2.862   0.384  0.0670  0.6821 -2.6687
 8686SOL     OW37690   1.963   0.081   7.352 -0.1596  0.9042  0.6822
 8686SOL    HW137691   2.020   0.031   7.293 -0.2800  0.9743  0.5070
 8686SOL    HW237692   1.979   0.173   7.328 -1.7775  1.0937  0.3006
 8687SOL     OW37693   2.343   1.970   8.114  0.1560 -0.6333  0.2450
 8687SOL    HW137694   2.338   1.878   8.140 -1.3837 -0.9970 -1.3113
 8687SOL    HW237695   2.267   2.008   8.158  1.7290  2.9751 -0.0897
 8688SOL     OW37696   0.338   2.956   8.196 -0.1970  0.0568 -0.3791
 8688SOL    HW137697   0.431   2.947   8.175 -0.0552  1.0410 -0.1556
 8688SOL    HW237698   0.334   3.029   8.258 -0.4310  1.6062 -2.2318
 8689SOL     OW37699   3.433   2.536  14.797  0.0944 -0.0615  0.6323
 8689SOL    HW137700   3.389   2.515  14.880 -0.5230  0.1161  0.3571
 8689SOL    HW237701   3.414   2.460  14.742  2.0749  0.9763 -1.4555
 8690SOL     OW37702   3.670   2.950   1.640 -0.2418  0.0244  0.3859
 8690SOL    HW137703   3.636   3.036   1.663  1.2301  0.6806  0.0990
 8690SOL    HW237704   3.754   2.956   1.687  0.2447  3.5466 -0.9900
 8691SOL     OW37705   0.605   0.571   5.306  0.3165 -0.8597  0.3344
 8691SOL    HW137706   0.631   0.654   5.345  0.2039 -0.1553 -1.0622
 8691SOL    HW237707   0.670   0.505   5.331  0.9455 -0.7415 -0.9998
 8692SOL     OW37708   0.699   3.215   8.081 -0.0541 -0.2578  0.4025
 8692SOL    HW137709   0.736   3.142   8.131  2.4191  1.3081  0.8262
 8692SOL    HW237710   0.738   3.297   8.110 -0.0216  0.3923 -1.5517
 8693SOL     OW37711   1.169   3.882   5.010  0.1566  0.3219  0.3180
 8693SOL    HW137712   1.187   3.968   4.972 -2.3859  1.1043  0.8400
 8693SOL    HW237713   1.257   3.865   5.042  0.2730  1.8695  0.8202
 8694SOL     OW37714   2.342   4.489   4.180  0.0414  0.1216  0.5229
 8694SOL    HW137715   2.363   4.463   4.270 -0.0335 -3.1070 -0.3803
 8694SOL    HW237716   2.388   4.414   4.141 -3.2002 -2.0561  0.9164
 8695SOL     OW37717   2.949   3.634   2.520 -0.2227 -0.1397  0.3333
 8695SOL    HW137718   3.019   3.698   2.534  2.2038 -3.0752  1.5484
 8695SOL    HW237719   2.942   3.626   2.425 -2.3954  1.5011  0.3422
 8696SOL     OW37720   2.186   3.737  11.723  0.2048  0.3127 -0.4447
 8696SOL    HW137721   2.130   3.768  11.794  1.1520  0.5842  0.1927
 8696SOL    HW237722   2.269   3.717  11.767  1.1595  0.4723 -2.1728
 8697SOL     OW37723   4.273   1.393   8.444  0.5576  0.4075 -0.0759
 8697SOL    HW137724   4.293   1.486   8.443  0.6755  0.4416  3.4220
 8697SOL    HW237725   4.195   1.384   8.388  0.6361 -0.7319 -0.0107
 8698SOL     OW37726   0.891   2.573   1.286 -0.4512  0.0478 -0.1568
 8698SOL    HW137727   0.797   2.564   1.300 -0.2150  0.2452  1.5787
 8698SOL    HW237728   0.882   2.651   1.232  0.4764  0.4673  0.2835
 8699SOL     OW37729   0.352   1.851   7.140  0.1288  1.3003 -1.2423
 8699SOL    HW137730   0.392   1.893   7.216  3.8899  0.4622 -2.7630
 8699SOL    HW237731   0.435   1.833   7.095  1.6309  3.2697  0.7512
 8700SOL     OW37732   2.518   0.671   9.609  0.4438 -0.0572  0.0372
 8700SOL    HW137733   2.560   0.744   9.654  1.6154  1.1930 -3.0508
 8700SOL    HW237734   2.425   0.690   9.598  0.1563 -1.4899 -0.0348
 8701SOL     OW37735   4.143   2.335  11.743 -0.0576 -0.5269 -0.1578
 8701SOL    HW137736   4.213   2.290  11.790 -0.3386  0.2751  1.0279
 8701SOL    HW237737   4.070   2.332  11.804 -0.4675 -2.4385 -0.7486
 8702SOL     OW37738   3.610   0.239   2.864  0.0167  0.1961 -0.3044
 8702SOL    HW137739   3.687   0.294   2.877  1.7361 -2.0051 -1.1324
 8702SOL    HW237740   3.648   0.152   2.849  0.9443  0.4370  0.6135
 8703SOL     OW37741   2.134   4.553   6.354  0.0526  0.4821 -0.1795
 8703SOL    HW137742   2.040   4.568   6.348 -0.1682 -0.7049  0.4510
 8703SOL    HW237743   2.130   4.458   6.364  0.2723  0.4165 -0.6934
 8704SOL     OW37744   3.074   3.019  10.903  0.5581  0.1979  0.0744
 8704SOL    HW137745   3.086   3.103  10.860 -0.4677  0.2647 -0.0753
 8704SOL    HW237746   2.987   3.031  10.942 -1.3377 -1.7331 -3.5868
 8705SOL     OW37747   3.271   2.804  10.476 -0.2829  0.1719 -0.2847
 8705SOL    HW137748   3.247   2.890  10.441  1.7692  0.0625 -1.9394
 8705SOL    HW237749   3.355   2.822  10.518 -1.0620  0.0651  1.3058
 8706SOL     OW37750   1.099   3.810   7.867 -0.4739 -0.4015  0.4572
 8706SOL    HW137751   1.105   3.720   7.836 -0.6960  0.1011 -1.0215
 8706SOL    HW237752   1.042   3.796   7.943 -1.1554  0.5292  0.1276
 8707SOL     OW37753   2.559   3.123   7.572 -0.1706 -0.2263  0.8021
 8707SOL    HW137754   2.652   3.109   7.589 -0.0854 -0.3327  0.2544
 8707SOL    HW237755   2.513   3.134   7.655 -0.1317  1.4561  0.5872
 8708SOL     OW37756   3.409   3.835   2.413 -0.2048  0.2017 -0.3861
 8708SOL    HW137757   3.498   3.842   2.379 -0.0132 -1.7037 -0.3150
 8708SOL    HW237758   3.371   3.920   2.391 -0.0860  0.6035  0.9775
 8709SOL     OW37759   1.867   2.748   6.886 -0.1011 -0.2658  0.0211
 8709SOL    HW137760   1.905   2.833   6.910 -0.6036  0.5052 -1.9127
 8709SOL    HW237761   1.948   2.698   6.876 -0.6725 -1.3876  1.0325
 8710SOL     OW37762   1.557   4.545   7.763 -0.5828  0.6701  0.4537
 8710SOL    HW137763   1.481   4.510   7.716  0.1075  0.1383 -0.2631
 8710SOL    HW237764   1.624   4.501   7.710  0.3048 -0.2158  2.3101
 8711SOL     OW37765   0.019   3.799   7.347 -0.2085 -0.3453  0.6817
 8711SOL    HW137766   4.701   3.870   7.316 -0.3408 -0.7524 -0.0099
 8711SOL    HW237767   4.690   3.745   7.390  0.2102 -1.5810 -0.2356
 8712SOL     OW37768   1.218   4.635   1.516  0.1522  0.0584 -0.0881
 8712SOL    HW137769   1.183   4.712   1.562  2.3246 -0.3742  2.2464
 8712SOL    HW237770   1.291   4.674   1.468 -0.1679  1.7892  0.8173
 8713SOL     OW37771   0.811   3.782   5.752 -0.2825  0.1402  0.0516
 8713SOL    HW137772   0.834   3.764   5.660  0.9881  1.4334  0.1126
 8713SOL    HW237773   0.719   3.757   5.763 -0.4702  0.1027 -1.5261
 8714SOL     OW37774   1.862   1.093   7.085 -0.6153  0.6698 -0.7303
 8714SOL    HW137775   1.816   1.167   7.046  0.4973  3.0509  2.4707
 8714SOL    HW237776   1.790   1.036   7.111 -1.1780  1.2575 -0.9994
 8715SOL     OW37777   4.180   3.512   6.670 -0.1775  0.1196 -0.0953
 8715SOL    HW137778   4.220   3.545   6.751  1.2525 -3.4077  0.6491
 8715SOL    HW237779   4.238   3.548   6.603 -2.8224  0.1838 -2.3432
 8716SOL     OW37780   1.441   2.078   6.189 -0.2189 -0.3287 -0.2098
 8716SOL    HW137781   1.485   2.162   6.184  1.6492 -1.3036 -0.1491
 8716SOL    HW237782   1.357   2.101   6.149 -1.2144 -1.1202  1.4073
 8717SOL     OW37783   3.054   2.836   0.984 -0.2381  0.6733 -0.1998
 8717SOL    HW137784   3.006   2.860   1.064  3.6283  1.4414  1.8795
 8717SOL    HW237785   3.141   2.821   1.021 -0.1120  1.4471 -0.1911
 8718SOL     OW37786   2.773   4.616  17.044  0.5970  0.1021  0.2914
 8718SOL    HW137787   2.850   4.560  17.053  0.9447  0.1961 -2.2410
 8718SOL    HW237788   2.804   4.696  17.088 -0.2653  0.8067 -0.3736
 8719SOL     OW37789   3.305   1.822   6.889 -0.0514  0.3803  0.1054
 8719SOL    HW137790   3.300   1.881   6.814  0.4648 -0.9354 -0.9501
 8719SOL    HW237791   3.224   1.841   6.937 -0.3988  2.1912 -1.2276
 8720SOL     OW37792   4.495   2.097   5.161  0.1134 -0.0391  0.4775
 8720SOL    HW137793   4.520   2.147   5.084 -0.8732 -0.8149 -0.3560
 8720SOL    HW237794   4.474   2.159   5.231  1.9089  0.6127  0.4340
 8721SOL     OW37795   1.946   4.131   3.260 -0.8029  0.0749 -0.3197
 8721SOL    HW137796   1.948   4.054   3.202  0.2228 -1.2512  1.4764
 8721SOL    HW237797   1.968   4.096   3.346  0.5213 -1.0657 -1.1178
 8722SOL     OW37798   4.167   4.466   8.397  0.1596  0.3266 -0.5094
 8722SOL    HW137799   4.135   4.555   8.411  1.4000  0.9208 -1.4254
 8722SOL    HW237800   4.158   4.446   8.304  3.5699 -1.9360 -0.3820
 8723SOL     OW37801   0.638   0.964   7.668 -0.0685 -0.4107 -0.4131
 8723SOL    HW137802   0.546   0.950   7.692  0.0329  0.6654  0.6449
 8723SOL    HW237803   0.680   0.964   7.754 -0.2241 -2.0246 -0.3442
 8724SOL     OW37804   0.388   0.882   1.245  0.0478 -0.0689  0.5375
 8724SOL    HW137805   0.379   0.974   1.221 -1.0248 -0.7964 -1.7836
 8724SOL    HW237806   0.345   0.839   1.171 -3.3995 -0.2037  2.6398
 8725SOL     OW37807   1.657   2.775   0.315 -0.5622 -0.0289  0.4328
 8725SOL    HW137808   1.567   2.750   0.294 -1.0160  2.4646 -0.6569
 8725SOL    HW237809   1.662   2.749   0.407  1.0414 -1.5519 -0.0990
 8726SOL     OW37810   0.745   1.326   9.742 -0.3460  0.2045 -0.2376
 8726SOL    HW137811   0.701   1.395   9.692  0.6221  0.6493 -0.4700
 8726SOL    HW237812   0.726   1.249   9.688  2.2369 -0.4071 -0.2544
 8727SOL     OW37813   3.773   0.431   2.816  0.1017 -0.5689  0.4819
 8727SOL    HW137814   3.774   0.477   2.733 -1.1060 -1.5606 -0.0749
 8727SOL    HW237815   3.778   0.508   2.872 -1.0011 -0.9277  1.0724
 8728SOL     OW37816   1.099   0.894   6.786 -0.4700 -0.0522 -0.4493
 8728SOL    HW137817   1.063   0.951   6.855  0.6710 -1.4986  1.3565
 8728SOL    HW237818   1.194   0.896   6.800 -0.5376  0.2861 -0.0358
 8729SOL     OW37819   2.564   1.709   3.881 -0.4194  0.2351  0.1269
 8729SOL    HW137820   2.650   1.673   3.858 -0.1257  0.1296  1.3757
 8729SOL    HW237821   2.529   1.740   3.798 -1.6716 -0.3112  0.4407
 8730SOL     OW37822   3.956   3.166  15.083  0.3836 -0.7228 -0.0583
 8730SOL    HW137823   3.927   3.257  15.074  0.1545 -0.6067  1.9628
 8730SOL    HW237824   3.915   3.131  15.004 -1.4793  0.0245  0.5727
 8731SOL     OW37825   0.570   1.632   4.469 -0.0178  0.6204 -0.0668
 8731SOL    HW137826   0.496   1.648   4.411  0.3717 -0.5398 -0.8741
 8731SOL    HW237827   0.588   1.539   4.461 -0.9047  0.4647 -0.2476
 8732SOL     OW37828   3.026   0.704  10.994 -0.8597  0.5973  0.5787
 8732SOL    HW137829   3.012   0.609  11.001 -0.2065  0.4607  0.0381
 8732SOL    HW237830   3.081   0.715  11.072 -1.9872 -3.5482  1.9381
 8733SOL     OW37831   3.790   2.859   6.149  0.0422  0.2561  0.3741
 8733SOL    HW137832   3.815   2.891   6.062  0.7507  2.4375  1.3588
 8733SOL    HW237833   3.768   2.941   6.195 -3.1461 -0.6284  0.3730
 8734SOL     OW37834   3.438   0.947  11.728 -0.4935 -0.3416 -0.3039
 8734SOL    HW137835   3.410   1.019  11.785 -0.2630  0.5479 -1.3055
 8734SOL    HW237836   3.381   0.880  11.763 -0.0399 -1.0415 -0.9115
 8735SOL     OW37837   1.374   3.568   5.958  0.7122  0.2363  0.1024
 8735SOL    HW137838   1.460   3.603   5.980  0.6784 -0.0370  0.6627
 8735SOL    HW237839   1.322   3.646   5.939 -0.1689 -0.3985 -0.0981
 8736SOL     OW37840   3.619   0.745   9.710 -0.0792 -0.1110 -0.0679
 8736SOL    HW137841   3.707   0.713   9.690 -0.3704 -0.0111 -1.4520
 8736SOL    HW237842   3.601   0.696   9.790 -0.3632  1.3495  0.7612
 8737SOL     OW37843   4.461   3.652  17.114 -0.1555 -0.6343 -0.0615
 8737SOL    HW137844   4.456   3.598  17.192 -0.6967  0.5424  0.7158
 8737SOL    HW237845   4.530   3.710  17.147 -1.7825  1.9745 -1.2055
 8738SOL     OW37846   4.619   3.386   5.198  0.0883 -0.2041 -0.7693
 8738SOL    HW137847   4.604   3.336   5.118 -0.0049 -0.6087 -0.5025
 8738SOL    HW237848   4.631   3.315   5.262 -0.3360 -0.6811 -1.2141
 8739SOL     OW37849   4.125   0.205   6.741  0.1220  0.1762 -0.1112
 8739SOL    HW137850   4.047   0.157   6.713  1.0623 -1.5746  0.2818
 8739SOL    HW237851   4.190   0.165   6.683  2.3781  1.0708  1.8330
 8740SOL     OW37852   0.220   0.332   5.335  0.1283  0.2404  0.2504
 8740SOL    HW137853   0.135   0.310   5.373  0.9739 -0.7349  1.5758
 8740SOL    HW237854   0.195   0.381   5.256  1.0359  0.1250 -0.1126
 8741SOL     OW37855   0.121   4.006   5.906 -0.6433  0.5730 -0.2676
 8741SOL    HW137856   0.031   4.005   5.939 -0.4962 -1.1190  0.0760
 8741SOL    HW237857   0.172   3.966   5.977 -3.5595 -0.6699  1.1367
 8742SOL     OW37858   2.988   2.979   1.711 -0.4245  0.4717  0.2808
 8742SOL    HW137859   2.929   2.904   1.722 -1.4869  1.6504  2.5507
 8742SOL    HW237860   2.999   3.013   1.799 -0.7655 -0.6425  0.7547
 8743SOL     OW37861   1.077   0.292   3.921 -0.2707 -0.8884  0.2382
 8743SOL    HW137862   0.996   0.329   3.886 -0.2420 -0.3283  0.7704
 8743SOL    HW237863   1.147   0.335   3.872 -0.5408 -0.3216  0.3537
 8744SOL     OW37864   0.378   1.684   6.361  0.1310  0.2727 -0.1799
 8744SOL    HW137865   0.374   1.638   6.277 -1.2371  1.3977 -0.7255
 8744SOL    HW237866   0.440   1.753   6.339  0.8289  0.8505  3.5065
 8745SOL     OW37867   3.488   0.728   7.735  0.0794  0.0978 -0.1344
 8745SOL    HW137868   3.448   0.807   7.699  0.2802  0.0795 -0.3996
 8745SOL    HW237869   3.530   0.683   7.661  0.5327  0.1508  0.0893
 8746SOL     OW37870   4.725   1.008   3.732 -0.0596  0.2862  0.2697
 8746SOL    HW137871   0.061   1.066   3.714  0.0713  0.0953  0.1938
 8746SOL    HW237872   4.660   1.043   3.671 -0.7082 -1.0312  0.1918
 8747SOL     OW37873   2.269   4.052   8.396 -0.1654  0.1700 -0.2008
 8747SOL    HW137874   2.180   4.073   8.426 -0.7099  0.1672 -1.8247
 8747SOL    HW237875   2.257   4.041   8.302 -0.5288  3.5601 -0.5638
 8748SOL     OW37876   2.224   1.932   5.182 -0.2724  0.3123 -0.1525
 8748SOL    HW137877   2.228   1.984   5.262  2.2204  1.6171 -1.1433
 8748SOL    HW237878   2.295   1.969   5.131 -0.7874  1.3183 -0.1501
 8749SOL     OW37879   4.721   3.483  13.884 -0.0012  0.1486  0.1139
 8749SOL    HW137880   4.695   3.562  13.837  1.2421  0.0953 -0.6430
 8749SOL    HW237881   0.037   3.436  13.820 -1.2926  0.1993 -1.0034
 8750SOL     OW37882   1.746   1.815   8.560  0.3548  0.2670 -0.1080
 8750SOL    HW137883   1.774   1.830   8.650  0.1549  0.8003 -0.1315
 8750SOL    HW237884   1.812   1.749   8.540  1.5517  0.7930  2.1519
 8751SOL     OW37885   2.696   1.753  12.196 -0.2253  0.2487  0.4747
 8751SOL    HW137886   2.680   1.770  12.289 -0.0267 -1.6014  0.8511
 8751SOL    HW237887   2.633   1.681  12.182  1.5141 -1.2447  0.2676
 8752SOL     OW37888   0.348   0.489   4.774  0.0052  0.0324  0.3247
 8752SOL    HW137889   0.300   0.452   4.700  1.1979 -1.7165  0.4314
 8752SOL    HW237890   0.430   0.442   4.762  0.6641  0.8382  1.7062
 8753SOL     OW37891   1.166   2.003   7.957 -0.3807  0.1453  0.0993
 8753SOL    HW137892   1.216   2.058   7.896 -0.4617 -2.4760 -2.3168
 8753SOL    HW237893   1.237   1.960   8.004 -1.0674 -0.1627  0.8450
 8754SOL     OW37894   4.679   2.141  14.410 -0.0709 -0.2020 -0.3569
 8754SOL    HW137895   4.658   2.112  14.321  2.1411  2.5989 -1.7750
 8754SOL    HW237896   0.029   2.174  14.394 -0.2962  0.0257 -1.1317
 8755SOL     OW37897   3.548   3.566   8.995  0.0434 -0.1930  0.0484
 8755SOL    HW137898   3.599   3.609   9.064 -0.1541  0.6601 -0.3266
 8755SOL    HW237899   3.613   3.525   8.938  0.4996 -0.6698  0.9178
 8756SOL     OW37900   0.851   4.300  14.282  0.4522 -0.0430  0.3295
 8756SOL    HW137901   0.785   4.353  14.238  1.0849  2.0002  1.8462
 8756SOL    HW237902   0.843   4.229  14.218  1.1548  0.0362  0.1566
 8757SOL     OW37903   3.985   0.544   5.837  0.0492 -0.3311  0.2050
 8757SOL    HW137904   3.933   0.472   5.802 -0.1093 -0.9238  1.6516
 8757SOL    HW237905   4.070   0.500   5.838  0.5573  0.6579  1.2104
 8758SOL     OW37906   2.741   1.846   4.497 -0.6321  0.0519 -0.1951
 8758SOL    HW137907   2.708   1.886   4.577  0.1632 -3.8218  2.0766
 8758SOL    HW237908   2.700   1.760   4.505  0.7520 -0.5180  0.7524
 8759SOL     OW37909   4.308   3.788   8.624  0.5341 -0.1309  0.3442
 8759SOL    HW137910   4.394   3.775   8.583  0.4701 -0.1036  0.2020
 8759SOL    HW237911   4.338   3.874   8.654 -1.4562  1.2210 -1.5829
 8760SOL     OW37912   2.395   1.835   2.164 -0.0682 -0.0847  0.0012
 8760SOL    HW137913   2.473   1.888   2.146 -1.3423  1.2581 -1.4578
 8760SOL    HW237914   2.433   1.749   2.185 -0.5919 -0.3828 -0.2761
 8761SOL     OW37915   1.775   1.000   2.660  0.3825  0.2116 -0.4600
 8761SOL    HW137916   1.734   0.914   2.674 -0.1096  0.6577  0.8194
 8761SOL    HW237917   1.835   0.993   2.734  0.7237  0.0238 -0.7530
 8762SOL     OW37918   0.189   0.197  14.407  0.2715 -0.3958  0.4372
 8762SOL    HW137919   0.134   0.164  14.478  0.2349 -0.4991  0.3611
 8762SOL    HW237920   0.201   0.289  14.432  0.3474 -0.4749  0.6937
 8763SOL     OW37921   3.963   2.048   4.703  0.1616 -0.4212  0.2259
 8763SOL    HW137922   4.034   1.985   4.688  1.0551  0.1906  1.9578
 8763SOL    HW237923   3.989   2.078   4.790  2.0547  0.4695 -0.6443
 8764SOL     OW37924   3.949   2.235   4.481  0.0406  0.4666 -0.2699
 8764SOL    HW137925   4.008   2.173   4.438  0.3750  0.8975 -0.4300
 8764SOL    HW237926   3.960   2.209   4.573  0.5930  0.4867 -0.3306
 8765SOL     OW37927   2.738   2.471   6.592 -0.5905 -0.0650  0.4348
 8765SOL    HW137928   2.759   2.548   6.644 -2.9277  0.4562  0.5738
 8765SOL    HW237929   2.737   2.403   6.660  1.5594 -1.0486 -0.5357
 8766SOL     OW37930   1.281   0.684   4.036 -0.1215 -0.2097  0.6234
 8766SOL    HW137931   1.327   0.758   3.995 -0.1377 -0.5637 -0.0353
 8766SOL    HW237932   1.345   0.643   4.095  1.8182 -0.2002 -1.4372
 8767SOL     OW37933   4.275   0.775   6.786 -0.5217 -0.1119  0.1040
 8767SOL    HW137934   4.244   0.699   6.836  0.3241 -0.7896 -0.3907
 8767SOL    HW237935   4.369   0.780   6.805 -0.0844  1.3627 -2.5456
 8768SOL     OW37936   1.235   4.174  15.796  0.2384 -0.0858  0.2409
 8768SOL    HW137937   1.176   4.203  15.727 -0.2709 -1.4667  0.0980
 8768SOL    HW237938   1.310   4.226  15.768 -0.8288  0.9903 -0.6185
 8769SOL     OW37939   0.813   0.709   5.836 -0.0935 -0.7283 -0.2243
 8769SOL    HW137940   0.760   0.677   5.909  0.5231 -0.1511  0.4730
 8769SOL    HW237941   0.899   0.734   5.868 -0.6301 -1.3274  1.6556
 8770SOL     OW37942   2.336   0.924   8.173 -0.2714 -0.1561 -0.2041
 8770SOL    HW137943   2.343   0.832   8.201 -2.5471  0.1820  1.4975
 8770SOL    HW237944   2.243   0.941   8.186 -0.9094 -1.9340 -2.5209
 8771SOL     OW37945   3.725   3.106   6.311  0.5473  0.0398  0.3919
 8771SOL    HW137946   3.768   3.066   6.386  2.4626  0.4565 -0.4769
 8771SOL    HW237947   3.646   3.148   6.345 -0.5791 -1.1310 -0.7511
 8772SOL     OW37948   3.920   3.231   9.565 -0.1348  0.1215 -0.5513
 8772SOL    HW137949   3.987   3.239   9.498 -1.3722  1.4359 -1.6508
 8772SOL    HW237950   3.910   3.136   9.559 -1.0141  0.1926 -0.2345
 8773SOL     OW37951   1.942   0.255   2.090 -0.0377  0.0579 -0.6324
 8773SOL    HW137952   1.876   0.285   2.027 -0.1347  0.7962 -0.1873
 8773SOL    HW237953   1.950   0.340   2.134 -0.7988  0.5649 -1.4540
 8774SOL     OW37954   0.662   1.724  11.637 -0.0680 -0.0094  0.5504
 8774SOL    HW137955   0.592   1.773  11.680  0.1219 -2.1285  3.2398
 8774SOL    HW237956   0.699   1.681  11.714 -0.6699 -1.9373 -0.2339
 8775SOL     OW37957   4.730   2.877   8.557  0.2905  0.0449 -0.0705
 8775SOL    HW137958   0.012   2.966   8.585 -1.2262  0.5254 -0.5332
 8775SOL    HW237959   0.047   2.871   8.478 -0.0725 -2.6676 -0.1189
 8776SOL     OW37960   0.409   1.258   2.430  0.7038 -0.1094 -0.2854
 8776SOL    HW137961   0.399   1.351   2.411  1.9598 -0.3181 -1.9611
 8776SOL    HW237962   0.411   1.255   2.526  3.5006 -0.2583 -0.3420
 8777SOL     OW37963   3.691   3.167   3.356  0.1513  0.0346 -0.1998
 8777SOL    HW137964   3.633   3.242   3.371 -1.4879 -1.5108  1.1620
 8777SOL    HW237965   3.641   3.096   3.396 -1.6436  0.8324 -1.0286
 8778SOL     OW37966   4.259   4.004  12.948  0.0159 -0.8159 -0.5247
 8778SOL    HW137967   4.226   4.049  12.870  0.0789  0.9548  0.4739
 8778SOL    HW237968   4.199   4.044  13.011  0.9268 -0.2845  0.0203
 8779SOL     OW37969   4.131   0.220  12.314 -0.5815  0.2674  0.2001
 8779SOL    HW137970   4.190   0.157  12.354 -1.9972 -1.0774  0.1649
 8779SOL    HW237971   4.184   0.300  12.318  0.3190 -0.4936  3.1432
 8780SOL     OW37972   2.590   4.426   8.868 -0.3841 -0.0428 -0.2514
 8780SOL    HW137973   2.506   4.467   8.847 -0.1612  1.0464  0.9865
 8780SOL    HW237974   2.605   4.375   8.789 -3.1826 -2.1358  0.5986
 8781SOL     OW37975   0.931   1.841   8.724 -0.1751  0.3630  0.3362
 8781SOL    HW137976   0.958   1.767   8.670  2.0402  0.4310  1.3565
 8781SOL    HW237977   0.864   1.887   8.673 -0.6167 -2.1035 -1.3123
 8782SOL     OW37978   1.723   2.632   2.793  0.2674 -0.0133  0.0559
 8782SOL    HW137979   1.701   2.700   2.729 -0.2505  0.3849  0.6578
 8782SOL    HW237980   1.696   2.555   2.743  1.0552 -0.0530 -0.3053
 8783SOL     OW37981   2.377   2.511  17.096 -0.0007  0.7981  0.3180
 8783SOL    HW137982   2.366   2.420  17.126  1.4919  0.1260 -1.1507
 8783SOL    HW237983   2.309   2.559  17.143 -0.8397  1.4319 -1.5552
 8784SOL     OW37984   1.718   3.436   6.484 -0.0775  0.0772  0.1779
 8784SOL    HW137985   1.727   3.503   6.551 -2.0395 -0.2565  0.7672
 8784SOL    HW237986   1.626   3.415   6.501 -0.5206  1.8657  0.0082
 8785SOL     OW37987   0.503   2.113  16.664 -0.4654 -0.0782  0.2133
 8785SOL    HW137988   0.479   2.055  16.591 -0.5541 -1.1338  1.0865
 8785SOL    HW237989   0.541   2.194  16.632 -1.1073 -0.3344 -1.2085
 8786SOL     OW37990   2.184   3.828  10.847 -0.2303  0.1752 -0.0679
 8786SOL    HW137991   2.122   3.870  10.906  0.6442  1.6012 -0.1634
 8786SOL    HW237992   2.171   3.733  10.850 -0.1705  0.1290 -1.5036
 8787SOL     OW37993   2.523   3.720   5.977  0.9843  0.2791  0.0304
 8787SOL    HW137994   2.508   3.649   6.039  2.4228 -2.2485 -2.5267
 8787SOL    HW237995   2.509   3.668   5.898 -3.0894  0.4582  0.6473
 8788SOL     OW37996   3.121   2.067   0.760  0.9397  0.4267  0.2262
 8788SOL    HW137997   3.073   1.992   0.795  2.5662  0.4847  2.5830
 8788SOL    HW237998   3.051   2.130   0.743  0.1754  0.1202  2.2713
 8789SOL     OW37999   1.221   2.200  16.179  0.0153 -0.1703  0.4848
 8789SOL    HW138000   1.138   2.238  16.149  0.8765  0.7378 -0.7622
 8789SOL    HW238001   1.251   2.281  16.221  1.3178 -0.6613  0.4975
 8790SOL     OW38002   1.407   2.136  15.577 -0.1053  0.0722  0.4831
 8790SOL    HW138003   1.479   2.115  15.517  0.3392 -0.4493  1.1900
 8790SOL    HW238004   1.428   2.226  15.602  2.1288 -0.1866 -0.3774
 8791SOL     OW38005   1.150   2.640   3.586  0.0696 -0.2639 -0.1072
 8791SOL    HW138006   1.089   2.694   3.635 -0.6936 -0.3697 -0.9507
 8791SOL    HW238007   1.172   2.568   3.646  2.1874  0.2806 -0.2251
 8792SOL     OW38008   4.452   2.426  16.551  0.6029 -0.1167  0.0084
 8792SOL    HW138009   4.528   2.463  16.595 -0.4671  0.2641  1.5531
 8792SOL    HW238010   4.398   2.400  16.626  1.2452 -1.9114 -0.1707
 8793SOL     OW38011   4.157   2.243   3.619  0.1623  0.3826  0.4179
 8793SOL    HW138012   4.064   2.221   3.625 -0.1463  1.8243  0.8603
 8793SOL    HW238013   4.142   2.337   3.611  1.8042  0.6948  0.9721
 8794SOL     OW38014   0.094   3.885  11.331 -0.1508  0.1417 -0.2435
 8794SOL    HW138015   0.007   3.926  11.330 -0.5462 -0.7374 -2.0105
 8794SOL    HW238016   0.067   3.796  11.356 -0.3765  0.4089  0.4541
 8795SOL     OW38017   0.273   3.075   1.706 -0.1617  0.1294  0.2778
 8795SOL    HW138018   0.267   3.156   1.756 -0.1055 -0.8588  1.8854
 8795SOL    HW238019   0.278   3.119   1.621 -0.6535 -2.2755 -0.9962
 8796SOL     OW38020   2.208   4.253   4.824 -0.8293  0.1925 -0.1572
 8796SOL    HW138021   2.297   4.279   4.849 -1.2061  0.0117  1.3424
 8796SOL    HW238022   2.214   4.160   4.803  1.3739  0.2136  0.3457
 8797SOL     OW38023   0.731   0.302  15.747  0.3064 -0.0455 -0.0500
 8797SOL    HW138024   0.685   0.242  15.688  1.2421 -2.6257  1.8339
 8797SOL    HW238025   0.734   0.377  15.688 -0.5973  0.2751  0.3044
 8798SOL     OW38026   4.272   2.742   5.279 -0.5922  0.0483 -0.2314
 8798SOL    HW138027   4.267   2.803   5.205  2.4327  3.0626  2.0325
 8798SOL    HW238028   4.210   2.781   5.341 -1.1720 -1.3765  0.0605
 8799SOL     OW38029   3.365   1.129   7.323 -0.2704 -0.8123 -0.2841
 8799SOL    HW138030   3.355   1.220   7.295  1.0809 -1.1065 -1.7293
 8799SOL    HW238031   3.457   1.129   7.351 -0.2314  0.3650 -0.3823
 8800SOL     OW38032   0.436   0.745   4.105 -0.2860  0.0614 -0.2991
 8800SOL    HW138033   0.447   0.706   4.192  0.3243  0.7078 -0.0804
 8800SOL    HW238034   0.364   0.697   4.064 -0.1111 -0.2356 -0.2567
 8801SOL     OW38035   0.670   2.243   8.726 -0.1264  0.0829  1.0701
 8801SOL    HW138036   0.730   2.300   8.774  1.7175  0.4430 -1.6449
 8801SOL    HW238037   0.592   2.292   8.751 -0.0645  0.9614 -0.4442
 8802SOL     OW38038   3.951   3.566   8.433  0.7483  0.3026 -0.4829
 8802SOL    HW138039   4.003   3.646   8.423  2.4414 -1.0178 -2.4267
 8802SOL    HW238040   3.919   3.581   8.522  0.7057 -2.2221 -0.0854
 8803SOL     OW38041   0.302   1.463   1.085 -0.1867  0.0298  0.4464
 8803SOL    HW138042   0.215   1.488   1.116 -2.0150 -1.3077 -3.6074
 8803SOL    HW238043   0.315   1.372   1.113  1.2803 -0.4155 -1.6922
 8804SOL     OW38044   2.973   3.303   5.415 -0.6108 -0.5304 -0.4833
 8804SOL    HW138045   2.991   3.395   5.431  0.4350 -0.6239 -1.1366
 8804SOL    HW238046   2.920   3.302   5.335  0.8260  0.5368 -1.4434
 8805SOL     OW38047   2.973   4.458   0.674  0.2503  0.4543  0.0293
 8805SOL    HW138048   2.946   4.366   0.662 -0.2801  0.8408 -1.8200
 8805SOL    HW238049   3.019   4.476   0.592 -0.5951  0.0763 -0.5362
 8806SOL     OW38050   0.207   3.669   2.419 -0.0326  0.0655 -0.2818
 8806SOL    HW138051   0.133   3.719   2.385 -1.7323 -3.4194 -1.6343
 8806SOL    HW238052   0.206   3.611   2.344  0.7255 -0.0463 -0.2119
 8807SOL     OW38053   0.325   1.903   6.827 -0.2286 -0.2203  0.9349
 8807SOL    HW138054   0.235   1.911   6.793 -0.7208 -1.1207  2.0105
 8807SOL    HW238055   0.303   1.934   6.915 -1.0068  1.2765  0.2050
 8808SOL     OW38056   0.446   0.253   6.169 -0.0084  0.2316  0.0754
 8808SOL    HW138057   0.483   0.188   6.109  0.2717  0.1105  0.3791
 8808SOL    HW238058   0.478   0.224   6.255  0.3513 -0.0792 -0.1651
 8809SOL     OW38059   2.982   0.279   9.795  0.2260  0.4885  0.3061
 8809SOL    HW138060   2.943   0.229   9.867  2.0477  1.6951  2.1482
 8809SOL    HW238061   2.914   0.259   9.730  1.7818  1.8043 -1.7265
 8810SOL     OW38062   2.285   1.702   8.128 -0.5439  0.0084  0.2380
 8810SOL    HW138063   2.291   1.613   8.163  0.7443  0.1145  0.2962
 8810SOL    HW238064   2.350   1.704   8.057  0.9813  0.3414  1.6495
 8811SOL     OW38065   2.784   4.436   7.646 -0.5372  0.0489  0.1134
 8811SOL    HW138066   2.731   4.402   7.574 -1.4413 -0.9970  1.2548
 8811SOL    HW238067   2.725   4.415   7.719  2.0155  0.6488  2.3424
 8812SOL     OW38068   3.604   2.147   9.226 -1.0748  1.0041 -0.6363
 8812SOL    HW138069   3.556   2.162   9.307  2.3067  0.3573  1.4670
 8812SOL    HW238070   3.534   2.141   9.160 -0.9404  0.1978 -0.7132
 8813SOL     OW38071   0.354   3.876   1.635  0.0144 -0.1239 -0.2955
 8813SOL    HW138072   0.329   3.897   1.545  0.7302 -0.0862 -0.4931
 8813SOL    HW238073   0.340   3.960   1.680  0.6294 -0.0515 -0.2363
 8814SOL     OW38074   3.050   0.190   6.341 -0.4328  0.6676 -0.2296
 8814SOL    HW138075   3.026   0.265   6.287  1.4127  1.0467 -0.5196
 8814SOL    HW238076   2.992   0.188   6.418 -2.5892  1.7976 -1.8281
 8815SOL     OW38077   1.727   3.434   9.873  0.0424 -0.0572 -0.2320
 8815SOL    HW138078   1.637   3.405   9.856 -0.0519 -0.9690  1.8303
 8815SOL    HW238079   1.781   3.370   9.828  0.0420  1.7757 -2.8558
 8816SOL     OW38080   0.752   0.347   8.400  1.1460  0.5169  0.0870
 8816SOL    HW138081   0.715   0.285   8.463  0.5610  0.3230 -0.4467
 8816SOL    HW238082   0.785   0.407   8.467  1.5719  0.8343 -0.4122
 8817SOL     OW38083   4.263   3.679   4.370  0.2807  0.3032 -0.7615
 8817SOL    HW138084   4.274   3.765   4.328 -0.1061  0.8747  0.3150
 8817SOL    HW238085   4.274   3.701   4.463 -0.1405 -0.5905 -0.5035
 8818SOL     OW38086   2.571   4.058   2.560  0.0201 -0.2668 -0.2613
 8818SOL    HW138087   2.587   4.138   2.509  0.7858  0.5451  1.2361
 8818SOL    HW238088   2.569   3.991   2.492  2.2263  0.1683 -0.7752
 8819SOL     OW38089   2.181   4.395   7.033 -0.2494  0.0095  0.3856
 8819SOL    HW138090   2.276   4.384   7.033 -0.3877 -1.1247  0.6223
 8819SOL    HW238091   2.163   4.387   6.939  0.6983  1.0555  0.1184
 8820SOL     OW38092   3.510   4.116   4.423 -0.2440 -0.6059  0.1963
 8820SOL    HW138093   3.524   4.050   4.491 -2.4590 -1.1459  0.1622
 8820SOL    HW238094   3.591   4.098   4.376 -0.7908  0.1952 -1.0582
 8821SOL     OW38095   4.465   0.650  11.229 -0.1244 -0.3360 -0.3318
 8821SOL    HW138096   4.509   0.708  11.291  1.0837 -2.8600  1.1594
 8821SOL    HW238097   4.391   0.703  11.198 -0.7199  0.2351  2.0869
 8822SOL     OW38098   2.881   0.969   6.911 -0.6771 -0.2965  0.0635
 8822SOL    HW138099   2.926   0.885   6.920  2.6902  1.4022 -0.7665
 8822SOL    HW238100   2.956   1.026   6.890 -0.5229 -0.0398  1.3106
 8823SOL     OW38101   4.487   2.120  16.777  0.2333 -0.0820  0.0114
 8823SOL    HW138102   4.530   2.160  16.701 -0.6649 -0.3714 -0.6536
 8823SOL    HW238103   4.446   2.198  16.815  1.3546  0.7886 -0.5744
 8824SOL     OW38104   0.455   0.077   3.231  0.2546 -0.5114 -0.6057
 8824SOL    HW138105   0.518   0.071   3.159  4.2520  0.3264  2.7945
 8824SOL    HW238106   0.387   0.021   3.195 -0.5864  0.3788 -0.4039
 8825SOL     OW38107   0.596   2.955  16.868  0.1041  0.0925  0.6589
 8825SOL    HW138108   0.669   2.980  16.812  0.6090 -0.2133  1.1802
 8825SOL    HW238109   0.524   3.004  16.828 -0.1871 -1.2596 -0.4740
 8826SOL     OW38110   0.710   2.045  12.584  0.1633  0.3793  0.1627
 8826SOL    HW138111   0.667   2.103  12.647 -1.5705  0.5359 -1.1790
 8826SOL    HW238112   0.751   1.989  12.651  0.6855 -1.0037 -1.3127
 8827SOL     OW38113   0.960   1.283   3.340 -0.1860 -0.0227 -0.3001
 8827SOL    HW138114   0.866   1.272   3.353  0.1265 -1.8908  0.4031
 8827SOL    HW238115   0.969   1.373   3.309  0.5134 -0.6698 -1.9696
 8828SOL     OW38116   0.152   0.931   4.588  0.2989 -0.3584 -0.3541
 8828SOL    HW138117   0.163   1.018   4.627 -1.1128  0.0016 -0.7633
 8828SOL    HW238118   0.093   0.882   4.645  3.3059 -0.7740  2.4067
 8829SOL     OW38119   2.655   4.080   5.952 -0.1671  0.6252 -0.0484
 8829SOL    HW138120   2.647   4.172   5.975 -0.7120  0.6864 -0.4970
 8829SOL    HW238121   2.570   4.052   5.919 -0.2312  1.7641 -0.8317
 8830SOL     OW38122   1.249   1.623   5.164  0.5034  0.1243 -0.3116
 8830SOL    HW138123   1.254   1.528   5.169  1.4294  0.0398 -2.7140
 8830SOL    HW238124   1.337   1.647   5.134 -0.0866  2.8567  0.1057
 8831SOL     OW38125   3.535   3.385   6.295  0.1150  0.0312 -0.0280
 8831SOL    HW138126   3.614   3.431   6.323 -2.0445  2.1169  2.6803
 8831SOL    HW238127   3.464   3.437   6.333  1.5409 -1.3298  4.4672
 8832SOL     OW38128   0.431   1.420  12.669  0.0178 -0.0853  0.2689
 8832SOL    HW138129   0.344   1.385  12.686  0.4510 -1.0249  0.5926
 8832SOL    HW238130   0.407   1.483  12.601  0.1348 -0.1857  0.1346
 8833SOL     OW38131   4.345   2.558   7.159  0.1931 -0.0662 -0.0014
 8833SOL    HW138132   4.421   2.524   7.207  1.0300  0.9235 -0.6423
 8833SOL    HW238133   4.281   2.537   7.227 -0.4579  1.7453 -0.0628
 8834SOL     OW38134   1.814   0.829  16.197 -0.5200  0.3331 -0.2569
 8834SOL    HW138135   1.909   0.834  16.188 -0.2652 -1.7114  1.4592
 8834SOL    HW238136   1.811   0.857  16.288  0.9132 -1.8740  0.4413
 8835SOL     OW38137   1.186   1.336   5.180  0.1717  0.7484  0.2009
 8835SOL    HW138138   1.231   1.299   5.104 -1.9925 -0.8011 -0.3241
 8835SOL    HW238139   1.099   1.352   5.145  0.5911  2.2313 -0.1419
 8836SOL     OW38140   3.079   2.686   6.188  0.2688  0.4355 -0.3115
 8836SOL    HW138141   3.085   2.750   6.259 -3.0154 -0.6018  0.8632
 8836SOL    HW238142   3.116   2.740   6.118  0.1023  1.3018  0.2764
 8837SOL     OW38143   3.381   0.581   0.508 -0.0541  0.3769  0.4843
 8837SOL    HW138144   3.372   0.489   0.482  0.3344  0.8921 -1.4547
 8837SOL    HW238145   3.291   0.599   0.533 -0.0550  1.6817 -0.4805
 8838SOL     OW38146   3.669   4.079   9.577 -0.1015  0.4655 -0.0575
 8838SOL    HW138147   3.613   4.004   9.559  0.3697  0.6351 -2.1643
 8838SOL    HW238148   3.753   4.045   9.606 -0.6645 -0.8539  0.0050
 8839SOL     OW38149   0.761   1.080   2.163 -0.1171  0.3478 -0.0192
 8839SOL    HW138150   0.684   1.077   2.219 -0.3277 -2.0085 -0.4459
 8839SOL    HW238151   0.779   1.174   2.161  1.3114  0.0426 -1.8175
 8840SOL     OW38152   3.250   1.008  10.566 -0.1484  0.1543 -0.5298
 8840SOL    HW138153   3.174   0.979  10.617 -0.3116 -1.0108 -1.4447
 8840SOL    HW238154   3.307   0.937  10.595 -1.7275 -0.3710  1.3422
 8841SOL     OW38155   2.035   1.870   6.129  0.5786 -0.0003 -0.2730
 8841SOL    HW138156   2.003   1.841   6.044 -0.5390 -1.1773  0.5514
 8841SOL    HW238157   2.129   1.883   6.116  0.9125 -0.8898  1.3145
 8842SOL     OW38158   4.534   4.139   4.618 -0.0648 -0.2412 -0.7191
 8842SOL    HW138159   4.590   4.202   4.665  2.2032 -1.2856 -2.0632
 8842SOL    HW238160   4.527   4.186   4.535  1.8311 -0.9487 -1.2621
 8843SOL     OW38161   1.156   3.440   5.495  0.3716 -0.0294  0.3586
 8843SOL    HW138162   1.160   3.491   5.414 -0.6488 -0.9473 -0.2821
 8843SOL    HW238163   1.249   3.428   5.514  0.2789  0.5360  1.1817
 8844SOL     OW38164   3.493   0.102  15.399  0.2794  0.2141 -0.3712
 8844SOL    HW138165   3.509   0.048  15.476  0.5393 -1.1172 -1.3550
 8844SOL    HW238166   3.543   0.180  15.423  1.3748 -1.1112  1.6519
 8845SOL     OW38167   1.960   3.193   6.290 -0.3332  0.3349  0.4885
 8845SOL    HW138168   2.002   3.238   6.363  1.2277 -0.7092  0.2153
 8845SOL    HW238169   1.906   3.126   6.333  1.0160 -1.0558 -0.0159
 8846SOL     OW38170   1.372   0.978   8.041  0.0180  0.1507  0.2024
 8846SOL    HW138171   1.361   0.921   7.965  2.6337  1.0316 -0.8834
 8846SOL    HW238172   1.326   1.059   8.018 -0.0406  0.4727  1.4389
 8847SOL     OW38173   4.196   3.587   3.098 -0.6718  0.2292  0.1320
 8847SOL    HW138174   4.177   3.661   3.156  1.1473  0.1187  0.8652
 8847SOL    HW238175   4.109   3.556   3.074  0.1931 -0.7533 -1.7478
 8848SOL     OW38176   2.029   0.827   4.157 -0.0576  0.2007 -0.3425
 8848SOL    HW138177   2.113   0.865   4.133 -0.0382  0.3657 -0.0005
 8848SOL    HW238178   2.061   0.740   4.180  0.8196  0.1967 -1.5396
 8849SOL     OW38179   2.013   1.127   7.309 -0.3935  0.0263  0.3006
 8849SOL    HW138180   1.973   1.214   7.310 -1.6317 -0.5626  2.9347
 8849SOL    HW238181   1.973   1.081   7.236  2.1829 -0.0722 -1.0685
 8850SOL     OW38182   4.038   1.072   8.365  0.1576 -0.3906  0.3652
 8850SOL    HW138183   4.011   0.991   8.322 -1.6898  0.0127  0.7674
 8850SOL    HW238184   3.964   1.090   8.422  0.6301  0.4726  0.7066
 8851SOL     OW38185   3.811   3.877   4.813  0.2614  1.0142 -0.3127
 8851SOL    HW138186   3.826   3.971   4.819  0.5384  0.8305  1.7461
 8851SOL    HW238187   3.736   3.865   4.871  0.8936  0.2382  0.3282
 8852SOL     OW38188   4.050   1.162   0.780  0.3637  0.7670 -0.2555
 8852SOL    HW138189   4.090   1.196   0.700  3.8490  0.2742  1.2749
 8852SOL    HW238190   3.970   1.126   0.744  1.2793  0.0320 -1.5543
 8853SOL     OW38191   1.431   0.093   0.332 -0.0596 -1.0910 -0.4459
 8853SOL    HW138192   1.508   0.090   0.389 -0.5824 -0.5347  0.2906
 8853SOL    HW238193   1.373   0.040   0.387  2.0292 -0.5496  2.2913
 8854SOL     OW38194   2.514   3.746   7.483  0.4543  0.1941  0.3121
 8854SOL    HW138195   2.498   3.772   7.574 -0.4124  0.0683  0.1975
 8854SOL    HW238196   2.492   3.825   7.433 -0.2825 -0.1019  0.1544
 8855SOL     OW38197   1.246   0.533   5.260 -0.0558 -0.0415 -0.0801
 8855SOL    HW138198   1.215   0.475   5.330 -2.3945  2.5511  1.0173
 8855SOL    HW238199   1.274   0.608   5.312 -1.1705  1.5027 -1.7298
 8856SOL     OW38200   1.829   3.969   5.133  0.0288  0.1972  0.4270
 8856SOL    HW138201   1.757   3.970   5.197  0.7885 -0.6890  1.3073
 8856SOL    HW238202   1.783   3.923   5.063  0.2436  0.7897 -0.1025
 8857SOL     OW38203   2.170   2.850   2.010 -0.1471 -0.0915 -0.5949
 8857SOL    HW138204   2.260   2.818   2.012 -1.6397 -4.3425 -0.0833
 8857SOL    HW238205   2.175   2.922   2.072 -0.7715 -2.0780  1.7597
 8858SOL     OW38206   4.537   2.558   3.649  0.0654 -0.5507  0.4406
 8858SOL    HW138207   4.508   2.588   3.563  1.5254 -0.8810 -0.1581
 8858SOL    HW238208   4.459   2.570   3.703 -1.5018 -1.0497 -1.7067
 8859SOL     OW38209   2.066   2.624   7.678 -0.1148  0.5439 -0.0468
 8859SOL    HW138210   1.978   2.611   7.713 -0.6995  0.2445 -1.6020
 8859SOL    HW238211   2.115   2.597   7.756 -0.3643 -0.0812 -0.1053
 8860SOL     OW38212   1.866   2.233   7.161 -0.0751 -0.0362  0.1837
 8860SOL    HW138213   1.958   2.248   7.185  0.6034 -1.6318 -1.4822
 8860SOL    HW238214   1.866   2.265   7.071  1.4502 -0.4654  0.0317
 8861SOL     OW38215   1.781   2.663  10.147  0.7164  0.0200  0.0872
 8861SOL    HW138216   1.739   2.603  10.086  0.5431  1.3288 -1.0711
 8861SOL    HW238217   1.857   2.681  10.091  0.1256  1.4562 -0.2449
 8862SOL     OW38218   4.033   0.386   9.895  0.4215  0.2619  0.0983
 8862SOL    HW138219   3.980   0.310   9.918 -1.3389  0.8638 -1.8913
 8862SOL    HW238220   3.964   0.453   9.895  1.3877  1.2510  0.9129
 8863SOL     OW38221   1.704   0.348   4.188  0.3495  0.0014  0.0173
 8863SOL    HW138222   1.763   0.301   4.247 -0.4277  1.4890  2.0067
 8863SOL    HW238223   1.765   0.412   4.151 -2.2739  1.6215 -1.5303
 8864SOL     OW38224   4.294   4.490   4.734 -0.4084 -0.6150  0.0248
 8864SOL    HW138225   4.388   4.495   4.750 -0.5201 -0.2305  0.5659
 8864SOL    HW238226   4.299   4.441   4.652 -3.3815  1.4577 -1.3816
 8865SOL     OW38227   2.386   3.079   4.111  0.0103 -0.4734 -0.2159
 8865SOL    HW138228   2.466   3.101   4.159 -1.4481 -0.1180  2.0504
 8865SOL    HW238229   2.402   2.985   4.106 -2.4903 -0.8742 -0.5625
 8866SOL     OW38230   4.198   1.544   2.260  0.6188 -1.0011  0.1991
 8866SOL    HW138231   4.108   1.534   2.289  0.7926  1.0581  1.4700
 8866SOL    HW238232   4.188   1.561   2.166  0.4993 -2.1910 -0.0077
 8867SOL     OW38233   1.987   1.876   3.020  0.3415 -0.0288  0.3028
 8867SOL    HW138234   2.069   1.881   3.069 -1.1172  0.0255  2.7811
 8867SOL    HW238235   1.984   1.780   3.012  0.0630  0.1735 -2.0122
 8868SOL     OW38236   0.778   0.302   3.458  0.2182 -0.6171 -0.0164
 8868SOL    HW138237   0.737   0.225   3.497  0.0107 -1.3503 -1.7122
 8868SOL    HW238238   0.836   0.267   3.391 -0.7187 -1.6429 -0.2833
 8869SOL     OW38239   3.594   2.825   2.796  0.2458 -0.2195  0.0733
 8869SOL    HW138240   3.508   2.863   2.780  0.6530  0.6527 -0.0738
 8869SOL    HW238241   3.648   2.891   2.752  0.3331 -0.7347 -0.5838
 8870SOL     OW38242   3.999   2.855   6.590  0.6514  0.3246  0.6627
 8870SOL    HW138243   3.911   2.890   6.606 -0.5963 -2.0666 -0.9216
 8870SOL    HW238244   3.993   2.765   6.622 -0.6558  0.4112  0.6835
 8871SOL     OW38245   1.671   3.294  13.635 -0.5204  0.1707 -0.6424
 8871SOL    HW138246   1.590   3.323  13.677 -0.4243 -2.5626  1.3965
 8871SOL    HW238247   1.633   3.277  13.548  0.0101  0.7766 -0.9965
 8872SOL     OW38248   1.318   3.393   6.159 -0.4732  0.2100 -0.2185
 8872SOL    HW138249   1.365   3.466   6.119  0.3307 -0.6290 -0.7816
 8872SOL    HW238250   1.290   3.436   6.240  0.1375  1.2782 -0.5783
 8873SOL     OW38251   4.247   1.508   7.254  0.6998 -0.1852  0.2132
 8873SOL    HW138252   4.278   1.550   7.334 -0.7604  2.0535 -0.4121
 8873SOL    HW238253   4.164   1.555   7.247  1.3511  1.1416  1.4008
 8874SOL     OW38254   0.821   1.385  13.374  0.4485  0.6530  0.2274
 8874SOL    HW138255   0.875   1.362  13.298 -2.3100  0.9964 -1.8718
 8874SOL    HW238256   0.763   1.445  13.326 -0.2871  0.0521  0.3602
 8875SOL     OW38257   0.939   2.916   7.743 -0.5775  0.0088  0.0184
 8875SOL    HW138258   0.956   2.947   7.654  1.7444  0.5373  0.6602
 8875SOL    HW238259   0.873   2.849   7.724 -0.8681  0.8282 -1.9457
 8876SOL     OW38260   2.195   1.351   5.677  0.4043 -0.3413  0.3230
 8876SOL    HW138261   2.170   1.318   5.763 -0.8180 -3.0324 -1.0347
 8876SOL    HW238262   2.265   1.413   5.696  0.2854 -0.7882  2.1709
 8877SOL     OW38263   0.624   4.021   4.170  0.2055  0.5862 -0.4989
 8877SOL    HW138264   0.558   4.056   4.231  0.8708 -0.7912  1.0140
 8877SOL    HW238265   0.623   3.933   4.207 -0.2923  0.8322  0.0896
 8878SOL     OW38266   0.881   2.662   7.988 -0.2839 -0.0374  0.0251
 8878SOL    HW138267   0.808   2.694   8.041  0.3421 -1.9388  2.0121
 8878SOL    HW238268   0.842   2.626   7.908 -1.1761 -0.2671  0.5640
 8879SOL     OW38269   0.961   0.278   7.313  0.3174 -0.0842  0.4204
 8879SOL    HW138270   0.924   0.209   7.257 -0.7052  0.8613 -0.0728
 8879SOL    HW238271   0.883   0.332   7.324  1.0409  1.0916 -0.2427
 8880SOL     OW38272   0.270   1.578   6.830 -0.5312  0.0901  0.5088
 8880SOL    HW138273   0.321   1.574   6.750 -0.4094  2.3694  0.4942
 8880SOL    HW238274   0.283   1.670   6.851 -2.7231 -0.0426  2.5802
 8881SOL     OW38275   2.835   1.771   8.039  0.2729 -0.0114  0.6922
 8881SOL    HW138276   2.908   1.833   8.045  1.3064 -1.4821  3.1964
 8881SOL    HW238277   2.761   1.832   8.035  0.6554  0.4593  0.8178
 8882SOL     OW38278   0.193   4.187  12.013  0.1724 -0.1024  0.6158
 8882SOL    HW138279   0.270   4.195  11.956 -0.1511  0.5682  0.2687
 8882SOL    HW238280   0.133   4.250  11.974  1.9515  0.7057 -0.8354
 8883SOL     OW38281   1.907   1.013   8.550  0.3625  0.5201 -0.9714
 8883SOL    HW138282   1.967   1.048   8.484 -0.0031 -1.1314 -2.1932
 8883SOL    HW238283   1.954   0.933   8.575 -0.5677 -0.3967 -2.1395
 8884SOL     OW38284   1.778   0.092   5.546 -0.1243  0.0446  0.6675
 8884SOL    HW138285   1.865   0.055   5.531 -0.0218 -0.0771  1.5338
 8884SOL    HW238286   1.786   0.103   5.641 -1.2847  0.7610  0.6862
 8885SOL     OW38287   4.174   3.358   8.934  0.0720 -0.6404 -0.5827
 8885SOL    HW138288   4.238   3.294   8.964  0.5745  0.1449  0.0234
 8885SOL    HW238289   4.184   3.335   8.842 -1.7198  1.0558 -1.2006
 8886SOL     OW38290   0.687   4.719  13.781  0.0025  0.2090 -0.4361
 8886SOL    HW138291   0.766   4.704  13.729  0.9473 -1.8325  1.5734
 8886SOL    HW238292   0.721   0.039  13.850 -0.0811 -1.2918  0.8839
 8887SOL     OW38293   2.146   1.213   3.943 -0.0684  0.1022 -0.4784
 8887SOL    HW138294   2.102   1.292   3.974  1.1453  1.2816 -1.7433
 8887SOL    HW238295   2.229   1.224   3.990 -0.2973 -2.0529  0.3969
 8888SOL     OW38296   3.660   2.925   5.398 -0.8137  0.1821  0.3021
 8888SOL    HW138297   3.699   2.956   5.480  0.1637 -0.0171 -0.0869
 8888SOL    HW238298   3.628   3.008   5.365 -0.0432  0.2085 -0.3805
 8889SOL     OW38299   3.688   0.959   2.068  0.1253  1.1749  0.4779
 8889SOL    HW138300   3.602   0.975   2.029 -0.4053 -0.0054  1.1686
 8889SOL    HW238301   3.653   0.960   2.158 -0.5828  0.2317  0.2045
 8890SOL     OW38302   2.584   3.383  11.441  0.1455 -0.1465 -0.0726
 8890SOL    HW138303   2.602   3.313  11.503  0.5982 -0.5213 -0.6349
 8890SOL    HW238304   2.559   3.327  11.368  0.1824 -3.5746  2.5792
 8891SOL     OW38305   3.671   0.957   8.202  0.3694  0.2901  0.1481
 8891SOL    HW138306   3.583   0.945   8.235 -0.6081  3.0167 -1.4919
 8891SOL    HW238307   3.716   0.928   8.281  0.6215  0.5964  0.1180
 8892SOL     OW38308   2.472   0.281  15.298 -0.0897 -0.2982  0.5236
 8892SOL    HW138309   2.558   0.315  15.276 -0.3837  0.0013 -0.1553
 8892SOL    HW238310   2.480   0.191  15.266  1.1682 -0.3168  0.8811
 8893SOL     OW38311   1.169   2.562   8.465  0.1969  0.2462 -0.6280
 8893SOL    HW138312   1.217   2.580   8.383 -2.1939 -0.8853 -2.2730
 8893SOL    HW238313   1.228   2.498   8.505 -0.5042 -1.1357 -1.7842
 8894SOL     OW38314   1.782   4.097   3.807  0.6607  0.0987  0.1094
 8894SOL    HW138315   1.705   4.051   3.841  0.7337 -0.4583 -0.4977
 8894SOL    HW238316   1.732   4.179   3.811 -1.8867 -1.5473  2.3925
 8895SOL     OW38317   1.157   2.637   6.998 -0.3655  0.1723 -0.5736
 8895SOL    HW138318   1.091   2.632   7.068  1.3705  0.2783  1.0622
 8895SOL    HW238319   1.123   2.716   6.956 -2.7827 -0.6946 -0.2871
 8896SOL     OW38320   4.226   1.182   6.681 -0.6213  0.9025  0.6840
 8896SOL    HW138321   4.310   1.143   6.658 -1.2406  1.2695 -2.1917
 8896SOL    HW238322   4.182   1.180   6.595  1.4637 -0.2313 -0.3570
 8897SOL     OW38323   1.086   1.388  15.199 -0.0503 -0.0590  0.2947
 8897SOL    HW138324   1.148   1.452  15.164 -2.6122  3.1544  1.6348
 8897SOL    HW238325   1.058   1.436  15.277 -0.5141  1.3338 -0.7348
 8898SOL     OW38326   1.186   3.614   5.259 -0.2469  0.3318  0.1580
 8898SOL    HW138327   1.097   3.581   5.249  0.5464 -1.9340  0.7565
 8898SOL    HW238328   1.213   3.605   5.168  1.6279  0.1073  0.7426
 8899SOL     OW38329   1.496   1.222   4.725  0.3350  0.1190  0.7278
 8899SOL    HW138330   1.462   1.189   4.641  0.8878  0.6319  0.2995
 8899SOL    HW238331   1.461   1.311   4.725 -0.6542 -0.2679  1.8065
 8900SOL     OW38332   3.589   0.789  14.580 -0.7771  0.4070 -0.1214
 8900SOL    HW138333   3.655   0.844  14.621 -0.0163 -0.7382  0.1987
 8900SOL    HW238334   3.583   0.716  14.642 -3.0524 -1.1328 -2.1230
 8901SOL     OW38335   1.158   2.125   8.731 -0.1335  0.7270  0.9236
 8901SOL    HW138336   1.136   2.060   8.664 -1.0665  0.0062  1.9262
 8901SOL    HW238337   1.120   2.074   8.803  1.6375  0.1930  1.5056
 8902SOL     OW38338   4.479   2.639  16.354 -0.1528  0.8121 -0.1079
 8902SOL    HW138339   4.472   2.579  16.281 -0.0820 -1.0381  1.4115
 8902SOL    HW238340   4.486   2.579  16.428 -0.4075 -1.2660 -1.7842
 8903SOL     OW38341   4.678   0.382  11.924 -0.0651 -0.0778 -0.0836
 8903SOL    HW138342   4.677   0.354  11.833 -1.5721 -0.6698  0.1270
 8903SOL    HW238343   4.679   0.295  11.962  0.8012  0.3390  0.8766
 8904SOL     OW38344   0.956   1.680   8.506 -0.6092 -0.4507  0.0521
 8904SOL    HW138345   0.878   1.688   8.451  1.2283  0.2902 -2.4494
 8904SOL    HW238346   1.012   1.644   8.436 -0.2186  1.3173 -0.5486
 8905SOL     OW38347   3.765   0.085   3.801  0.3091  0.3440  0.1551
 8905SOL    HW138348   3.839   0.032   3.772 -1.1382 -2.6199  1.8515
 8905SOL    HW238349   3.765   0.166   3.751 -0.0477 -0.0069 -0.4117
 8906SOL     OW38350   3.095   1.913  17.564 -0.0532 -0.0818 -0.1402
 8906SOL    HW138351   3.142   1.959  17.494  1.1256  1.8832  1.9231
 8906SOL    HW238352   3.005   1.918  17.533  0.2938  3.3278 -0.6743
 8907SOL     OW38353   1.818   4.086   2.597  0.6592  0.1857 -0.2079
 8907SOL    HW138354   1.798   3.993   2.610 -0.2462  0.4122  0.0564
 8907SOL    HW238355   1.786   4.106   2.509 -1.0263 -0.3806  0.2721
 8908SOL     OW38356   4.472   2.540   7.844  0.2914  0.1893  0.1242
 8908SOL    HW138357   4.430   2.626   7.851 -0.6510  0.0169 -3.2202
 8908SOL    HW238358   4.430   2.500   7.920 -2.2118  1.2954 -0.6498
 8909SOL     OW38359   4.100   3.034  16.568  0.4568 -0.0243 -0.5734
 8909SOL    HW138360   4.070   2.974  16.636  2.3923 -1.7888 -1.2540
 8909SOL    HW238361   4.119   3.110  16.622 -0.1731  0.2598 -0.7524
 8910SOL     OW38362   4.595   1.409   3.324  0.7855 -0.3251 -0.1855
 8910SOL    HW138363   4.518   1.394   3.269 -0.5004  2.2504  0.9076
 8910SOL    HW238364   4.583   1.502   3.341 -0.8493 -0.3187 -1.3380
 8911SOL     OW38365   3.087   2.048   2.821 -0.4512 -0.0885 -0.1007
 8911SOL    HW138366   3.010   2.105   2.815 -0.2626  0.3034  1.2857
 8911SOL    HW238367   3.151   2.115   2.797 -0.5120  0.2637  0.7241
 8912SOL     OW38368   2.280   0.430  16.651 -0.6897 -0.5828 -0.1591
 8912SOL    HW138369   2.353   0.474  16.608  0.4033 -2.3300 -0.0604
 8912SOL    HW238370   2.275   0.359  16.587 -2.3015  0.6081 -1.3628
 8913SOL     OW38371   2.339   0.711   9.331 -0.1703 -0.3130 -0.0621
 8913SOL    HW138372   2.422   0.752   9.354 -1.0228  0.3750  1.7893
 8913SOL    HW238373   2.342   0.718   9.236  1.8785  0.9865  0.1029
 8914SOL     OW38374   3.559   3.315  11.720  0.2200 -0.5650  0.2589
 8914SOL    HW138375   3.481   3.351  11.761  0.7564 -1.0297  1.6784
 8914SOL    HW238376   3.543   3.333  11.627 -0.6347 -0.0840  0.5041
 8915SOL     OW38377   0.743   0.092  10.522 -0.2732  0.1833 -1.1990
 8915SOL    HW138378   0.660   0.081  10.475 -1.4375 -0.1208  0.9215
 8915SOL    HW238379   0.723   0.155  10.592 -2.3345  0.0811 -1.6818
 8916SOL     OW38380   2.763   3.751   7.098  0.0387 -0.1248 -0.7875
 8916SOL    HW138381   2.783   3.723   7.009 -0.5558  0.2504 -1.0344
 8916SOL    HW238382   2.668   3.744   7.089 -0.0535  0.2773 -0.1652
 8917SOL     OW38383   2.895   4.026   5.860  0.1278  0.2145  0.3937
 8917SOL    HW138384   2.881   3.970   5.784  0.9075  1.2249 -0.5002
 8917SOL    HW238385   2.809   4.057   5.886 -0.3205 -0.0424 -0.7702
 8918SOL     OW38386   2.520   2.572  12.418 -0.2249  0.1735  0.4810
 8918SOL    HW138387   2.562   2.652  12.389  1.5792 -0.6317  0.8458
 8918SOL    HW238388   2.464   2.601  12.490 -0.6803  1.2644 -0.3331
 8919SOL     OW38389   3.542   2.407   4.541 -0.2419 -0.5122  0.4392
 8919SOL    HW138390   3.591   2.340   4.493 -0.1428  0.3552 -0.6696
 8919SOL    HW238391   3.488   2.360   4.604  0.5043 -2.0741 -0.0924
 8920SOL     OW38392   2.186   1.940   8.433 -0.1244 -0.0072 -0.2048
 8920SOL    HW138393   2.237   1.870   8.473 -0.9266 -0.2303  0.4435
 8920SOL    HW238394   2.116   1.941   8.499  0.0973 -0.4240  0.0349
 8921SOL     OW38395   2.657   1.610   8.799 -0.4924 -0.2279  0.4358
 8921SOL    HW138396   2.740   1.608   8.751 -0.7581  1.5425 -0.0982
 8921SOL    HW238397   2.685   1.577   8.885 -0.5820 -0.6748  0.2910
 8922SOL     OW38398   2.836   3.511   5.006  0.3798  0.1808  0.3501
 8922SOL    HW138399   2.831   3.416   5.014 -1.4273  0.1994 -0.6338
 8922SOL    HW238400   2.834   3.546   5.095 -1.1786 -0.5234  0.5990
 8923SOL     OW38401   2.863   0.876   3.126 -0.1211  0.0638 -0.2016
 8923SOL    HW138402   2.852   0.874   3.221 -1.3644  1.1730 -0.3183
 8923SOL    HW238403   2.916   0.798   3.113 -2.0628 -1.3544  0.3420
 8924SOL     OW38404   2.765   3.559   1.997 -0.1479 -0.2121 -0.5231
 8924SOL    HW138405   2.832   3.494   1.977 -0.6318 -1.1508  0.9068
 8924SOL    HW238406   2.777   3.576   2.091  0.6450 -1.7647 -0.3497
 8925SOL     OW38407   2.041   4.388   5.011  0.0414 -0.1203  0.4320
 8925SOL    HW138408   2.064   4.355   4.924  0.2724  2.3478 -0.4673
 8925SOL    HW238409   2.122   4.377   5.061  2.2603  1.7589 -2.6808
 8926SOL     OW38410   2.715   2.409  11.966 -0.5732  0.0333 -0.3373
 8926SOL    HW138411   2.707   2.495  11.923 -0.2531  1.4519  2.4560
 8926SOL    HW238412   2.693   2.433  12.056 -2.1879 -0.9823 -0.4534
 8927SOL     OW38413   0.032   2.337   0.025  0.2042  0.3127 -0.2313
 8927SOL    HW138414   4.707   2.309   0.092  0.2082  0.5451 -0.1316
 8927SOL    HW238415   0.105   2.346   0.086  0.1634  1.8846 -0.4167
 8928SOL     OW38416   2.930   3.667  12.591  0.5178 -0.6158  0.3413
 8928SOL    HW138417   2.902   3.755  12.566 -0.4300 -0.7217  1.0312
 8928SOL    HW238418   3.009   3.693  12.639  0.7366  1.7621 -1.2966
 8929SOL     OW38419   1.442   0.325   5.700  0.2482  0.2335  0.2307
 8929SOL    HW138420   1.466   0.410   5.663 -0.1795  0.3757  0.2735
 8929SOL    HW238421   1.351   0.339   5.726 -0.1427  0.3356 -1.1839
 8930SOL     OW38422   2.182   2.323  13.068  0.2761  0.0493 -0.1692
 8930SOL    HW138423   2.222   2.345  13.152  1.3785 -0.3681 -0.5945
 8930SOL    HW238424   2.250   2.266  13.033 -1.0471 -1.7699  0.2205
 8931SOL     OW38425   2.160   3.890   6.630  0.4834 -0.2439 -0.5753
 8931SOL    HW138426   2.120   3.960   6.682 -0.6448 -0.5132 -1.0803
 8931SOL    HW238427   2.113   3.812   6.660  0.3259 -0.7851 -2.1933
 8932SOL     OW38428   1.366   3.534   5.029 -0.2239 -0.0701 -0.1480
 8932SOL    HW138429   1.393   3.593   4.959 -0.8366  1.2966  0.7759
 8932SOL    HW238430   1.308   3.465   4.994  0.3423 -1.5637  1.8784
 8933SOL     OW38431   4.573   2.796   6.510 -0.8101 -0.0268 -0.5705
 8933SOL    HW138432   4.647   2.794   6.449  0.0634  0.7850  0.4875
 8933SOL    HW238433   4.554   2.888   6.529 -1.5631 -0.7304  2.0679
 8934SOL     OW38434   3.651   1.250  13.707  0.2102  0.4643 -0.3627
 8934SOL    HW138435   3.660   1.342  13.731 -1.3603  0.0752  1.6851
 8934SOL    HW238436   3.661   1.249  13.612  0.0291  1.5442 -0.3956
 8935SOL     OW38437   1.730   0.748   5.840  0.2824  0.2457  0.1897
 8935SOL    HW138438   1.689   0.830   5.813 -0.7768 -0.6682 -0.9861
 8935SOL    HW238439   1.765   0.777   5.925  1.4717  3.2022 -1.3187
 8936SOL     OW38440   4.204   4.263   1.298  0.8138  0.1568 -0.3166
 8936SOL    HW138441   4.231   4.193   1.239  2.4085 -0.6211  1.3397
 8936SOL    HW238442   4.252   4.236   1.376 -1.3874 -1.3022  0.5283
 8937SOL     OW38443   2.814   4.592   4.436  0.6256  0.1603  0.2005
 8937SOL    HW138444   2.904   4.621   4.422 -0.5529  4.3356  1.2618
 8937SOL    HW238445   2.824   4.507   4.392  0.4324  1.3659 -2.1818
 8938SOL     OW38446   2.503   4.506   4.718 -0.5089  0.1863  0.1442
 8938SOL    HW138447   2.447   4.566   4.767  1.3657 -1.2395  3.9814
 8938SOL    HW238448   2.488   4.428   4.770 -1.2093  0.0108 -0.3158
 8939SOL     OW38449   1.474   0.583   3.679 -0.0813 -0.0295 -0.0428
 8939SOL    HW138450   1.542   0.565   3.615 -0.7730  0.8695 -1.0294
 8939SOL    HW238451   1.469   0.678   3.668 -0.2443 -0.2745 -2.0792
 8940SOL     OW38452   0.507   3.322   1.716  0.1731  0.2202 -0.0158
 8940SOL    HW138453   0.526   3.392   1.653 -4.2714  0.7312 -0.7584
 8940SOL    HW238454   0.427   3.348   1.762  1.1521 -1.5812  2.7103
 8941SOL     OW38455   2.362   3.450   5.336  0.0413  0.4125  0.1248
 8941SOL    HW138456   2.398   3.538   5.324 -1.3785  0.5870 -2.9493
 8941SOL    HW238457   2.278   3.457   5.290 -0.8226  0.6293  1.7229
 8942SOL     OW38458   2.874   1.604   8.656 -0.0148 -0.2195  0.7079
 8942SOL    HW138459   2.967   1.628   8.663  0.3053 -1.5314  1.0140
 8942SOL    HW238460   2.884   1.510   8.641  1.2291 -0.0043  0.1375
 8943SOL     OW38461   0.247   4.311   0.916  0.2975  0.2599 -0.3692
 8943SOL    HW138462   0.241   4.365   0.995 -0.3599 -0.0424 -0.2121
 8943SOL    HW238463   0.152   4.303   0.906  0.3066  1.3013 -1.2559
 8944SOL     OW38464   1.110   0.812   5.288  0.2834  0.0838  0.3774
 8944SOL    HW138465   1.054   0.885   5.313  0.5066  1.0533 -2.0215
 8944SOL    HW238466   1.193   0.857   5.272 -0.1400  0.8284  0.3052
 8945SOL     OW38467   2.286   3.981   8.975 -0.8123  0.2684  0.3510
 8945SOL    HW138468   2.309   4.067   8.939 -1.7600 -0.1538 -1.2131
 8945SOL    HW238469   2.333   3.985   9.059 -1.1269  0.9442  0.4992
 8946SOL     OW38470   0.358   0.123  16.424  0.1448 -0.7870  0.4141
 8946SOL    HW138471   0.415   0.046  16.423  1.1913 -0.0263  1.4997
 8946SOL    HW238472   0.355   0.157  16.334 -2.2427  1.9866  1.5373
 8947SOL     OW38473   4.703   1.296   0.897  0.0672  0.5786 -0.2600
 8947SOL    HW138474   4.622   1.330   0.934  0.1745 -1.2238  1.6634
 8947SOL    HW238475   0.007   1.382   0.904 -0.2284  0.8071 -1.3418
 8948SOL     OW38476   2.292   3.950   5.066 -0.2733 -0.2189 -0.0066
 8948SOL    HW138477   2.287   4.000   4.985 -0.9465  1.3875  1.0266
 8948SOL    HW238478   2.211   3.984   5.105 -1.7853 -0.4871 -2.8561
 8949SOL     OW38479   2.471   2.281   1.173 -0.1557  0.2967 -0.5565
 8949SOL    HW138480   2.496   2.313   1.260 -0.4560 -1.1105  0.0500
 8949SOL    HW238481   2.447   2.363   1.129  0.4720  0.7867  0.0057
 8950SOL     OW38482   2.452   2.295  13.579  0.5042  0.6205  0.2189
 8950SOL    HW138483   2.546   2.308  13.586  0.1703  2.0297  1.9702
 8950SOL    HW238484   2.450   2.228  13.510 -1.7238  0.3217  0.5511
 8951SOL     OW38485   0.633   2.011   6.031 -0.4122 -0.3548  0.2588
 8951SOL    HW138486   0.548   2.055   6.030 -0.2199  0.0032 -0.5384
 8951SOL    HW238487   0.606   1.921   6.014 -0.5360 -0.3203  0.2707
 8952SOL     OW38488   2.218   0.758   3.529 -0.1560  0.2843  0.0352
 8952SOL    HW138489   2.191   0.776   3.619  2.0029 -2.7530  1.3286
 8952SOL    HW238490   2.133   0.721   3.504 -0.3720 -0.4320  1.7988
 8953SOL     OW38491   0.671   3.896  14.291 -0.3689 -0.8403  0.4136
 8953SOL    HW138492   0.620   3.965  14.334  0.8780  0.6313 -0.4591
 8953SOL    HW238493   0.746   3.948  14.260  0.7100 -0.3107  3.8583
 8954SOL     OW38494   2.814   0.036  16.246  0.1248  0.0018 -0.2149
 8954SOL    HW138495   2.846   0.031  16.336  0.7313 -1.0559 -0.4927
 8954SOL    HW238496   2.866   0.101  16.199 -0.3698  1.3837  1.1548
 8955SOL     OW38497   1.783   4.429   8.321  0.6857  0.5312  0.0893
 8955SOL    HW138498   1.693   4.396   8.327  1.4920 -1.8788 -0.8561
 8955SOL    HW238499   1.762   4.518   8.348  0.8711  1.4037 -2.6491
 8956SOL     OW38500   1.660   3.231   4.396  0.1910  0.0498 -0.5833
 8956SOL    HW138501   1.642   3.173   4.470  0.0205 -0.7146 -1.2217
 8956SOL    HW238502   1.607   3.194   4.326 -0.6692  1.5021 -0.7018
 8957SOL     OW38503   1.255   3.078   2.779 -0.6117 -0.4286 -0.4759
 8957SOL    HW138504   1.270   3.163   2.822  1.4000 -0.3210 -1.3620
 8957SOL    HW238505   1.308   3.019   2.832 -0.2435  1.3813  1.1970
 8958SOL     OW38506   4.440   4.330   0.991 -0.8230  0.1287 -0.0870
 8958SOL    HW138507   4.450   4.361   0.901 -2.2078 -1.5909 -0.8326
 8958SOL    HW238508   4.439   4.235   0.979 -3.6013  0.1586 -0.1998
 8959SOL     OW38509   0.186   2.552  13.151  0.0652  0.2615 -0.2195
 8959SOL    HW138510   0.259   2.534  13.093 -0.6231 -1.4676 -0.5552
 8959SOL    HW238511   0.200   2.521  13.240 -0.9370  1.6342  0.4387
 8960SOL     OW38512   2.808   0.858   2.639  0.0041 -0.4638  0.6825
 8960SOL    HW138513   2.870   0.908   2.692  0.0203 -0.6315  0.8222
 8960SOL    HW238514   2.842   0.768   2.637  1.8457  0.2086  2.1565
 8961SOL     OW38515   2.826   0.267   5.340  0.5834 -0.3388 -0.0834
 8961SOL    HW138516   2.796   0.215   5.265 -1.0746  3.3510 -2.0300
 8961SOL    HW238517   2.795   0.355   5.317 -0.0980 -0.7491 -0.7440
 8962SOL     OW38518   1.910   4.538   1.071  0.3017 -0.5953 -0.1163
 8962SOL    HW138519   1.920   4.459   1.017  0.7651  0.0229 -0.9307
 8962SOL    HW238520   1.990   4.588   1.054  1.8208 -3.1146 -0.4227
 8963SOL     OW38521   1.050   1.153   3.620 -0.0462  0.2269 -0.1910
 8963SOL    HW138522   1.059   1.160   3.525  1.4239  1.5501  0.0426
 8963SOL    HW238523   0.990   1.226   3.637 -0.9711 -0.1729 -1.7304
 8964SOL     OW38524   4.056   2.853  11.707  0.3823  0.5052  0.3815
 8964SOL    HW138525   4.088   2.785  11.767  1.5713 -0.4181 -1.2980
 8964SOL    HW238526   4.106   2.923  11.749  0.2357  0.3934  0.7438
 8965SOL     OW38527   2.978   2.152  11.418  0.3181 -0.0242  0.0795
 8965SOL    HW138528   3.048   2.140  11.355 -1.1003 -2.8679 -0.9685
 8965SOL    HW238529   2.927   2.072  11.406 -0.7456  0.7827 -0.7496
 8966SOL     OW38530   0.116   0.392  13.668  0.1806  0.4425  0.4117
 8966SOL    HW138531   0.061   0.326  13.709  1.8422 -1.2963 -0.1390
 8966SOL    HW238532   0.194   0.338  13.658 -1.8883 -2.1839 -1.3824
 8967SOL     OW38533   0.164   2.769  12.405  0.2358 -0.0757  0.1028
 8967SOL    HW138534   0.187   2.843  12.349 -0.8455  1.9738  2.3360
 8967SOL    HW238535   0.243   2.761  12.458 -1.3016  0.8539  2.5651
 8968SOL     OW38536   3.557   0.224   8.740  0.0091  0.8071  0.4323
 8968SOL    HW138537   3.571   0.248   8.648  0.0731 -2.2593 -0.3661
 8968SOL    HW238538   3.485   0.161   8.730 -0.9895  2.0982 -0.4417
 8969SOL     OW38539   3.671   2.891   7.087  0.2373  0.1359 -0.6191
 8969SOL    HW138540   3.679   2.797   7.074  1.4394  0.3398 -1.4200
 8969SOL    HW238541   3.738   2.914   7.152 -2.9667 -1.0392  3.0925
 8970SOL     OW38542   1.609   1.128   2.837 -0.4785  0.8338  0.0232
 8970SOL    HW138543   1.678   1.121   2.771  1.2514 -0.6049  2.0091
 8970SOL    HW238544   1.612   1.218   2.869 -1.4263  1.3956 -1.4682
 8971SOL     OW38545   1.090   1.756  16.731 -0.5169 -0.2881  0.1797
 8971SOL    HW138546   1.150   1.687  16.704  0.0437 -0.2764  1.3996
 8971SOL    HW238547   1.024   1.709  16.782  0.9443 -0.5265  1.8427
 8972SOL     OW38548   3.424   2.002  10.224  0.8030 -0.6419 -0.1230
 8972SOL    HW138549   3.445   1.978  10.133 -0.5756  2.3823 -1.2341
 8972SOL    HW238550   3.415   2.097  10.228  2.5107 -0.4006 -1.7380
 8973SOL     OW38551   1.669   0.556   7.276 -0.5696  0.3410  0.3280
 8973SOL    HW138552   1.631   0.476   7.312 -1.1844 -0.4286 -2.0177
 8973SOL    HW238553   1.687   0.600   7.359 -1.1263 -0.8926  1.1065
 8974SOL     OW38554   1.797   2.230   9.956  0.3368 -0.4979 -0.1145
 8974SOL    HW138555   1.832   2.286  10.025  0.0097 -0.7156  0.2253
 8974SOL    HW238556   1.707   2.262   9.948  0.5254  0.8030  3.0986
 8975SOL     OW38557   0.382   3.346  13.860  0.2044  0.2805  0.5001
 8975SOL    HW138558   0.319   3.373  13.794 -1.1794 -2.1289  0.8428
 8975SOL    HW238559   0.460   3.349  13.805 -0.8290  0.2987 -0.9373
 8976SOL     OW38560   1.956   3.003   6.996  0.0820  0.3340  0.3693
 8976SOL    HW138561   1.924   2.947   7.067  0.6138  0.5146  0.7513
 8976SOL    HW238562   2.037   3.035   7.036 -0.3078  0.7301  0.8366
 8977SOL     OW38563   0.914   3.923   8.894  0.0659  0.3005  0.3893
 8977SOL    HW138564   0.832   3.959   8.928 -0.6384 -0.3751 -0.5898
 8977SOL    HW238565   0.975   3.965   8.955  1.3845 -0.8842 -0.0971
 8978SOL     OW38566   2.981   0.458  16.537 -0.1863 -0.9238 -0.0988
 8978SOL    HW138567   3.013   0.530  16.593 -0.1679  1.1796 -2.8275
 8978SOL    HW238568   3.052   0.395  16.540 -0.3430 -1.0965 -0.0285
 8979SOL     OW38569   4.558   3.438  11.650 -0.2296  0.2993 -0.2149
 8979SOL    HW138570   4.511   3.399  11.576 -0.5668  1.1610 -0.4587
 8979SOL    HW238571   4.609   3.364  11.681 -0.4801  0.5545  0.8194
 8980SOL     OW38572   2.555   2.264   4.253 -0.4161 -0.1172  0.2891
 8980SOL    HW138573   2.621   2.254   4.322 -0.5085  0.0275  0.3995
 8980SOL    HW238574   2.611   2.308   4.189 -1.4460  0.4092 -0.2505
 8981SOL     OW38575   2.640   1.389   7.789  0.1885 -0.1890 -0.2612
 8981SOL    HW138576   2.679   1.431   7.865 -0.8247 -0.6211  0.4977
 8981SOL    HW238577   2.641   1.301   7.826 -0.1412 -0.3051 -0.5322
 8982SOL     OW38578   0.440   2.469   3.578  0.5658  0.1664  0.1998
 8982SOL    HW138579   0.437   2.509   3.491  1.6683 -1.9263 -0.8000
 8982SOL    HW238580   0.451   2.547   3.633  1.1230  0.8586 -0.8671
 8983SOL     OW38581   3.130   1.053  17.545  1.2117  0.2376  0.0966
 8983SOL    HW138582   3.208   1.087  17.501  1.4101  0.3630  0.5486
 8983SOL    HW238583   3.139   1.078  17.637  0.1968 -1.0568  0.5446
 8984SOL     OW38584   0.426   2.616   3.348  0.2339  0.0076 -0.3808
 8984SOL    HW138585   0.406   2.681   3.415 -2.6668  1.1053 -2.3284
 8984SOL    HW238586   0.521   2.631   3.343  0.5920 -2.4749 -1.2771
 8985SOL     OW38587   2.344   1.499   5.457 -0.7737 -0.0751  0.1306
 8985SOL    HW138588   2.278   1.442   5.415 -1.4874  2.2662 -1.9274
 8985SOL    HW238589   2.395   1.524   5.380 -2.8468 -0.4689 -1.3923
 8986SOL     OW38590   4.184   1.854   4.731  0.0555  0.2098  0.2207
 8986SOL    HW138591   4.248   1.922   4.711 -0.5527  1.2106  1.6593
 8986SOL    HW238592   4.246   1.796   4.775 -0.5770 -1.7704 -1.5520
 8987SOL     OW38593   4.666   1.682   1.380  0.1793 -0.2404  0.0545
 8987SOL    HW138594   4.681   1.724   1.296  3.8474  0.2692  0.9802
 8987SOL    HW238595   4.717   1.738   1.439  0.2015 -1.2069  0.9484
 8988SOL     OW38596   4.579   2.607   3.043 -0.2335  0.4560  0.1824
 8988SOL    HW138597   4.507   2.595   2.982  1.0682  2.3579 -1.7601
 8988SOL    HW238598   4.582   2.519   3.080  0.4305 -0.1320 -1.2708
 8989SOL     OW38599   0.999   1.907   9.998  1.0944  0.0323 -0.2548
 8989SOL    HW138600   0.945   1.981  10.026 -0.3043 -0.3356 -1.9500
 8989SOL    HW238601   0.988   1.861  10.081  0.3453  1.3033  0.3418
 8990SOL     OW38602   1.359   0.707   5.453 -0.1371 -0.2516 -0.5093
 8990SOL    HW138603   1.353   0.801   5.442 -0.9616 -0.2295  0.1447
 8990SOL    HW238604   1.286   0.689   5.513 -0.4284 -1.7757 -1.3215
 8991SOL     OW38605   2.080   0.453   4.661 -0.9486 -0.2237  0.0336
 8991SOL    HW138606   2.148   0.387   4.674  1.1504  1.7616 -0.7129
 8991SOL    HW238607   1.999   0.402   4.655 -0.7189 -0.2657 -2.6885
 8992SOL     OW38608   2.648   3.120  14.536  0.5857 -0.9177 -0.3695
 8992SOL    HW138609   2.553   3.110  14.548  0.2361  3.4671  0.5087
 8992SOL    HW238610   2.662   3.147  14.627 -2.0421  2.4591 -0.9787
 8993SOL     OW38611   3.065   1.303   6.255 -0.1504  0.2565  0.8528
 8993SOL    HW138612   2.977   1.272   6.232  0.2359 -0.4039  0.2756
 8993SOL    HW238613   3.117   1.223   6.263  0.2674  0.3395 -1.0579
 8994SOL     OW38614   2.471   1.019   9.603 -0.0689  0.4076 -0.7063
 8994SOL    HW138615   2.531   1.090   9.580 -1.1465  1.1209 -1.3245
 8994SOL    HW238616   2.507   0.990   9.687 -0.9135  0.6736 -0.2596
 8995SOL     OW38617   1.180   4.566   1.848  0.3677 -0.0566  0.8168
 8995SOL    HW138618   1.237   4.628   1.894 -0.1888  1.8873 -1.1156
 8995SOL    HW238619   1.096   4.575   1.893 -0.1529  1.9610 -0.5664
 8996SOL     OW38620   2.666   0.208   0.944 -0.3370 -0.0347 -0.4838
 8996SOL    HW138621   2.700   0.143   1.006  2.3926  1.7302 -0.1173
 8996SOL    HW238622   2.743   0.266   0.941 -0.8505  0.5961 -1.3574
 8997SOL     OW38623   0.826   4.530   8.041 -0.3078 -0.0602  0.0973
 8997SOL    HW138624   0.779   4.459   8.085  1.9380 -1.8428 -0.3523
 8997SOL    HW238625   0.816   4.606   8.098  2.4913 -0.0331  0.5226
 8998SOL     OW38626   0.023   1.494   1.198 -0.2596  0.0249  0.3011
 8998SOL    HW138627   4.678   1.533   1.171 -0.7995 -1.8908 -0.8347
 8998SOL    HW238628   0.029   1.541   1.281  1.0022 -1.1918  0.8961
 8999SOL     OW38629   1.271   3.119  16.860  0.1998 -0.3266  0.5288
 8999SOL    HW138630   1.360   3.129  16.826  0.8995  1.6433  2.8531
 8999SOL    HW238631   1.233   3.087  16.779 -0.2971  0.5411  0.4127
 9000SOL     OW38632   4.076   1.650   9.410 -0.6291 -0.0208  0.2895
 9000SOL    HW138633   4.152   1.623   9.461 -1.5231  0.6854  1.9877
 9000SOL    HW238634   4.094   1.580   9.346  2.7063  0.2152  0.9741
 9001SOL     OW38635   1.903   0.558  16.129  0.4113 -0.2545 -0.0581
 9001SOL    HW138636   1.882   0.650  16.149 -0.9342 -0.6303  0.2576
 9001SOL    HW238637   1.916   0.557  16.035 -1.3646  0.3748 -0.3228
 9002SOL     OW38638   0.142   4.206   8.711  0.2615 -0.2973  0.1504
 9002SOL    HW138639   0.074   4.234   8.772 -0.4149  0.8284 -1.1283
 9002SOL    HW238640   0.212   4.271   8.718 -1.8218  2.0540 -1.0213
 9003SOL     OW38641   1.340   1.370   5.632  0.3702  0.4629 -0.2626
 9003SOL    HW138642   1.249   1.348   5.653  0.9738 -3.3771 -1.8580
 9003SOL    HW238643   1.352   1.463   5.654  0.9827  0.7831 -1.9174
 9004SOL     OW38644   4.111   1.049   4.273 -0.2756 -0.0470  0.5643
 9004SOL    HW138645   4.163   1.073   4.349  2.7277 -1.3964 -1.0739
 9004SOL    HW238646   4.076   0.968   4.310 -2.7196  1.5763  1.8090
 9005SOL     OW38647   4.565   3.141   1.842  0.0953  0.2440  0.2395
 9005SOL    HW138648   4.614   3.172   1.918 -0.6125  1.8988  0.0061
 9005SOL    HW238649   4.600   3.052   1.838 -0.3433  0.1032 -0.5399
 9006SOL     OW38650   3.462   3.274   6.834  0.4439  0.2218  0.2001
 9006SOL    HW138651   3.516   3.199   6.858  2.3136  1.2346 -0.8860
 9006SOL    HW238652   3.489   3.337   6.900  0.0842  2.3046 -1.6135
 9007SOL     OW38653   2.473   0.514  12.505 -0.0396 -0.0834  0.4564
 9007SOL    HW138654   2.566   0.536  12.500  0.7559 -3.5979 -0.4039
 9007SOL    HW238655   2.438   0.603  12.501 -0.5073 -0.2856  0.1662
 9008SOL     OW38656   0.350   0.395  11.729 -0.2401  0.0768 -0.1730
 9008SOL    HW138657   0.445   0.384  11.732 -0.2434 -0.5481 -2.3796
 9008SOL    HW238658   0.332   0.424  11.818  2.4656  0.5757  0.2261
 9009SOL     OW38659   3.296   2.946   3.432  0.1626  0.1781 -0.3210
 9009SOL    HW138660   3.242   3.025   3.440  1.0034  0.7019  0.1766
 9009SOL    HW238661   3.279   2.925   3.340  2.1488 -1.7682 -0.2401
 9010SOL     OW38662   3.353   1.016   4.779 -0.0287 -0.1209 -0.0261
 9010SOL    HW138663   3.419   0.974   4.724 -1.3318 -1.8583 -0.2608
 9010SOL    HW238664   3.386   1.015   4.869  0.8912  1.9622 -0.3569
 9011SOL     OW38665   4.166   3.405   4.385 -0.5627 -0.0661 -0.5002
 9011SOL    HW138666   4.232   3.473   4.372 -1.3498  0.8772  0.4047
 9011SOL    HW238667   4.192   3.387   4.476 -2.8495  1.6822  0.5049
 9012SOL     OW38668   3.640   4.285   5.853 -0.4402 -0.2173  0.0382
 9012SOL    HW138669   3.570   4.227   5.885 -1.4345  0.9564 -0.0197
 9012SOL    HW238670   3.697   4.226   5.803  2.0762  1.3778  1.0274
 9013SOL     OW38671   3.133   2.008   5.142  0.5742 -0.2792  0.0873
 9013SOL    HW138672   3.168   2.037   5.058  0.0171  1.4915  0.4613
 9013SOL    HW238673   3.081   1.933   5.113  0.0150 -1.5794  4.4287
 9014SOL     OW38674   4.361   0.965   4.463 -0.5324  0.1374  0.3283
 9014SOL    HW138675   4.368   0.923   4.549 -1.0075  1.4353  1.0041
 9014SOL    HW238676   4.429   0.920   4.412  0.4625  1.1323  0.7850
 9015SOL     OW38677   1.009   1.524   0.632 -0.4283  0.0156 -0.1454
 9015SOL    HW138678   1.094   1.536   0.673 -0.8118  0.3637  0.5408
 9015SOL    HW238679   1.006   1.429   0.620  1.6566 -0.1353  0.4588
 9016SOL     OW38680   3.150   2.341   6.997 -0.0244 -0.6851 -0.2116
 9016SOL    HW138681   3.228   2.297   7.031 -0.9451 -2.7392 -0.7327
 9016SOL    HW238682   3.175   2.432   7.015 -1.4211 -0.3303 -0.1135
 9017SOL     OW38683   2.244   3.842   6.095 -0.4504 -0.0769  0.0136
 9017SOL    HW138684   2.231   3.909   6.162  0.7214 -0.2041  0.3697
 9017SOL    HW238685   2.303   3.889   6.036  0.8991 -0.8057  0.7918
 9018SOL     OW38686   0.267   1.547   4.885  0.1127 -0.6346 -0.3113
 9018SOL    HW138687   0.317   1.614   4.838  0.3072  0.5571  1.5753
 9018SOL    HW238688   0.256   1.482   4.816 -0.4391  0.3751 -1.1967
 9019SOL     OW38689   2.264   3.625   6.544 -0.2877  0.4796  0.3922
 9019SOL    HW138690   2.173   3.647   6.564 -0.6865 -1.8509  1.1203
 9019SOL    HW238691   2.262   3.674   6.462  0.9382 -0.3148 -0.1091
 9020SOL     OW38692   0.167   2.702   4.226  0.0960  0.2824 -0.8292
 9020SOL    HW138693   0.172   2.671   4.316  0.1498 -3.9225 -2.2557
 9020SOL    HW238694   0.260   2.694   4.206 -0.1987 -1.1372 -1.6643
 9021SOL     OW38695   3.085   0.799  15.007 -0.3588 -0.4856 -0.0836
 9021SOL    HW138696   3.086   0.717  15.056 -0.1463  0.4341  1.4622
 9021SOL    HW238697   3.102   0.856  15.082 -0.0776  0.1899 -0.6594
 9022SOL     OW38698   0.581   1.737  14.117 -0.3435  0.4507  0.8712
 9022SOL    HW138699   0.568   1.696  14.203 -1.9233 -1.6577 -0.3709
 9022SOL    HW238700   0.673   1.756  14.134  0.5228 -3.6089  0.6785
 9023SOL     OW38701   3.329   4.597   0.320  0.1033 -0.3740 -0.1292
 9023SOL    HW138702   3.340   4.685   0.357 -1.6245 -1.8770  3.9019
 9023SOL    HW238703   3.357   4.612   0.229 -0.6304  2.8839  0.1777
 9024SOL     OW38704   3.288   0.717  14.859 -0.4395  0.0437  0.3275
 9024SOL    HW138705   3.341   0.709  14.938  1.3657  0.7362 -0.8105
 9024SOL    HW238706   3.207   0.753  14.896 -2.2581 -1.4528 -2.1446
 9025SOL     OW38707   2.231   1.085  13.318  0.0097 -0.3949  0.0588
 9025SOL    HW138708   2.136   1.086  13.324  0.0554  2.0930  0.4028
 9025SOL    HW238709   2.249   1.017  13.382 -3.1582 -2.0653 -0.8405
 9026SOL     OW38710   3.273   1.468   8.865  0.3635 -0.2641  0.5436
 9026SOL    HW138711   3.279   1.393   8.924 -0.1839  0.8193  1.9524
 9026SOL    HW238712   3.320   1.539   8.908 -0.3516 -0.0082  0.8995
 9027SOL     OW38713   0.542   1.393   6.979 -0.4071  0.3807  0.0649
 9027SOL    HW138714   0.522   1.361   6.891  1.0448 -0.2443 -0.0377
 9027SOL    HW238715   0.499   1.321   7.024 -0.4380  0.0824 -0.4369
 9028SOL     OW38716   3.819   2.133  13.410  1.0296  0.3265  0.0159
 9028SOL    HW138717   3.825   2.038  13.410  0.0612  0.2652  0.7399
 9028SOL    HW238718   3.729   2.148  13.380  1.6240  0.0864 -1.9449
 9029SOL     OW38719   4.403   1.807   2.725  0.4941  0.3581 -0.1921
 9029SOL    HW138720   4.363   1.769   2.803 -0.0478  0.0624 -0.6141
 9029SOL    HW238721   4.393   1.729   2.670 -0.1959 -0.6715  1.4000
 9030SOL     OW38722   3.014   0.641   4.549 -0.5794 -0.0543 -0.4335
 9030SOL    HW138723   2.955   0.627   4.623  0.9340 -0.9970  0.5797
 9030SOL    HW238724   3.092   0.678   4.589  0.8159 -1.7248 -1.6128
 9031SOL     OW38725   4.302   1.944   6.120 -0.0080  0.0627 -0.1942
 9031SOL    HW138726   4.308   1.977   6.030 -0.7283  0.0902 -0.2338
 9031SOL    HW238727   4.210   1.920   6.133  0.2589 -1.3482 -0.9301
 9032SOL     OW38728   1.496   2.775   4.608 -0.5750 -0.0652  0.4961
 9032SOL    HW138729   1.447   2.823   4.541 -2.4977 -0.3962  1.6822
 9032SOL    HW238730   1.571   2.738   4.562 -0.4289  0.2740  0.4594
 9033SOL     OW38731   1.987   1.480   9.209 -0.1468 -0.0826  0.0694
 9033SOL    HW138732   1.917   1.515   9.265 -0.5050  2.1491 -1.7513
 9033SOL    HW238733   1.992   1.551   9.145 -2.9477 -0.2295 -0.3278
 9034SOL     OW38734   4.439   2.787   1.935 -0.0109 -0.8274 -0.3374
 9034SOL    HW138735   4.450   2.698   1.903  1.4246  0.1091 -2.3963
 9034SOL    HW238736   4.533   2.804   1.929 -0.0467 -1.1757 -1.8584
 9035SOL     OW38737   3.246   2.197   1.394  0.1643  0.6637 -0.2109
 9035SOL    HW138738   3.178   2.217   1.330  1.3879 -2.5738 -2.4804
 9035SOL    HW238739   3.194   2.162   1.466 -0.3704  0.1304 -0.8636
 9036SOL     OW38740   4.281   0.146   3.035 -0.4019  0.2796 -0.5352
 9036SOL    HW138741   4.345   0.079   3.059  2.1232  2.6754 -0.6541
 9036SOL    HW238742   4.287   0.211   3.105 -3.9319 -1.7131  1.6668
 9037SOL     OW38743   1.725   1.310   4.223  0.4274 -0.1674  0.2484
 9037SOL    HW138744   1.800   1.255   4.202  0.3059 -0.3269  0.2291
 9037SOL    HW238745   1.675   1.240   4.265 -1.9692  0.2771 -1.8569
 9038SOL     OW38746   4.064   0.698   7.980  0.3720 -0.0750 -0.0684
 9038SOL    HW138747   4.086   0.608   8.004  1.5364 -0.1295 -1.3441
 9038SOL    HW238748   4.123   0.721   7.907 -1.1106 -0.0799 -1.2717
 9039SOL     OW38749   0.104   2.391   4.699 -0.5733 -0.1911 -0.4089
 9039SOL    HW138750   0.059   2.307   4.701 -0.5683 -0.1360  2.3254
 9039SOL    HW238751   0.031   2.450   4.719  0.6177  1.2754 -0.3796
 9040SOL     OW38752   2.134   2.766  17.709  0.6250  0.0577  0.0294
 9040SOL    HW138753   2.175   2.766  17.623  1.3967  1.8774  0.3796
 9040SOL    HW238754   2.049   2.727  17.692  0.4440  0.3330  0.2993
 9041SOL     OW38755   1.552   0.052  16.768  0.1740  0.1879 -0.1655
 9041SOL    HW138756   1.637   0.090  16.788 -0.0181  0.9313 -0.7507
 9041SOL    HW238757   1.575   4.722  16.704 -1.3009 -1.7197  1.2769
 9042SOL     OW38758   0.414   3.866   2.537 -0.1664  0.2651 -0.5639
 9042SOL    HW138759   0.356   3.791   2.522  0.5100 -0.0984 -1.3410
 9042SOL    HW238760   0.495   3.817   2.523  0.1868  0.9319 -0.8774
 9043SOL     OW38761   3.296   3.375   5.703  0.3239  0.6752  0.4195
 9043SOL    HW138762   3.345   3.438   5.756  3.5029  0.1906 -1.9617
 9043SOL    HW238763   3.209   3.376   5.743 -0.7819  1.4110 -1.9628
 9044SOL     OW38764   3.704   2.215   5.395  0.0239  0.5238 -0.0112
 9044SOL    HW138765   3.743   2.280   5.336 -2.0772  1.5306 -0.2909
 9044SOL    HW238766   3.611   2.235   5.382 -0.5644 -0.4047  2.8192
 9045SOL     OW38767   3.136   2.888   2.474  0.5901 -0.0300  0.0192
 9045SOL    HW138768   3.158   2.893   2.567 -0.0258 -1.6237  0.2638
 9045SOL    HW238769   3.219   2.880   2.428 -0.0042 -0.2370 -1.0227
 9046SOL     OW38770   2.187   4.047   8.091  0.2469 -0.0121  0.4156
 9046SOL    HW138771   2.131   3.969   8.093  1.8794 -1.1796  0.6998
 9046SOL    HW238772   2.127   4.118   8.115 -0.2833 -0.4558  0.4203
 9047SOL     OW38773   3.667   3.872   9.873  0.2637  0.6513  0.3765
 9047SOL    HW138774   3.732   3.936   9.842 -1.1447  1.5147 -0.7704
 9047SOL    HW238775   3.641   3.828   9.792  1.0533  0.8823 -0.0071
 9048SOL     OW38776   1.804   2.566   3.554 -0.5478 -0.6051 -0.0377
 9048SOL    HW138777   1.840   2.557   3.642 -0.0073 -2.7712 -0.4592
 9048SOL    HW238778   1.718   2.528   3.574 -0.5127 -0.1645  0.9347
 9049SOL     OW38779   0.928   4.185   6.650 -0.1991 -0.0355 -0.1793
 9049SOL    HW138780   0.843   4.166   6.610  0.3496 -2.9300  0.0196
 9049SOL    HW238781   0.980   4.109   6.624 -1.3317 -0.3872 -1.4378
 9050SOL     OW38782   2.638   1.110   4.629  0.3691 -0.0418  0.5449
 9050SOL    HW138783   2.568   1.049   4.605  0.7646 -0.1077 -0.4656
 9050SOL    HW238784   2.600   1.192   4.598  1.7198  0.6693  0.7902
 9051SOL     OW38785   4.401   4.540   1.906 -0.8260 -0.6016 -0.0525
 9051SOL    HW138786   4.396   4.612   1.969 -0.2654 -1.0798  0.5410
 9051SOL    HW238787   4.324   4.485   1.913 -2.8733  2.0302 -1.7266
 9052SOL     OW38788   1.849   0.432  16.698  0.9167 -0.1331  0.1288
 9052SOL    HW138789   1.854   0.462  16.608 -0.1279 -0.5767 -0.0692
 9052SOL    HW238790   1.800   0.501  16.743  1.2374  0.3605 -0.2816
 9053SOL     OW38791   0.966   2.303  16.079 -0.1876 -0.1201 -0.2425
 9053SOL    HW138792   0.914   2.249  16.020 -0.9697  1.9272 -1.4087
 9053SOL    HW238793   0.944   2.394  16.058 -0.7705  0.0277  1.0316
 9054SOL     OW38794   3.732   2.976   8.849 -0.2194 -0.5423 -0.0876
 9054SOL    HW138795   3.674   2.933   8.912 -0.8145  0.4759  0.0555
 9054SOL    HW238796   3.771   3.026   8.921  1.9686 -2.1025 -0.1863
 9055SOL     OW38797   2.917   0.358   2.042 -0.0295  0.4764  0.0256
 9055SOL    HW138798   2.986   0.352   1.975 -0.9739 -0.7324 -0.8512
 9055SOL    HW238799   2.932   0.440   2.088  2.0671  0.1560 -0.0874
 9056SOL     OW38800   1.245   3.889   3.437 -0.8416 -0.2212 -0.0732
 9056SOL    HW138801   1.209   3.929   3.516  1.6821  1.2004  0.3430
 9056SOL    HW238802   1.201   3.936   3.366 -1.6360  0.1097  0.6476
 9057SOL     OW38803   0.645   1.426   2.094 -0.6774 -0.0797  0.2814
 9057SOL    HW138804   0.705   1.429   2.168  1.2010  0.6744 -1.2622
 9057SOL    HW238805   0.558   1.409   2.130 -1.3424  2.1636 -0.2219
 9058SOL     OW38806   1.610   4.559   3.982  0.5150 -0.4536 -0.1184
 9058SOL    HW138807   1.519   4.558   4.012  0.3594 -4.3666 -0.7309
 9058SOL    HW238808   1.634   4.645   4.014  1.9886 -1.2652  0.9691
 9059SOL     OW38809   3.500   2.756   5.554  0.6397  0.1429  0.5268
 9059SOL    HW138810   3.568   2.690   5.564  2.5668  2.0290 -0.1095
 9059SOL    HW238811   3.544   2.808   5.486  0.1841  0.8851  0.8025
 9060SOL     OW38812   3.655   1.155   5.859 -0.1378 -0.3007  0.2174
 9060SOL    HW138813   3.631   1.076   5.907  1.6656 -1.0216 -0.0717
 9060SOL    HW238814   3.750   1.145   5.849  0.1363  0.6392  1.9551
 9061SOL     OW38815   1.519   2.420   0.814  0.2286  0.6458 -0.0368
 9061SOL    HW138816   1.517   2.507   0.854 -0.4341  0.3148  0.6447
 9061SOL    HW238817   1.534   2.363   0.889 -1.9883 -1.8227 -1.4708
 9062SOL     OW38818   3.678   3.858   6.678 -0.6791  0.6065 -0.4608
 9062SOL    HW138819   3.616   3.931   6.684 -0.5903  0.5945  0.6788
 9062SOL    HW238820   3.740   3.885   6.746 -2.6653  0.3373  1.4848
 9063SOL     OW38821   2.204   4.005   5.694 -0.2270 -0.2699  0.4309
 9063SOL    HW138822   2.199   3.940   5.624  0.1959 -0.5155  0.6279
 9063SOL    HW238823   2.114   4.038   5.699 -0.8876 -2.1331  0.5369
 9064SOL     OW38824   0.902   4.127   4.045 -0.0790 -0.0968  0.0246
 9064SOL    HW138825   0.888   4.196   4.110  0.0524 -0.5854  0.5709
 9064SOL    HW238826   0.836   4.066   4.077 -0.4644 -0.8063 -2.1330
 9065SOL     OW38827   0.493   0.377   9.364 -0.3933 -0.1435  0.3044
 9065SOL    HW138828   0.437   0.454   9.372 -0.0806  0.2035 -0.9488
 9065SOL    HW238829   0.424   0.313   9.350 -1.7504  1.3442  0.1934
 9066SOL     OW38830   3.521   1.390   9.375  0.1183 -0.2305 -0.2527
 9066SOL    HW138831   3.555   1.309   9.336  2.4454  0.3267  0.6671
 9066SOL    HW238832   3.605   1.430   9.394 -0.5714  2.7088 -3.3327
 9067SOL     OW38833   2.139   3.246  13.465 -0.5977 -0.1357 -0.5628
 9067SOL    HW138834   2.063   3.282  13.512 -0.4333  0.4698 -0.7534
 9067SOL    HW238835   2.137   3.311  13.395 -0.8045  0.7627  0.2556
 9068SOL     OW38836   1.517   3.222   3.711  0.1779 -0.5541 -0.4011
 9068SOL    HW138837   1.598   3.267   3.688 -1.0433  0.3006 -2.9781
 9068SOL    HW238838   1.442   3.281   3.703  1.1514  0.8827  0.9499
 9069SOL     OW38839   1.365   1.032   2.918 -0.1792  0.4850 -0.0482
 9069SOL    HW138840   1.453   1.068   2.907  1.0175 -2.4692 -0.1859
 9069SOL    HW238841   1.389   0.950   2.961 -0.5069  1.3958  1.8782
 9070SOL     OW38842   0.749   2.007   8.631 -0.3125  0.5425 -0.1520
 9070SOL    HW138843   0.667   1.958   8.638  1.4711 -2.5664 -0.9923
 9070SOL    HW238844   0.731   2.091   8.674 -2.5302  0.8114 -1.6392
 9071SOL     OW38845   1.880   0.077  12.204 -0.0358 -0.1259 -0.7254
 9071SOL    HW138846   1.972   0.049  12.207  0.3157  1.3329  2.2021
 9071SOL    HW238847   1.843   0.015  12.141  1.0928 -3.4989  1.9844
 9072SOL     OW38848   3.708   0.538   9.476  0.0862 -0.3921  0.2420
 9072SOL    HW138849   3.774   0.485   9.433  1.5744  0.0107  2.0333
 9072SOL    HW238850   3.657   0.570   9.401  1.8746  0.5021 -0.6023
 9073SOL     OW38851   4.290   0.031   4.703  0.6109 -0.3289 -0.1661
 9073SOL    HW138852   4.294   4.698   4.768 -0.5504 -2.7656 -2.7492
 9073SOL    HW238853   4.200   0.025   4.671  0.2429 -0.8283  0.9699
 9074SOL     OW38854   2.212   2.172   2.792  0.0710 -0.2826  0.2461
 9074SOL    HW138855   2.263   2.221   2.856  0.7491 -1.0987  0.3363
 9074SOL    HW238856   2.129   2.219   2.801  1.4770  1.9653  1.5127
 9075SOL     OW38857   3.548   3.440   1.848  0.5887  0.2941  0.0028
 9075SOL    HW138858   3.463   3.399   1.860  0.3803  0.3178 -1.4001
 9075SOL    HW238859   3.551   3.457   1.754 -0.2704  0.4867  0.0116
 9076SOL     OW38860   4.487   3.761   5.269 -0.6181 -0.1252  0.2139
 9076SOL    HW138861   4.531   3.821   5.208  1.2044 -0.1311  1.5368
 9076SOL    HW238862   4.453   3.829   5.328 -1.3627 -0.8399  0.6090
 9077SOL     OW38863   2.437   2.830  10.843 -0.4113  0.7884 -0.5809
 9077SOL    HW138864   2.497   2.755  10.846 -0.2809  0.9008 -0.3194
 9077SOL    HW238865   2.454   2.872  10.759  3.5593  0.1227 -0.1435
 9078SOL     OW38866   2.795   0.992   7.254  0.1994  0.8020 -0.2268
 9078SOL    HW138867   2.771   1.081   7.279 -0.0637  0.4680  0.7004
 9078SOL    HW238868   2.733   0.992   7.181 -0.7558 -1.2916  0.5901
 9079SOL     OW38869   0.823   2.592  12.050  0.1854  0.6786  0.2644
 9079SOL    HW138870   0.841   2.574  12.143 -1.9282  0.3398  0.6074
 9079SOL    HW238871   0.808   2.506  12.011  1.4672  0.1502  0.9253
 9080SOL     OW38872   0.912   0.887   9.396 -0.3504 -0.1990  0.1509
 9080SOL    HW138873   0.888   0.927   9.312  0.3418  0.1708  0.1326
 9080SOL    HW238874   0.997   0.929   9.412 -0.1500 -0.4424 -0.2558
 9081SOL     OW38875   1.427   3.430   5.550  0.5885 -0.0263  0.3801
 9081SOL    HW138876   1.518   3.401   5.554  0.7562  0.3851 -0.3174
 9081SOL    HW238877   1.434   3.508   5.494 -1.9624 -1.0280 -1.3668
 9082SOL     OW38878   1.812   3.160   7.646 -0.2922  0.4864  0.0371
 9082SOL    HW138879   1.842   3.084   7.695  0.9402  1.4037  0.6914
 9082SOL    HW238880   1.830   3.231   7.708 -2.3423 -0.5374  1.7970
 9083SOL     OW38881   3.242   1.294   5.041 -0.4051  0.0341 -0.0820
 9083SOL    HW138882   3.239   1.319   4.949  0.7161 -0.1834 -0.1816
 9083SOL    HW238883   3.285   1.210   5.026 -1.8330 -0.5265 -0.9959
 9084SOL     OW38884   2.227   2.763   5.880 -1.1252  0.2105 -0.3196
 9084SOL    HW138885   2.174   2.842   5.891  0.7167  1.7719 -2.8244
 9084SOL    HW238886   2.178   2.706   5.940  0.0949 -0.1315  0.3569
 9085SOL     OW38887   0.320   1.695  15.989  0.3742 -0.1809 -0.2544
 9085SOL    HW138888   0.255   1.749  15.944 -0.1796 -1.4336 -0.9595
 9085SOL    HW238889   0.367   1.652  15.917  0.6112 -0.5177  0.1023
 9086SOL     OW38890   4.546   2.312  15.107 -0.0241  0.3992 -0.1622
 9086SOL    HW138891   4.454   2.316  15.133  0.8247  0.1662  2.8784
 9086SOL    HW238892   4.532   2.264  15.025 -2.2722  0.6825  0.0479
 9087SOL     OW38893   1.607   2.982   6.098  0.3781 -0.2487 -0.3662
 9087SOL    HW138894   1.557   2.965   6.178 -0.4049 -1.6976 -1.1775
 9087SOL    HW238895   1.651   3.066   6.113  1.6901 -0.9667 -0.1098
 9088SOL     OW38896   2.287   3.009   2.192  0.0393 -0.5258  0.2920
 9088SOL    HW138897   2.380   3.031   2.185 -0.3257  0.8949 -0.1110
 9088SOL    HW238898   2.297   2.939   2.257  3.1291  0.8391  1.2996
 9089SOL     OW38899   2.250   3.154   7.920  0.1451  0.3310  0.1805
 9089SOL    HW138900   2.345   3.164   7.906  0.0605 -0.2702 -0.8595
 9089SOL    HW238901   2.246   3.085   7.986 -1.9460  1.1996  0.9407
 9090SOL     OW38902   1.931   2.132   6.723 -0.1484  0.1813 -0.4151
 9090SOL    HW138903   1.991   2.064   6.695 -0.4335 -0.9930  1.8664
 9090SOL    HW238904   1.853   2.084   6.750  0.1728 -0.2873 -0.3298
 9091SOL     OW38905   3.435   4.404   0.671  1.0174  0.1285  0.7454
 9091SOL    HW138906   3.429   4.331   0.733 -0.1261 -0.7438 -0.4037
 9091SOL    HW238907   3.516   4.440   0.707  0.5062  3.5301 -1.5620
 9092SOL     OW38908   0.725   4.512  16.455  0.4893  0.5872 -0.1232
 9092SOL    HW138909   0.750   4.486  16.544  0.0216 -1.1641 -0.5138
 9092SOL    HW238910   0.699   4.428  16.417 -0.4592  0.3902  0.9305
 9093SOL     OW38911   1.239   0.168   1.812  0.3971 -0.3310 -0.1222
 9093SOL    HW138912   1.332   0.145   1.810  0.6234  0.5627  0.2121
 9093SOL    HW238913   1.233   0.197   1.903  1.6451 -1.2877  0.2701
 9094SOL     OW38914   0.027   3.012   2.330  0.1442  0.1819  0.1482
 9094SOL    HW138915   0.113   2.971   2.316  0.0418  0.2518 -0.6446
 9094SOL    HW238916   4.736   2.974   2.413 -0.1156  0.8179  0.3489
 9095SOL     OW38917   3.491   3.835  12.728  0.3893  0.0933  0.2275
 9095SOL    HW138918   3.480   3.749  12.688 -2.9470  1.0427 -0.8794
 9095SOL    HW238919   3.435   3.824  12.804  1.4480  0.2754  1.0416
 9096SOL     OW38920   3.258   3.522  17.733  0.1584  0.2481  0.2133
 9096SOL    HW138921   3.203   3.494   0.057  1.0657 -0.5336  0.5891
 9096SOL    HW238922   3.273   3.609   0.019  0.3936 -0.4609  1.8803
 9097SOL     OW38923   0.808   4.100   4.448 -0.1032  0.5325 -0.1895
 9097SOL    HW138924   0.863   4.155   4.392 -2.2648  2.1115 -0.7236
 9097SOL    HW238925   0.814   4.012   4.409 -0.7364 -0.3091  1.6270
 9098SOL     OW38926   1.133   1.524   2.135  0.0566  0.0345  0.0561
 9098SOL    HW138927   1.076   1.584   2.182 -1.6036  0.7602 -2.8985
 9098SOL    HW238928   1.143   1.557   2.046 -2.6839  1.1100  0.1479
 9099SOL     OW38929   4.137   3.010   5.451 -0.5943  0.1630  0.0683
 9099SOL    HW138930   4.052   3.051   5.440  0.1820  1.5075 -0.8841
 9099SOL    HW238931   4.105   2.927   5.486 -0.2637 -0.2484 -0.6095
 9100SOL     OW38932   3.156   0.772  17.458  0.3559  0.1131 -0.0305
 9100SOL    HW138933   3.074   0.724  17.451  0.5826 -0.1577 -0.7676
 9100SOL    HW238934   3.133   0.861  17.486  0.8253  0.0272  0.6306
 9101SOL     OW38935   0.546   3.165  14.509 -0.1306  0.0980 -0.6484
 9101SOL    HW138936   0.548   3.260  14.518  2.0182 -0.0844  0.8789
 9101SOL    HW238937   0.508   3.141  14.424  1.3135 -0.3504 -1.1723
 9102SOL     OW38938   0.723   0.210   2.584 -0.0193 -0.2241  0.2382
 9102SOL    HW138939   0.719   0.256   2.668  0.9875  0.2490  0.0319
 9102SOL    HW238940   0.730   0.284   2.523  0.5855  0.9823  1.7795
 9103SOL     OW38941   2.622   1.574   7.337  0.5185 -0.3726 -0.0891
 9103SOL    HW138942   2.637   1.581   7.431 -1.0018  1.3414  0.0162
 9103SOL    HW238943   2.594   1.661   7.309 -0.3692 -0.4866  0.4568
 9104SOL     OW38944   0.840   3.683  10.829  0.4011 -0.3742 -0.3288
 9104SOL    HW138945   0.749   3.659  10.846 -0.1620  0.8490 -1.6478
 9104SOL    HW238946   0.862   3.739  10.903  0.2528 -2.4892  1.3411
 9105SOL     OW38947   2.993   1.262   4.758  0.2016  0.2490 -0.3925
 9105SOL    HW138948   2.980   1.196   4.826  0.3914 -0.7745 -1.3584
 9105SOL    HW238949   3.054   1.217   4.699  1.6810 -1.1128  2.1445
 9106SOL     OW38950   2.611   4.573   1.663 -0.6760  0.2281  0.2339
 9106SOL    HW138951   2.614   4.626   1.743  0.1818 -0.1251  0.4279
 9106SOL    HW238952   2.704   4.573   1.644 -0.6674  2.2461  0.2573
 9107SOL     OW38953   0.472   4.697   6.140 -0.1044  0.3743  0.4139
 9107SOL    HW138954   0.435   4.712   6.228  2.3094 -0.9976  1.6590
 9107SOL    HW238955   0.563   4.677   6.159  0.6440  1.7122 -1.7535
 9108SOL     OW38956   4.360   1.854   3.610  0.2988  0.5306 -0.3973
 9108SOL    HW138957   4.427   1.859   3.678 -1.2358  0.6039  1.1456
 9108SOL    HW238958   4.421   1.810   3.551  0.1055  0.3607 -0.4721
 9109SOL     OW38959   0.342   2.950   6.316  0.2080  0.3919 -0.2655
 9109SOL    HW138960   0.420   2.897   6.300  0.4344 -0.6094  3.9860
 9109SOL    HW238961   0.358   2.997   6.398  0.7799  0.7292 -0.5653
 9110SOL     OW38962   0.962   0.464   7.616  0.3921 -0.0610 -0.0863
 9110SOL    HW138963   0.942   0.417   7.535 -0.4021  0.1916 -0.0353
 9110SOL    HW238964   0.958   0.399   7.686 -2.4124  1.0224  0.7689
 9111SOL     OW38965   1.391   4.396  13.851 -0.2235 -0.1271  0.5706
 9111SOL    HW138966   1.421   4.455  13.782 -0.3956 -2.6851 -1.6890
 9111SOL    HW238967   1.406   4.454  13.926 -0.8166 -1.5744  1.8096
 9112SOL     OW38968   1.006   2.328   3.669  0.3248 -0.4546  0.2415
 9112SOL    HW138969   1.088   2.318   3.622 -0.1992  0.9537 -0.9750
 9112SOL    HW238970   0.950   2.360   3.598 -0.4258  0.4956  1.2602
 9113SOL     OW38971   1.588   0.100  11.046  0.3182 -0.1745 -0.0072
 9113SOL    HW138972   1.554   0.026  11.098  1.1503 -1.5077 -1.3460
 9113SOL    HW238973   1.647   0.155  11.097  0.0209 -0.4353  0.6247
 9114SOL     OW38974   2.267   2.401  13.339  0.0834  0.0138  0.4749
 9114SOL    HW138975   2.218   2.468  13.387  2.7165  0.4043  2.6040
 9114SOL    HW238976   2.359   2.417  13.358  0.7665 -0.0512 -2.6826
 9115SOL     OW38977   1.455   4.112   1.297 -0.1881 -0.1638 -0.3577
 9115SOL    HW138978   1.510   4.047   1.340  1.2134  0.5892 -1.0344
 9115SOL    HW238979   1.440   4.081   1.208 -0.2880 -1.3235  0.0641
 9116SOL     OW38980   1.071   1.275   1.261  0.7256 -0.2537 -0.0293
 9116SOL    HW138981   1.094   1.236   1.346  0.3631  0.3813  0.3628
 9116SOL    HW238982   0.995   1.328   1.285 -0.1776 -0.7745 -1.7433
 9117SOL     OW38983   3.790   3.810   9.578  0.0579  0.1939  0.2247
 9117SOL    HW138984   3.861   3.787   9.639  0.7922 -3.3767 -1.9686
 9117SOL    HW238985   3.748   3.727   9.556 -1.4983  0.1220  3.4459
 9118SOL     OW38986   3.689   2.427  13.545  0.2910 -0.7732 -0.2672
 9118SOL    HW138987   3.734   2.349  13.576 -2.0593 -1.0857  2.4092
 9118SOL    HW238988   3.755   2.493  13.566 -0.2170 -0.5993  0.8406
 9119SOL     OW38989   3.108   1.837   2.264  0.1549 -0.1674 -0.1776
 9119SOL    HW138990   3.061   1.852   2.182  0.9840  1.9605 -0.2720
 9119SOL    HW238991   3.081   1.916   2.311 -0.7270 -0.3667 -0.3396
 9120SOL     OW38992   0.230   0.476   2.088 -0.3339  0.3393 -0.5003
 9120SOL    HW138993   0.312   0.467   2.040  0.1989  1.7712  0.1426
 9120SOL    HW238994   0.201   0.385   2.082 -1.1727  0.5785 -0.1066
 9121SOL     OW38995   1.472   0.270  17.255 -0.3520 -0.4292 -0.1204
 9121SOL    HW138996   1.413   0.338  17.287  0.6075  0.8289 -1.0459
 9121SOL    HW238997   1.537   0.262  17.325 -0.7279  0.3546  0.3178
 9122SOL     OW38998   0.956   4.029  11.779  0.0434  0.0657 -0.1576
 9122SOL    HW138999   0.875   4.025  11.728 -0.6032  0.3357  0.8501
 9122SOL    HW239000   1.012   4.087  11.727 -0.3379  1.0739  0.5574
 9123SOL     OW39001   2.340   3.805   4.329  0.2632 -0.0627 -0.3513
 9123SOL    HW139002   2.377   3.813   4.241  2.8951 -1.2172  0.6497
 9123SOL    HW239003   2.299   3.718   4.324  0.1195  0.0655 -1.4400
 9124SOL     OW39004   1.292   2.731   1.733 -0.3840  0.1855  0.5747
 9124SOL    HW139005   1.210   2.725   1.685 -0.0785  2.0452 -0.1981
 9124SOL    HW239006   1.350   2.663   1.699 -1.5816 -0.4025 -0.2829
 9125SOL     OW39007   0.357   0.789   8.885 -0.1026 -0.4775 -0.0567
 9125SOL    HW139008   0.431   0.753   8.935 -0.8308  0.2679  1.5777
 9125SOL    HW239009   0.373   0.883   8.881 -0.8882 -0.3191  0.3416
 9126SOL     OW39010   4.502   3.846   1.555 -0.2699  0.0528 -0.2306
 9126SOL    HW139011   4.587   3.887   1.573  0.0527  0.6838 -3.2839
 9126SOL    HW239012   4.535   3.756   1.546 -2.2670 -0.8245  1.2191
 9127SOL     OW39013   3.399   0.993   8.246  0.4131  0.4473 -0.9161
 9127SOL    HW139014   3.423   1.005   8.154  0.4343 -0.0349 -0.9736
 9127SOL    HW239015   3.393   1.084   8.276 -0.6578  0.8292 -2.2879
 9128SOL     OW39016   2.987   2.287   1.381 -0.4728  0.3184 -0.0007
 9128SOL    HW139017   2.963   2.335   1.460 -1.3464  0.6695 -0.4775
 9128SOL    HW239018   2.906   2.290   1.329  1.1896  1.7783 -2.5352
 9129SOL     OW39019   3.693   4.562   8.568  0.2835 -0.2834 -0.8436
 9129SOL    HW139020   3.687   4.628   8.499  2.0355 -0.2235 -0.9390
 9129SOL    HW239021   3.745   4.605   8.636 -0.7959 -1.0032  0.4332
 9130SOL     OW39022   1.989   0.721   7.879  0.2053  0.0591  0.1135
 9130SOL    HW139023   2.002   0.815   7.868 -1.4336  0.4292  1.3282
 9130SOL    HW239024   1.913   0.705   7.824 -0.0483 -1.4329  0.9017
 9131SOL     OW39025   3.328   3.015   8.154  0.4259 -0.2513  0.2782
 9131SOL    HW139026   3.320   2.924   8.123 -0.9896  0.1642 -0.5707
 9131SOL    HW239027   3.253   3.066   8.124 -0.8545 -1.5472  1.3137
 9132SOL     OW39028   3.189   0.115   0.495  0.6155  0.5633  0.5313
 9132SOL    HW139029   3.214   0.051   0.563  2.1160  1.2661  0.6277
 9132SOL    HW239030   3.094   0.111   0.492  0.7421 -1.8833  0.0502
 9133SOL     OW39031   4.219   2.824   6.378  0.3660  0.5019 -0.1299
 9133SOL    HW139032   4.178   2.859   6.299  0.4254 -2.3279 -1.4396
 9133SOL    HW239033   4.160   2.854   6.447  1.4184  0.9820  0.5677
 9134SOL     OW39034   3.127   1.701  12.720 -0.4665 -0.8338 -0.1737
 9134SOL    HW139035   3.197   1.680  12.658 -1.4056 -1.0364 -1.1722
 9134SOL    HW239036   3.051   1.663  12.676 -1.4912 -0.9274  1.6781
 9135SOL     OW39037   3.305   3.452   8.647  0.0668 -0.0061  0.6596
 9135SOL    HW139038   3.362   3.405   8.586 -0.4208 -0.7111  0.7404
 9135SOL    HW239039   3.304   3.389   8.719 -0.4389  0.7157  1.2814
 9136SOL     OW39040   0.864   4.229   6.942 -0.0555 -0.1548  0.4628
 9136SOL    HW139041   0.870   4.324   6.951 -0.9718 -0.0639  0.1874
 9136SOL    HW239042   0.890   4.224   6.850 -0.4006  1.1325  0.2999
 9137SOL     OW39043   2.556   0.974   6.764  0.5251  0.7332  0.0055
 9137SOL    HW139044   2.482   0.967   6.703 -1.0642 -0.0186  2.0454
 9137SOL    HW239045   2.554   1.070   6.761 -1.8984  0.6792  0.0651
 9138SOL     OW39046   0.883   1.425  12.824  0.1861 -0.2331 -0.2147
 9138SOL    HW139047   0.799   1.381  12.807  0.2335 -1.1608  1.9262
 9138SOL    HW239048   0.949   1.367  12.786  1.0891  0.4542  0.3066
 9139SOL     OW39049   2.223   0.256   8.507  0.4797 -0.3335  0.1436
 9139SOL    HW139050   2.211   0.286   8.417  2.5237  1.1623  0.3642
 9139SOL    HW239051   2.316   0.237   8.509  0.4841 -0.4485 -1.8248
 9140SOL     OW39052   4.625   1.212   4.142 -0.8075 -0.0843  0.0602
 9140SOL    HW139053   4.554   1.148   4.128  0.5688 -1.1494 -2.0488
 9140SOL    HW239054   4.633   1.211   4.237  0.0284 -1.3205 -0.0188
 9141SOL     OW39055   0.181   0.117  11.499 -0.4539  0.2118  0.5020
 9141SOL    HW139056   0.136   0.041  11.463 -2.0650  0.6930  1.5271
 9141SOL    HW239057   0.273   0.094  11.483 -0.9765 -0.7376 -1.1916
 9142SOL     OW39058   4.234   2.475   8.548  0.3636 -0.2122  0.0351
 9142SOL    HW139059   4.178   2.435   8.481 -0.5389  0.2830  0.5039
 9142SOL    HW239060   4.324   2.452   8.524  0.4595 -1.1982  1.3349
 9143SOL     OW39061   0.443   2.629   8.061 -0.2751  0.0808  0.4242
 9143SOL    HW139062   0.524   2.680   8.067  0.4331 -0.9832 -0.0390
 9143SOL    HW239063   0.415   2.622   8.152  2.7006 -1.3110  1.2417
 9144SOL     OW39064   2.165   1.298   4.416  0.1059 -0.2135 -0.6997
 9144SOL    HW139065   2.167   1.246   4.497  1.4873 -0.4861 -0.9043
 9144SOL    HW239066   2.251   1.339   4.402 -0.8049  2.1498  0.7108
 9145SOL     OW39067   1.906   4.232  11.912  0.3381  0.2513 -0.1966
 9145SOL    HW139068   1.867   4.223  11.999  1.1236 -0.2166  0.1167
 9145SOL    HW239069   1.996   4.203  11.933  0.1726 -2.1565 -2.8016
 9146SOL     OW39070   3.578   3.243   6.584  0.3922  0.1301 -0.5478
 9146SOL    HW139071   3.532   3.245   6.668 -0.6933  1.7778 -1.1614
 9146SOL    HW239072   3.508   3.288   6.537  0.4548  0.1496 -0.6222
 9147SOL     OW39073   0.977   3.269   2.595 -0.3583  0.2190 -0.1676
 9147SOL    HW139074   1.021   3.197   2.550  0.7232  0.0245  1.1867
 9147SOL    HW239075   1.028   3.344   2.566  1.1753 -1.0421 -0.7187
 9148SOL     OW39076   0.077   0.703   0.253  0.0856  0.5667 -0.2085
 9148SOL    HW139077   0.016   0.777   0.262  0.6001  1.0305 -0.5983
 9148SOL    HW239078   0.038   0.663   0.175  1.7606 -1.5722  0.0712
 9149SOL     OW39079   0.914   1.590   1.580 -0.0282 -0.4432  0.3198
 9149SOL    HW139080   0.924   1.567   1.487 -0.8955 -0.8599  0.3299
 9149SOL    HW239081   0.993   1.565   1.627 -0.2303  2.5800  2.2600
 9150SOL     OW39082   0.596   3.253   9.335  0.5913  0.4781  0.4297
 9150SOL    HW139083   0.598   3.214   9.422 -1.0582 -1.8810 -0.5891
 9150SOL    HW239084   0.687   3.266   9.308  1.0426 -1.8639  0.8327
 9151SOL     OW39085   2.596   3.777   8.486  0.5485  0.1240 -0.2079
 9151SOL    HW139086   2.572   3.707   8.547  0.7114  0.2731  0.0282
 9151SOL    HW239087   2.564   3.741   8.403 -1.3193  2.3392 -0.4530
 9152SOL     OW39088   3.168   3.146   2.882 -0.2201  0.1890 -0.1628
 9152SOL    HW139089   3.247   3.196   2.860 -0.8404  1.6241  0.8945
 9152SOL    HW239090   3.170   3.171   2.974  1.1288  0.8574 -0.3698
 9153SOL     OW39091   4.200   3.739   9.587 -0.4992 -0.3035 -0.7003
 9153SOL    HW139092   4.228   3.819   9.543 -0.6871  0.2943  0.2761
 9153SOL    HW239093   4.110   3.756   9.614 -0.1561 -0.0822  0.2689
 9154SOL     OW39094   1.281   3.377  17.612  0.0756 -0.5360  0.3097
 9154SOL    HW139095   1.280   3.308  17.546 -0.0567 -1.4899  1.2985
 9154SOL    HW239096   1.187   3.394  17.607  0.3898  1.1571  0.1785
 9155SOL     OW39097   1.495   2.354   7.226  0.3481 -0.4072 -0.4641
 9155SOL    HW139098   1.457   2.392   7.147  0.1166 -2.0195 -1.1324
 9155SOL    HW239099   1.588   2.356   7.202  0.3363  1.5491 -0.3149
 9156SOL     OW39100   0.460   0.222   6.852  0.1515  0.2128 -0.2560
 9156SOL    HW139101   0.416   0.297   6.893  1.0946  1.2806 -1.2089
 9156SOL    HW239102   0.549   0.226   6.888  0.0743 -1.7611  0.1778
 9157SOL     OW39103   1.596   2.409   8.891  0.0867 -0.1224  0.1577
 9157SOL    HW139104   1.596   2.352   8.814  1.7323 -0.4963  0.4287
 9157SOL    HW239105   1.549   2.353   8.953 -1.4886  0.6947 -0.2939
 9158SOL     OW39106   2.555   4.465  10.041 -0.3538 -0.1082  0.0391
 9158SOL    HW139107   2.580   4.373  10.037  1.3639  0.2455  2.2705
 9158SOL    HW239108   2.477   4.476   9.987 -0.6525 -0.8829  0.3179
 9159SOL     OW39109   0.077   4.523  17.656 -0.0594 -0.3543  0.1060
 9159SOL    HW139110   0.124   4.440  17.658  0.5830  0.0578  2.9916
 9159SOL    HW239111   0.051   4.530  17.748 -1.7939  2.7698 -0.5837
 9160SOL     OW39112   2.982   3.417   4.542 -0.2201  0.4495  0.5068
 9160SOL    HW139113   2.922   3.387   4.611  1.6169 -0.5413  1.6936
 9160SOL    HW239114   3.056   3.363   4.570 -0.5542 -1.0867 -1.6181
 9161SOL     OW39115   1.749   0.404   6.196 -0.2457  0.6537 -0.0835
 9161SOL    HW139116   1.845   0.404   6.195 -0.2305  0.8548  1.5817
 9161SOL    HW239117   1.721   0.408   6.104  0.0340 -0.1812 -0.2017
 9162SOL     OW39118   2.516   0.378   7.916  0.0712 -0.0677 -0.0829
 9162SOL    HW139119   2.519   0.442   7.987  1.4565  0.7329 -0.8602
 9162SOL    HW239120   2.610   0.367   7.900 -0.1338 -0.6416 -0.8875
 9163SOL     OW39121   4.266   4.312  13.023 -0.2996 -0.5647  0.0873
 9163SOL    HW139122   4.272   4.391  12.970 -0.8145  1.1228  2.5617
 9163SOL    HW239123   4.237   4.251  12.956 -0.6173  0.3715 -0.6156
 9164SOL     OW39124   4.680   1.134   1.879 -0.2698  0.4709 -0.1562
 9164SOL    HW139125   4.658   1.208   1.823  0.4638 -1.5319 -3.0695
 9164SOL    HW239126   4.697   1.178   1.962 -1.9210 -0.6487  0.7714
 9165SOL     OW39127   1.138   4.442   8.508  0.6215  0.3607 -0.0670
 9165SOL    HW139128   1.062   4.434   8.451 -1.3969  0.1456  2.6395
 9165SOL    HW239129   1.172   4.354   8.494 -1.3152 -0.1500 -1.5637
 9166SOL     OW39130   3.131   2.434  14.090 -0.0390  0.2411 -0.1457
 9166SOL    HW139131   3.054   2.412  14.142 -1.4096 -0.3470 -2.3946
 9166SOL    HW239132   3.201   2.428  14.154 -2.0748 -3.1472  1.7620
 9167SOL     OW39133   0.897   4.315   5.692 -0.4134  0.1647  0.0767
 9167SOL    HW139134   0.820   4.358   5.728 -1.0336 -0.3405 -0.6556
 9167SOL    HW239135   0.881   4.231   5.734  0.7854 -0.6015 -0.9940
 9168SOL     OW39136   0.901   1.428   7.020  0.0319 -0.1124  0.1786
 9168SOL    HW139137   0.925   1.450   6.930  1.2495 -1.6189  0.1262
 9168SOL    HW239138   0.843   1.502   7.036 -0.7216 -0.7673  0.4901
 9169SOL     OW39139   1.557   3.444  16.004 -0.6260  0.5157 -0.2931
 9169SOL    HW139140   1.608   3.517  16.042 -1.3777  0.4473  0.8492
 9169SOL    HW239141   1.616   3.419  15.933 -1.6615  1.3723 -1.4551
 9170SOL     OW39142   0.729   3.382   6.881 -0.3345 -0.3900  0.0949
 9170SOL    HW139143   0.675   3.316   6.925  2.4631 -2.6144  0.1413
 9170SOL    HW239144   0.765   3.415   6.963 -0.8244  1.6481 -0.4997
 9171SOL     OW39145   3.820   2.241   5.878 -0.0120  0.2712 -0.0385
 9171SOL    HW139146   3.778   2.323   5.904 -0.7894 -0.3599  0.6667
 9171SOL    HW239147   3.749   2.212   5.821 -0.9913  0.5347  1.0646
 9172SOL     OW39148   1.862   3.576  16.987 -0.4411  0.3768 -0.1077
 9172SOL    HW139149   1.794   3.615  17.042  1.4748 -0.7185  3.0492
 9172SOL    HW239150   1.924   3.649  16.988 -0.9454  0.7761  1.7446
 9173SOL     OW39151   1.667   0.909   8.374  0.0431  0.2770 -0.3031
 9173SOL    HW139152   1.731   0.885   8.441 -0.8715 -0.4007  0.3312
 9173SOL    HW239153   1.694   0.853   8.301 -0.7328  0.1884 -0.5308
 9174SOL     OW39154   3.691   4.093   8.348  0.1105 -0.5073  0.2142
 9174SOL    HW139155   3.760   4.120   8.287 -0.8220 -0.3249 -0.7563
 9174SOL    HW239156   3.658   4.181   8.369 -1.8836 -1.3124  0.4926
 9175SOL     OW39157   3.072   2.070  10.207 -0.0543  0.1738  0.1173
 9175SOL    HW139158   3.141   2.118  10.253 -1.9690  0.9210  2.2423
 9175SOL    HW239159   3.121   2.023  10.140  0.7097 -0.1239  0.8896
 9176SOL     OW39160   2.436   3.459   4.033 -0.0620 -0.4236  0.3027
 9176SOL    HW139161   2.391   3.445   3.950  0.3398 -0.4782  0.0933
 9176SOL    HW239162   2.507   3.517   4.004  1.0930 -1.4094  1.1751
 9177SOL     OW39163   1.994   1.018  12.139  0.1278 -0.4206 -0.1834
 9177SOL    HW139164   1.914   1.070  12.140 -0.7621 -1.8193  0.6932
 9177SOL    HW239165   2.054   1.093  12.147 -0.6507  0.2828 -1.0047
 9178SOL     OW39166   2.008   1.852   9.666 -0.0558 -0.4045 -0.4507
 9178SOL    HW139167   2.082   1.854   9.726  0.0490  2.8317 -0.6775
 9178SOL    HW239168   1.984   1.760   9.660  0.1988 -0.5096  0.2532
 9179SOL     OW39169   2.403   2.056  14.536  0.5485  0.2613 -0.2075
 9179SOL    HW139170   2.427   2.139  14.578  1.0885 -0.5083  0.9953
 9179SOL    HW239171   2.466   2.047  14.464  1.0620  0.3041  0.2337
 9180SOL     OW39172   2.731   3.312   3.890 -0.2464 -0.8587  0.4081
 9180SOL    HW139173   2.736   3.284   3.981 -1.2851  0.0436  0.7367
 9180SOL    HW239174   2.639   3.336   3.877 -0.6379 -1.0349  2.8418
 9181SOL     OW39175   2.912   0.227   6.856 -0.4374 -0.1804 -0.4431
 9181SOL    HW139176   2.824   0.231   6.819  0.0673 -3.2155 -1.9506
 9181SOL    HW239177   2.934   0.138   6.828  0.5232 -0.0782 -0.0208
 9182SOL     OW39178   3.891   3.208   3.611 -0.2447 -0.0204  0.2750
 9182SOL    HW139179   3.816   3.263   3.590  0.1123  0.5435  0.4833
 9182SOL    HW239180   3.907   3.175   3.522 -0.4857 -2.2643  1.0630
 9183SOL     OW39181   1.768   0.609   4.720  0.3155  0.3616  0.5778
 9183SOL    HW139182   1.828   0.670   4.764 -1.1452  0.4844  2.3875
 9183SOL    HW239183   1.701   0.627   4.786 -0.1648 -0.5677  0.3382
 9184SOL     OW39184   0.894   1.228  14.105  0.2981  0.0251 -0.2915
 9184SOL    HW139185   0.886   1.278  14.187  0.5421  1.3237 -1.0602
 9184SOL    HW239186   0.809   1.253  14.069 -0.4821  0.0048  1.5149
 9185SOL     OW39187   2.811   1.309   1.408  0.1501  0.5211  0.0508
 9185SOL    HW139188   2.736   1.358   1.375  0.2600  0.5839 -0.1069
 9185SOL    HW239189   2.859   1.307   1.325  1.8878 -3.5544  1.1490
 9186SOL     OW39190   2.832   4.660   2.602 -1.1855  0.0694  0.2390
 9186SOL    HW139191   2.767   4.602   2.561 -0.7466 -0.4381  0.2540
 9186SOL    HW239192   2.788   0.007   2.597  2.0109  1.6729 -0.5736
 9187SOL     OW39193   2.396   1.425   4.366 -0.0223  0.0371  0.6043
 9187SOL    HW139194   2.391   1.519   4.353 -1.3709 -0.6269 -3.6046
 9187SOL    HW239195   2.489   1.420   4.347 -0.2763 -2.4467 -0.0623
 9188SOL     OW39196   3.213   1.688   4.783  0.1975  0.8370 -0.3696
 9188SOL    HW139197   3.152   1.687   4.709  1.3386 -1.1636 -1.2994
 9188SOL    HW239198   3.261   1.768   4.764  0.2715  0.4360 -1.8767
 9189SOL     OW39199   1.683   0.713   9.567  0.2306 -0.8400  0.1944
 9189SOL    HW139200   1.757   0.653   9.565  2.0568  1.4448  0.0159
 9189SOL    HW239201   1.702   0.772   9.494 -1.4883  0.5723  0.8776
 9190SOL     OW39202   4.636   4.476  15.337 -0.1203 -0.4629  0.0767
 9190SOL    HW139203   4.659   4.558  15.380 -0.4232 -0.1623 -0.3349
 9190SOL    HW239204   4.572   4.512  15.276  0.1962  1.4999  0.9017
 9191SOL     OW39205   0.543   2.801   6.659  0.1335 -0.0628 -0.3425
 9191SOL    HW139206   0.611   2.784   6.594  0.1490 -1.0719 -0.0644
 9191SOL    HW239207   0.560   2.731   6.722  3.2180  1.2528  0.2572
 9192SOL     OW39208   0.927   2.100   7.440  0.1410 -0.5018  0.2369
 9192SOL    HW139209   0.852   2.042   7.425 -1.0957  0.5432  2.4639
 9192SOL    HW239210   0.883   2.185   7.434  1.4342  0.2534  1.3953
 9193SOL     OW39211   4.708   2.998   6.775  0.4476  0.1976  0.1541
 9193SOL    HW139212   0.061   2.973   6.757  0.2104  1.0679 -2.2396
 9193SOL    HW239213   4.699   2.938   6.848  1.5847  1.9746  1.7488
 9194SOL     OW39214   2.863   1.911   3.152  0.0919 -0.0275 -0.1526
 9194SOL    HW139215   2.816   1.856   3.089 -1.3815  1.0973 -0.0256
 9194SOL    HW239216   2.805   1.977   3.190  1.6876  0.0808  2.0735
 9195SOL     OW39217   4.225   2.766   9.246 -0.4230 -0.1190 -0.1403
 9195SOL    HW139218   4.260   2.689   9.289  2.0085  0.2505 -1.4612
 9195SOL    HW239219   4.282   2.760   9.169 -0.6696  1.5003 -0.4709
 9196SOL     OW39220   2.557   1.140   9.912 -0.5744  0.3686 -0.2537
 9196SOL    HW139221   2.544   1.205   9.982  1.2089  1.0429 -0.5552
 9196SOL    HW239222   2.467   1.110   9.908 -1.0710  1.6212  1.2583
 9197SOL     OW39223   4.255   4.218   5.211  0.5856 -0.0331 -0.0104
 9197SOL    HW139224   4.230   4.186   5.124  0.2371  0.2269 -0.0045
 9197SOL    HW239225   4.242   4.313   5.206  1.7777  0.0699 -1.0022
 9198SOL     OW39226   0.893   1.688   2.198 -0.3099  0.1947 -0.2446
 9198SOL    HW139227   0.950   1.764   2.181  0.1642  0.6386  3.2951
 9198SOL    HW239228   0.861   1.676   2.109 -1.9435  0.8162  0.2649
 9199SOL     OW39229   2.677   2.787  14.942 -0.7062 -0.0494 -0.0050
 9199SOL    HW139230   2.622   2.744  15.008  0.6174 -2.1303 -0.2566
 9199SOL    HW239231   2.720   2.854  14.996  0.3283 -0.4434 -0.3351
 9200SOL     OW39232   2.457   3.280   5.757 -0.4119  0.2242 -0.7468
 9200SOL    HW139233   2.541   3.235   5.767  1.2188  3.5623  0.7455
 9200SOL    HW239234   2.431   3.293   5.849  1.9122  2.0024 -0.3368
 9201SOL     OW39235   3.095   2.465  17.316  0.6078 -0.0181  0.2503
 9201SOL    HW139236   3.088   2.373  17.292 -0.7551  0.0384  0.4318
 9201SOL    HW239237   3.004   2.490  17.335  0.0596  0.8494 -3.6295
 9202SOL     OW39238   1.384   1.541   9.147  0.3702  0.4813  0.4373
 9202SOL    HW139239   1.382   1.634   9.169 -1.9479  1.1004 -2.4807
 9202SOL    HW239240   1.465   1.520   9.100  0.7857  2.1003  0.4207
 9203SOL     OW39241   2.054   2.420   7.481  0.0224 -0.4316 -0.7282
 9203SOL    HW139242   2.036   2.501   7.528  1.6939 -0.2093 -0.4777
 9203SOL    HW239243   2.055   2.362   7.558 -0.0110  1.5643  0.7725
 9204SOL     OW39244   4.718   1.237   3.109  0.4971 -0.2678  0.1673
 9204SOL    HW139245   4.710   1.289   3.189  0.5072 -1.9264  1.2365
 9204SOL    HW239246   0.060   1.273   3.070 -0.2066  1.2220  0.0813
 9205SOL     OW39247   4.311   4.286   1.566 -0.0370  0.0193  0.2453
 9205SOL    HW139248   4.352   4.353   1.621  0.3629  0.2798 -0.3657
 9205SOL    HW239249   4.391   4.251   1.526 -0.0592 -0.8894  1.0029
 9206SOL     OW39250   0.159   0.112   6.644  0.1328  0.3091  0.5468
 9206SOL    HW139251   0.130   0.125   6.735  2.0863 -0.2437  1.2617
 9206SOL    HW239252   0.207   0.192   6.623 -0.8002  0.7373  0.0352
 9207SOL     OW39253   0.151   1.260   4.378 -0.2996  0.4949  0.6170
 9207SOL    HW139254   0.070   1.310   4.364  0.2992  1.5674  0.9318
 9207SOL    HW239255   0.139   1.220   4.464  0.7263  0.7107  0.8580
 9208SOL     OW39256   4.206   1.242  15.208 -0.0811 -0.2494 -0.0515
 9208SOL    HW139257   4.258   1.285  15.141  1.1687 -3.2435 -1.0165
 9208SOL    HW239258   4.262   1.235  15.285 -3.2055  1.6371  2.3944
 9209SOL     OW39259   2.964   3.171   2.180  0.3009  0.3061  0.3669
 9209SOL    HW139260   2.924   3.097   2.225 -0.5238  1.0966  0.9360
 9209SOL    HW239261   2.936   3.242   2.239 -1.0092 -0.7120  0.9889
 9210SOL     OW39262   4.577   0.784  10.181 -0.2442 -0.0184  0.4512
 9210SOL    HW139263   4.583   0.786  10.277  0.1135  0.1891  0.4274
 9210SOL    HW239264   4.484   0.764  10.175 -0.4581  1.4767 -1.2384
 9211SOL     OW39265   4.369   1.206  12.939  0.0378 -0.2079  0.4151
 9211SOL    HW139266   4.457   1.223  12.904 -1.4986  3.2999 -1.7839
 9211SOL    HW239267   4.308   1.268  12.899  2.1749  1.3256 -0.4414
 9212SOL     OW39268   2.434   0.040  13.447  0.3710 -0.1036 -0.5451
 9212SOL    HW139269   2.419   0.095  13.524 -0.2938 -0.1280 -0.6651
 9212SOL    HW239270   2.471   0.115  13.401 -0.9649  0.4530 -0.7043
 9213SOL     OW39271   2.805   3.260   5.131  0.1049 -0.0477 -0.0753
 9213SOL    HW139272   2.757   3.238   5.211 -0.4874 -1.4804 -0.8317
 9213SOL    HW239273   2.754   3.219   5.062  0.3740 -1.7333  0.7257
 9214SOL     OW39274   4.313   4.499   0.546 -0.1953 -0.1647  0.0331
 9214SOL    HW139275   4.335   4.586   0.580  0.8494  0.0904 -1.2885
 9214SOL    HW239276   4.248   4.471   0.610  0.6970  0.2798  1.1455
 9215SOL     OW39277   4.208   1.649   3.805  0.0214  0.6855 -0.5926
 9215SOL    HW139278   4.225   1.557   3.829 -0.0346  0.9894  0.6535
 9215SOL    HW239279   4.223   1.631   3.713 -2.5813 -0.4066 -0.7732
 9216SOL     OW39280   1.356   4.050  10.701  0.1847 -0.0169 -0.2801
 9216SOL    HW139281   1.327   3.965  10.734 -0.6090  1.7189  3.5210
 9216SOL    HW239282   1.349   4.047  10.606 -0.3804  1.8054 -0.3011
 9217SOL     OW39283   4.379   0.895   3.711  0.4151  0.0752  0.6922
 9217SOL    HW139284   4.368   0.817   3.657 -0.7463  0.0285  0.9936
 9217SOL    HW239285   4.295   0.896   3.757  0.7265 -0.7497  1.2683
 9218SOL     OW39286   0.400   4.168   6.157 -0.5810 -0.7729  0.0767
 9218SOL    HW139287   0.419   4.216   6.237  0.5986 -0.1026 -0.6114
 9218SOL    HW239288   0.307   4.152   6.173 -1.1475  2.6913  0.1862
 9219SOL     OW39289   0.873   1.559   2.935 -0.1527 -0.7011 -0.3568
 9219SOL    HW139290   0.849   1.618   2.864 -0.8430 -0.9428 -0.3212
 9219SOL    HW239291   0.906   1.621   3.001 -1.3307 -0.9643  0.4914
 9220SOL     OW39292   2.633   2.411  13.760 -0.3088 -0.1007 -0.5858
 9220SOL    HW139293   2.658   2.342  13.821 -2.0070  0.1988  0.4627
 9220SOL    HW239294   2.700   2.407  13.692  1.7849 -2.9185  1.6652
 9221SOL     OW39295   4.683   1.786   8.828  0.5769  0.2796  0.1670
 9221SOL    HW139296   4.634   1.762   8.749  1.2392 -1.3578  0.2594
 9221SOL    HW239297   4.656   1.720   8.891 -1.0161  1.3343  0.5887
 9222SOL     OW39298   4.073   2.053   2.039  0.3263 -0.1094  0.0441
 9222SOL    HW139299   4.161   2.037   2.005  0.0847  0.4283 -0.8261
 9222SOL    HW239300   4.067   1.976   2.096  4.5575  0.0451  0.6606
 9223SOL     OW39301   4.344   3.616   4.666 -0.2202  0.2630 -0.2607
 9223SOL    HW139302   4.324   3.523   4.658 -1.5794  0.4551  0.8532
 9223SOL    HW239303   4.299   3.632   4.749  0.6012  2.2903 -0.2061
 9224SOL     OW39304   2.828   1.795   7.192  0.2522  0.1788 -0.1232
 9224SOL    HW139305   2.861   1.879   7.225  0.7691 -0.5073  1.1389
 9224SOL    HW239306   2.748   1.819   7.146 -0.7235 -1.3207  0.7979
 9225SOL     OW39307   1.790   4.136   4.706 -0.3474 -0.3012 -0.3479
 9225SOL    HW139308   1.703   4.096   4.709 -0.2868  0.0180  4.8777
 9225SOL    HW239309   1.801   4.150   4.800  1.4792  0.6155 -0.7072
 9226SOL     OW39310   3.177   1.616   8.651  0.3434  0.1975 -0.1793
 9226SOL    HW139311   3.193   1.550   8.718  0.4162 -0.6299 -1.0152
 9226SOL    HW239312   3.192   1.705   8.683  1.2349  0.2727 -0.7958
 9227SOL     OW39313   4.266   4.049   3.146 -0.6151 -0.0800 -0.1584
 9227SOL    HW139314   4.208   4.061   3.072  0.6281  0.5046 -1.0369
 9227SOL    HW239315   4.247   3.961   3.178 -0.8271 -0.6022 -1.7227
 9228SOL     OW39316   0.291   2.622   4.814 -0.4519  0.6375  0.1723
 9228SOL    HW139317   0.361   2.634   4.879  0.2034  0.1159 -0.4315
 9228SOL    HW239318   0.269   2.530   4.832 -0.0770  0.0048 -2.6717
 9229SOL     OW39319   1.735   3.323  14.977  0.0418 -0.2976  0.2929
 9229SOL    HW139320   1.682   3.354  14.904  0.0600 -1.2724 -0.1309
 9229SOL    HW239321   1.806   3.386  14.965  2.8724 -3.2615  1.4665
 9230SOL     OW39322   0.229   0.989   2.886  0.0127 -0.0604  0.4462
 9230SOL    HW139323   0.276   1.071   2.868  2.0902 -1.1590  0.8785
 9230SOL    HW239324   0.294   0.922   2.905 -0.9874 -1.2037 -0.1409
 9231SOL     OW39325   1.993   0.745   1.516 -0.1559 -0.6477  0.3306
 9231SOL    HW139326   2.050   0.813   1.479 -0.0781 -1.5116 -1.1471
 9231SOL    HW239327   1.921   0.734   1.454 -1.1148  3.2536  0.7402
 9232SOL     OW39328   0.742   2.707   6.508  0.1623 -0.2853 -0.3119
 9232SOL    HW139329   0.766   2.750   6.426  1.4349  0.2903  0.3713
 9232SOL    HW239330   0.762   2.618   6.479  1.8627  0.4353 -1.3430
 9233SOL     OW39331   3.430   0.847   0.629 -0.2175  0.1953 -0.4144
 9233SOL    HW139332   3.511   0.844   0.680  0.2472 -1.4213 -1.2667
 9233SOL    HW239333   3.434   0.766   0.578  2.7561 -1.5051  2.5229
 9234SOL     OW39334   3.217   4.646   3.474 -0.1833  0.3843 -0.0745
 9234SOL    HW139335   3.213   4.732   3.433 -1.7708 -0.7085 -2.2345
 9234SOL    HW239336   3.124   4.625   3.479  0.2465 -1.3448  0.6350
 9235SOL     OW39337   2.846   1.853   5.376 -0.1026  0.0662  0.4932
 9235SOL    HW139338   2.837   1.886   5.465 -0.6799  1.9425 -0.2664
 9235SOL    HW239339   2.929   1.806   5.376 -1.7234 -2.7997 -1.3094
 9236SOL     OW39340   0.755   4.629   9.038 -0.1061  0.1869  0.2957
 9236SOL    HW139341   0.835   4.576   9.039 -0.0714  0.2640  1.6491
 9236SOL    HW239342   0.790   4.718   9.037  0.6726 -0.1196 -0.0373
 9237SOL     OW39343   4.123   0.546   4.116 -0.5950 -0.1261  0.0621
 9237SOL    HW139344   4.189   0.511   4.176  0.9743  0.7162 -1.1635
 9237SOL    HW239345   4.060   0.593   4.170  3.3070 -0.1224  4.6499
 9238SOL     OW39346   4.644   4.132  11.370  0.1082 -0.4108 -0.5320
 9238SOL    HW139347   4.576   4.198  11.383  1.5141  0.7591  0.6731
 9238SOL    HW239348   4.680   4.132  11.458 -1.6096 -1.5628  0.1900
 9239SOL     OW39349   2.124   0.506   2.251  0.0461  0.0459  0.2229
 9239SOL    HW139350   2.139   0.512   2.345  1.6284 -1.9983  0.0921
 9239SOL    HW239351   2.028   0.510   2.247  0.1593  1.5122 -1.1098
 9240SOL     OW39352   0.068   0.301   1.207 -0.2201  0.2644  0.1974
 9240SOL    HW139353   0.019   0.351   1.141  0.9915  1.0008 -0.1482
 9240SOL    HW239354   4.730   0.286   1.264  1.0762 -1.4384  1.4506
 9241SOL     OW39355   1.982   3.303   9.131  0.1278 -0.7583 -0.3526
 9241SOL    HW139356   1.900   3.311   9.180  1.0443  2.3897  0.6640
 9241SOL    HW239357   2.038   3.332   9.203 -1.4628 -0.8876  0.9308
 9242SOL     OW39358   0.469   2.164   3.040 -0.1426  0.3060 -0.0278
 9242SOL    HW139359   0.418   2.216   3.102  0.9452  1.9432 -0.4986
 9242SOL    HW239360   0.450   2.080   3.082 -0.9314 -0.2130 -1.4195
 9243SOL     OW39361   4.136   1.892   4.250 -0.1544 -0.6400 -0.2448
 9243SOL    HW139362   4.120   1.813   4.198 -2.1687 -1.0137  0.9658
 9243SOL    HW239363   4.047   1.925   4.256 -0.1374 -1.0470  2.4920
 9244SOL     OW39364   4.179   0.727   3.587  0.4041 -0.0529 -0.5008
 9244SOL    HW139365   4.112   0.710   3.521  0.4889  2.0095 -1.1152
 9244SOL    HW239366   4.146   0.688   3.668  2.4501  2.4107  1.5201
 9245SOL     OW39367   0.690   3.735   6.065 -0.2406 -0.5434  0.3671
 9245SOL    HW139368   0.674   3.660   6.008  1.8870 -2.0125  1.6739
 9245SOL    HW239369   0.624   3.798   6.037  0.2471  0.1778  0.8388
 9246SOL     OW39370   3.105   0.894  13.855 -0.1774  0.2768 -0.0399
 9246SOL    HW139371   3.118   0.834  13.928  1.7853 -0.8295 -1.2843
 9246SOL    HW239372   3.075   0.970  13.904 -3.0708 -0.8031 -0.1530
 9247SOL     OW39373   4.539   1.030   5.986  0.2031  0.6729 -0.5657
 9247SOL    HW139374   4.600   1.103   5.998  1.5008 -0.3598 -0.8230
 9247SOL    HW239375   4.487   1.032   6.067 -1.1526  0.5632 -1.4399
 9248SOL     OW39376   3.392   2.857   9.558 -0.4085  0.2620  0.3933
 9248SOL    HW139377   3.484   2.880   9.542  0.0577 -0.5215  1.9414
 9248SOL    HW239378   3.406   2.805   9.637  2.0557 -1.6898 -1.3093
 9249SOL     OW39379   1.921   3.010   9.448  0.1367  0.0486 -0.6069
 9249SOL    HW139380   1.957   2.936   9.497 -3.0728  0.8797  3.0355
 9249SOL    HW239381   1.935   3.076   9.516 -0.2076 -0.2345 -0.2645
 9250SOL     OW39382   2.750   3.891   4.291 -0.0682 -0.0508  0.4023
 9250SOL    HW139383   2.751   3.795   4.292  2.5567 -0.0151  1.1702
 9250SOL    HW239384   2.789   3.906   4.377  1.2389 -2.2202  0.1889
 9251SOL     OW39385   4.207   0.951   7.465  0.0529  0.0183  0.1447
 9251SOL    HW139386   4.237   0.938   7.375  1.0568 -0.2648  0.5160
 9251SOL    HW239387   4.217   0.867   7.508 -0.7475 -0.8534 -1.3815
 9252SOL     OW39388   1.163   4.022   2.641  0.0069 -0.6154  0.2590
 9252SOL    HW139389   1.216   3.944   2.657  0.0099 -0.9464 -1.3403
 9252SOL    HW239390   1.216   4.077   2.583 -1.1261 -1.0550 -1.1758
 9253SOL     OW39391   2.988   2.365  12.038 -0.4084 -0.0841 -0.0259
 9253SOL    HW139392   2.901   2.403  12.025 -0.0579  0.5352 -0.5872
 9253SOL    HW239393   2.968   2.296  12.100 -0.8500 -1.2303 -1.4428
 9254SOL     OW39394   2.029   3.822   8.738  0.1748 -0.1620 -0.0468
 9254SOL    HW139395   2.010   3.756   8.671  1.3142 -0.4673 -0.0625
 9254SOL    HW239396   2.113   3.790   8.770  0.7341  1.6179  0.2462
 9255SOL     OW39397   3.120   0.084   2.281  0.7209 -0.4220  0.2374
 9255SOL    HW139398   3.168   0.014   2.326 -3.1567 -1.8790  2.0767
 9255SOL    HW239399   3.044   0.033   2.251 -0.5576  1.0936  0.9233
 9256SOL     OW39400   2.462   1.363   0.232  0.2440  0.1296  0.3019
 9256SOL    HW139401   2.549   1.347   0.196 -0.4893  0.8441 -1.7805
 9256SOL    HW239402   2.481   1.414   0.310 -0.8275  0.2493  0.4859
 9257SOL     OW39403   0.649   3.641  11.692  0.2047  0.2948 -0.0761
 9257SOL    HW139404   0.735   3.657  11.652 -0.0734  0.7073 -0.5085
 9257SOL    HW239405   0.671   3.565  11.745 -0.6587 -1.0213 -1.6373
 9258SOL     OW39406   3.339   2.539  16.605  0.0838  0.1725  0.0680
 9258SOL    HW139407   3.366   2.517  16.695 -0.8398 -1.1848  0.0078
 9258SOL    HW239408   3.401   2.611  16.598 -0.5793  0.8298  1.0549
 9259SOL     OW39409   0.602   4.243   2.830 -0.4392 -0.0825 -0.9674
 9259SOL    HW139410   0.541   4.263   2.760 -0.8302  0.3697 -0.5001
 9259SOL    HW239411   0.597   4.319   2.889 -1.4051  0.7523 -2.1361
 9260SOL     OW39412   4.108   4.496   4.189 -0.0172  0.1463  0.0787
 9260SOL    HW139413   4.099   4.554   4.265 -0.8595  0.5975 -0.3625
 9260SOL    HW239414   4.099   4.570   4.129 -1.8190  1.8927  2.4571
 9261SOL     OW39415   1.477   3.229   4.147  0.7967 -0.0791  0.6317
 9261SOL    HW139416   1.459   3.312   4.192 -0.2765  0.1810 -0.3008
 9261SOL    HW239417   1.397   3.178   4.158  1.4041 -1.2289 -0.3026
 9262SOL     OW39418   1.239   1.061  14.334  0.4271 -0.8611 -0.4193
 9262SOL    HW139419   1.246   0.985  14.275 -0.8700  0.9551 -2.9477
 9262SOL    HW239420   1.144   1.071  14.337  0.3360 -2.4076  1.5279
 9263SOL     OW39421   0.368   4.733   2.161 -0.4149  0.2379 -0.3437
 9263SOL    HW139422   0.443   4.698   2.210 -1.7733 -1.7879  0.2963
 9263SOL    HW239423   0.363   0.089   2.177 -1.3685 -0.3065  2.4486
 9264SOL     OW39424   0.552   2.017   4.285  0.1049 -0.2014  0.3993
 9264SOL    HW139425   0.633   1.978   4.318  0.8263  1.4373  0.5710
 9264SOL    HW239426   0.584   2.017   4.195 -0.0914  0.6974  0.3315
 9265SOL     OW39427   2.171   3.394  16.823 -0.6055  0.0370 -0.1641
 9265SOL    HW139428   2.115   3.471  16.809 -2.5538 -1.6849 -1.8938
 9265SOL    HW239429   2.114   3.318  16.811  1.0880 -1.3682  0.7582
 9266SOL     OW39430   1.018   1.398   9.116  0.4116 -0.3105  0.1289
 9266SOL    HW139431   1.069   1.318   9.128 -2.3391 -2.0775  0.0614
 9266SOL    HW239432   1.016   1.430   9.206 -0.2464  2.3961 -0.8257
 9267SOL     OW39433   0.659   3.665  16.880 -0.2075 -0.1638  0.0372
 9267SOL    HW139434   0.632   3.590  16.932 -0.0628 -0.1636  0.1144
 9267SOL    HW239435   0.607   3.665  16.800  0.0539  1.0661 -0.1418
 9268SOL     OW39436   4.523   2.255   4.930 -0.2064 -0.5713 -0.4887
 9268SOL    HW139437   4.589   2.316   4.897 -0.4174  0.5781  1.1831
 9268SOL    HW239438   4.522   2.192   4.858 -0.7234  0.0025 -0.9883
 9269SOL     OW39439   2.743   4.052   7.458 -0.0326  0.4890  0.7516
 9269SOL    HW139440   2.776   4.019   7.374  0.7268  1.0299  0.8398
 9269SOL    HW239441   2.780   3.996   7.526 -0.7561 -1.8260 -0.7419
 9270SOL     OW39442   4.222   3.510   4.992 -0.4000  0.3583 -0.2818
 9270SOL    HW139443   4.140   3.518   4.943  0.2297  0.1105 -1.3800
 9270SOL    HW239444   4.200   3.435   5.047 -0.3157 -1.5738 -2.8496
 9271SOL     OW39445   3.872   3.280   8.364 -0.2253  0.8866 -0.0824
 9271SOL    HW139446   3.902   3.343   8.429  0.7917  1.9359 -1.5806
 9271SOL    HW239447   3.886   3.196   8.408  0.3309 -0.0536 -2.0549
 9272SOL     OW39448   4.315   3.005   1.432  0.1176 -0.1846 -0.6121
 9272SOL    HW139449   4.357   2.985   1.515 -0.9407  0.8721  0.1668
 9272SOL    HW239450   4.235   2.953   1.439  0.3837 -0.8485 -2.2306
 9273SOL     OW39451   2.199   4.716  11.886  0.0039 -0.3169  0.3137
 9273SOL    HW139452   2.258   0.023  11.947  0.5542  1.9727 -1.9127
 9273SOL    HW239453   2.224   4.624  11.898  1.6254 -0.2001 -2.2009
 9274SOL     OW39454   0.243   3.757   4.802  0.0567  0.1816 -0.0150
 9274SOL    HW139455   0.324   3.806   4.788 -0.9958  1.7207 -0.6797
 9274SOL    HW239456   0.190   3.805   4.866  1.5792  0.6988  0.8513
 9275SOL     OW39457   0.272   1.992   1.952 -0.3486  0.3255 -0.5266
 9275SOL    HW139458   0.306   2.081   1.962  1.6744 -0.5014 -0.0136
 9275SOL    HW239459   0.258   1.984   1.858 -0.3619 -1.2913 -0.3813
 9276SOL     OW39460   0.839   4.630  15.756  0.2440  0.6606 -0.0451
 9276SOL    HW139461   0.801   4.616  15.843 -1.1853 -0.5887 -0.8591
 9276SOL    HW239462   0.902   4.696  15.782 -1.1192  1.3686  1.4643
 9277SOL     OW39463   3.148   0.298   5.405  0.2499 -0.2900 -0.6623
 9277SOL    HW139464   3.102   0.239   5.345 -0.1075 -1.7014  0.9707
 9277SOL    HW239465   3.112   0.377   5.364  1.5745  0.0917 -1.0889
 9278SOL     OW39466   0.842   3.963  17.508  0.2649  0.3827 -0.4801
 9278SOL    HW139467   0.890   3.881  17.500 -0.4673 -0.2243  1.3776
 9278SOL    HW239468   0.775   3.950  17.575  0.2175  2.7576 -0.0417
 9279SOL     OW39469   2.441   1.236  14.305 -0.3538 -0.3853  0.0601
 9279SOL    HW139470   2.417   1.246  14.213 -0.8085  2.2949  0.4646
 9279SOL    HW239471   2.536   1.221  14.306 -0.5675 -1.6544  1.7301
 9280SOL     OW39472   3.340   4.295   8.530  0.5104  0.1646 -0.5291
 9280SOL    HW139473   3.257   4.292   8.576  1.4014  1.2371  1.1344
 9280SOL    HW239474   3.332   4.211   8.486  1.2136 -0.4250  0.4680
 9281SOL     OW39475   4.370   1.350   2.359  0.3127 -0.6946  0.5091
 9281SOL    HW139476   4.350   1.417   2.294  0.4651  0.4055  1.5865
 9281SOL    HW239477   4.287   1.334   2.404  0.0860  2.2351  1.0804
 9282SOL     OW39478   1.874   3.730   4.819  0.1515 -0.5942  0.3712
 9282SOL    HW139479   1.799   3.672   4.823  0.2876 -0.6045  2.7514
 9282SOL    HW239480   1.940   3.673   4.859 -0.0109 -1.8238 -1.1270
 9283SOL     OW39481   1.687   2.813   2.598  0.3593  0.2107 -0.5744
 9283SOL    HW139482   1.708   2.773   2.513 -0.9708 -0.1877 -0.7296
 9283SOL    HW239483   1.653   2.899   2.576  0.9073  0.1996 -1.4619
 9284SOL     OW39484   1.120   1.528   6.393  0.2208 -0.4452  0.1054
 9284SOL    HW139485   1.047   1.467   6.399 -1.1604  1.0904 -1.3693
 9284SOL    HW239486   1.194   1.469   6.408  1.1184  1.0474  1.5345
 9285SOL     OW39487   3.064   0.373   6.132 -1.1847 -0.0625 -0.1623
 9285SOL    HW139488   2.996   0.341   6.073 -1.6441  0.8491 -0.1174
 9285SOL    HW239489   3.137   0.326   6.091 -0.8859 -0.1355  0.4530
 9286SOL     OW39490   1.835   2.627   9.411  0.4286 -0.1524  0.7615
 9286SOL    HW139491   1.784   2.673   9.344  1.0596 -1.0208 -0.3214
 9286SOL    HW239492   1.926   2.642   9.387  0.1710  0.6349  0.2670
 9287SOL     OW39493   2.120   2.049  10.148 -0.1898 -0.1159 -0.2749
 9287SOL    HW139494   2.189   1.989  10.177 -0.0621  0.3073  0.2863
 9287SOL    HW239495   2.057   1.984  10.115 -1.1381  0.6086  0.1169
 9288SOL     OW39496   3.411   1.682   1.593  0.0306  0.2286 -0.0766
 9288SOL    HW139497   3.326   1.725   1.596 -1.4776 -2.7442  0.0412
 9288SOL    HW239498   3.468   1.746   1.551 -0.5159  1.0194  0.3805
 9289SOL     OW39499   1.316   1.198  12.968 -0.1613  0.1162 -0.1495
 9289SOL    HW139500   1.409   1.176  12.972 -0.9532 -3.2153  0.2510
 9289SOL    HW239501   1.319   1.290  12.991  0.0033  0.3539 -1.1152
 9290SOL     OW39502   4.351   0.555   8.147 -0.2328  0.5091  0.0400
 9290SOL    HW139503   4.307   0.585   8.226  3.0043 -1.5424  2.5756
 9290SOL    HW239504   4.429   0.608   8.159 -0.3318  0.8044 -0.6082
 9291SOL     OW39505   0.383   1.521   2.364  0.0082  0.1526  0.4409
 9291SOL    HW139506   0.444   1.590   2.338  0.2396 -0.1120  0.2878
 9291SOL    HW239507   0.385   1.533   2.459 -0.9474  2.4050  0.1737
 9292SOL     OW39508   4.311   1.704   3.227 -0.3458  0.2669  0.2434
 9292SOL    HW139509   4.240   1.761   3.255 -2.0905 -2.0870  0.5631
 9292SOL    HW239510   4.386   1.763   3.217  0.5287 -1.2680 -2.1837
 9293SOL     OW39511   2.990   3.753   5.430 -0.3794 -0.4411 -0.4413
 9293SOL    HW139512   3.064   3.753   5.491  1.2402  1.7893 -2.4314
 9293SOL    HW239513   3.023   3.783   5.346 -1.3859 -0.2989 -0.7882
 9294SOL     OW39514   3.969   1.288  15.017 -0.6463  0.1581  0.4200
 9294SOL    HW139515   3.909   1.351  15.057 -1.3582  0.2077 -0.7445
 9294SOL    HW239516   4.020   1.256  15.092 -0.1439  0.3762  0.1726
 9295SOL     OW39517   4.287   1.980  12.341  0.0624  0.1110  0.2547
 9295SOL    HW139518   4.349   1.918  12.303  1.8362  1.1607  1.4275
 9295SOL    HW239519   4.233   1.925  12.398 -0.6842  1.8355  1.2050
 9296SOL     OW39520   1.252   1.975  17.451 -0.4750  0.0229  0.3637
 9296SOL    HW139521   1.169   1.992  17.406  0.3196  0.2358 -0.9968
 9296SOL    HW239522   1.244   1.881  17.471  0.0764  0.1657  1.2784
 9297SOL     OW39523   4.637   3.851   8.300  0.2490 -0.1748 -0.1258
 9297SOL    HW139524   4.704   3.857   8.368 -0.5380 -2.3746  0.8242
 9297SOL    HW239525   4.570   3.913   8.329  2.5661  0.9915  2.7286
 9298SOL     OW39526   3.476   4.144  15.549 -0.1003 -0.8303  0.2552
 9298SOL    HW139527   3.419   4.216  15.522  1.3221  0.4092  0.5377
 9298SOL    HW239528   3.539   4.187  15.608 -0.9084  0.6343  0.0463
 9299SOL     OW39529   1.807   3.378   7.808  0.4628  0.1071 -0.2614
 9299SOL    HW139530   1.794   3.364   7.902 -0.6319 -0.6839 -0.5212
 9299SOL    HW239531   1.739   3.441   7.782  0.4559 -0.3907 -1.4129
 9300SOL     OW39532   1.310   2.076  10.437  0.0776  0.5180 -0.6513
 9300SOL    HW139533   1.356   2.123  10.367  2.0926 -1.0874 -0.4143
 9300SOL    HW239534   1.296   1.996  10.387 -1.0928  0.2835  0.0532
 9301SOL     OW39535   0.217   0.120  16.154  0.8079 -0.1404  0.1872
 9301SOL    HW139536   0.193   0.171  16.076 -0.2568 -0.8494  0.0400
 9301SOL    HW239537   0.256   0.046  16.107  0.3936 -1.5677  2.0803
 9302SOL     OW39538   4.665   0.428   0.992  0.2437 -0.6073  0.1109
 9302SOL    HW139539   4.579   0.468   0.981  0.0399 -1.0913 -0.0323
 9302SOL    HW239540   4.673   0.383   0.908  0.9559  0.5019 -0.4135
 9303SOL     OW39541   4.173   1.320   7.512 -0.1833  0.1071  0.2423
 9303SOL    HW139542   4.120   1.395   7.540  0.3034  0.6159 -0.1777
 9303SOL    HW239543   4.107   1.252   7.501 -0.2923  0.1741  0.4837
 9304SOL     OW39544   0.857   4.225  16.018  0.1795 -0.0816 -0.2346
 9304SOL    HW139545   0.921   4.163  15.983 -1.6590 -1.5824 -0.9311
 9304SOL    HW239546   0.858   4.292  15.950  2.7729  0.8181  0.7021
 9305SOL     OW39547   0.690   1.460   6.292  0.3087  0.2046  0.6990
 9305SOL    HW139548   0.661   1.394   6.355  0.4404  1.0640  1.6588
 9305SOL    HW239549   0.649   1.423   6.213 -1.4085  0.9874  1.2255
 9306SOL     OW39550   2.768   1.913  14.603 -0.3348 -0.0303 -0.7197
 9306SOL    HW139551   2.703   1.983  14.612  0.9751  1.1465 -0.4224
 9306SOL    HW239552   2.717   1.836  14.578 -1.5651 -0.2599  2.4745
 9307SOL     OW39553   4.199   4.148   2.629  0.4830 -0.4138  0.0627
 9307SOL    HW139554   4.279   4.177   2.585 -0.9204  2.6235 -0.4565
 9307SOL    HW239555   4.188   4.057   2.602 -1.1883 -0.3434  0.5363
 9308SOL     OW39556   0.512   1.944  11.696  0.1519  0.0306 -0.2222
 9308SOL    HW139557   0.435   1.993  11.724 -0.6521 -1.8948  0.9320
 9308SOL    HW239558   0.495   1.962  11.604 -0.8683 -1.5175 -0.3349
 9309SOL     OW39559   4.616   4.707  12.485 -0.3234  0.2403  0.0827
 9309SOL    HW139560   4.705   4.731  12.460  0.3690 -1.8567  0.6133
 9309SOL    HW239561   4.619   4.723  12.579  0.2698  0.8625 -0.0418
 9310SOL     OW39562   0.991   4.578   0.665 -0.4662 -0.2157  0.1823
 9310SOL    HW139563   0.950   4.591   0.579  1.5003 -0.6268 -0.8188
 9310SOL    HW239564   1.042   4.659   0.658  2.6254 -2.4320 -3.0583
 9311SOL     OW39565   0.831   3.033  11.021 -0.4090 -0.2148 -0.2891
 9311SOL    HW139566   0.916   3.058  10.983 -0.1866  2.7090  2.1209
 9311SOL    HW239567   0.865   2.970  11.084  2.6819  0.6252 -1.1077
 9312SOL     OW39568   2.073   2.895   3.482 -0.6649 -0.0351  0.6299
 9312SOL    HW139569   2.070   2.841   3.403 -0.4054  0.1928  0.4658
 9312SOL    HW239570   1.991   2.943   3.473  0.4812  1.7638 -0.1755
 9313SOL     OW39571   3.320   4.320  10.135  0.5376  0.4575  0.4494
 9313SOL    HW139572   3.346   4.228  10.125  1.0357  0.8579 -1.9336
 9313SOL    HW239573   3.408   4.356  10.144  1.3370 -1.7125  1.3289
 9314SOL     OW39574   4.391   3.236   9.083  0.3744  0.0502  0.2903
 9314SOL    HW139575   4.457   3.304   9.066  0.0593  0.2533 -0.1073
 9314SOL    HW239576   4.439   3.163   9.043  0.9957  0.3190  0.5421
 9315SOL     OW39577   0.493   3.730   5.831  0.5045 -0.1223  0.3912
 9315SOL    HW139578   0.400   3.710   5.827  0.0028  1.8847  1.8706
 9315SOL    HW239579   0.489   3.814   5.877 -0.1842  0.0555  0.0072
 9316SOL     OW39580   0.662   2.686  16.832  0.3912  0.2370  0.1770
 9316SOL    HW139581   0.615   2.763  16.863 -2.2237 -1.3192  0.1198
 9316SOL    HW239582   0.748   2.703  16.869 -0.5574 -0.2422  2.6377
 9317SOL     OW39583   0.059   4.414   8.878 -0.1860 -0.3391  0.4533
 9317SOL    HW139584   0.139   4.422   8.930 -1.1204  2.2696  1.4784
 9317SOL    HW239585   4.728   4.403   8.943 -1.2207  0.4598 -0.5072
 9318SOL     OW39586   4.566   1.821   3.219  0.4300  0.4449  0.3423
 9318SOL    HW139587   4.590   1.746   3.165 -1.2110  0.2107 -0.0372
 9318SOL    HW239588   4.641   1.811   3.279  1.6133 -3.1197 -1.7827
 9319SOL     OW39589   0.243   4.442   5.676  0.3110  0.2597 -0.5386
 9319SOL    HW139590   0.215   4.355   5.704  0.3595  0.1998 -0.6781
 9319SOL    HW239591   0.286   4.475   5.755 -0.6378 -1.6456  0.7639
 9320SOL     OW39592   3.282   3.110  16.866 -0.2668 -0.0013  0.0336
 9320SOL    HW139593   3.256   3.034  16.814  0.3281  0.1821 -0.5250
 9320SOL    HW239594   3.371   3.085  16.891 -0.2666 -0.5128 -0.4838
 9321SOL     OW39595   4.534   2.854   2.751  0.1484 -0.0091  0.2783
 9321SOL    HW139596   4.578   2.922   2.803  0.5659 -0.0261 -0.0502
 9321SOL    HW239597   4.464   2.848   2.816 -0.3042  1.0874 -0.1098
 9322SOL     OW39598   0.651   0.300   5.685  0.2200  0.0013  0.3375
 9322SOL    HW139599   0.652   0.204   5.683 -0.2865 -0.0140  0.6874
 9322SOL    HW239600   0.568   0.304   5.636  0.4381 -2.4190 -0.2447
 9323SOL     OW39601   2.347   4.025   9.800  0.1655  0.0123 -0.1070
 9323SOL    HW139602   2.376   3.982   9.720  1.6338  1.4088 -0.3073
 9323SOL    HW239603   2.375   4.116   9.801 -2.4649  0.8210 -0.4640
 9324SOL     OW39604   4.135   2.493   3.687  0.0326 -0.5652 -0.1572
 9324SOL    HW139605   4.218   2.533   3.709  0.3919 -0.9598 -0.7988
 9324SOL    HW239606   4.069   2.552   3.725  1.5900 -0.0253  1.6725
 9325SOL     OW39607   1.015   4.428   6.443 -0.7800  0.7462  0.6885
 9325SOL    HW139608   1.071   4.498   6.411 -1.8922  0.9992 -0.7048
 9325SOL    HW239609   1.053   4.394   6.524  1.7573  2.1437  0.0681
 9326SOL     OW39610   3.942   1.740   7.718  0.1602 -0.1353 -0.0455
 9326SOL    HW139611   4.020   1.796   7.716 -0.9565  1.4633  0.9435
 9326SOL    HW239612   3.882   1.794   7.667 -0.9452 -0.7579  0.5889
 9327SOL     OW39613   3.111   0.454   3.777  0.0491 -0.6583  0.1545
 9327SOL    HW139614   3.181   0.519   3.787 -0.8379  0.5266 -1.2634
 9327SOL    HW239615   3.091   0.462   3.870 -1.6572 -0.2692 -0.2504
 9328SOL     OW39616   1.564   4.395   9.706 -0.0975  0.2859 -0.0903
 9328SOL    HW139617   1.531   4.458   9.642  1.3442  2.0361  0.8776
 9328SOL    HW239618   1.554   4.445   9.787 -3.6942  0.5013 -0.6353
 9329SOL     OW39619   0.411   1.660  16.558  0.4910 -0.1724 -0.1697
 9329SOL    HW139620   0.470   1.677  16.632  1.5140 -0.4377 -0.9337
 9329SOL    HW239621   0.470   1.674  16.484  1.4422 -0.5854  0.5063
 9330SOL     OW39622   3.273   2.154   0.547  0.1803  0.7257 -0.3552
 9330SOL    HW139623   3.216   2.100   0.603 -1.1965  0.3051 -2.1599
 9330SOL    HW239624   3.293   2.229   0.603  1.1079  0.5693 -0.4798
 9331SOL     OW39625   4.143   0.296   2.095  0.6152 -0.8326  0.0521
 9331SOL    HW139626   4.144   0.205   2.124  1.5491 -0.7252  0.3442
 9331SOL    HW239627   4.232   0.309   2.063  0.3490  1.2565  0.1391
 9332SOL     OW39628   1.331   0.694   3.285  0.6830 -1.2263  0.1114
 9332SOL    HW139629   1.391   0.621   3.272  2.4942  0.2049  0.5192
 9332SOL    HW239630   1.267   0.663   3.350 -0.2894  0.2481 -0.1350
 9333SOL     OW39631   3.378   3.060   4.192 -0.4469  0.2217  0.5718
 9333SOL    HW139632   3.432   3.072   4.271  1.8695  0.0852 -0.9792
 9333SOL    HW239633   3.442   3.094   4.129 -1.8463 -1.4048 -1.7195
 9334SOL     OW39634   3.895   1.635   8.889  0.1593 -0.3322  0.3379
 9334SOL    HW139635   3.968   1.580   8.862 -0.1370  0.4877 -2.1038
 9334SOL    HW239636   3.943   1.674   8.962  1.6276  0.9707 -1.3185
 9335SOL     OW39637   3.616   0.652   0.351 -0.8676  0.1627  0.7138
 9335SOL    HW139638   3.662   0.573   0.379 -0.9738 -0.7398 -1.7182
 9335SOL    HW239639   3.527   0.641   0.384 -1.5775 -1.0197 -1.6648
 9336SOL     OW39640   0.096   4.010   3.815  0.1296 -0.0020  0.1120
 9336SOL    HW139641   0.041   3.947   3.862  1.8848 -1.1474  0.6113
 9336SOL    HW239642   0.175   4.014   3.869 -0.4969 -1.2645  1.1296
 9337SOL     OW39643   1.075   2.194  17.597  0.1651  0.4955 -0.0688
 9337SOL    HW139644   1.024   2.194  17.517  0.5331  0.7327 -0.3021
 9337SOL    HW239645   1.130   2.118  17.575 -0.8649  0.0335 -1.0194
 9338SOL     OW39646   2.533   3.296   6.014  0.2134  0.0324 -0.4925
 9338SOL    HW139647   2.509   3.380   6.054  0.6395  0.6055 -1.4348
 9338SOL    HW239648   2.475   3.242   6.068  0.4699 -1.6981 -1.9266
 9339SOL     OW39649   3.393   4.170   0.799 -0.4271  0.0394  0.2838
 9339SOL    HW139650   3.458   4.100   0.811  0.0108  0.1867 -1.2463
 9339SOL    HW239651   3.329   4.121   0.748  1.3115 -1.2086 -0.6965
 9340SOL     OW39652   2.840   0.585   2.457 -0.0020 -0.1357  0.1167
 9340SOL    HW139653   2.927   0.554   2.433 -0.6289 -1.9604  0.2531
 9340SOL    HW239654   2.830   0.530   2.534 -1.6694 -0.2903 -0.2051
 9341SOL     OW39655   3.821   1.341   3.633 -0.4594 -0.1243 -0.5943
 9341SOL    HW139656   3.837   1.251   3.664  0.2474 -0.2199 -1.2492
 9341SOL    HW239657   3.757   1.364   3.701 -0.1315  1.3884 -0.8084
 9342SOL     OW39658   1.087   4.262   2.024 -0.3524  0.1257  0.7292
 9342SOL    HW139659   1.019   4.329   2.017 -0.2855  0.1736  0.5380
 9342SOL    HW239660   1.162   4.320   2.040 -1.7282  1.9771  0.4339
 9343SOL     OW39661   0.640   0.630  14.961 -0.0371 -0.2171  0.4405
 9343SOL    HW139662   0.598   0.555  15.005 -0.7888  0.3942  0.7532
 9343SOL    HW239663   0.713   0.647  15.021  0.4647  3.6449 -1.3333
 9344SOL     OW39664   1.505   4.289   3.892 -0.3999  0.2026  0.8039
 9344SOL    HW139665   1.488   4.378   3.863  2.3494  0.1910 -0.8104
 9344SOL    HW239666   1.536   4.316   3.979  0.5760  0.0883  0.4903
 9345SOL     OW39667   2.425   2.722   2.022  0.1967 -0.3589  0.0003
 9345SOL    HW139668   2.432   2.727   2.117  0.7224 -0.9385 -0.0046
 9345SOL    HW239669   2.508   2.756   1.988 -0.0788  1.0572  0.7710
 9346SOL     OW39670   0.880   0.207   9.601 -0.0730 -0.3228  0.0950
 9346SOL    HW139671   0.796   0.252   9.606 -0.9851 -2.0576  0.6709
 9346SOL    HW239672   0.853   0.120   9.632 -1.2754  0.6026  1.6745
 9347SOL     OW39673   3.583   1.430   3.776  0.0174 -0.1025 -0.1886
 9347SOL    HW139674   3.504   1.378   3.792 -0.1571 -0.5964 -2.6632
 9347SOL    HW239675   3.642   1.404   3.846  1.2183 -0.6450 -1.4149
 9348SOL     OW39676   1.599   3.756   7.161 -0.3524 -0.3864  0.1955
 9348SOL    HW139677   1.595   3.823   7.230 -1.9924  0.1051 -0.3699
 9348SOL    HW239678   1.686   3.724   7.181  0.1724  1.0414  0.2234
 9349SOL     OW39679   3.821   2.402   6.150  0.5877  0.5857  0.1319
 9349SOL    HW139680   3.894   2.462   6.165  1.6706 -0.4815 -0.9437
 9349SOL    HW239681   3.784   2.450   6.076 -1.5143  0.3402  1.0340
 9350SOL     OW39682   0.908   2.209   6.533  0.1457 -0.2035 -0.3029
 9350SOL    HW139683   0.991   2.163   6.547 -0.2478 -1.4097 -1.9674
 9350SOL    HW239684   0.864   2.206   6.618 -0.0483  2.0773 -0.3160
 9351SOL     OW39685   4.414   0.682  15.234  0.4797  0.4239 -0.7546
 9351SOL    HW139686   4.460   0.622  15.175  2.1038  2.0076 -1.0841
 9351SOL    HW239687   4.357   0.733  15.176 -1.4565 -0.8243  0.0251
 9352SOL     OW39688   0.767   1.723   4.644 -0.1243 -0.0243  0.2272
 9352SOL    HW139689   0.759   1.660   4.716  1.3289  0.3879  0.7610
 9352SOL    HW239690   0.695   1.703   4.585  0.0004  0.3983 -0.0655
 9353SOL     OW39691   1.442   0.222   3.846 -0.0181 -0.0667 -0.8606
 9353SOL    HW139692   1.389   0.268   3.781  0.0001 -0.8657 -1.4387
 9353SOL    HW239693   1.418   0.135   3.814 -0.9539  0.0344 -0.4464
 9354SOL     OW39694   4.424   1.566   5.856 -0.0704 -0.0914 -0.3445
 9354SOL    HW139695   4.368   1.644   5.852 -1.0558 -0.7996 -0.5345
 9354SOL    HW239696   4.458   1.581   5.944 -2.1171  0.5834  0.3417
 9355SOL     OW39697   1.027   2.870   6.886 -0.9594 -0.2617  0.1130
 9355SOL    HW139698   1.077   2.952   6.894  0.1240 -0.7744 -1.4181
 9355SOL    HW239699   1.016   2.872   6.791  1.4480  0.9702 -0.1513
 9356SOL     OW39700   3.101   0.398   7.800 -0.0433  0.2321 -0.5256
 9356SOL    HW139701   3.195   0.419   7.800 -0.2353  1.0986  2.9934
 9356SOL    HW239702   3.097   0.303   7.807  0.3700  0.3074  0.8941
 9357SOL     OW39703   3.289   3.330   3.532 -0.4506  0.3264 -0.3439
 9357SOL    HW139704   3.207   3.370   3.563 -1.3566 -1.7114 -0.1010
 9357SOL    HW239705   3.343   3.333   3.611 -0.3269  4.1350 -0.5726
 9358SOL     OW39706   1.034   4.674   4.920  0.6050  0.0012 -0.4562
 9358SOL    HW139707   1.038   4.664   5.015 -2.9653 -0.3843 -0.3413
 9358SOL    HW239708   1.126   4.652   4.905  0.7550 -1.0944  2.0840
 9359SOL     OW39709   4.144   1.260   0.539  0.3140 -0.4120  0.5075
 9359SOL    HW139710   4.121   1.350   0.516 -0.9984 -1.0807 -0.7866
 9359SOL    HW239711   4.236   1.267   0.565  1.1533  0.1068 -2.6638
 9360SOL     OW39712   3.477   0.290   4.470  0.1263  0.3553  0.4493
 9360SOL    HW139713   3.497   0.209   4.422 -0.1950  1.2107 -1.1487
 9360SOL    HW239714   3.508   0.352   4.404 -1.9777  1.0746  0.1512
 9361SOL     OW39715   3.410   1.345   6.001 -0.0221 -0.2372 -0.1426
 9361SOL    HW139716   3.383   1.343   6.092 -2.1790  1.9101 -0.7303
 9361SOL    HW239717   3.467   1.421   6.009 -0.0035 -0.3671  0.8523
 9362SOL     OW39718   2.956   3.095   5.827  0.0202  0.1185 -0.0636
 9362SOL    HW139719   2.909   3.079   5.745 -2.5963  0.7330  1.3123
 9362SOL    HW239720   2.895   3.064   5.895 -0.1233  0.1615 -0.1748
 9363SOL     OW39721   4.649   2.540  16.660 -0.7937 -0.0653 -0.0499
 9363SOL    HW139722   4.730   2.589  16.673 -0.0731 -1.3380  0.3117
 9363SOL    HW239723   4.632   2.518  16.752 -0.5918 -1.5656 -0.3637
 9364SOL     OW39724   1.094   3.323   6.048 -0.7858  0.3260  0.1310
 9364SOL    HW139725   1.187   3.323   6.067 -0.4584 -0.9271 -1.3893
 9364SOL    HW239726   1.093   3.380   5.971  1.4890  1.3159  0.8409
 9365SOL     OW39727   3.625   1.717   2.437 -0.6135  0.6336  0.7542
 9365SOL    HW139728   3.614   1.792   2.495 -0.5791 -1.6970  3.8026
 9365SOL    HW239729   3.649   1.761   2.356  1.3692 -0.0222  0.9962
 9366SOL     OW39730   4.514   0.471   5.707  0.2523 -0.1373 -0.1444
 9366SOL    HW139731   4.470   0.518   5.636 -1.5148 -1.2115  0.2359
 9366SOL    HW239732   4.458   0.514   5.771 -2.1810  0.0663 -2.4135
 9367SOL     OW39733   4.580   3.401   7.810 -0.7292 -0.0197  0.5560
 9367SOL    HW139734   4.595   3.322   7.861 -1.1360 -0.2317  0.3459
 9367SOL    HW239735   4.485   3.405   7.826 -1.0482  0.5783 -1.4689
 9368SOL     OW39736   1.270   4.051   9.333 -0.4639 -0.3545 -0.1054
 9368SOL    HW139737   1.266   3.973   9.388 -0.4247 -0.7729 -0.6944
 9368SOL    HW239738   1.351   4.092   9.364 -0.3654 -0.5299 -0.1322
 9369SOL     OW39739   3.316   4.564   6.803  0.2365 -0.1711 -0.3864
 9369SOL    HW139740   3.278   4.491   6.852 -0.1370  1.4667  1.7432
 9369SOL    HW239741   3.323   4.523   6.717  0.2539 -1.4657  0.2238
 9370SOL     OW39742   1.413   3.838  15.216  0.2232  0.4827 -0.5267
 9370SOL    HW139743   1.497   3.873  15.188  0.5366 -0.2239 -0.4763
 9370SOL    HW239744   1.417   3.755  15.168  1.5383 -0.0155  0.4365
 9371SOL     OW39745   4.567   0.207   5.661 -0.5037 -0.2965  1.0760
 9371SOL    HW139746   4.522   0.290   5.679 -0.3637  0.1047 -0.4534
 9371SOL    HW239747   4.491   0.152   5.643  0.3653 -0.8048 -0.9619
 9372SOL     OW39748   2.223   0.219  13.026  0.6050 -0.3570  0.0963
 9372SOL    HW139749   2.304   0.187  12.986  0.4006 -0.2816 -0.3779
 9372SOL    HW239750   2.257   0.274  13.097  2.1608  0.3980 -1.2197
 9373SOL     OW39751   4.179   4.670  11.893 -0.1181 -0.6545 -0.7081
 9373SOL    HW139752   4.169   0.006  11.953  0.2325 -1.0580 -0.1406
 9373SOL    HW239753   4.243   4.610  11.933  1.6996  1.8719  0.1430
 9374SOL     OW39754   1.436   4.652  12.819  0.5804  0.0332 -0.2080
 9374SOL    HW139755   1.363   4.646  12.880  0.6100  0.1464 -0.1625
 9374SOL    HW239756   1.510   4.635  12.878 -0.6559  0.5090  1.4856
 9375SOL     OW39757   3.876   0.383  12.006 -0.8312  0.2174  0.1464
 9375SOL    HW139758   3.917   0.296  12.011 -0.1761  0.5495  0.4313
 9375SOL    HW239759   3.908   0.408  11.920  0.0810 -2.9811 -0.4461
 9376SOL     OW39760   1.383   4.203   1.943 -0.0918 -0.2306 -0.3228
 9376SOL    HW139761   1.295   4.213   1.907 -1.4019 -0.4159  2.8869
 9376SOL    HW239762   1.382   4.280   1.999  1.9883 -1.2342  1.1012
 9377SOL     OW39763   3.846   0.783  10.670 -0.1105 -0.4128 -0.2715
 9377SOL    HW139764   3.837   0.735  10.752 -1.5846 -0.2063 -0.3204
 9377SOL    HW239765   3.937   0.813  10.677 -0.7097  1.0185  1.2226
 9378SOL     OW39766   1.298   4.420   2.083  0.3674 -0.2337  0.6731
 9378SOL    HW139767   1.293   4.416   2.178  0.9897  1.1169  0.7732
 9378SOL    HW239768   1.305   4.515   2.067  0.5435 -0.6466 -1.7853
 9379SOL     OW39769   2.095   2.710  17.193  0.3499 -0.4284  0.1886
 9379SOL    HW139770   2.093   2.733  17.101 -1.0500  0.5467  0.4795
 9379SOL    HW239771   2.100   2.614  17.189  1.8912 -0.4003  1.3063
 9380SOL     OW39772   2.152   1.898   2.234  0.2986  0.1579  0.2009
 9380SOL    HW139773   2.239   1.869   2.207 -0.0439 -0.2587 -0.4623
 9380SOL    HW239774   2.111   1.824   2.279 -0.4993  0.7375  0.4353
 9381SOL     OW39775   4.551   1.330   5.840 -1.4960  0.5010 -0.1920
 9381SOL    HW139776   4.512   1.416   5.827  0.3707  0.9426 -3.0099
 9381SOL    HW239777   4.530   1.278   5.762  0.1152  0.4737 -0.6187
 9382SOL     OW39778   0.604   3.347   8.484  0.1730  0.1040  0.4611
 9382SOL    HW139779   0.552   3.348   8.564  1.5364 -1.0515  1.3517
 9382SOL    HW239780   0.618   3.440   8.468  1.3841  0.1096  1.5365
 9383SOL     OW39781   3.252   4.007  15.661  0.0572 -0.3400 -0.1526
 9383SOL    HW139782   3.208   3.973  15.583 -1.1705  0.6225  0.1229
 9383SOL    HW239783   3.328   4.051  15.623  0.8716  1.1453  3.1475
 9384SOL     OW39784   1.535   3.345   3.344  0.0967  0.2932  0.0708
 9384SOL    HW139785   1.575   3.323   3.428  0.6088  1.0590  0.0305
 9384SOL    HW239786   1.496   3.262   3.319  0.7082  0.4574 -1.4860
 9385SOL     OW39787   2.499   2.344   3.224 -0.8457  0.0682  0.2465
 9385SOL    HW139788   2.461   2.404   3.289 -3.6615  2.1886 -3.3439
 9385SOL    HW239789   2.572   2.316   3.280 -0.7855 -1.2668 -0.5160
 9386SOL     OW39790   4.271   2.076   4.576 -0.0478  0.1374  0.8117
 9386SOL    HW139791   4.282   2.168   4.601  0.1241 -0.0184  1.2975
 9386SOL    HW239792   4.350   2.047   4.529 -1.5752  0.3032 -1.8860
 9387SOL     OW39793   3.825   0.411   4.334 -0.5437  0.0933  0.1523
 9387SOL    HW139794   3.836   0.500   4.303 -0.7909  0.2551  0.5214
 9387SOL    HW239795   3.730   0.419   4.339 -0.5254  0.1643  0.4038
 9388SOL     OW39796   3.859   4.635   4.346 -0.5029  0.0488  0.3904
 9388SOL    HW139797   3.893   4.555   4.387  0.1645 -0.2454 -0.7402
 9388SOL    HW239798   3.833   4.601   4.260 -0.9232 -0.8994  0.8919
 9389SOL     OW39799   3.955   3.130   3.346 -0.0507  1.1031 -0.0300
 9389SOL    HW139800   3.963   3.067   3.274  0.2781  1.8420 -0.6409
 9389SOL    HW239801   3.862   3.150   3.345 -0.0820  0.9646  0.0756
 9390SOL     OW39802   1.854   0.484   2.278 -0.3375  0.4205  0.2383
 9390SOL    HW139803   1.821   0.415   2.336  0.1172  0.2303  0.2685
 9390SOL    HW239804   1.803   0.554   2.319 -0.0596  0.6383  0.2114
 9391SOL     OW39805   0.455   1.963  16.412  0.4391 -0.3375 -0.1782
 9391SOL    HW139806   0.432   1.889  16.355  0.6033  0.1640 -0.8917
 9391SOL    HW239807   0.467   2.034  16.349 -1.7311  0.9928  0.9036
 9392SOL     OW39808   4.413   0.574   6.162  0.2369  0.0111  0.0966
 9392SOL    HW139809   4.415   0.621   6.079 -2.3901  1.0404  0.6218
 9392SOL    HW239810   4.408   0.483   6.132  1.1439  0.6904 -2.1020
 9393SOL     OW39811   3.678   1.100  11.783 -0.0400  0.2560  0.4909
 9393SOL    HW139812   3.684   1.109  11.878  1.5362 -1.5825  0.5770
 9393SOL    HW239813   3.621   1.023  11.774 -0.2894  0.3929  0.8998
 9394SOL     OW39814   4.616   3.593   4.748  0.6296  0.3455  0.4878
 9394SOL    HW139815   4.523   3.584   4.729  1.0861 -0.1818 -1.4496
 9394SOL    HW239816   4.616   3.669   4.806 -0.0607  0.0269  0.9186
 9395SOL     OW39817   2.072   3.340   6.054  0.1169  0.1106 -0.4331
 9395SOL    HW139818   2.019   3.338   6.133 -1.9978  2.4365 -1.8078
 9395SOL    HW239819   2.113   3.427   6.057  1.6584 -0.6208  0.1736
 9396SOL     OW39820   1.776   1.363   1.266 -0.2154  0.4423  0.1639
 9396SOL    HW139821   1.701   1.303   1.263  1.6579 -1.8944  0.1502
 9396SOL    HW239822   1.776   1.379   1.360 -0.4815  2.9522 -0.2488
 9397SOL     OW39823   4.480   0.819  17.004 -0.4568 -0.0812 -0.4041
 9397SOL    HW139824   4.522   0.856  16.926 -0.5968 -2.0841 -1.4250
 9397SOL    HW239825   4.548   0.828  17.071 -0.4963  0.7306 -0.4697
 9398SOL     OW39826   0.439   2.313  14.224 -0.5616  0.1282 -0.1773
 9398SOL    HW139827   0.521   2.280  14.260 -1.1832 -0.7498  0.4202
 9398SOL    HW239828   0.472   2.392  14.181 -2.8700  1.0942 -0.1888
 9399SOL     OW39829   0.028   4.177   5.238  0.8557  0.1860  0.0229
 9399SOL    HW139830   0.094   4.243   5.216  0.4768 -0.2240 -2.3457
 9399SOL    HW239831   0.060   4.138   5.320  0.2768 -0.2874  0.0190
 9400SOL     OW39832   1.279   3.387   6.970  0.2431 -0.7127 -0.3352
 9400SOL    HW139833   1.373   3.383   6.948 -0.5346  0.7382 -4.0060
 9400SOL    HW239834   1.298   3.433   7.051  2.0072 -1.0292 -0.5520
 9401SOL     OW39835   0.239   0.547   5.629  0.3320  0.1007  0.7272
 9401SOL    HW139836   0.327   0.562   5.663  0.4442  1.5409 -0.1769
 9401SOL    HW239837   0.224   0.460   5.664 -2.4264 -0.0559 -0.8006
 9402SOL     OW39838   2.280   3.331   9.112  0.2863 -0.7583 -0.3944
 9402SOL    HW139839   2.298   3.333   9.206 -0.8412  2.6293 -0.2700
 9402SOL    HW239840   2.212   3.397   9.102 -0.2858 -1.2573  0.2486
 9403SOL     OW39841   3.504   3.772   7.202 -0.5858 -0.7065  0.0595
 9403SOL    HW139842   3.585   3.737   7.164 -1.7182 -0.8015 -2.2631
 9403SOL    HW239843   3.449   3.780   7.124  0.1321 -1.0822 -0.4801
 9404SOL     OW39844   2.455   3.186   1.877  0.2063  0.2375  0.4707
 9404SOL    HW139845   2.364   3.163   1.860  0.4469  0.4317 -1.0490
 9404SOL    HW239846   2.493   3.099   1.867 -3.3560 -0.8920 -2.8819
 9405SOL     OW39847   0.050   0.735   7.091  0.1755 -0.3055  0.3097
 9405SOL    HW139848   4.736   0.671   7.041 -0.3593 -0.5026  1.1166
 9405SOL    HW239849   0.049   0.700   7.180 -1.8947 -1.5500 -0.2016
 9406SOL     OW39850   2.675   1.062  16.915  0.7371 -0.3410  0.1259
 9406SOL    HW139851   2.767   1.040  16.924  0.9042  1.3221  2.3967
 9406SOL    HW239852   2.676   1.158  16.921 -2.0777 -0.3535  0.8480
 9407SOL     OW39853   3.321   4.696   7.133 -0.2150  0.2820 -0.7016
 9407SOL    HW139854   3.339   0.031   7.192 -0.1776  0.4916 -0.9684
 9407SOL    HW239855   3.404   4.692   7.085  1.2054  0.2201  1.8136
 9408SOL     OW39856   0.511   0.505   2.259 -0.0695  0.2436 -0.4848
 9408SOL    HW139857   0.572   0.578   2.250 -0.7271  0.8500 -0.0181
 9408SOL    HW239858   0.514   0.495   2.355 -0.4003  2.1562 -0.2821
 9409SOL     OW39859   3.016   1.677   5.834  0.0063 -0.4567  0.0809
 9409SOL    HW139860   3.104   1.714   5.845 -0.8231  1.6536 -0.3191
 9409SOL    HW239861   3.011   1.604   5.895  2.4673 -2.0422 -1.5974
 9410SOL     OW39862   4.503   1.961   7.447  0.4686  0.3680 -0.5464
 9410SOL    HW139863   4.527   2.054   7.452 -2.1754  1.0117  0.3006
 9410SOL    HW239864   4.409   1.967   7.462  0.6707  1.1597  0.3920
 9411SOL     OW39865   2.452   1.645   7.578  0.2512  0.3032  0.2300
 9411SOL    HW139866   2.361   1.655   7.604  0.5617  0.2722  1.3325
 9411SOL    HW239867   2.452   1.550   7.588  2.4240  0.1441 -1.1464
 9412SOL     OW39868   1.337   3.581   9.384  0.6111 -0.2879  0.4045
 9412SOL    HW139869   1.417   3.582   9.331  1.0016  0.7821  1.0300
 9412SOL    HW239870   1.321   3.674   9.399  1.0335 -0.2074  0.3351
 9413SOL     OW39871   0.364   1.202   9.324 -0.3351 -0.1820  0.0425
 9413SOL    HW139872   0.367   1.239   9.236 -2.0187  0.8065  0.4054
 9413SOL    HW239873   0.297   1.135   9.314  1.2426 -1.5570 -1.2307
 9414SOL     OW39874   4.403   2.933   3.358  0.5915 -0.0315 -0.1851
 9414SOL    HW139875   4.452   2.931   3.440  2.0043 -1.3887 -1.0586
 9414SOL    HW239876   4.478   2.933   3.298  0.9697  0.1096  0.2833
 9415SOL     OW39877   2.842   2.989   0.378 -0.1396 -0.5228  0.0209
 9415SOL    HW139878   2.886   2.907   0.399  0.9703  0.5699  2.0342
 9415SOL    HW239879   2.757   2.980   0.420  1.6018 -0.4285  3.5491
 9416SOL     OW39880   1.425   1.783   6.563  0.0996  0.1143  0.1337
 9416SOL    HW139881   1.447   1.692   6.545 -0.1642  0.0859 -0.0447
 9416SOL    HW239882   1.468   1.791   6.648 -1.6582  0.5268  0.9715
 9417SOL     OW39883   0.178   1.598  16.213  0.0818  0.0089 -0.2494
 9417SOL    HW139884   0.221   1.620  16.130 -0.9231 -0.9314 -1.0102
 9417SOL    HW239885   0.095   1.559  16.185  0.6646 -0.7681 -0.9303
 9418SOL     OW39886   1.581   0.888   5.230 -0.3114  0.5175 -0.6508
 9418SOL    HW139887   1.565   0.794   5.216  1.2863  0.3501 -1.2766
 9418SOL    HW239888   1.619   0.889   5.318  0.6559 -1.8634 -1.0500
 9419SOL     OW39889   0.166   3.754   7.644  0.0063 -0.3835 -0.1477
 9419SOL    HW139890   0.212   3.787   7.722  0.1353  0.5311 -0.6118
 9419SOL    HW239891   0.097   3.715   7.698 -0.6888  0.4997 -0.3992
 9420SOL     OW39892   3.348   1.113   8.620 -0.3886 -0.3209 -0.4020
 9420SOL    HW139893   3.308   1.029   8.595 -1.4072  0.1020 -0.1728
 9420SOL    HW239894   3.371   1.149   8.534 -2.6004 -0.3580 -1.0229
 9421SOL     OW39895   1.834   0.319   8.230  0.0765  0.1980 -0.6434
 9421SOL    HW139896   1.763   0.262   8.259  0.3146  1.6823  2.9319
 9421SOL    HW239897   1.844   0.274   8.147  0.4467 -1.4184  0.2781
 9422SOL     OW39898   0.742   1.741   2.421 -0.3472 -0.3208  0.2135
 9422SOL    HW139899   0.793   1.696   2.354 -1.2092 -0.9304 -0.0337
 9422SOL    HW239900   0.657   1.736   2.378  0.1241  1.8389 -0.9699
 9423SOL     OW39901   1.348   2.385   7.659 -0.4613 -0.0943  0.0824
 9423SOL    HW139902   1.322   2.409   7.570  2.9517 -0.2356 -0.9636
 9423SOL    HW239903   1.441   2.402   7.644 -1.0009 -0.0259 -3.3213
 9424SOL     OW39904   0.179   0.144   2.350  0.2610 -0.1441 -0.0308
 9424SOL    HW139905   0.273   0.161   2.347  0.1483  0.6008  0.7233
 9424SOL    HW239906   0.146   0.195   2.424  0.8856 -1.9777  1.5221
 9425SOL     OW39907   1.175   3.845   9.748 -0.2285 -0.1463 -0.1793
 9425SOL    HW139908   1.098   3.826   9.694  0.1399  0.9062 -1.0738
 9425SOL    HW239909   1.147   3.851   9.840 -0.6522  1.0641 -0.3877
 9426SOL     OW39910   2.024   2.740  10.423  0.1089  0.0799  0.2233
 9426SOL    HW139911   1.942   2.790  10.423 -1.3113 -2.2230  0.3686
 9426SOL    HW239912   2.019   2.691  10.505 -0.0465 -1.6599 -0.8297
 9427SOL     OW39913   1.658   2.066  10.604 -0.3800 -0.2130 -0.2400
 9427SOL    HW139914   1.709   2.033  10.678 -1.4514 -2.9363 -0.7057
 9427SOL    HW239915   1.676   2.002  10.536 -0.4011 -0.2947 -0.1692
 9428SOL     OW39916   3.960   4.510   2.346  0.0695  0.0477  0.2103
 9428SOL    HW139917   4.039   4.510   2.401 -0.7401 -1.8719  1.3606
 9428SOL    HW239918   3.890   4.506   2.411  0.2748  2.0005  0.5514
 9429SOL     OW39919   1.139   3.910   5.317 -0.1460 -0.0462  0.1551
 9429SOL    HW139920   1.079   3.972   5.276 -0.4066  0.1466  0.8298
 9429SOL    HW239921   1.101   3.827   5.288  0.8893  0.3445 -2.3065
 9430SOL     OW39922   2.631   0.198   4.891  0.0038 -0.6176  0.2592
 9430SOL    HW139923   2.559   0.146   4.856  1.0317 -2.2229  0.5359
 9430SOL    HW239924   2.593   0.285   4.899 -2.3599 -1.6098 -0.0343
 9431SOL     OW39925   4.246   4.628  15.739  0.7343  0.1486 -0.7267
 9431SOL    HW139926   4.156   4.646  15.764  0.7049 -0.4792 -0.3880
 9431SOL    HW239927   4.290   4.701  15.784  0.4296 -0.5732  0.7250
 9432SOL     OW39928   4.395   2.274   4.212 -0.5663 -0.1961 -0.5224
 9432SOL    HW139929   4.459   2.333   4.174  0.5847 -0.7258  0.5822
 9432SOL    HW239930   4.317   2.327   4.200  0.2897  1.6302  2.0945
 9433SOL     OW39931   2.381   0.652   2.333  0.2580 -0.2161 -0.1804
 9433SOL    HW139932   2.315   0.719   2.313  0.1548  0.2978  1.8443
 9433SOL    HW239933   2.429   0.656   2.250  0.2060 -0.9122 -0.2407
 9434SOL     OW39934   4.482   3.455   7.153 -0.1266  0.6951 -0.0289
 9434SOL    HW139935   4.521   3.432   7.068  0.4740  2.0072 -0.1148
 9434SOL    HW239936   4.510   3.378   7.202  1.6874  0.1519 -1.8938
 9435SOL     OW39937   4.367   2.805  15.915 -0.4524  0.2894 -0.2402
 9435SOL    HW139938   4.311   2.785  15.989  1.4157 -0.8121  0.8767
 9435SOL    HW239939   4.339   2.897  15.910 -0.3854  0.3814  1.3153
 9436SOL     OW39940   3.622   1.931   4.390 -0.3345 -0.5173  0.4173
 9436SOL    HW139941   3.646   1.902   4.478 -2.8611 -1.1342  0.8875
 9436SOL    HW239942   3.599   2.023   4.403 -0.4811 -0.5520  0.3992
 9437SOL     OW39943   4.268   4.011   6.097 -0.3585  0.2851 -0.2666
 9437SOL    HW139944   4.235   4.028   6.008 -1.6386 -1.1850 -0.0743
 9437SOL    HW239945   4.245   3.918   6.107  0.2717 -0.0227 -1.6203
 9438SOL     OW39946   2.819   2.447  13.102 -0.0296 -0.3928 -0.6010
 9438SOL    HW139947   2.872   2.376  13.137 -0.5652 -0.7167 -0.4493
 9438SOL    HW239948   2.781   2.487  13.180  1.5851  2.4129 -1.2354
 9439SOL     OW39949   4.134   4.171   6.787 -0.3538  0.3534 -0.4430
 9439SOL    HW139950   4.198   4.216   6.842 -0.5495  0.9334 -0.6922
 9439SOL    HW239951   4.058   4.227   6.771 -1.0021 -0.5706 -0.5989
 9440SOL     OW39952   1.288   1.493   8.135  0.9039 -0.1151  0.5334
 9440SOL    HW139953   1.367   1.442   8.154  0.8250 -0.6647 -0.6229
 9440SOL    HW239954   1.314   1.524   8.048 -1.1799 -0.9306 -0.3667
 9441SOL     OW39955   0.407   0.230   2.550 -0.4533  0.0039 -0.2350
 9441SOL    HW139956   0.441   0.182   2.625 -1.9705 -1.5252 -0.5370
 9441SOL    HW239957   0.462   0.308   2.553  0.1756 -0.4740  0.3840
 9442SOL     OW39958   0.859   4.335   5.415  0.1224  0.1404 -0.2315
 9442SOL    HW139959   0.921   4.288   5.360 -0.9288 -0.7354 -0.6629
 9442SOL    HW239960   0.898   4.338   5.502  0.6443  1.4922 -0.5032
 9443SOL     OW39961   0.128   2.397   7.823  0.1800 -0.4368 -0.2562
 9443SOL    HW139962   0.194   2.337   7.857 -0.9828 -2.4851 -1.6258
 9443SOL    HW239963   0.144   2.473   7.878  1.8026 -0.1610 -1.1125
 9444SOL     OW39964   1.104   3.802   1.932 -0.0360 -0.5453 -0.2543
 9444SOL    HW139965   1.033   3.861   1.904 -1.3935 -3.4514 -2.8531
 9444SOL    HW239966   1.086   3.779   2.023  0.7553 -1.5113 -0.3539
 9445SOL     OW39967   0.145   3.088   5.484 -0.1669 -0.1329  1.3392
 9445SOL    HW139968   0.088   3.159   5.455 -2.0214 -0.3771  4.3482
 9445SOL    HW239969   0.090   3.022   5.525 -1.0472 -2.0408 -2.9538
 9446SOL     OW39970   4.146   1.090   4.751 -0.2160 -0.3070  0.4582
 9446SOL    HW139971   4.066   1.104   4.802 -1.1495  1.2246 -1.4530
 9446SOL    HW239972   4.199   1.049   4.819  2.9818  0.7486 -1.4147
 9447SOL     OW39973   0.799   4.567   3.074 -0.6408 -0.3563  0.2566
 9447SOL    HW139974   0.783   4.528   3.161  0.1830  0.1219  0.6187
 9447SOL    HW239975   0.828   4.487   3.030 -0.6025  0.1905 -0.7089
 9448SOL     OW39976   2.816   4.446   5.840 -0.3211  0.4250 -0.4627
 9448SOL    HW139977   2.779   4.534   5.840 -1.6455 -0.1372 -0.2141
 9448SOL    HW239978   2.909   4.448   5.816 -0.2779  0.3047 -0.3012
 9449SOL     OW39979   1.339   0.524  10.007  0.7962 -0.6706  0.0620
 9449SOL    HW139980   1.366   0.487  10.091 -0.7100 -0.3362  0.6964
 9449SOL    HW239981   1.402   0.477   9.953  0.4321  0.4232 -1.3428
 9450SOL     OW39982   3.331   3.901  17.650  0.6307  1.0492 -0.7852
 9450SOL    HW139983   3.412   3.951  17.661  1.5268 -0.7458  0.6141
 9450SOL    HW239984   3.294   3.957  17.582  0.9838  0.9492 -1.0563
 9451SOL     OW39985   2.637   0.664   7.180 -0.2343  0.1829  0.3702
 9451SOL    HW139986   2.565   0.674   7.117  2.6750 -2.5992 -3.3700
 9451SOL    HW239987   2.653   0.754   7.210  2.3013 -0.7165  1.7016
 9452SOL     OW39988   0.427   2.246   4.871 -0.5290  0.2551 -0.0714
 9452SOL    HW139989   0.456   2.316   4.813  1.1356  1.0237  1.6837
 9452SOL    HW239990   0.444   2.170   4.815 -0.4890 -0.4257  0.8633
 9453SOL     OW39991   1.422   2.224   4.426 -0.0223 -0.1439 -0.3700
 9453SOL    HW139992   1.461   2.306   4.456  0.6500  0.6181 -3.2874
 9453SOL    HW239993   1.488   2.218   4.356 -0.4680  3.6391 -1.0927
 9454SOL     OW39994   1.999   3.046   8.074  0.2930 -0.6019  0.3652
 9454SOL    HW139995   2.002   3.011   8.162 -1.7871  1.6428  1.3324
 9454SOL    HW239996   2.046   3.128   8.092 -1.6985  0.0927  2.3379
 9455SOL     OW39997   3.745   3.101   2.019  0.3798 -0.4688  0.0930
 9455SOL    HW139998   3.800   3.055   1.956  0.4800 -0.1028 -0.0857
 9455SOL    HW239999   3.807   3.171   2.036  1.9323 -2.2819  1.8840
 9456SOL     OW40000   4.291   0.398   2.516 -0.5331  0.1398 -0.2335
 9456SOL    HW140001   4.257   0.421   2.603 -0.1739  0.3163 -0.1416
 9456SOL    HW240002   4.378   0.433   2.531 -0.4821  0.4752 -1.3425
 9457SOL     OW40003   3.075   4.174   9.857  0.2674 -0.1686  0.0389
 9457SOL    HW140004   3.055   4.154   9.766 -0.5525 -2.6769  0.7572
 9457SOL    HW240005   3.010   4.122   9.904  0.3851 -3.0075 -2.9624
 9458SOL     OW40006   0.969   2.597   1.886  0.1054  0.1139  0.0440
 9458SOL    HW140007   0.948   2.687   1.911  1.3666 -0.4858  3.2084
 9458SOL    HW240008   0.886   2.562   1.919  0.2667 -2.0167 -1.8400
 9459SOL     OW40009   0.691   4.487  12.021 -0.6890 -0.6315 -0.6885
 9459SOL    HW140010   0.670   4.488  12.115  1.5518 -0.7618 -0.1732
 9459SOL    HW240011   0.781   4.455  12.031  0.7316  3.5183 -0.3989
 9460SOL     OW40012   0.139   4.541  10.114  0.4215  0.5870 -0.2912
 9460SOL    HW140013   0.078   4.586  10.172  2.2220  1.1001  1.2267
 9460SOL    HW240014   0.103   4.453  10.110  1.9317 -0.1255  1.9202
 9461SOL     OW40015   4.627   1.307  12.561  0.1685 -0.2312 -0.3470
 9461SOL    HW140016   4.624   1.304  12.657 -0.1926  0.1936 -0.3446
 9461SOL    HW240017   4.572   1.234  12.531 -1.3289  0.8833 -0.3114
 9462SOL     OW40018   0.159   3.273   2.453 -0.5446  0.0548 -0.2418
 9462SOL    HW140019   0.111   3.205   2.405 -0.8587 -0.8393  1.3469
 9462SOL    HW240020   0.166   3.221   2.533 -1.2422  2.6546  1.5011
 9463SOL     OW40021   3.567   1.163  13.097  0.1689  0.3947  0.5346
 9463SOL    HW140022   3.653   1.195  13.070  0.8648 -1.6289  0.3909
 9463SOL    HW240023   3.505   1.230  13.068  0.5902 -0.2663 -1.8674
 9464SOL     OW40024   0.297   0.335  13.367  0.5646  0.4736  0.0449
 9464SOL    HW140025   0.240   0.272  13.410  0.7048 -0.2881 -0.8762
 9464SOL    HW240026   0.383   0.294  13.357  0.8862  0.7122  1.7837
 9465SOL     OW40027   2.576   3.741  13.307  0.0784 -0.3226  0.2239
 9465SOL    HW140028   2.482   3.744  13.293  0.0825  0.5662  0.3875
 9465SOL    HW240029   2.612   3.806  13.248 -1.7118  2.1266  1.8239
 9466SOL     OW40030   2.448   2.622   8.352  0.3112 -0.5132  0.4994
 9466SOL    HW140031   2.461   2.536   8.313  2.9453 -0.3876  1.0657
 9466SOL    HW240032   2.463   2.596   8.442  0.1821 -2.1519  0.0406
 9467SOL     OW40033   2.118   0.539  13.103 -0.4636  0.5362 -0.1643
 9467SOL    HW140034   2.063   0.478  13.053 -0.5625 -0.3807  1.0788
 9467SOL    HW240035   2.114   0.607  13.036  0.6231 -0.3795 -1.1725
 9468SOL     OW40036   2.520   0.764   6.574 -0.1872 -0.0669  0.2461
 9468SOL    HW140037   2.582   0.691   6.579  1.0477  0.9373 -0.4045
 9468SOL    HW240038   2.553   0.823   6.641 -0.2383  1.7207 -1.2832
 9469SOL     OW40039   0.732   2.336   1.203  0.4511 -0.1604 -0.1708
 9469SOL    HW140040   0.784   2.257   1.217  2.8029  1.5460  0.7137
 9469SOL    HW240041   0.790   2.409   1.228 -0.3958  0.6612 -0.6050
 9470SOL     OW40042   1.334   0.966   3.510  0.0349 -0.3307 -0.1620
 9470SOL    HW140043   1.365   0.974   3.419 -1.2693  0.4136 -0.5340
 9470SOL    HW240044   1.244   0.942   3.491  0.0318  0.1901 -0.8173
 9471SOL     OW40045   2.796   4.071   4.498 -0.1513 -0.4098  0.0274
 9471SOL    HW140046   2.890   4.056   4.488  0.1145  1.0796  0.2997
 9471SOL    HW240047   2.790   4.160   4.533  1.2122  0.0571 -0.9226
 9472SOL     OW40048   2.718   0.638   4.223  0.1266  0.3682  0.5071
 9472SOL    HW140049   2.715   0.665   4.131 -0.6639 -0.9158  0.1618
 9472SOL    HW240050   2.707   0.726   4.261  1.7555  0.7150  0.1640
 9473SOL     OW40051   0.803   1.362   2.610  0.5077 -0.6800 -0.0767
 9473SOL    HW140052   0.894   1.350   2.638  0.6637 -0.2148 -0.3758
 9473SOL    HW240053   0.785   1.456   2.610 -0.6151 -0.9102 -1.6575
 9474SOL     OW40054   1.400   0.134   9.546  0.1119  0.1818 -0.4214
 9474SOL    HW140055   1.329   0.176   9.595 -0.0688 -0.7922  0.1402
 9474SOL    HW240056   1.390   0.051   9.592  1.9174 -0.9926 -2.1763
 9475SOL     OW40057   4.260   3.290   6.896 -0.1621  0.0529  0.1325
 9475SOL    HW140058   4.205   3.341   6.954 -1.7285 -2.0503  0.5106
 9475SOL    HW240059   4.325   3.358   6.878  0.1402 -0.7346 -1.7233
 9476SOL     OW40060   0.896   0.667   3.219 -0.4646 -0.3925 -0.8367
 9476SOL    HW140061   0.901   0.761   3.238 -2.0711 -0.9899  2.4674
 9476SOL    HW240062   0.847   0.637   3.295 -1.5153 -0.6796 -1.6189
 9477SOL     OW40063   1.030   4.385   4.974  0.2506 -0.7380 -0.5469
 9477SOL    HW140064   1.020   4.456   5.037  0.2571 -0.9048 -0.3541
 9477SOL    HW240065   1.013   4.431   4.892 -0.9919 -3.0039 -1.5709
 9478SOL     OW40066   2.964   3.846   7.515  0.0730 -0.4959  0.2200
 9478SOL    HW140067   2.943   3.774   7.456 -1.5104  1.1360 -1.1627
 9478SOL    HW240068   3.053   3.871   7.490  0.0877 -1.5630 -0.7694
 9479SOL     OW40069   3.755   4.493   1.018 -0.4298 -0.8142  0.2071
 9479SOL    HW140070   3.827   4.448   1.062  1.5217  1.2938 -0.8615
 9479SOL    HW240071   3.682   4.470   1.075  0.0933 -2.7213  0.1018
 9480SOL     OW40072   0.087   3.787  12.165  0.3398  0.4569 -0.2292
 9480SOL    HW140073   0.115   3.709  12.116  2.7026  0.8455  0.4642
 9480SOL    HW240074   0.061   3.749  12.249 -2.5514  2.8438 -0.0804
 9481SOL     OW40075   0.552   3.808   9.125  0.1631 -0.5616 -0.2156
 9481SOL    HW140076   0.614   3.743   9.160  0.8703  0.1819 -0.0728
 9481SOL    HW240077   0.558   3.863   9.203 -0.6338  0.4775 -0.8845
 9482SOL     OW40078   1.813   1.067  16.665  0.0758  0.5578  0.1881
 9482SOL    HW140079   1.785   1.136  16.605 -0.0968  0.0813 -0.2719
 9482SOL    HW240080   1.741   1.066  16.728  0.2110 -1.0226  0.3220
 9483SOL     OW40081   1.138   3.551   7.708 -0.2771 -0.9065 -0.2594
 9483SOL    HW140082   1.061   3.533   7.654  0.7903  0.0283 -2.0746
 9483SOL    HW240083   1.201   3.592   7.650 -0.2552  1.0022  1.1196
 9484SOL     OW40084   0.488   2.223   1.963  0.1905  0.1516  0.1944
 9484SOL    HW140085   0.426   2.239   2.034  2.2201  0.8740  1.8109
 9484SOL    HW240086   0.449   2.276   1.893  0.8525  0.0618 -0.2449
 9485SOL     OW40087   0.145   2.342  14.160  0.1742 -0.0667 -0.1473
 9485SOL    HW140088   0.136   2.253  14.126 -1.4229  0.5705 -1.4486
 9485SOL    HW240089   0.238   2.348  14.179 -0.4390  2.0115  2.2051
 9486SOL     OW40090   1.978   2.992   8.872 -0.4119 -0.0187 -0.0810
 9486SOL    HW140091   1.998   2.934   8.945  1.7586 -0.0638 -0.7269
 9486SOL    HW240092   2.009   2.945   8.795  0.3670  0.4911 -0.0720
 9487SOL     OW40093   2.603   2.061   3.081 -0.0713  0.1768 -0.1454
 9487SOL    HW140094   2.520   2.105   3.066 -0.8649 -1.4398 -0.5749
 9487SOL    HW240095   2.571   1.986   3.132  2.0836 -0.1484  0.7257
 9488SOL     OW40096   4.244   1.454   5.624 -0.7073  0.5735 -0.1426
 9488SOL    HW140097   4.171   1.398   5.649 -0.2822 -0.3070 -0.8765
 9488SOL    HW240098   4.319   1.414   5.670  1.2288  2.8253 -1.3418
 9489SOL     OW40099   4.584   4.419   1.261 -0.3480  0.0977 -0.1070
 9489SOL    HW140100   4.544   4.490   1.311 -2.4919 -0.3133 -1.2711
 9489SOL    HW240101   4.548   4.437   1.175 -0.4537 -0.1159 -0.1070
 9490SOL     OW40102   3.010   3.579  15.360  0.0558  0.2457  0.0952
 9490SOL    HW140103   2.939   3.519  15.384  1.5708 -0.4128  2.8866
 9490SOL    HW240104   2.966   3.625  15.288  0.6655  1.8030  0.7380
 9491SOL     OW40105   2.854   2.330   9.558  0.1125 -0.4040  0.2004
 9491SOL    HW140106   2.781   2.341   9.498 -1.4243 -0.1003  2.1374
 9491SOL    HW240107   2.825   2.254   9.609  0.2966 -0.8238 -0.3187
 9492SOL     OW40108   1.556   4.679   3.673  0.2695  0.0323  0.3657
 9492SOL    HW140109   1.495   4.689   3.746  1.3634  0.2218  1.2460
 9492SOL    HW240110   1.522   4.603   3.626 -0.1106 -0.6144  1.7102
 9493SOL     OW40111   2.837   2.314  10.662  0.4940 -0.1963  0.6602
 9493SOL    HW140112   2.782   2.384  10.626  0.0407  0.3322  2.3741
 9493SOL    HW240113   2.768   2.247  10.667 -0.1718  0.4157 -0.4112
 9494SOL     OW40114   0.487   2.948   4.923  0.4519 -0.5102 -0.4725
 9494SOL    HW140115   0.547   3.014   4.958  1.0234 -1.9608  1.3003
 9494SOL    HW240116   0.462   2.972   4.834 -2.5333  0.4465  0.6353
 9495SOL     OW40117   1.511   4.674  11.236  0.1254 -0.2970  0.3772
 9495SOL    HW140118   1.429   4.626  11.244 -0.9370  1.4806  0.2999
 9495SOL    HW240119   1.490   0.005  11.300 -0.4048  1.8298 -2.0941
 9496SOL     OW40120   0.170   3.980   6.502 -0.3310 -0.5820 -0.2263
 9496SOL    HW140121   0.101   4.037   6.534 -0.5626  0.6423 -2.8918
 9496SOL    HW240122   0.174   3.904   6.561 -1.9882 -0.3456  0.2016
 9497SOL     OW40123   2.768   4.622   3.563  0.4353 -0.1961 -0.1362
 9497SOL    HW140124   2.810   4.561   3.502 -0.5980  0.8492 -1.8830
 9497SOL    HW240125   2.819   4.589   3.637  0.5787 -1.4322 -0.7914
 9498SOL     OW40126   4.231   3.329  14.228 -0.1416 -0.1192 -0.1685
 9498SOL    HW140127   4.174   3.327  14.305 -1.4826  2.1062 -1.1230
 9498SOL    HW240128   4.315   3.312  14.272  0.2356  0.8777 -0.4968
 9499SOL     OW40129   3.589   4.262   2.579  0.0702  0.8815  0.7966
 9499SOL    HW140130   3.545   4.197   2.633 -0.8753  1.7538  1.0758
 9499SOL    HW240131   3.682   4.256   2.603  0.4838  0.5805 -0.8550
 9500SOL     OW40132   4.400   0.232   0.992 -0.6849  0.3441  0.2660
 9500SOL    HW140133   4.489   0.207   0.966 -1.5346 -1.8343 -0.5673
 9500SOL    HW240134   4.427   0.318   1.024  0.4498 -0.3961  1.2752
 9501SOL     OW40135   4.067   1.680   0.819  0.1801 -0.2963  0.2183
 9501SOL    HW140136   3.973   1.697   0.821  0.0260 -0.7148 -3.1327
 9501SOL    HW240137   4.062   1.585   0.828 -0.5386 -0.0837  2.0816
 9502SOL     OW40138   4.344   3.072   2.050  0.1996  0.0944  0.5559
 9502SOL    HW140139   4.405   3.089   2.121  1.2221 -1.2414  0.0119
 9502SOL    HW240140   4.394   3.079   1.968  0.0787 -3.3947  0.1453
 9503SOL     OW40141   0.433   1.044  17.635  0.4981  0.4344 -0.5868
 9503SOL    HW140142   0.425   0.964  17.583  1.4964 -1.2600  1.8788
 9503SOL    HW240143   0.423   1.110  17.567  0.7618 -0.1660 -1.2047
 9504SOL     OW40144   2.714   2.846   8.697 -0.3437  0.1959  0.7304
 9504SOL    HW140145   2.702   2.859   8.603  0.3504 -0.3802  0.5607
 9504SOL    HW240146   2.672   2.927   8.727 -1.6913 -0.6045  1.0168
 9505SOL     OW40147   4.320   0.109   9.060 -0.0142  0.1803 -0.1461
 9505SOL    HW140148   4.292   0.161   8.986 -1.8446  2.1180  1.9111
 9505SOL    HW240149   4.351   0.029   9.017  4.0995  1.0453  1.1768
 9506SOL     OW40150   1.100   2.468   7.788  0.4673 -0.2674  0.3499
 9506SOL    HW140151   1.186   2.438   7.760  1.0829  0.6692  1.2061
 9506SOL    HW240152   1.084   2.553   7.746  2.5340  0.0811  0.2515
 9507SOL     OW40153   4.622   2.494   4.805  0.2101  0.6598  0.0589
 9507SOL    HW140154   4.664   2.529   4.884  1.3151  0.1191 -0.2905
 9507SOL    HW240155   4.536   2.535   4.795  0.7595  1.2478 -2.1881
 9508SOL     OW40156   0.211   0.917   3.861  0.0887  0.8066 -0.4042
 9508SOL    HW140157   0.192   0.886   3.949  0.0079  0.2203 -0.6323
 9508SOL    HW240158   0.121   0.913   3.828  0.4187 -2.0786 -0.9035
 9509SOL     OW40159   1.126   2.061   6.601 -0.6616  0.0015 -0.1579
 9509SOL    HW140160   1.100   1.982   6.554 -0.1684 -1.6752  2.3756
 9509SOL    HW240161   1.115   2.028   6.690  1.4680  0.4984  0.2787
 9510SOL     OW40162   3.194   4.232   7.173 -0.3858  0.0907  0.5387
 9510SOL    HW140163   3.121   4.288   7.200 -0.8581  0.0361 -0.6257
 9510SOL    HW240164   3.152   4.183   7.102 -0.3252 -0.3954  0.8369
 9511SOL     OW40165   3.598   4.051   7.257  0.1596  0.2186  0.2429
 9511SOL    HW140166   3.534   4.112   7.293  0.8037  0.9209  0.1816
 9511SOL    HW240167   3.551   3.974   7.223  3.0043 -0.4175 -2.2575
 9512SOL     OW40168   1.448   1.873  11.844 -0.7302 -0.0967 -0.1846
 9512SOL    HW140169   1.390   1.860  11.769 -0.7813 -2.7761  0.3139
 9512SOL    HW240170   1.400   1.851  11.924 -0.2720  0.1368  0.1559
 9513SOL     OW40171   2.011   4.070  14.399 -0.4464  0.5369  0.0318
 9513SOL    HW140172   1.918   4.088  14.403 -0.6884 -0.0962 -2.8185
 9513SOL    HW240173   2.021   3.979  14.373 -1.1809  0.4904 -0.0738
 9514SOL     OW40174   0.027   2.028   8.739 -0.6236  0.0804  0.8166
 9514SOL    HW140175   0.001   1.942   8.773 -1.8052  0.4978  0.9781
 9514SOL    HW240176   4.690   2.053   8.685 -0.2577  0.0053  0.2752
 9515SOL     OW40177   4.334   3.923   4.907  0.1380 -0.3803  0.2866
 9515SOL    HW140178   4.305   3.986   4.842  0.3883 -0.1994  0.3528
 9515SOL    HW240179   4.261   3.862   4.914  0.2127 -0.7540 -2.0566
 9516SOL     OW40180   4.694   0.219   7.601  0.4080  0.2783 -0.5097
 9516SOL    HW140181   4.610   0.261   7.583  0.0789 -0.0312  0.2773
 9516SOL    HW240182   4.699   0.131   7.563 -0.9775 -0.2753  0.5827
 9517SOL     OW40183   2.642   1.980   4.707  0.0429  0.5795 -0.0757
 9517SOL    HW140184   2.553   1.953   4.731  0.7842 -1.0555  0.8096
 9517SOL    HW240185   2.626   2.070   4.679  0.8942  1.0100  0.8190
 9518SOL     OW40186   2.466   0.013   4.117 -0.3838  0.6802 -0.4989
 9518SOL    HW140187   2.532   0.027   4.184  1.4021 -1.2075 -1.8360
 9518SOL    HW240188   2.431   4.663   4.135 -1.3713  0.9686 -0.9937
 9519SOL     OW40189   3.631   3.833   8.477  0.3621 -0.6239  0.0442
 9519SOL    HW140190   3.658   3.922   8.456  0.1057 -0.4083  0.6284
 9519SOL    HW240191   3.683   3.821   8.557  0.2670 -0.1350  0.1763
 9520SOL     OW40192   0.832   2.231   3.186 -0.7645 -0.0822 -0.3514
 9520SOL    HW140193   0.773   2.225   3.262 -0.9062 -2.2166 -0.6430
 9520SOL    HW240194   0.775   2.262   3.115 -0.7980  1.9088  0.5305
 9521SOL     OW40195   3.254   1.067   0.603  0.3307 -0.2737  0.5661
 9521SOL    HW140196   3.187   1.025   0.656 -0.7267  0.9964  0.2290
 9521SOL    HW240197   3.331   1.010   0.611  0.5421 -0.3477 -2.0255
 9522SOL     OW40198   0.250   0.716  16.946  0.4728 -0.6751  0.1455
 9522SOL    HW140199   0.279   0.647  16.887 -1.6619 -1.6533  0.2611
 9522SOL    HW240200   0.178   0.742  16.889  0.6324 -0.4311  0.0554
 9523SOL     OW40201   1.491   2.505   3.363  0.1901  0.0364  0.1514
 9523SOL    HW140202   1.549   2.543   3.297  0.2615 -0.3272 -0.0010
 9523SOL    HW240203   1.488   2.566   3.437 -0.6175 -2.6365  2.3340
 9524SOL     OW40204   2.644   4.459   2.510  0.0558  0.4775 -0.2926
 9524SOL    HW140205   2.571   4.427   2.562  0.6422  0.9026  0.7970
 9524SOL    HW240206   2.610   4.446   2.422  0.5574  2.1459 -0.7411
 9525SOL     OW40207   0.290   4.493   9.005  0.1971  0.3697 -0.1158
 9525SOL    HW140208   0.244   4.436   9.066 -0.1045  0.2357 -0.4638
 9525SOL    HW240209   0.379   4.464   9.025  0.2581  1.4395  1.1123
 9526SOL     OW40210   0.276   2.114  14.347 -0.3530  0.5073  0.3867
 9526SOL    HW140211   0.242   2.104  14.258 -0.0248  0.3521  0.2802
 9526SOL    HW240212   0.354   2.166  14.329  0.4916 -0.7474  0.4927
 9527SOL     OW40213   1.612   4.243   7.739  0.0841  0.6785 -0.4637
 9527SOL    HW140214   1.625   4.269   7.831  1.3928  0.5934 -0.6310
 9527SOL    HW240215   1.539   4.182   7.746  0.0642  0.8783  1.2188
 9528SOL     OW40216   4.464   1.672   1.922 -0.1745  0.0570 -0.4080
 9528SOL    HW140217   4.444   1.586   1.958 -0.4634 -0.6388 -2.1944
 9528SOL    HW240218   4.468   1.640   1.831  1.0650  2.1480 -1.0843
 9529SOL     OW40219   1.728   1.960   7.111  0.0952 -0.0048 -0.2189
 9529SOL    HW140220   1.799   1.902   7.084 -0.5881 -1.0630  0.2591
 9529SOL    HW240221   1.766   2.019   7.176 -0.8157 -1.1494  1.3485
 9530SOL     OW40222   3.441   2.915  13.737 -0.2656 -0.1758 -0.7313
 9530SOL    HW140223   3.352   2.879  13.734  0.3327 -1.7222 -0.1078
 9530SOL    HW240224   3.448   2.940  13.645  0.2779 -0.2975 -0.7243
 9531SOL     OW40225   4.565   0.466  10.785  0.8426  0.0627  0.1365
 9531SOL    HW140226   4.586   0.550  10.825  0.8595 -0.5745  1.4931
 9531SOL    HW240227   4.564   0.478  10.690  1.3368  0.3071  0.1621
 9532SOL     OW40228   4.475   3.727   6.053 -0.3662  0.2114 -0.1912
 9532SOL    HW140229   4.453   3.634   6.064 -0.6152  0.0185 -2.1778
 9532SOL    HW240230   4.513   3.752   6.136 -1.8535 -1.5016  1.0175
 9533SOL     OW40231   2.001   3.591   6.921  0.4232 -0.0091  0.0741
 9533SOL    HW140232   1.925   3.532   6.927 -0.8545  1.6553  0.3095
 9533SOL    HW240233   1.991   3.640   7.003  0.6255  2.3838 -1.3421
 9534SOL     OW40234   2.376   2.467  10.508  0.1126  0.2579 -0.4717
 9534SOL    HW140235   2.454   2.483  10.561 -0.8183 -0.1348  1.0179
 9534SOL    HW240236   2.388   2.374  10.488  1.1083  0.4392 -0.7189
 9535SOL     OW40237   2.960   2.559  12.264 -0.4350 -0.2327  0.0313
 9535SOL    HW140238   2.988   2.591  12.178 -1.4482  1.1635  0.2232
 9535SOL    HW240239   2.868   2.548  12.238 -0.2738  0.2479 -0.7459
 9536SOL     OW40240   2.189   2.232   4.005 -0.2368 -0.1071  0.0031
 9536SOL    HW140241   2.142   2.163   3.958  1.3744 -0.8038 -0.5668
 9536SOL    HW240242   2.201   2.182   4.086  2.3244  0.9029  0.2400
 9537SOL     OW40243   1.021   0.527   5.998  0.8805 -0.4119 -0.4877
 9537SOL    HW140244   0.967   0.455   5.965  1.0722 -0.7915  0.0241
 9537SOL    HW240245   1.069   0.489   6.072  1.5820 -1.5267 -1.5084
 9538SOL     OW40246   0.921   0.632   4.702  0.2507 -0.4651 -0.6332
 9538SOL    HW140247   1.009   0.628   4.665  1.2217 -0.3266  1.6975
 9538SOL    HW240248   0.930   0.566   4.770  0.5677  0.3386  0.1041
 9539SOL     OW40249   3.112   4.628   9.658  0.3250  0.3751  0.5064
 9539SOL    HW140250   3.088   4.536   9.667  0.3309  0.2077 -1.3170
 9539SOL    HW240251   3.049   4.667   9.597 -0.7416  0.8057  1.8783
 9540SOL     OW40252   4.289   3.488   6.192  0.7366 -0.7492  0.1350
 9540SOL    HW140253   4.350   3.447   6.254  2.3232  1.9315  0.3713
 9540SOL    HW240254   4.332   3.445   6.118 -0.8839 -1.3875 -0.4398
 9541SOL     OW40255   1.890   3.718   4.556 -0.2654 -0.0641  0.3794
 9541SOL    HW140256   1.894   3.720   4.652  0.2273  1.2574  0.3285
 9541SOL    HW240257   1.843   3.635   4.545 -1.8192  0.5036  2.7268
 9542SOL     OW40258   1.106   1.575   8.304  0.2503  0.4654  0.5072
 9542SOL    HW140259   1.185   1.543   8.261 -0.8517 -1.3019 -0.1871
 9542SOL    HW240260   1.041   1.532   8.249  0.8136 -1.2016  1.1490
 9543SOL     OW40261   4.583   1.098   8.766  0.7729 -0.0472  0.0466
 9543SOL    HW140262   4.649   1.154   8.806  0.9939 -0.4821  0.2931
 9543SOL    HW240263   4.521   1.160   8.728 -0.2815 -1.1861 -0.1050
 9544SOL     OW40264   2.997   0.593   6.298  0.2902 -0.1451 -0.4151
 9544SOL    HW140265   3.025   0.515   6.250  0.0019 -0.5868  0.1394
 9544SOL    HW240266   3.066   0.600   6.364 -1.9358 -1.8789  2.1075
 9545SOL     OW40267   3.842   1.888   7.129 -1.0184  0.2870 -0.1020
 9545SOL    HW140268   3.775   1.834   7.171  0.8166 -2.3733 -0.6237
 9545SOL    HW240269   3.896   1.924   7.199 -0.1788 -1.2356  0.0115
 9546SOL     OW40270   0.422   4.346   0.030 -0.5868  0.3570  0.1338
 9546SOL    HW140271   0.403   4.372   0.120 -2.0367 -0.9394  0.1940
 9546SOL    HW240272   0.420   4.250   0.036  0.6055  0.3665  0.7752
 9547SOL     OW40273   0.158   0.730  16.047 -0.1774 -0.7573 -0.1210
 9547SOL    HW140274   0.202   0.645  16.056  1.6741 -0.3368 -4.9108
 9547SOL    HW240275   0.157   0.733  15.951  0.6660 -1.2720 -0.1450
 9548SOL     OW40276   3.754   0.262   9.933 -0.0798  0.2222 -0.3343
 9548SOL    HW140277   3.668   0.252   9.974  0.0993 -0.4674 -0.1323
 9548SOL    HW240278   3.742   0.318   9.856 -0.7965 -0.7181 -0.9048
 9549SOL     OW40279   0.645   0.680   6.154  0.0641 -0.0312  0.3246
 9549SOL    HW140280   0.670   0.731   6.232 -0.6173  1.4957 -0.4542
 9549SOL    HW240281   0.561   0.717   6.128  0.6094 -0.3275 -1.8786
 9550SOL     OW40282   4.279   1.881   3.905 -0.0296 -0.4421  0.2727
 9550SOL    HW140283   4.268   1.799   3.856 -1.3656  0.4166 -0.8774
 9550SOL    HW240284   4.190   1.916   3.905 -0.0418 -0.4758  1.0788
 9551SOL     OW40285   0.509   0.844   8.269  0.1134 -0.2266  0.4668
 9551SOL    HW140286   0.488   0.911   8.334  1.9882  0.1083  0.7332
 9551SOL    HW240287   0.542   0.779   8.331  0.0438 -1.5448 -0.8609
 9552SOL     OW40288   0.931   4.364   7.578 -0.4580 -0.5341  0.1815
 9552SOL    HW140289   0.941   4.450   7.538  1.9144 -0.8670  0.0813
 9552SOL    HW240290   0.863   4.397   7.637 -0.3055  0.3942 -0.1608
 9553SOL     OW40291   1.109   4.653   3.590  0.5607  0.0270 -0.6592
 9553SOL    HW140292   1.094   4.560   3.603 -0.1450  0.3459  0.7870
 9553SOL    HW240293   1.018   4.680   3.579 -0.3797 -2.7326  0.4747
 9554SOL     OW40294   2.534   4.662  16.167 -0.1269  0.0932 -0.3733
 9554SOL    HW140295   2.545   4.570  16.188  0.4487  0.3067  0.2489
 9554SOL    HW240296   2.625   4.691  16.157  0.0261  0.1963  1.3504
 9555SOL     OW40297   0.316   0.836   5.364 -0.2433  0.1814  0.3223
 9555SOL    HW140298   0.295   0.759   5.417 -1.2656  0.1427 -0.1404
 9555SOL    HW240299   0.229   0.872   5.346  0.2571  1.6616  0.8626
 9556SOL     OW40300   2.836   1.498   5.392 -0.2552 -0.4259 -0.9069
 9556SOL    HW140301   2.841   1.514   5.486 -2.4684  0.4125 -0.9300
 9556SOL    HW240302   2.922   1.527   5.362 -1.0445  2.0643 -0.7751
 9557SOL     OW40303   1.054   0.685   7.786 -0.0856 -0.0199 -0.3176
 9557SOL    HW140304   0.981   0.638   7.825  0.1884  1.3010  1.7690
 9557SOL    HW240305   1.032   0.660   7.696  2.2676  0.8043 -1.1336
 9558SOL     OW40306   1.560   3.673  11.295 -0.2253 -0.6022  0.3242
 9558SOL    HW140307   1.475   3.699  11.261  0.1261  3.2584  2.4066
 9558SOL    HW240308   1.601   3.652  11.211  0.3668  2.1385 -0.0705
 9559SOL     OW40309   3.802   1.909   2.774  0.2229  0.1731 -0.4494
 9559SOL    HW140310   3.770   1.819   2.767 -0.1579  0.4397 -2.0433
 9559SOL    HW240311   3.754   1.951   2.703 -4.0288 -0.2115  2.1735
 9560SOL     OW40312   3.107   1.251  10.205  0.3367  0.4642  0.2319
 9560SOL    HW140313   3.178   1.270  10.145  1.6550 -1.9183  1.0414
 9560SOL    HW240314   3.104   1.335  10.251  0.9115  0.7176 -0.2037
 9561SOL     OW40315   0.962   2.618   9.780  0.4613 -0.1541  0.5500
 9561SOL    HW140316   0.990   2.528   9.800  0.8281  0.0219  0.8279
 9561SOL    HW240317   1.046   2.661   9.798  1.3869 -1.2962 -1.0195
 9562SOL     OW40318   1.143   0.970   1.008 -0.2202  0.1150  0.3232
 9562SOL    HW140319   1.100   1.056   1.014  0.1494  0.2942  0.3727
 9562SOL    HW240320   1.079   0.912   1.050  0.2370 -1.0318 -0.5794
 9563SOL     OW40321   1.750   3.647   0.724  0.0324 -0.1493 -0.2516
 9563SOL    HW140322   1.770   3.556   0.744 -0.9940 -0.1773  0.6080
 9563SOL    HW240323   1.655   3.648   0.712 -0.1401  0.1530  1.1714
 9564SOL     OW40324   4.730   3.439   4.020 -0.0126 -0.1303 -0.5777
 9564SOL    HW140325   0.020   3.512   3.965 -3.2388 -0.1239 -2.2334
 9564SOL    HW240326   0.073   3.387   4.017  0.4311  0.5737 -0.7879
 9565SOL     OW40327   4.576   3.414   9.072 -0.4928  0.4747 -0.2027
 9565SOL    HW140328   4.661   3.414   9.117  1.0547 -1.6351 -3.1960
 9565SOL    HW240329   4.608   3.395   8.984  1.3945  0.4819  0.4662
 9566SOL     OW40330   4.656   1.240   7.098 -0.1190  0.2832 -0.4822
 9566SOL    HW140331   4.569   1.204   7.082  1.2711 -2.9910 -0.8181
 9566SOL    HW240332   4.648   1.323   7.051  1.2713 -0.0185 -1.2626
 9567SOL     OW40333   1.458   3.931   0.832  0.5929  0.6354 -0.5541
 9567SOL    HW140334   1.459   3.844   0.791  0.9381 -0.1215  1.0865
 9567SOL    HW240335   1.393   3.917   0.901 -0.9524 -1.7692 -2.4651
 9568SOL     OW40336   2.687   1.142   3.270 -0.6042 -0.2497 -0.0393
 9568SOL    HW140337   2.760   1.187   3.311 -1.5032  2.7120 -1.7065
 9568SOL    HW240338   2.708   1.056   3.308  1.6953 -0.4944 -1.8975
 9569SOL     OW40339   2.361   1.052   6.304  0.1146  0.0216  0.2389
 9569SOL    HW140340   2.433   0.993   6.285 -1.5804 -1.8663 -0.3071
 9569SOL    HW240341   2.397   1.139   6.290 -1.4115  0.6769  0.3256
 9570SOL     OW40342   1.992   2.708  15.921 -0.2576  0.6366  0.7285
 9570SOL    HW140343   1.917   2.703  15.862  0.9744 -1.0982 -0.6768
 9570SOL    HW240344   1.949   2.710  16.007  0.3912  0.4500  1.0576
 9571SOL     OW40345   0.347   3.680  10.418  0.6539 -0.8817  0.0607
 9571SOL    HW140346   0.280   3.621  10.451 -1.6336  2.9613  2.2260
 9571SOL    HW240347   0.416   3.659  10.481  0.9177  2.0093  0.7795
   4.73772   4.73772  17.74907
