Membrane in water
40347
    1TMC1    C1    1   2.490   3.515  11.411  0.0656 -0.0392  0.1097
    1TMC1    C2    2   2.396   3.603  11.365 -0.1015 -0.3081 -0.0842
    1TMC1    C3    3   2.405   3.659  11.240  0.7258 -0.6690  0.7598
    1TMC1    C4    4   2.594   3.468  11.329  0.6638 -0.0360 -0.5451
    1TMC1    C5    5   2.590   3.517  11.200  0.8480  0.8629  0.6633
    1TMC1    C6    6   2.495   3.601  11.157 -0.1943 -0.2439 -0.4172
    1TMC1     C    7   2.493   3.486  11.554  0.3469  0.2409  0.0219
    1TMC1     O    8   2.394   3.515  11.619  0.1866  0.7467  0.0814
    1TMC1     H    9   2.316   3.627  11.434  0.1382 -1.5704  0.6381
    1TMC1    H1   10   2.674   3.402  11.361 -1.0236 -2.3381 -1.0099
    1TMC1    H2   11   2.481   3.620  11.051 -1.9442 -2.1596 -0.5241
    1TMC1    C7   12   2.677   3.463  11.100 -0.1520 -0.3692  0.4994
    1TMC1    C8   13   2.295   3.745  11.187 -0.0421  0.1151  0.0616
    1TMC1    O1   14   2.651   3.442  10.985 -0.3414  0.0704  0.5268
    1TMC1    O2   15   2.277   3.739  11.067  0.1831  0.7357  0.1566
    1TMC1    O3   16   2.797   3.442  11.161  0.8919  0.2674 -0.0278
    1TMC1    H3   17   2.803   3.494  11.244  0.5487  1.9474 -1.0681
    1TMC1    O5   18   2.212   3.784  11.283 -0.4771  0.4769  0.0737
    1TMC1    H5   19   2.249   3.803  11.372 -0.9721  1.2946  0.0978
    2MPD2     C   20   2.704   3.362  12.003 -0.2354 -0.4845  0.7659
    2MPD2    C1   21   2.591   3.435  11.966 -0.0989  0.6822 -0.3698
    2MPD2    C2   22   2.555   3.462  11.835 -0.1736  0.3612 -0.0062
    2MPD2    C3   23   2.626   3.391  11.730 -0.0592  0.0985 -0.1576
    2MPD2    C4   24   2.724   3.308  11.771 -0.1235 -0.3836 -0.6370
    2MPD2    C5   25   2.770   3.292  11.900 -0.0621 -1.5470  0.1658
    2MPD2     H   26   2.479   3.537  11.816 -1.3388 -1.1843 -1.4647
    2MPD2    H1   27   2.777   3.252  11.695  1.2230 -1.2763  0.9614
    2MPD2    H2   28   2.745   3.358  12.103  3.1807  0.3746 -0.5831
    2MPD2    H3   29   2.852   3.222  11.914  1.8848 -0.1748 -4.3761
    2MPD2     N   30   2.600   3.412  11.596  0.0911  0.6142 -0.0560
    2MPD2    H5   31   2.662   3.370  11.527 -1.8787 -2.6188  0.1568
    2MPD2    N1   32   2.520   3.512  12.058  0.2013 -0.0337  0.1465
    2MPD2    H7   33   2.435   3.550  12.017  2.5909  2.3034 -2.6370
    3TMC1    C1   34   0.931   0.103  11.893 -0.4748  0.4326 -0.6898
    3TMC1    C2   35   0.878   0.189  11.806 -0.0256 -0.0518 -0.7679
    3TMC1    C3   36   0.769   0.135  11.740  0.4399 -0.1074 -0.1398
    3TMC1    C4   37   0.879   4.715  11.921  0.4829 -0.7792 -0.0460
    3TMC1    C5   38   0.765   4.677  11.863  0.1640  0.2210 -0.5896
    3TMC1    C6   39   0.710   0.016  11.771  0.1975  0.7976  0.7505
    3TMC1     C   40   1.046   0.151  11.964 -0.2711 -0.1794 -0.3610
    3TMC1     O   41   1.065   0.096  12.069 -0.6633  0.3160  0.0228
    3TMC1     H   42   0.909   0.291  11.787  1.3605 -0.1150  1.1360
    3TMC1    H1   43   0.911   4.652  12.003 -4.2552 -2.2645  0.6210
    3TMC1    H2   44   0.621   4.713  11.723  1.9860 -2.6722  0.1654
    3TMC1    C7   45   0.680   4.608  11.952 -0.3122  0.1972 -0.1384
    3TMC1    C8   46   0.711   0.217  11.642 -0.5478 -0.0841  0.7121
    3TMC1    O1   47   0.574   4.650  11.989 -0.1601  0.2834  0.0712
    3TMC1    O2   48   0.713   0.340  11.646 -0.3845  0.1921 -0.1038
    3TMC1    O3   49   0.733   4.490  11.979  0.6573  0.0448  0.5012
    3TMC1    H3   50   0.808   4.475  11.919  0.6701 -0.2999  0.6020
    3TMC1    O5   51   0.656   0.139  11.541  0.4328 -0.3724  0.3709
    3TMC1    H5   52   0.685   0.046  11.551  3.3897  0.7446  2.2667
    4MPD2     C   53   1.475   0.437  12.016  0.0429 -0.5527 -0.2965
    4MPD2    C1   54   1.410   0.479  11.904  0.2446  0.0325  0.1256
    4MPD2    C2   55   1.297   0.407  11.860 -0.4019 -0.2477  0.3343
    4MPD2    C3   56   1.246   0.305  11.935 -0.1159  0.0401 -0.0952
    4MPD2    C4   57   1.314   0.253  12.044 -0.0341  0.1121 -0.6013
    4MPD2    C5   58   1.427   0.322  12.081 -0.1166 -0.5031  0.1019
    4MPD2     H   59   1.238   0.455  11.783  0.5871  0.1792 -0.1562
    4MPD2    H1   60   1.300   0.161  12.098  2.3663  0.4978  0.7010
    4MPD2    H2   61   1.554   0.490  12.067 -0.4683  0.5720 -0.6743
    4MPD2    H3   62   1.489   0.300  12.167 -1.1023  0.4068  1.0345
    4MPD2     N   63   1.122   0.249  11.900 -0.9407 -0.0457 -0.6857
    4MPD2    H5   64   1.087   0.272  11.808 -1.3253  3.7906  0.4300
    4MPD2    N1   65   1.442   0.601  11.836 -0.7169 -0.3034 -0.5615
    4MPD2    H7   66   1.388   0.651  11.767  2.1988  1.1334 -1.7805
    5TCq1    O1   67   1.558   2.689  12.028 -0.2203 -0.4161 -0.0159
    5TCq1    C1   68   1.683   2.699  11.974 -0.3355  0.0692 -0.0937
    5TCq1    O2   69   1.738   2.798  11.920 -0.6770  0.9631 -0.0044
    5TCq1    C2   70   1.709   2.561  11.938  0.7848  0.4162 -0.2195
    5TCq1    C3   71   1.700   2.464  12.033 -0.1687 -1.3137  0.1257
    5TCq1    C4   72   1.766   2.340  12.008  0.1038 -1.0769 -0.5550
    5TCq1    C5   73   1.817   2.316  11.886 -0.1823  0.1959  0.0606
    5TCq1    C6   74   1.838   2.423  11.795  0.4122  0.7474 -0.7773
    5TCq1    C7   75   1.781   2.545  11.822 -0.0062  0.3894 -0.8424
    5TCq1    C8   76   1.921   2.399  11.672  0.0320  0.2364  0.2504
    5TCq1    O4   77   1.966   2.284  11.661 -0.2054 -0.0592 -0.0788
    5TCq1    C9   78   1.753   2.234  12.098 -0.3869 -0.4415 -0.8775
    5TCq1    O5   79   1.806   2.126  12.060  0.3100 -0.3644  0.1807
    5TCq1    O6   80   1.678   2.262  12.197  0.0789 -0.7544  0.3269
    5TCq1    H1   81   1.509   2.605  12.020 -0.6561 -0.3956  2.3501
    5TCq1    H2   82   1.634   2.471  12.118  1.6294 -2.9422  1.6343
    5TCq1    H3   83   1.852   2.217  11.858 -1.2342 -0.0010 -0.5502
    5TCq1    H4   84   1.798   2.638  11.771 -1.4126 -0.3061 -2.5711
    6MPD2     C   85   1.928   2.597  11.360  0.8160  0.2679  0.6116
    6MPD2    C1   86   1.963   2.495  11.453  0.8208  0.4280  0.2508
    6MPD2    C2   87   2.016   2.381  11.389 -0.3072  0.1304 -0.6715
    6MPD2    C3   88   2.019   2.369  11.249 -0.2474 -0.1989  0.0261
    6MPD2    C4   89   1.990   2.475  11.167  0.2436  0.2833 -0.0181
    6MPD2    C5   90   1.942   2.585  11.226 -0.9279  1.0294  0.2441
    6MPD2     H   91   2.058   2.298  11.446  0.6841  1.4166  0.4486
    6MPD2    H1   92   2.007   2.477  11.060  0.2487 -0.7249 -0.0408
    6MPD2    H2   93   1.894   2.693  11.396 -2.7752 -2.0065  3.1894
    6MPD2    H3   94   1.904   2.671  11.172  0.2380  0.6993 -1.0869
    6MPD2     N   95   2.069   2.248  11.198  0.6953 -0.5078 -0.2368
    6MPD2    H5   96   2.128   2.190  11.257  1.3060 -1.3590 -1.6782
    6MPD2    N1   97   1.940   2.507  11.592  0.2110  0.7474 -0.1519
    6MPD2    H7   98   1.907   2.594  11.633  1.3161  0.2520  1.7772
    7TCq1    O1   99   4.147   1.843  12.686 -0.3961 -0.0113  0.0507
    7TCq1    C1  100   4.271   1.806  12.701 -0.1170 -0.4492 -0.6946
    7TCq1    O2  101   4.368   1.873  12.733  0.0720 -0.6655  0.1915
    7TCq1    C2  102   4.276   1.659  12.703 -0.3016 -0.1109 -0.1693
    7TCq1    C3  103   4.216   1.587  12.596  0.3721  1.1212  0.0166
    7TCq1    C4  104   4.267   1.463  12.570 -0.8714 -0.1709 -0.0627
    7TCq1    C5  105   4.366   1.401  12.645 -0.5469  0.0932  0.4036
    7TCq1    C6  106   4.424   1.471  12.743 -0.2202  0.1386 -0.9528
    7TCq1    C7  107   4.387   1.603  12.772 -0.9052 -0.0678  0.2766
    7TCq1    C8  108   4.486   1.390  12.851 -0.7282 -0.2116 -0.9061
    7TCq1    O4  109   4.533   1.278  12.819 -0.1705  0.5496 -0.1847
    7TCq1    C9  110   4.206   1.380  12.462 -0.0679 -0.1355 -0.5080
    7TCq1    O5  111   4.131   1.442  12.382 -0.1818  0.5042 -0.4020
    7TCq1    O6  112   4.218   1.255  12.473 -0.8994 -0.1431  0.2739
    7TCq1    H1  113   4.083   1.769  12.696  0.6363 -0.7748  0.9804
    7TCq1    H2  114   4.146   1.635  12.528 -0.4205 -0.8852 -0.5832
    7TCq1    H3  115   4.407   1.305  12.616 -0.1528  0.3049  0.2632
    7TCq1    H4  116   4.449   1.679  12.819 -2.2971  0.2395  1.6332
    8MPD2     C  117   4.691   1.353  13.327 -0.5096 -0.1532  0.0031
    8MPD2    C1  118   4.666   1.252  13.234 -0.5509 -0.3647  0.1115
    8MPD2    C2  119   4.605   1.285  13.111 -0.0451 -0.5901 -0.8255
    8MPD2    C3  120   4.564   1.420  13.085 -0.5192  0.3381 -0.3094
    8MPD2    C4  121   4.589   1.515  13.179 -0.4203 -0.1181 -0.1914
    8MPD2    C5  122   4.650   1.488  13.297 -0.0766 -0.3865  0.1881
    8MPD2     H  123   4.586   1.214  13.031 -0.5121 -0.1765 -1.0848
    8MPD2    H1  124   4.569   1.617  13.150 -2.1648 -0.6700 -0.9503
    8MPD2    H2  125   4.728   1.329  13.426  1.6943  1.2955 -0.4735
    8MPD2    H3  126   4.671   1.563  13.372  1.5416  0.4919 -1.1381
    8MPD2     N  127   4.503   1.463  12.968  0.0758 -0.2065  0.8284
    8MPD2    H5  128   4.476   1.561  12.963  1.1097  0.1184  1.4209
    8MPD2    N1  129   4.703   1.124  13.280 -0.0320  0.3486 -0.4807
    8MPD2    H7  130   4.735   1.121  13.376  1.4502  1.7344 -0.9387
    9TMC1    C1  131   2.484   0.896  11.539  0.2359 -0.5152 -0.5300
    9TMC1    C2  132   2.626   0.898  11.535  0.6373  0.3916  0.1847
    9TMC1    C3  133   2.686   0.925  11.418  0.1667  0.5217  0.3355
    9TMC1    C4  134   2.410   0.919  11.431 -0.4873  0.1828 -0.6290
    9TMC1    C5  135   2.482   0.951  11.314 -0.0383 -0.6291  0.6057
    9TMC1    C6  136   2.622   0.951  11.302  0.8555  0.6163  1.0236
    9TMC1     C  137   2.409   0.832  11.644  0.5106 -0.8020 -0.0342
    9TMC1     O  138   2.307   0.890  11.669 -0.0155 -0.6486 -0.5369
    9TMC1     H  139   2.682   0.901  11.628  2.9434 -0.4041 -1.2038
    9TMC1    H1  140   2.303   0.910  11.422 -0.4581  0.1642 -0.9761
    9TMC1    H2  141   2.674   0.994  11.218  0.6144 -0.3724  0.3685
    9TMC1    C7  142   2.409   0.949  11.189  0.0410  0.2625  0.3385
    9TMC1    C8  143   2.830   0.915  11.425 -0.0993  0.0500 -0.5952
    9TMC1    O1  144   2.292   0.984  11.183  0.1086 -0.6236 -0.3456
    9TMC1    O2  145   2.884   0.920  11.535 -0.2762 -0.6034 -0.0628
    9TMC1    O3  146   2.470   0.846  11.127 -0.2856 -0.0138 -0.7658
    9TMC1    H3  147   2.565   0.829  11.140 -0.5017 -0.4208  0.2886
    9TMC1    O5  148   2.877   0.859  11.312 -0.1305 -0.0595 -0.0559
    9TMC1    H5  149   2.809   0.844  11.243  0.5875 -1.5558 -0.4200
   10MPD2     C  150   2.317   0.714  11.903 -0.5138  0.3291  0.2639
   10MPD2    C1  151   2.421   0.659  11.821 -0.1310 -0.6601  0.3739
   10MPD2    C2  152   2.475   0.533  11.848  0.3400  0.3342 -0.2284
   10MPD2    C3  153   2.429   0.461  11.952 -0.2129  0.2838 -0.3116
   10MPD2    C4  154   2.332   0.519  12.027 -0.6161  0.3289  0.5071
   10MPD2    C5  155   2.272   0.645  12.006  0.2335  0.1974 -0.5829
   10MPD2     H  156   2.550   0.484  11.786 -0.0663 -0.5589 -0.0185
   10MPD2    H1  157   2.295   0.464  12.113  0.5473  1.7708  1.9095
   10MPD2    H2  158   2.274   0.812  11.886  1.2559  0.8477 -1.3021
   10MPD2    H3  159   2.206   0.678  12.085  0.9480 -1.4698  0.7193
   10MPD2     N  160   2.469   0.328  11.980 -0.1622  0.3746 -0.3863
   10MPD2    H5  161   2.436   0.292  12.069 -0.3239 -0.8348 -0.9485
   10MPD2    N1  162   2.476   0.730  11.708  0.2912 -0.5777  0.3536
   10MPD2    H7  163   2.565   0.701  11.670  1.2249  0.7560  1.4934
   11TCq1    O1  164   2.642   0.620  14.097 -0.0087  0.4895  0.0502
   11TCq1    C1  165   2.705   0.520  14.156  0.0050 -0.0253  0.2589
   11TCq1    O2  166   2.662   0.464  14.258 -0.4378  0.6835  0.3153
   11TCq1    C2  167   2.840   0.490  14.099 -0.4592  0.1375 -0.1219
   11TCq1    C3  168   2.928   0.431  14.179 -0.7318  0.0449 -0.3624
   11TCq1    C4  169   3.039   0.371  14.118  0.8165 -0.1641 -0.1934
   11TCq1    C5  170   3.050   0.370  13.980 -0.0778  0.2957  0.0792
   11TCq1    C6  171   2.960   0.442  13.903 -0.1510 -0.1007 -0.2331
   11TCq1    C7  172   2.854   0.500  13.962  1.0714 -0.2179  0.0899
   11TCq1    C8  173   2.912   0.384  13.782 -0.6336  0.2358 -0.5474
   11TCq1    O4  174   2.831   0.450  13.720 -0.1001  0.8425 -0.2871
   11TCq1    C9  175   3.142   0.331  14.205  0.1293 -0.1196 -0.3216
   11TCq1    O5  176   3.150   0.382  14.316  0.4271  0.3827  0.4892
   11TCq1    O6  177   3.235   0.271  14.151  0.6856 -0.2600  0.4303
   11TCq1    H1  178   2.688   0.660  14.020 -0.1739 -1.2506 -0.9437
   11TCq1    H2  179   2.934   0.429  14.287 -0.4272 -0.1239 -0.3805
   11TCq1    H3  180   3.142   0.332  13.936 -1.2165 -1.2737 -0.9376
   11TCq1    H4  181   2.773   0.543  13.904 -0.1834 -1.0102  1.2459
   12MPD2     C  182   2.821   0.210  13.561 -0.3677 -0.9941  0.2960
   12MPD2    C1  183   2.913   0.168  13.656 -0.1098  0.0227 -0.1626
   12MPD2    C2  184   2.970   0.041  13.659 -0.2445 -1.1557  0.5845
   12MPD2    C3  185   2.940   4.693  13.551 -0.3451 -0.5858  0.0725
   12MPD2    C4  186   2.847   4.727  13.457  0.4843  0.2702  0.6588
   12MPD2    C5  187   2.784   0.120  13.463  0.7552  0.3505 -0.6082
   12MPD2     H  188   3.024   0.004  13.746  1.3692 -0.4500 -0.1019
   12MPD2    H1  189   2.810   4.656  13.384 -0.9483  1.9111 -0.2148
   12MPD2    H2  190   2.772   0.307  13.562  0.0536 -0.7944  2.2314
   12MPD2    H3  191   2.705   0.142  13.392  0.0240 -1.0717 -0.2568
   12MPD2     N  192   2.994   4.562  13.541 -0.5015  0.7432 -0.2772
   12MPD2    H5  193   2.963   4.507  13.461  0.0621 -1.7502  1.1887
   12MPD2    N1  194   2.954   0.256  13.762  0.6529  0.4738 -0.0450
   12MPD2    H7  195   3.036   0.223  13.813  0.1375 -2.2580 -1.0252
   13TCq1    O1  196   2.954   0.548  10.594  0.2235  0.1838 -0.2117
   13TCq1    C1  197   2.823   0.548  10.566 -0.4066  0.3739 -0.3876
   13TCq1    O2  198   2.767   0.485  10.475 -0.0691  0.0975  0.0242
   13TCq1    C2  199   2.757   0.559  10.698  0.6938  0.7675 -0.7030
   13TCq1    C3  200   2.786   0.662  10.780  0.2001 -0.7748  0.3322
   13TCq1    C4  201   2.738   0.664  10.905  0.5181 -0.4266  0.1339
   13TCq1    C5  202   2.657   0.569  10.957 -0.6996  0.3495  0.0871
   13TCq1    C6  203   2.622   0.470  10.870  0.5700 -1.2872  0.0842
   13TCq1    C7  204   2.682   0.452  10.748 -0.0120  0.2644 -0.1327
   13TCq1    C8  205   2.539   0.361  10.921  0.3841 -0.2835 -0.7237
   13TCq1    O4  206   2.500   0.362  11.040  0.3390  0.1555 -0.7103
   13TCq1    C9  207   2.773   0.779  10.986 -0.6201  0.2636  0.2474
   13TCq1    O5  208   2.724   0.783  11.105  0.1818 -0.2826 -0.2407
   13TCq1    O6  209   2.826   0.880  10.924  0.5660 -0.0298 -0.1970
   13TCq1    H1  210   2.981   0.555  10.687  3.0721 -2.0482 -0.8731
   13TCq1    H2  211   2.833   0.753  10.745 -1.4638 -0.9913 -2.4789
   13TCq1    H3  212   2.610   0.577  11.054 -0.5718 -0.7028  0.2270
   13TCq1    H4  213   2.641   0.382  10.676  2.0292  1.4313 -2.4568
   14MPD2     C  214   2.486   0.031  10.781 -0.6830 -0.2345 -1.1311
   14MPD2    C1  215   2.468   0.138  10.866 -0.1140 -0.0028  0.7752
   14MPD2    C2  216   2.360   0.135  10.951  0.4630 -0.2346  0.1011
   14MPD2    C3  217   2.290   0.017  10.965 -0.5455 -0.3686  0.2373
   14MPD2    C4  218   2.326   4.633  10.900 -0.5369  0.5874  0.0803
   14MPD2    C5  219   2.418   4.647  10.801 -0.4133  0.4391  0.0487
   14MPD2     H  220   2.334   0.220  11.013 -0.6436  1.3486 -2.5519
   14MPD2    H1  221   2.274   4.539  10.915 -0.3837  0.7229  1.4663
   14MPD2    H2  222   2.577   0.029  10.721 -0.1843  0.7245 -0.4040
   14MPD2    H3  223   2.446   4.560  10.743  2.2604  0.8155  0.7715
   14MPD2     N  224   2.181   0.025  11.049  0.5144  0.3354 -0.4634
   14MPD2    H5  225   2.145   0.118  11.069 -0.1394  0.1888 -0.9705
   14MPD2    N1  226   2.554   0.247  10.847  0.1539 -0.3136 -0.8148
   14MPD2    H7  227   2.621   0.247  10.771 -1.0341  1.0007 -1.8709
   15TCq1    O1  228   4.108   4.087   1.983 -0.5955 -0.7609 -0.5293
   15TCq1    C1  229   4.167   4.139   1.873 -0.6227  0.0067  0.3632
   15TCq1    O2  230   4.100   4.156   1.766  0.6939 -0.4639  0.3841
   15TCq1    C2  231   4.302   4.086   1.874 -0.2289  1.1745  0.1591
   15TCq1    C3  232   4.374   4.091   1.997 -1.0199  0.1415  0.4892
   15TCq1    C4  233   4.488   4.016   1.999 -0.1007  0.1260  0.4340
   15TCq1    C5  234   4.528   3.951   1.884  0.6776 -0.6498 -0.1196
   15TCq1    C6  235   4.456   3.952   1.772 -0.3856 -0.4866 -0.2370
   15TCq1    C7  236   4.343   4.029   1.757 -0.4390 -0.2918 -0.3107
   15TCq1    C8  237   4.524   3.892   1.654  0.6175 -0.6978 -0.3806
   15TCq1    O4  238   4.626   3.826   1.672  0.1976  0.0359 -0.3174
   15TCq1    C9  239   4.560   4.001   2.125 -0.8209  0.0417 -0.2716
   15TCq1    O5  240   4.529   4.079   2.216 -0.2070 -0.3151  0.8225
   15TCq1    O6  241   4.648   3.911   2.138  0.2721 -0.5368 -0.3318
   15TCq1    H1  242   4.159   4.022   2.036 -0.4836  0.1705  0.5124
   15TCq1    H2  243   4.337   4.142   2.085 -0.8029 -0.2207  0.7870
   15TCq1    H3  244   4.622   3.898   1.892  1.5791  0.9662  0.0035
   15TCq1    H4  245   4.282   4.040   1.669 -1.3927  2.7680  0.7150
   16MPD2     C  246   4.397   3.869   1.307  0.3197 -0.9640 -0.3748
   16MPD2    C1  247   4.475   3.836   1.415  0.4628  0.0316 -0.2774
   16MPD2    C2  248   4.556   3.723   1.400  0.2428  0.0176  0.4151
   16MPD2    C3  249   4.565   3.663   1.277  0.2061 -0.3621 -0.3386
   16MPD2    C4  250   4.493   3.702   1.170 -0.7978 -0.1995 -0.1939
   16MPD2    C5  251   4.404   3.807   1.184  0.8686  1.5274  0.6338
   16MPD2     H  252   4.616   3.685   1.481 -1.3270 -1.5534  0.8469
   16MPD2    H1  253   4.505   3.665   1.069 -2.5155  1.1589 -0.8988
   16MPD2    H2  254   4.332   3.956   1.310  2.3894  0.6025 -0.7506
   16MPD2    H3  255   4.344   3.840   1.100  1.7538 -1.9096 -1.3270
   16MPD2     N  256   4.646   3.548   1.270  0.1232 -0.4116  0.0052
   16MPD2    H5  257   4.691   3.515   1.355  1.0946 -2.3534 -1.2673
   16MPD2    N1  258   4.456   3.909   1.537  0.2785 -0.1033  0.5046
   16MPD2    H7  259   4.378   3.973   1.542  0.9408  0.9029 -1.7567
   17TMC1    C1  260   2.753   3.731  11.918 -0.0104  0.8097  0.9154
   17TMC1    C2  261   2.762   3.789  12.041  0.3041 -0.6189  0.0603
   17TMC1    C3  262   2.846   3.737  12.141 -0.0059  0.2603 -0.5631
   17TMC1    C4  263   2.835   3.624  11.885  0.1997  0.1994 -0.4556
   17TMC1    C5  264   2.927   3.585  11.978 -0.4591 -0.8109  0.3072
   17TMC1    C6  265   2.940   3.646  12.103 -0.0775 -0.5006  0.0118
   17TMC1     C  266   2.672   3.801  11.822 -0.1005 -0.0375  0.7134
   17TMC1     O  267   2.600   3.888  11.871 -0.6420 -0.1292 -0.1624
   17TMC1     H  268   2.702   3.877  12.058  0.5700 -0.1891 -1.2624
   17TMC1    H1  269   2.829   3.595  11.781 -1.0823 -2.8910  0.4777
   17TMC1    H2  270   3.010   3.625  12.184 -0.6047 -2.7346 -0.1262
   17TMC1    C7  271   3.041   3.508  11.924  0.1850  0.6539 -0.1022
   17TMC1    C8  272   2.884   3.838  12.232 -0.4971  0.2201  0.0430
   17TMC1    O1  273   3.048   3.462  11.815  0.0669 -0.0771  0.3075
   17TMC1    O2  274   2.896   3.943  12.170  0.6188  0.0485 -0.6128
   17TMC1    O3  275   3.084   3.432  12.028  0.3235  0.1280  0.2424
   17TMC1    H3  276   3.056   3.463  12.117  0.0783  1.2433 -0.2212
   17TMC1    O5  277   2.812   3.812  12.343  0.0308 -0.4753  0.0019
   17TMC1    H5  278   2.827   3.718  12.367 -4.3479 -1.3333 -0.5886
   18MPD2     C  279   2.531   3.943  11.589 -0.3190 -0.0917  0.0583
   18MPD2    C1  280   2.645   3.858  11.583  0.2607  0.3377  0.0499
   18MPD2    C2  281   2.709   3.837  11.459  0.8319  0.6134  0.1294
   18MPD2    C3  282   2.660   3.902  11.346 -0.1202  0.3592  0.2326
   18MPD2    C4  283   2.546   3.982  11.353  0.1700 -0.2395 -0.9120
   18MPD2    C5  284   2.484   3.998  11.476  0.1911 -0.2738 -0.2110
   18MPD2     H  285   2.792   3.768  11.452  0.0897 -0.4377  1.7322
   18MPD2    H1  286   2.515   4.029  11.261  0.1809  4.1764  1.3129
   18MPD2    H2  287   2.486   3.977  11.681 -1.0337 -3.0259  0.7812
   18MPD2    H3  288   2.409   4.076  11.481  0.1058 -0.4492  1.3407
   18MPD2     N  289   2.720   3.892  11.212 -0.5469  0.0231  0.4025
   18MPD2    H5  290   2.667   3.947  11.145  3.0399  1.1926 -1.4410
   18MPD2    N1  291   2.713   3.800  11.691  1.1767  0.1110 -0.1655
   18MPD2    H7  292   2.795   3.741  11.682 -0.1686 -1.7499 -0.2472
   19TMC2    C1  293   4.351   0.089  14.134 -0.6577 -0.4996  0.8309
   19TMC2    C2  294   4.333   0.157  14.019  0.2822  0.1480  0.3204
   19TMC2    C3  295   4.274   0.087  13.924  0.4411  0.6166 -0.8593
   19TMC2    C4  296   4.312   4.701  14.165 -0.2840  0.2371  0.2474
   19TMC2    C5  297   4.236   4.639  14.073  0.3455 -0.8255  0.6389
   19TMC2    C6  298   4.222   4.699  13.950 -0.1633  1.1555  0.4383
   19TMC2     C  299   4.431   0.152  14.235 -0.3714 -0.0016  0.0335
   19TMC2     O  300   4.427   0.273  14.237 -0.4283  0.0991  0.4115
   19TMC2     H  301   4.380   0.254  14.004  1.1448 -0.4139 -0.5868
   19TMC2    H1  302   4.302   4.672  14.269 -1.4722 -0.0219  0.0576
   19TMC2    H2  303   4.156   4.656  13.875 -1.0746  0.5166  1.6158
   19TMC2    C7  304   4.201   4.501  14.105 -0.0537  0.6556  0.4620
   19TMC2    C8  305   4.254   0.145  13.794  0.1425 -0.1780  0.3595
   19TMC2    O1  306   4.102   4.455  14.052 -0.2234 -0.2318 -0.3799
   19TMC2    O2  307   4.274   0.267  13.781  0.3103 -0.2253  0.6151
   19TMC2    O5  308   4.281   0.047  13.705 -0.3494  0.4121  0.3858
   19TMC2    H5  309   4.299   4.692  13.740  2.6112  2.0863  3.2787
   20MPD2     C  310   4.608   0.202  14.467 -0.2183 -0.1696  0.5674
   20MPD2    C1  311   4.597   0.077  14.411  0.0704  0.1810 -0.0400
   20MPD2    C2  312   4.671   4.703  14.459 -0.0628 -0.6133  0.1679
   20MPD2    C3  313   0.030   4.726  14.563 -0.4861 -0.3957 -0.0296
   20MPD2    C4  314   0.028   0.116  14.616 -0.1561  0.0424  0.3815
   20MPD2    C5  315   4.687   0.222  14.576 -0.2275  0.1417  0.1952
   20MPD2     H  316   4.662   4.609  14.407  0.9961 -0.4459 -0.3323
   20MPD2    H1  317   0.087   0.135  14.705  1.8387  0.5305 -1.0453
   20MPD2    H2  318   4.563   0.288  14.420 -0.6787 -0.7914 -0.1250
   20MPD2    H3  319   4.704   0.318  14.622  1.6045 -0.1194  0.0818
   20MPD2     N  320   0.131   4.631  14.599 -0.3799  0.3409 -0.3195
   20MPD2    H5  321   0.186   4.669  14.675 -0.8206  1.1320 -0.3989
   20MPD2    N1  322   4.505   0.057  14.304 -0.0807  0.6642  0.0477
   20MPD2    H7  323   4.501   4.696  14.273 -0.2100  0.6263  0.1843
   21TMC2    C1  324   1.985   4.693  14.431  0.1336 -0.2049  0.6736
   21TMC2    C2  325   1.988   4.567  14.485 -0.0589 -0.0341  0.0296
   21TMC2    C3  326   1.936   4.546  14.611  0.5094 -0.2197  0.1117
   21TMC2    C4  327   1.949   0.062  14.511 -0.4201  0.4379 -0.3624
   21TMC2    C5  328   1.914   0.041  14.639 -0.9725  0.0233 -0.9284
   21TMC2    C6  329   1.897   4.651  14.688  1.2142  0.8167  0.6873
   21TMC2     C  330   2.069   4.729  14.314 -0.0308  0.9145 -0.0369
   21TMC2     O  331   2.168   4.664  14.288 -0.2110 -0.0940 -0.4631
   21TMC2     H  332   2.014   4.484  14.419 -0.5586  0.0124 -0.2231
   21TMC2    H1  333   1.941   0.167  14.485  1.3767 -0.1060 -3.0322
   21TMC2    H2  334   1.855   4.631  14.786  0.4890  0.2760  0.2578
   21TMC2    C7  335   1.883   0.151  14.728  0.3188 -0.2494 -0.0340
   21TMC2    C8  336   1.882   4.419  14.661  0.6489  0.2600 -0.5434
   21TMC2    O1  337   1.933   0.139  14.840  0.1612  0.0871 -0.6897
   21TMC2    O2  338   1.779   4.409  14.726 -0.0169  0.1410 -0.0526
   21TMC2    O5  339   1.956   4.316  14.604  0.0240  0.1902  0.4805
   21TMC2    H5  340   2.033   4.350  14.555 -0.6419  0.2002 -0.5599
   22MPD2     C  341   2.250   0.319  13.947 -0.4940  0.1318 -0.1389
   22MPD2    C1  342   2.308   0.216  14.015 -0.2044  0.9117 -0.0707
   22MPD2    C2  343   2.240   0.140  14.104  0.0878  0.6782  0.1131
   22MPD2    C3  344   2.106   0.168  14.138  0.6655 -0.1988 -0.0116
   22MPD2    C4  345   2.053   0.279  14.069  0.4003  0.4928 -0.6043
   22MPD2    C5  346   2.115   0.344  13.964 -0.4499 -0.0848 -0.1534
   22MPD2     H  347   2.304   0.067  14.150 -0.1360 -0.6088 -1.6079
   22MPD2    H1  348   1.947   0.300  14.077  0.7123  2.1948 -0.9857
   22MPD2    H2  349   2.302   0.388  13.881  2.9743 -1.9455  0.4519
   22MPD2    H3  350   2.056   0.424  13.919 -0.2082 -1.4215 -2.8641
   22MPD2     N  351   2.030   0.111  14.247  0.0509 -0.1104  0.4829
   22MPD2    H5  352   1.958   0.163  14.295 -0.9807 -0.3128 -0.8636
   22MPD2    N1  353   2.446   0.182  13.999  0.2113 -0.3592 -0.1982
   22MPD2    H7  354   2.472   0.107  14.062  0.3515 -0.8121 -0.7941
   23TMC2    C1  355   3.039   1.102  14.748 -0.3617 -0.0908 -0.2677
   23TMC2    C2  356   3.047   1.111  14.615 -0.3034 -0.0338  0.5000
   23TMC2    C3  357   2.947   1.072  14.535  0.2586  0.4156  0.1755
   23TMC2    C4  358   2.930   1.052  14.806 -0.0833 -0.1350  0.1913
   23TMC2    C5  359   2.831   1.010  14.726 -0.1394 -0.7262  0.5402
   23TMC2    C6  360   2.837   1.024  14.592 -0.6487  0.4891 -0.1524
   23TMC2     C  361   3.170   1.114  14.827 -0.1525 -0.1415  0.4467
   23TMC2     O  362   3.172   1.057  14.933  0.2119  0.7990  0.4927
   23TMC2     H  363   3.132   1.154  14.564  0.7661 -2.6975  0.0434
   23TMC2    H1  364   2.919   1.057  14.913 -2.5834 -0.0863 -0.0557
   23TMC2    H2  365   2.746   1.004  14.536  1.4758 -0.0056 -3.3809
   23TMC2    C7  366   2.715   0.936  14.782  0.3573 -0.4906  0.2502
   23TMC2    C8  367   2.939   1.150  14.417 -0.7055 -0.3264 -0.3373
   23TMC2    O1  368   2.740   0.865  14.877 -0.6535 -0.0130  0.7926
   23TMC2    O2  369   3.041   1.181  14.355 -0.4992  0.1591 -0.0268
   23TMC2    O5  370   2.824   1.211  14.410  0.2369 -0.1636  0.1349
   23TMC2    H5  371   2.746   1.171  14.452  1.1936 -1.3138  0.8285
   24MPD2     C  372   3.672   1.208  14.849 -0.2721  0.1856  0.1373
   24MPD2    C1  373   3.594   1.136  14.938  0.0765  0.1101  0.0526
   24MPD2    C2  374   3.452   1.139  14.926 -0.3043  0.7855 -0.5504
   24MPD2    C3  375   3.396   1.202  14.811 -0.8235  0.0637  0.2966
   24MPD2    C4  376   3.481   1.265  14.719 -0.3037 -0.3230  1.1370
   24MPD2    C5  377   3.617   1.266  14.742 -0.2526 -0.0039  0.0844
   24MPD2     H  378   3.390   1.093  15.002  1.9366 -1.4270 -0.0610
   24MPD2    H1  379   3.445   1.332  14.642 -1.7426 -1.1045  1.1338
   24MPD2    H2  380   3.780   1.213  14.849 -0.1504 -2.4303  1.3019
   24MPD2    H3  381   3.680   1.332  14.683 -1.8080  0.0563 -1.5280
   24MPD2     N  382   3.261   1.188  14.766  0.0114 -0.1076  0.2958
   24MPD2    H5  383   3.254   1.234  14.676  0.8222 -1.8924 -0.6762
   24MPD2    N1  384   3.647   1.071  15.060 -0.5840  0.5127 -0.2552
   24MPD2    H7  385   3.584   1.023  15.122 -0.9951 -0.1086 -1.1504
   25TMC2    C1  386   2.471   3.113  11.961  0.1397  0.1372 -0.1265
   25TMC2    C2  387   2.575   3.058  12.026  0.1305  0.5038 -0.3369
   25TMC2    C3  388   2.583   3.079  12.160 -0.6454 -0.4958  0.1026
   25TMC2    C4  389   2.357   3.164  12.023  0.4357 -0.3875  0.1090
   25TMC2    C5  390   2.364   3.175  12.160  0.5723  0.4871 -0.8328
   25TMC2    C6  391   2.479   3.144  12.233 -0.3380  0.1388 -0.7509
   25TMC2     C  392   2.468   3.094  11.813 -0.7003  0.4214  0.7143
   25TMC2     O  393   2.565   3.031  11.764  0.3993  0.1855 -0.7480
   25TMC2     H  394   2.657   3.016  11.969  0.0910 -0.2574  0.1627
   25TMC2    H1  395   2.259   3.166  11.976  0.3041 -1.7736  0.3331
   25TMC2    H2  396   2.462   3.154  12.339 -4.4679  0.2384 -1.4390
   25TMC2    C7  397   2.253   3.227  12.234  0.3002 -0.1318  0.0417
   25TMC2    C8  398   2.709   3.053  12.227 -0.5701 -0.3127  0.2680
   25TMC2    O1  399   2.266   3.259  12.353  0.2666  0.1659 -0.5562
   25TMC2    O2  400   2.780   2.967  12.180  0.4315  0.2902 -0.0278
   25TMC2    O5  401   2.750   3.168  12.288 -0.2396  0.2182 -0.0245
   25TMC2    H5  402   2.668   3.217  12.313 -0.4112  0.3936 -0.9352
   26MPD2     C  403   2.322   3.201  11.331 -0.2884 -0.4800 -0.4833
   26MPD2    C1  404   2.207   3.221  11.419 -0.4613 -0.3764 -0.4007
   26MPD2    C2  405   2.229   3.212  11.560 -0.7329  0.1849  0.4699
   26MPD2    C3  406   2.350   3.170  11.615  0.0819 -0.1974 -0.0607
   26MPD2    C4  407   2.456   3.154  11.525  0.1703 -0.7278  0.1833
   26MPD2    C5  408   2.447   3.165  11.386 -0.0201 -0.1850 -0.0713
   26MPD2     H  409   2.139   3.220  11.620 -1.4867 -1.1490 -0.4833
   26MPD2    H1  410   2.555   3.139  11.566  0.1475 -4.1381 -0.9741
   26MPD2    H2  411   2.319   3.182  11.225  0.8416 -0.7370 -0.4686
   26MPD2    H3  412   2.535   3.142  11.327 -1.0307 -0.6750 -1.3833
   26MPD2     N  413   2.360   3.153  11.754  0.0475  0.2541  0.1506
   26MPD2    H5  414   2.292   3.203  11.811 -0.6723  1.0659 -1.4357
   26MPD2    N1  415   2.084   3.225  11.352  0.2314 -0.7812  0.3019
   26MPD2    H7  416   2.091   3.202  11.253 -0.8548 -0.9586  0.2681
   27TMC2    C1  417   0.601   0.094  12.594  0.0381  0.4439 -0.1943
   27TMC2    C2  418   0.684   0.187  12.547  0.2244  0.5989 -0.7025
   27TMC2    C3  419   0.821   0.169  12.584  0.4180 -0.5349 -0.1665
   27TMC2    C4  420   0.640   4.729  12.675  0.5447 -0.1095 -0.3707
   27TMC2    C5  421   0.775   4.715  12.699  0.2734  0.4568 -0.3416
   27TMC2    C6  422   0.869   0.064  12.650 -0.1782  0.5685  0.3093
   27TMC2     C  423   0.462   0.088  12.547 -0.1986  0.2751  0.1244
   27TMC2     O  424   0.406   4.716  12.553  0.4871  0.4302 -0.4109
   27TMC2     H  425   0.657   0.253  12.465 -0.0717  1.1172 -0.1862
   27TMC2    H1  426   0.561   4.667  12.715  0.9114 -2.6743 -3.5441
   27TMC2    H2  427   0.977   0.056  12.652 -0.1131  2.2882  3.3647
   27TMC2    C7  428   0.830   4.628  12.801  0.0348 -0.2860  0.1975
   27TMC2    C8  429   0.905   0.274  12.537  0.3436  0.3328 -0.8795
   27TMC2    O1  430   0.951   4.628  12.820  0.0493  0.2882 -0.4212
   27TMC2    O2  431   1.024   0.270  12.530 -0.0142  0.2920 -0.1287
   27TMC2    O5  432   0.834   0.389  12.531 -0.1657  0.5543  0.1196
   27TMC2    H5  433   0.747   0.384  12.576 -0.7445 -1.3165 -1.2154
   28MPD2     C  434   0.026   0.274  12.368  0.2247  0.0440  0.0548
   28MPD2    C1  435   0.097   0.375  12.432  0.2808  0.0942 -0.0920
   28MPD2    C2  436   0.226   0.352  12.472 -0.4368 -0.4430 -0.1610
   28MPD2    C3  437   0.285   0.232  12.465  0.4385  0.1252  0.6959
   28MPD2    C4  438   0.214   0.132  12.410  0.0096  0.3533  0.2893
   28MPD2    C5  439   0.090   0.148  12.359 -0.9904 -0.1521  0.2192
   28MPD2     H  440   0.279   0.437  12.515  1.5585 -0.6695 -2.1832
   28MPD2    H1  441   0.248   0.030  12.395 -0.2132  0.1298  1.3609
   28MPD2    H2  442   4.667   0.281  12.318  0.5499 -1.4341 -0.7856
   28MPD2    H3  443   0.035   0.063  12.320 -1.3573  0.5571 -0.7962
   28MPD2     N  444   0.418   0.212  12.511  0.3052  0.5846 -0.5006
   28MPD2    H5  445   0.471   0.290  12.548 -0.5048  1.1524 -0.5534
   28MPD2    N1  446   0.032   0.504  12.457  0.5107 -0.7220 -0.7450
   28MPD2    H7  447   4.668   0.508  12.437  0.4952  0.6698 -0.4211
   29TMC2    C1  448   0.770   3.330  14.903  0.2762 -0.6485  0.1231
   29TMC2    C2  449   0.899   3.289  14.873 -0.1410  0.4500 -0.2144
   29TMC2    C3  450   0.998   3.381  14.898  0.4979  0.6825 -0.2772
   29TMC2    C4  451   0.750   3.457  14.951 -0.1298  0.1791  0.3134
   29TMC2    C5  452   0.856   3.545  14.957  0.6254 -0.4349 -0.9769
   29TMC2    C6  453   0.984   3.506  14.940  0.0872  0.3254  0.5261
   29TMC2     C  454   0.659   3.242  14.875  0.3559 -0.0121 -0.3070
   29TMC2     O  455   0.688   3.128  14.830 -0.1244  0.0080  0.0886
   29TMC2     H  456   0.921   3.194  14.825 -2.0640 -0.2016  0.2096
   29TMC2    H1  457   0.655   3.491  14.989  0.4249  1.9768  0.1150
   29TMC2    H2  458   1.068   3.570  14.966  1.2697 -0.9240 -0.2452
   29TMC2    C7  459   0.822   3.682  15.002  0.5511  0.0797 -0.7436
   29TMC2    C8  460   1.126   3.327  14.902  0.1807 -0.2018  1.0055
   29TMC2    O1  461   0.713   3.696  15.061  0.0484  0.3948 -0.1131
   29TMC2    O2  462   1.144   3.215  14.856 -0.0905  0.1124 -0.2043
   29TMC2    O5  463   1.176   3.364  15.025 -0.3152  0.6759  0.2011
   29TMC2    H5  464   1.113   3.432  15.058 -0.2641  1.0928 -0.5574
   30MPD2     C  465   0.174   3.119  14.787 -0.1499  0.5419 -0.7217
   30MPD2    C1  466   0.290   3.055  14.757  0.3164 -0.0307 -0.1953
   30MPD2    C2  467   0.409   3.116  14.765 -0.0526 -0.4776  1.0364
   30MPD2    C3  468   0.420   3.236  14.837 -0.0128 -0.0282 -0.7483
   30MPD2    C4  469   0.305   3.295  14.874  0.0933  0.1265  0.6674
   30MPD2    C5  470   0.180   3.241  14.846  0.2657  1.0715 -0.5093
   30MPD2     H  471   0.496   3.067  14.723  0.6531  0.6740  1.1556
   30MPD2    H1  472   0.305   3.389  14.928 -0.0236  0.4711  0.0600
   30MPD2    H2  473   0.075   3.081  14.765  0.4751  0.2135 -2.9145
   30MPD2    H3  474   0.087   3.293  14.868 -0.4958  0.2127 -1.6530
   30MPD2     N  475   0.540   3.299  14.885 -0.1846  0.1517 -0.0497
   30MPD2    H5  476   0.530   3.381  14.944  1.8944  1.4126 -1.4524
   30MPD2    N1  477   0.295   2.925  14.694  0.2621 -0.7233 -0.2707
   30MPD2    H7  478   0.387   2.882  14.696 -0.0051 -1.4041 -2.2489
   31TMC2    C1  479   2.978   1.762  14.993 -0.2306 -0.6668 -0.2668
   31TMC2    C2  480   2.862   1.741  14.924  0.1695  0.7303 -0.6014
   31TMC2    C3  481   2.763   1.679  14.995 -0.1356  0.2634  0.0070
   31TMC2    C4  482   2.998   1.715  15.124 -0.5895  0.1990 -0.5103
   31TMC2    C5  483   2.901   1.642  15.181 -0.2757 -0.2933  0.2160
   31TMC2    C6  484   2.780   1.630  15.116  0.9106  0.3105  0.6777
   31TMC2     C  485   3.082   1.842  14.934 -0.3282 -0.5357  0.1039
   31TMC2     O  486   3.067   1.867  14.816  0.5337 -0.4428 -0.1656
   31TMC2     H  487   2.853   1.768  14.819 -1.5552 -1.0551 -0.8968
   31TMC2    H1  488   3.097   1.728  15.167 -0.5494  1.0960 -0.8599
   31TMC2    H2  489   2.699   1.566  15.150  0.4536  0.4715 -0.1037
   31TMC2    C7  490   2.926   1.610  15.319 -0.3948 -0.3617  0.1701
   31TMC2    C8  491   2.632   1.670  14.923  0.0803  0.5039 -0.3256
   31TMC2    O1  492   3.042   1.617  15.361 -0.2433 -0.5361 -0.1961
   31TMC2    O2  493   2.537   1.594  14.945 -0.0469 -0.3972 -0.0914
   31TMC2    O5  494   2.610   1.800  14.894 -0.4280  0.0750  0.1211
   31TMC2    H5  495   2.683   1.862  14.915  0.6222 -0.8430 -0.8105
   32MPD2     C  496   3.461   2.182  14.957 -1.0097 -0.3056 -0.5709
   32MPD2    C1  497   3.413   2.116  14.852  0.1978  0.0762  0.1733
   32MPD2    C2  498   3.316   2.021  14.879 -0.2303 -0.2266  0.2083
   32MPD2    C3  499   3.261   2.001  15.001  0.2086  0.1010 -0.3233
   32MPD2    C4  500   3.320   2.070  15.099  0.3998  0.7297 -1.2567
   32MPD2    C5  501   3.413   2.166  15.080  0.7361  0.2623  0.6390
   32MPD2     H  502   3.265   1.969  14.799  0.1439 -0.8253  0.3625
   32MPD2    H1  503   3.277   2.063  15.199  1.7895  0.4197 -0.6865
   32MPD2    H2  504   3.546   2.247  14.941  0.8273 -2.3832  0.7105
   32MPD2    H3  505   3.447   2.227  15.163 -0.2460  2.2895 -0.4462
   32MPD2     N  506   3.157   1.907  15.026 -0.9618 -0.6395 -0.3634
   32MPD2    H5  507   3.121   1.920  15.120 -1.3025 -1.4728 -0.3826
   32MPD2    N1  508   3.474   2.144  14.720 -0.0005 -0.2981  0.5133
   32MPD2    H7  509   3.543   2.218  14.721 -0.9322  0.5436  2.3511
   33TMC2    C1  510   2.897   4.650  10.421  0.1811 -0.1872  0.1002
   33TMC2    C2  511   2.766   4.680  10.417  0.7793  0.0043  0.4763
   33TMC2    C3  512   2.729   0.042  10.329 -0.5836  0.0993 -0.2413
   33TMC2    C4  513   2.986   4.711  10.332  0.2196  0.3036  0.1675
   33TMC2    C5  514   2.940   0.058  10.236  0.4584 -0.0293 -0.3449
   33TMC2    C6  515   2.811   0.105  10.241 -0.5491  0.4695  0.5483
   33TMC2     C  516   2.938   4.541  10.501 -0.2485 -0.5948  0.1717
   33TMC2     O  517   2.853   4.489  10.576 -0.6197 -0.0993  0.3289
   33TMC2     H  518   2.698   4.634  10.487 -0.2575  1.3316  0.3499
   33TMC2    H1  519   3.092   4.690  10.333  0.6720  2.5555  0.4075
   33TMC2    H2  520   2.764   0.165  10.164  1.5276  0.1664 -0.9631
   33TMC2    C7  521   3.047   0.126  10.157 -0.5883  0.5793 -0.2959
   33TMC2    C8  522   2.605   0.110  10.349  0.0439 -0.2177 -0.9328
   33TMC2    O1  523   3.150   0.064  10.141  0.1126 -0.4135  0.2031
   33TMC2    O2  524   2.563   0.186  10.264 -0.0876 -1.0058 -0.2662
   33TMC2    O5  525   2.613   0.145  10.475  0.2214  0.2770  0.2696
   33TMC2    H5  526   2.681   0.103  10.533 -2.0546 -1.5328  1.6003
   34MPD2     C  527   3.297   4.191  10.628 -0.5544  0.0302  0.1901
   34MPD2    C1  528   3.158   4.192  10.650  0.0755  0.5455 -0.0019
   34MPD2    C2  529   3.083   4.299  10.611  0.4363  0.2380  0.1479
   34MPD2    C3  530   3.145   4.402  10.540 -0.4292  0.2831 -0.3887
   34MPD2    C4  531   3.279   4.397  10.516  0.4221 -0.4762 -1.4343
   34MPD2    C5  532   3.355   4.285  10.553  0.0841 -0.5015  0.0762
   34MPD2     H  533   2.975   4.288  10.622  0.3243  3.3018  2.2324
   34MPD2    H1  534   3.336   4.472  10.463 -2.0414  0.1705 -3.1471
   34MPD2    H2  535   3.357   4.106  10.659 -1.9404 -1.9695 -2.5480
   34MPD2    H3  536   3.461   4.267  10.546 -0.2173 -1.9908 -0.6632
   34MPD2     N  537   3.071   4.513  10.488 -0.1296  0.3573 -0.5997
   34MPD2    H5  538   3.121   4.582  10.434 -1.0448  0.1583 -1.6923
   34MPD2    N1  539   3.106   4.087  10.724  0.4235  0.4279 -0.3165
   34MPD2    H7  540   3.172   4.012  10.739 -2.5142 -1.8929  0.9844
   35TMC2    C1  541   3.489   0.658  11.632 -0.7242  0.1029  0.7151
   35TMC2    C2  542   3.535   0.773  11.575 -0.8971 -0.7218 -0.3745
   35TMC2    C3  543   3.555   0.767  11.435 -0.1550  0.0399 -0.7700
   35TMC2    C4  544   3.454   0.546  11.560  0.3409  0.7244 -0.6226
   35TMC2    C5  545   3.466   0.552  11.422 -0.0844  0.1348  0.0762
   35TMC2    C6  546   3.527   0.662  11.360 -0.1130 -0.4652 -0.5113
   35TMC2     C  547   3.492   0.642  11.776  0.5336  0.0342  0.6517
   35TMC2     O  548   3.418   0.554  11.815  0.1669  0.0939 -0.2754
   35TMC2     H  549   3.562   0.863  11.629 -1.1519 -0.9243  0.0888
   35TMC2    H1  550   3.403   0.464  11.609  0.2954  0.6938 -0.7205
   35TMC2    H2  551   3.543   0.656  11.253  1.4255 -1.3763 -0.2236
   35TMC2    C7  552   3.416   0.437  11.343 -0.2865  0.2842  0.6412
   35TMC2    C8  553   3.629   0.872  11.372  0.1151 -0.2541  0.4770
   35TMC2    O1  554   3.380   0.452  11.228 -0.6102  0.3894 -0.2661
   35TMC2    O2  555   3.693   0.946  11.447 -0.3699 -0.0728  0.1748
   35TMC2    O5  556   3.550   0.912  11.275 -0.6851 -0.0637 -0.0621
   35TMC2    H5  557   3.472   0.860  11.245 -1.0157 -0.5207  1.5800
   36MPD2     C  558   3.773   0.568  12.198 -0.4449 -0.7784  0.1084
   36MPD2    C1  559   3.844   0.651  12.122 -0.6012 -0.0842 -0.4156
   36MPD2    C2  560   3.785   0.696  12.004  0.2980 -0.1506  0.3133
   36MPD2    C3  561   3.663   0.648  11.962 -0.8847 -0.3535  0.3308
   36MPD2    C4  562   3.588   0.573  12.048  0.6095 -0.9103  0.5389
   36MPD2    C5  563   3.644   0.535  12.165  0.0001 -0.1607  0.5694
   36MPD2     H  564   3.837   0.769  11.943 -0.5126 -1.6193 -2.1335
   36MPD2    H1  565   3.498   0.518  12.022  0.7747 -0.6995 -0.4502
   36MPD2    H2  566   3.817   0.530  12.289 -0.1024 -0.8674 -0.0970
   36MPD2    H3  567   3.595   0.462  12.228 -1.5666  1.1388  0.8522
   36MPD2     N  568   3.614   0.687  11.834 -0.2719 -0.3860  0.3684
   36MPD2    H5  569   3.669   0.755  11.782  0.7555 -1.2702  0.3270
   36MPD2    N1  570   3.977   0.672  12.157 -0.8294 -0.2940  0.1523
   36MPD2    H7  571   4.015   0.627  12.240 -0.6353 -0.7649 -0.1915
   37TMC2    C1  572   1.341   1.645  12.055 -0.0152  0.2240  0.0325
   37TMC2    C2  573   1.276   1.718  11.956 -0.3401 -0.5183 -0.0194
   37TMC2    C3  574   1.349   1.754  11.847 -0.6964  0.3555 -0.8093
   37TMC2    C4  575   1.478   1.611  12.042 -0.0362 -0.0402 -0.3340
   37TMC2    C5  576   1.540   1.647  11.926  0.3551 -1.1661 -0.0659
   37TMC2    C6  577   1.477   1.718  11.827  0.3237 -0.5446  0.6689
   37TMC2     C  578   1.265   1.585  12.165  0.1416 -0.1688 -0.8997
   37TMC2     O  579   1.162   1.631  12.215 -0.2659 -0.1133 -0.0841
   37TMC2     H  580   1.176   1.756  11.970 -0.0604 -0.6461  2.2500
   37TMC2    H1  581   1.533   1.552  12.115  1.0077  1.0759 -0.2163
   37TMC2    H2  582   1.534   1.761  11.745 -2.3900  1.4040 -0.2039
   37TMC2    C7  583   1.674   1.607  11.899 -0.0613 -0.2531 -0.0900
   37TMC2    C8  584   1.294   1.846  11.749 -0.3418 -0.8781  0.3653
   37TMC2    O1  585   1.737   1.576  12.000  0.7138  0.2285 -0.5313
   37TMC2    O2  586   1.368   1.924  11.696 -0.3937 -0.5808  0.0098
   37TMC2    O5  587   1.162   1.830  11.740  0.3233 -0.4981  0.1094
   37TMC2    H5  588   1.112   1.758  11.784  0.8388 -0.9816 -0.1090
   38MPD2     C  589   1.343   1.230  12.537 -0.4094  0.0683  0.5904
   38MPD2    C1  590   1.406   1.192  12.422  0.7979  0.4396  0.3250
   38MPD2    C2  591   1.384   1.268  12.302 -0.2042 -0.3980  0.1153
   38MPD2    C3  592   1.312   1.386  12.310 -0.1300 -0.4004 -0.3396
   38MPD2    C4  593   1.255   1.430  12.429 -0.3870 -0.4873 -0.2926
   38MPD2    C5  594   1.268   1.345  12.535  0.4106  0.0834 -0.5453
   38MPD2     H  595   1.441   1.240  12.214 -1.9568  0.0436 -1.1622
   38MPD2    H1  596   1.211   1.529  12.436  1.1854  0.1607  0.6971
   38MPD2    H2  597   1.342   1.184  12.636 -2.3559  3.0511  1.9493
   38MPD2    H3  598   1.228   1.374  12.631 -0.4505  0.0450 -0.8927
   38MPD2     N  599   1.317   1.463  12.194 -0.3578 -0.3074 -0.5819
   38MPD2    H5  600   1.373   1.429  12.117 -2.3439 -0.6382 -1.8691
   38MPD2    N1  601   1.492   1.078  12.425 -0.0714 -0.5672 -0.1825
   38MPD2    H7  602   1.544   1.058  12.339  0.9455 -0.5537  0.4311
   39TMC2    C1  603   0.914   3.096   1.660 -0.3246  0.2959 -0.3236
   39TMC2    C2  604   1.040   3.082   1.615  0.1107  0.2923  0.0771
   39TMC2    C3  605   1.141   3.152   1.671  0.2357  0.2568  0.1704
   39TMC2    C4  606   0.883   3.199   1.743  0.0798  0.2055 -0.5045
   39TMC2    C5  607   0.979   3.282   1.777  0.3562 -0.2994 -0.5067
   39TMC2    C6  608   1.110   3.260   1.754 -0.0407 -0.2198 -0.3142
   39TMC2     C  609   0.806   3.046   1.577  0.6190 -0.8018 -0.2209
   39TMC2     O  610   0.693   3.080   1.613 -0.7636 -0.2946 -0.3219
   39TMC2     H  611   1.070   3.000   1.550 -2.1543  1.3830 -2.3652
   39TMC2    H1  612   0.780   3.221   1.770 -0.0190  1.9787 -2.2702
   39TMC2    H2  613   1.189   3.323   1.794 -0.2149 -0.6315  0.6746
   39TMC2    C7  614   0.938   3.413   1.822  0.1253  0.8562 -0.2949
   39TMC2    C8  615   1.268   3.143   1.595  0.1555 -0.4183  0.2005
   39TMC2    O1  616   0.823   3.420   1.872  0.5911 -0.1553 -0.4307
   39TMC2    O2  617   1.271   3.116   1.474 -0.5917  0.0944  0.4626
   39TMC2    O5  618   1.367   3.195   1.678  0.4057 -0.1678  0.7389
   39TMC2    H5  619   1.341   3.195   1.772  0.6406 -0.1738  0.8021
   40MPD2     C  620   0.828   2.836   1.280  0.3789 -0.7610  0.6053
   40MPD2    C1  621   0.765   2.922   1.366 -0.0704 -0.4716  0.6295
   40MPD2    C2  622   0.622   2.930   1.363 -0.1635  0.4675 -0.3297
   40MPD2    C3  623   0.553   2.848   1.277 -0.0431 -0.5266  0.2336
   40MPD2    C4  624   0.620   2.768   1.184 -0.4724  0.8714  0.5672
   40MPD2    C5  625   0.757   2.761   1.192 -0.6010  0.5378  0.5475
   40MPD2     H  626   0.577   2.995   1.436  2.4564 -0.8982  2.5086
   40MPD2    H1  627   0.572   2.724   1.098 -0.7432  1.6867  0.2972
   40MPD2    H2  628   0.933   2.810   1.274  1.1051  2.1241  0.6667
   40MPD2    H3  629   0.809   2.708   1.113 -3.9487  1.4456 -2.2810
   40MPD2     N  630   0.411   2.844   1.268 -0.5925  0.0602 -0.1377
   40MPD2    H5  631   0.371   2.781   1.199  1.5802 -1.8482  0.3760
   40MPD2    N1  632   0.846   2.982   1.464 -0.0187  0.1375  0.2061
   40MPD2    H7  633   0.946   2.976   1.452 -0.0024 -0.5350  0.7152
   41TMC2    C1  634   3.673   1.344  13.607  0.6223 -1.1330  0.0140
   41TMC2    C2  635   3.664   1.409  13.726  0.4001 -0.4988  0.0257
   41TMC2    C3  636   3.558   1.484  13.749 -0.1581 -1.1632  0.4995
   41TMC2    C4  637   3.564   1.351  13.518  0.8114  0.4868  0.0063
   41TMC2    C5  638   3.465   1.440  13.540  0.3994 -0.1088 -0.4981
   41TMC2    C6  639   3.467   1.517  13.649  0.7229  0.6437  0.2487
   41TMC2     C  640   3.776   1.246  13.587  0.0639  0.1678 -0.3607
   41TMC2     O  641   3.769   1.191  13.481 -0.2778 -0.0964 -0.5432
   41TMC2     H  642   3.752   1.420  13.788  1.2300  1.5840 -1.4869
   41TMC2    H1  643   3.566   1.275  13.441  2.8242  0.7016 -0.1614
   41TMC2    H2  644   3.394   1.597  13.657  1.9543  1.8852 -1.0343
   41TMC2    C7  645   3.397   1.496  13.428  0.0739 -0.2879  0.3570
   41TMC2    C8  646   3.562   1.582  13.866 -0.0930 -0.3107  0.1304
   41TMC2    O1  647   3.291   1.556  13.438  0.3471 -0.5589  0.3850
   41TMC2    O2  648   3.501   1.686  13.872  0.3724  0.0313 -0.3760
   41TMC2    O5  649   3.617   1.525  13.976  0.0184  0.0186 -0.4929
   41TMC2    H5  650   3.641   1.432  13.957  3.7121  1.2249 -1.6439
   42MPD2     C  651   3.983   1.023  13.593  1.0839  0.5655 -1.0453
   42MPD2    C1  652   3.979   1.136  13.672 -0.5465  0.0663 -0.1529
   42MPD2    C2  653   4.080   1.153  13.766 -0.2745  0.5065 -0.1118
   42MPD2    C3  654   4.188   1.061  13.782 -0.1284 -0.2164 -0.4815
   42MPD2    C4  655   4.190   0.951  13.701 -0.4147  0.3313 -0.0843
   42MPD2    C5  656   4.089   0.938  13.610 -0.6350  0.0820 -0.1262
   42MPD2     H  657   4.075   1.243  13.825  1.2681  2.8092 -3.4662
   42MPD2    H1  658   4.267   0.877  13.720  1.1799  1.7401 -1.0527
   42MPD2    H2  659   3.914   1.001  13.512  2.6178 -1.5832 -1.7483
   42MPD2    H3  660   4.104   0.858  13.539 -0.5501  1.0189 -1.1567
   42MPD2     N  661   4.290   1.081  13.880 -0.6810  0.1033  0.3947
   42MPD2    H5  662   4.288   1.164  13.940  1.7875  0.1022  0.4740
   42MPD2    N1  663   3.879   1.244  13.677 -0.0350  0.9650  0.4285
   42MPD2    H7  664   3.867   1.313  13.751 -0.2039 -0.9500  2.1715
   43TMC2    C1  665   0.690   4.389   0.974 -0.1180  0.5309 -0.2588
   43TMC2    C2  666   0.577   4.444   0.927 -0.0193 -0.8176  0.4531
   43TMC2    C3  667   0.469   4.468   1.012 -0.0761  0.4946 -0.2077
   43TMC2    C4  668   0.706   4.361   1.105  1.2195 -0.9318  0.2277
   43TMC2    C5  669   0.604   4.385   1.191  0.6609  0.3881  0.4217
   43TMC2    C6  670   0.484   4.441   1.146 -0.7383 -0.0662  0.2428
   43TMC2     C  671   0.799   4.372   0.880 -0.4433  0.0772  0.0223
   43TMC2     O  672   0.773   4.338   0.765 -0.3161  0.1708 -0.1579
   43TMC2     H  673   0.565   4.468   0.822  0.4262  2.5877  1.1681
   43TMC2    H1  674   0.798   4.315   1.140  3.0095  1.1068 -1.7925
   43TMC2    H2  675   0.400   4.452   1.215 -0.9942 -0.9720  0.0745
   43TMC2    C7  676   0.647   4.384   1.327  0.0008  1.0712  0.4384
   43TMC2    C8  677   0.359   4.562   0.972  0.1645 -0.0620  0.2468
   43TMC2    O1  678   0.767   4.401   1.349 -0.2185  0.1188 -0.1982
   43TMC2    O2  679   0.305   4.629   1.058  0.4591  0.3934 -0.3990
   43TMC2    O5  680   0.333   4.577   0.839  0.0198  0.1349  0.8355
   43TMC2    H5  681   0.353   4.504   0.777 -2.5952 -0.1334  0.2855
   44MPD2     C  682   1.294   4.445   0.796 -0.4951  0.6302 -0.9801
   44MPD2    C1  683   1.216   4.352   0.741 -0.3088 -0.2930  0.0569
   44MPD2    C2  684   1.085   4.345   0.774  0.0327 -0.8442 -0.1703
   44MPD2    C3  685   1.041   4.426   0.882  0.0414  0.2050  0.1724
   44MPD2    C4  686   1.125   4.509   0.950  0.2073 -0.7320 -0.2243
   44MPD2    C5  687   1.256   4.528   0.897 -0.1599  0.7876 -0.0655
   44MPD2     H  688   1.020   4.285   0.710 -1.0796  0.0140  0.1498
   44MPD2    H1  689   1.091   4.569   1.033  0.0960 -2.1880  0.7834
   44MPD2    H2  690   1.395   4.469   0.763 -0.1063  0.9788  0.4361
   44MPD2    H3  691   1.331   4.586   0.949  0.8420  1.1247 -1.8894
   44MPD2     N  692   0.916   4.412   0.939  0.0451  0.0576  0.3731
   44MPD2    H5  693   0.898   4.478   1.014 -0.0879  0.2099  0.2098
   44MPD2    N1  694   1.266   4.254   0.650  0.6790  0.4424  0.1632
   44MPD2    H7  695   1.213   4.204   0.579  0.4914 -1.0095  1.3167
   45TMC2    C1  696   1.346   1.062  10.374 -0.2151  0.2474 -0.1475
   45TMC2    C2  697   1.400   1.002  10.485  0.0528  0.3915 -0.5333
   45TMC2    C3  698   1.471   1.077  10.570 -0.4707 -0.0712  0.1618
   45TMC2    C4  699   1.352   1.198  10.352  0.1977  0.0142 -0.3542
   45TMC2    C5  700   1.410   1.268  10.454 -0.6208 -0.9012  0.8825
   45TMC2    C6  701   1.468   1.213  10.562 -0.1291  0.0358 -0.2075
   45TMC2     C  702   1.345   0.981  10.260 -0.3602  0.6368  0.5337
   45TMC2     O  703   1.409   0.872  10.266 -0.8806 -0.3834  0.0378
   45TMC2     H  704   1.397   0.894  10.494 -2.3309  0.5557  0.6502
   45TMC2    H1  705   1.314   1.244  10.261  1.9712  2.1103 -0.0202
   45TMC2    H2  706   1.524   1.267  10.638  0.6206 -0.0906 -0.6695
   45TMC2    C7  707   1.425   1.413  10.459 -0.0336 -0.6341  0.0852
   45TMC2    C8  708   1.566   1.021  10.663 -0.3131 -0.1329 -0.3970
   45TMC2    O1  709   1.406   1.458  10.571 -0.1752 -0.2434  0.3424
   45TMC2    O2  710   1.597   1.073  10.767 -0.3460 -0.1625 -0.0232
   45TMC2    O5  711   1.601   0.902  10.621 -0.2269 -0.0197  0.5316
   45TMC2    H5  712   1.608   0.901  10.523  1.7478 -1.2799  0.6923
   46MPD2     C  713   1.301   0.871   9.981 -0.7045 -0.0967  0.4714
   46MPD2    C1  714   1.217   0.959  10.050 -0.3798 -0.0689  0.4280
   46MPD2    C2  715   1.099   0.994   9.990  0.5094  0.0345 -0.8939
   46MPD2    C3  716   1.053   0.937   9.874  0.7528 -0.7275  0.3032
   46MPD2    C4  717   1.130   0.841   9.813  0.3249 -0.3195  0.3087
   46MPD2    C5  718   1.255   0.814   9.862 -0.0520  0.6193  0.2640
   46MPD2     H  719   1.038   1.073  10.031  0.4582  1.2458 -3.3109
   46MPD2    H1  720   1.098   0.798   9.719  0.6463 -3.4585  1.6220
   46MPD2    H2  721   1.400   0.841  10.014 -1.1176  0.0860  1.8990
   46MPD2    H3  722   1.301   0.733   9.806 -0.5823  2.1473 -2.3569
   46MPD2     N  723   0.921   0.977   9.835  0.1175 -0.2538 -0.1011
   46MPD2    H5  724   0.874   1.031   9.906  3.0954  0.8808  1.0309
   46MPD2    N1  725   1.252   1.025  10.170  0.6779 -0.1354 -0.6058
   46MPD2    H7  726   1.190   1.101  10.198 -0.4726 -1.0670 -0.6222
   47TMC2    C1  727   3.521   1.618   9.129 -0.5263 -0.1566 -0.2193
   47TMC2    C2  728   3.457   1.593   9.009  0.4352 -0.0471  0.0764
   47TMC2    C3  729   3.322   1.602   9.001  0.1233 -0.0178  0.2172
   47TMC2    C4  730   3.448   1.627   9.244  0.4358  0.4819 -0.3229
   47TMC2    C5  731   3.313   1.627   9.236  0.7947 -0.8385  0.2612
   47TMC2    C6  732   3.247   1.619   9.117  0.6625 -0.3928 -0.8046
   47TMC2     C  733   3.673   1.617   9.135 -0.2677  0.8384 -0.1561
   47TMC2     O  734   3.726   1.520   9.081 -0.6674 -0.7017  0.4811
   47TMC2     H  735   3.518   1.586   8.919  1.0130 -0.9708  0.5343
   47TMC2    H1  736   3.502   1.640   9.337  0.0878 -2.6573  0.3180
   47TMC2    H2  737   3.142   1.591   9.115 -0.1068  2.1915  2.5501
   47TMC2    C7  738   3.235   1.645   9.359  0.1913 -1.1093  0.1653
   47TMC2    C8  739   3.258   1.534   8.889  0.1951 -0.0731 -0.1850
   47TMC2    O1  740   3.112   1.641   9.348  0.7718  0.2458  0.3346
   47TMC2    O2  741   3.308   1.441   8.830  0.7674 -0.8038 -0.4251
   47TMC2    O5  742   3.135   1.585   8.864  0.3917  0.1237 -0.0401
   47TMC2    H5  743   3.120   1.658   8.928  0.0354 -0.6949  0.8117
   48MPD2     C  744   3.881   1.829   9.361  0.3548 -0.3476  0.0406
   48MPD2    C1  745   3.849   1.726   9.271  0.6508 -0.4500 -0.4355
   48MPD2    C2  746   3.952   1.635   9.252 -0.1612  0.0650  0.2682
   48MPD2    C3  747   4.073   1.636   9.313  0.5379 -0.1732 -0.4133
   48MPD2    C4  748   4.100   1.744   9.400 -0.0954  0.2761  0.5451
   48MPD2    C5  749   4.004   1.842   9.414 -0.1509  0.2502  0.5701
   48MPD2     H  750   3.937   1.557   9.178  1.5761 -1.1551  1.2255
   48MPD2    H1  751   4.182   1.737   9.470  1.9074 -2.1352 -2.0518
   48MPD2    H2  752   3.806   1.901   9.391 -0.8757 -0.4815 -2.6981
   48MPD2    H3  753   4.012   1.914   9.495 -2.2108  0.3677  0.6455
   48MPD2     N  754   4.172   1.536   9.289 -0.5539  0.0768  0.1869
   48MPD2    H5  755   4.126   1.455   9.248 -0.0716  0.1806 -0.5499
   48MPD2    N1  756   3.719   1.718   9.214 -0.6316  0.0817  0.1212
   48MPD2    H7  757   3.652   1.787   9.246 -2.5533 -1.1467 -1.3429
   49TMC2    C1  758   2.676   4.078  10.075  0.1366 -0.2460  0.0188
   49TMC2    C2  759   2.663   4.179   9.982  0.3046  0.2667 -0.5291
   49TMC2    C3  760   2.740   4.169   9.873 -0.5390 -0.0472 -0.3115
   49TMC2    C4  761   2.771   3.979  10.062 -0.2833  0.3798  0.7105
   49TMC2    C5  762   2.844   3.979   9.949 -0.1514 -0.4739 -0.8867
   49TMC2    C6  763   2.831   4.065   9.846 -0.2671 -0.3816 -0.3662
   49TMC2     C  764   2.600   4.092  10.202 -0.8114  0.1032  0.0359
   49TMC2     O  765   2.566   4.206  10.225  0.2642  0.5620 -0.5447
   49TMC2     H  766   2.598   4.265   9.997  3.8119  2.8298  0.0905
   49TMC2    H1  767   2.781   3.900  10.136  2.1943 -0.1874 -0.2496
   49TMC2    H2  768   2.888   4.066   9.754 -0.1379 -1.1399 -0.2932
   49TMC2    C7  769   2.966   3.902   9.959 -0.4219  0.0728  0.5557
   49TMC2    C8  770   2.767   4.301   9.816 -0.7173  0.3265 -0.4727
   49TMC2    O1  771   3.064   3.950   9.903  0.0832 -0.4733 -0.7215
   49TMC2    O2  772   2.860   4.322   9.739 -0.5300  0.0935 -0.0195
   49TMC2    O5  773   2.657   4.370   9.801  0.2656 -0.0043 -0.4038
   49TMC2    H5  774   2.574   4.324   9.827 -0.2893  1.7355  0.8925
   50MPD2     C  775   2.434   4.057  10.441 -0.1816 -0.0306 -0.0009
   50MPD2    C1  776   2.498   3.950  10.374 -0.2779  0.1589  0.1773
   50MPD2    C2  777   2.495   3.825  10.427 -0.1089  0.6203  0.1737
   50MPD2    C3  778   2.414   3.809  10.539 -0.1504  0.4845  0.4879
   50MPD2    C4  779   2.350   3.915  10.601 -0.1144  1.0003  0.5094
   50MPD2    C5  780   2.363   4.039  10.555 -0.2286  0.2469 -0.4005
   50MPD2     H  781   2.543   3.742  10.377 -1.7103 -0.3053  0.1793
   50MPD2    H1  782   2.293   3.910  10.693 -2.5079  1.4901 -0.9466
   50MPD2    H2  783   2.441   4.161  10.412  1.0550 -0.5023 -1.4399
   50MPD2    H3  784   2.326   4.125  10.609  0.6922  1.0040 -0.9730
   50MPD2     N  785   2.373   3.680  10.589 -0.2608  0.0545 -0.2993
   50MPD2    H5  786   2.314   3.684  10.672  1.5788  4.0594  0.7885
   50MPD2    N1  787   2.580   3.970  10.261 -1.1240  0.3331  0.2147
   50MPD2    H7  788   2.628   3.886  10.229 -2.7234 -0.4944 -0.0307
   51TMC2    C1  789   2.794   2.139   1.641 -0.0055 -0.4871 -0.2956
   51TMC2    C2  790   2.730   2.201   1.747  0.9701 -0.4851  0.2668
   51TMC2    C3  791   2.759   2.334   1.761 -0.1144 -0.1582  0.7448
   51TMC2    C4  792   2.877   2.209   1.562  0.4472  0.2436 -0.2077
   51TMC2    C5  793   2.902   2.344   1.579  0.1596  0.0105  0.2224
   51TMC2    C6  794   2.842   2.408   1.682 -0.3872 -0.2505 -0.0191
   51TMC2     C  795   2.757   2.011   1.594  0.2144 -0.3248 -0.6314
   51TMC2     O  796   2.825   1.968   1.503  0.5957 -0.2678  0.7237
   51TMC2     H  797   2.664   2.147   1.814 -1.4029 -0.3259 -1.9590
   51TMC2    H1  798   2.936   2.165   1.482  0.8443  0.2190  0.1016
   51TMC2    H2  799   2.851   2.513   1.708 -3.9273 -0.0010  0.2660
   51TMC2    C7  800   3.011   2.411   1.507  0.0894 -0.2725 -0.4046
   51TMC2    C8  801   2.683   2.416   1.850 -0.0375  0.2902  0.8400
   51TMC2    O1  802   3.063   2.344   1.417  0.5503  0.1524  0.5885
   51TMC2    O2  803   2.671   2.536   1.846  0.7133 -0.5213  0.0568
   51TMC2    O5  804   2.649   2.334   1.950  0.5571  0.4017 -0.4550
   51TMC2    H5  805   2.685   2.245   1.927  1.0003  0.8181 -1.3701
   52MPD2     C  806   2.446   1.610   1.501 -0.4476 -0.1434 -0.2838
   52MPD2    C1  807   2.566   1.650   1.450  0.3119  0.9424  0.0508
   52MPD2    C2  808   2.628   1.768   1.490  0.2901 -0.2555 -0.6100
   52MPD2    C3  809   2.581   1.842   1.601  0.4591 -0.1727 -0.4374
   52MPD2    C4  810   2.469   1.791   1.663  0.6931 -0.6435  0.3274
   52MPD2    C5  811   2.404   1.676   1.611  0.6531  0.4752  0.8127
   52MPD2     H  812   2.718   1.790   1.435 -0.1771  0.2257 -1.1799
   52MPD2    H1  813   2.418   1.841   1.745 -3.6461 -3.4963 -0.6845
   52MPD2    H2  814   2.395   1.517   1.480 -0.3105 -0.0079 -1.1906
   52MPD2    H3  815   2.310   1.641   1.652  0.3137 -0.6784 -0.9636
   52MPD2     N  816   2.644   1.961   1.649  0.4102  0.0113 -0.0344
   52MPD2    H5  817   2.601   2.005   1.729 -1.6779 -0.3341 -0.9611
   52MPD2    N1  818   2.620   1.585   1.336  0.2130 -0.0681  0.0725
   52MPD2    H7  819   2.703   1.632   1.303 -0.4123 -0.6615 -2.3521
   53TMC2    C1  820   2.292   1.195  11.909 -0.1206  0.1991  0.0349
   53TMC2    C2  821   2.402   1.122  11.876 -0.9403  0.2378 -0.2700
   53TMC2    C3  822   2.467   1.050  11.975 -0.4512 -0.4423 -0.3419
   53TMC2    C4  823   2.235   1.199  12.031 -0.4013 -0.2618  0.0089
   53TMC2    C5  824   2.300   1.127  12.118 -0.4080  0.0559  0.2631
   53TMC2    C6  825   2.409   1.039  12.098  0.3318 -0.7086  0.1420
   53TMC2     C  826   2.220   1.257  11.799  0.2163  0.2328  0.0553
   53TMC2     O  827   2.251   1.205  11.692  0.1284 -0.9713 -0.3197
   53TMC2     H  828   2.444   1.125  11.776 -2.4457 -0.5828 -0.9284
   53TMC2    H1  829   2.142   1.250  12.055 -0.2148 -0.2618  0.7303
   53TMC2    H2  830   2.460   0.983  12.176 -0.1011 -2.2110 -0.6431
   53TMC2    C7  831   2.234   1.115  12.245 -0.1192  0.1573  0.1974
   53TMC2    C8  832   2.595   0.973  11.957 -0.1782  0.0458 -0.0530
   53TMC2    O1  833   2.138   1.185  12.265 -0.4362 -0.3616  0.2788
   53TMC2    O2  834   2.604   0.865  12.015 -0.7242  0.1362 -0.0481
   53TMC2    O5  835   2.649   1.010  11.838 -0.2087  0.2228  1.0616
   53TMC2    H5  836   2.637   1.105  11.818  1.3508 -0.1291 -1.5095
   54MPD2     C  837   2.053   1.410  11.611 -0.1368  0.5724 -0.9622
   54MPD2    C1  838   2.036   1.410  11.748 -0.6427  1.5145  0.7592
   54MPD2    C2  839   1.933   1.488  11.800 -0.5030  0.0794 -0.3059
   54MPD2    C3  840   1.828   1.532  11.721 -0.2806 -0.1575  0.3694
   54MPD2    C4  841   1.838   1.509  11.585 -0.4063 -0.6031  0.0187
   54MPD2    C5  842   1.948   1.453  11.533  0.2345  0.3750 -0.3547
   54MPD2     H  843   1.921   1.507  11.907  0.7459 -0.6271 -0.0445
   54MPD2    H1  844   1.767   1.549  11.513  0.1199 -3.1873 -1.9194
   54MPD2    H2  845   2.140   1.370  11.560  1.0792  1.4079  0.4403
   54MPD2    H3  846   1.953   1.430  11.427 -1.2557 -1.6058  0.0044
   54MPD2     N  847   1.701   1.587  11.762 -0.3810  0.0899 -0.1121
   54MPD2    H5  848   1.636   1.605  11.687 -2.0720  0.2881  1.4073
   54MPD2    N1  849   2.139   1.365  11.832 -0.8229  0.0939 -0.0159
   54MPD2    H7  850   2.131   1.389  11.930 -0.4461  4.3496 -1.0485
   55TMC2    C1  851   3.750   3.061   0.409 -0.3552  0.0764 -0.1450
   55TMC2    C2  852   3.832   3.061   0.304 -0.9402  0.4404  0.0500
   55TMC2    C3  853   3.873   2.935   0.256  0.0964  0.0549  0.1963
   55TMC2    C4  854   3.709   2.947   0.476  0.3477  0.2177 -0.0288
   55TMC2    C5  855   3.752   2.827   0.426 -0.9025  0.0661  1.0848
   55TMC2    C6  856   3.825   2.817   0.313 -0.2898 -0.2172  0.1667
   55TMC2     C  857   3.699   3.187   0.455 -0.0674 -0.2301  0.7551
   55TMC2     O  858   3.701   3.199   0.578 -0.4141  0.2628  0.5748
   55TMC2     H  859   3.868   3.154   0.262  0.2781  0.1851  0.5233
   55TMC2    H1  860   3.653   2.968   0.567 -0.6704  0.6335 -0.7485
   55TMC2    H2  861   3.877   2.724   0.292  0.9441  0.4731  0.1694
   55TMC2    C7  862   3.711   2.697   0.480 -0.0411  0.5415 -0.5705
   55TMC2    C8  863   3.987   2.942   0.166 -0.0999 -0.0895 -0.0052
   55TMC2    O1  864   3.724   2.602   0.401 -0.6288  0.4127 -0.1642
   55TMC2    O2  865   4.059   3.038   0.147 -0.1636  0.4437 -0.3357
   55TMC2    O5  866   3.982   2.828   0.099  0.2386  0.3118 -0.5716
   55TMC2    H5  867   3.902   2.774   0.115  0.9278 -0.0325  1.6365
   56MPD2     C  868   3.621   3.491   0.280  0.1382  0.9614  0.2399
   56MPD2    C1  869   3.613   3.399   0.380  0.0302  0.2643 -0.2083
   56MPD2    C2  870   3.540   3.430   0.488  0.1413 -0.1202  0.2079
   56MPD2    C3  871   3.483   3.550   0.512  1.0083 -0.0360 -0.0904
   56MPD2    C4  872   3.506   3.652   0.417  0.0440  0.1684 -0.1526
   56MPD2    C5  873   3.561   3.615   0.300 -0.3731  1.4142 -0.7636
   56MPD2     H  874   3.520   3.355   0.564  0.3758 -2.2708 -1.8775
   56MPD2    H1  875   3.473   3.755   0.423  1.2281  0.4379  1.8469
   56MPD2    H2  876   3.645   3.470   0.176 -1.0873 -0.2150  0.2036
   56MPD2    H3  877   3.568   3.679   0.213  1.0227  2.8750  0.4081
   56MPD2     N  878   3.405   3.576   0.622 -0.9472  0.0796 -0.1509
   56MPD2    H5  879   3.384   3.499   0.686 -0.8270 -2.2040 -2.8599
   56MPD2    N1  880   3.668   3.270   0.358  0.1154 -0.3274  0.0065
   56MPD2    H7  881   3.681   3.239   0.263 -1.4197 -0.3611 -0.2036
   57TMC2    C1  882   2.191   0.127  13.338 -0.0247  0.4159  0.7892
   57TMC2    C2  883   2.152   4.731  13.323  0.0850  0.7093 -0.1514
   57TMC2    C3  884   2.218   4.647  13.241 -0.4369 -0.4901  0.2252
   57TMC2    C4  885   2.297   0.179  13.265  0.1594 -0.0366 -0.3709
   57TMC2    C5  886   2.362   0.094  13.181 -0.9199 -0.0858 -0.0456
   57TMC2    C6  887   2.327   4.694  13.169  0.0289  0.7973  0.2700
   57TMC2     C  888   2.118   0.213  13.421  0.2046 -0.1438 -0.2342
   57TMC2     O  889   1.999   0.191  13.447 -0.4705 -0.4141 -0.2253
   57TMC2     H  890   2.068   4.696  13.382 -0.1444 -1.4286 -1.7356
   57TMC2    H1  891   2.321   0.285  13.264  0.2296 -0.0468  0.1891
   57TMC2    H2  892   2.381   4.631  13.099 -0.1080  0.3157  0.5977
   57TMC2    C7  893   2.486   0.138  13.120 -0.2363  0.4455 -0.9620
   57TMC2    C8  894   2.169   4.509  13.235  0.3475 -0.0678  0.1224
   57TMC2    O1  895   2.486   0.258  13.098  0.0639 -0.2078  0.1579
   57TMC2    O2  896   2.055   4.471  13.259 -0.0596  0.1829  0.0636
   57TMC2    O5  897   2.279   4.448  13.271 -0.1187 -0.4001 -0.1895
   57TMC2    H5  898   2.363   4.483  13.236  0.4962  0.2278  1.8907
   58MPD2     C  899   2.092   0.671  13.675 -0.1895 -0.5695 -0.3240
   58MPD2    C1  900   1.991   0.591  13.631  0.3717 -0.3277 -0.0534
   58MPD2    C2  901   2.027   0.473  13.563  0.6843 -0.2660  0.6106
   58MPD2    C3  902   2.156   0.437  13.531 -0.0769  0.4134 -0.8044
   58MPD2    C4  903   2.250   0.532  13.557  0.2005  1.0191 -0.3125
   58MPD2    C5  904   2.222   0.642  13.642  0.1668 -0.4069  0.5433
   58MPD2     H  905   1.952   0.398  13.539  1.0532 -0.7005  0.8150
   58MPD2    H1  906   2.355   0.514  13.536 -0.1691 -0.7265 -0.6415
   58MPD2    H2  907   2.075   0.768  13.721  2.3078  0.9904 -2.6588
   58MPD2    H3  908   2.309   0.705  13.660 -0.4034  0.6026 -0.2032
   58MPD2     N  909   2.199   0.320  13.465  0.1641  0.3343  0.1932
   58MPD2    H5  910   2.294   0.301  13.434 -0.5337 -1.2293 -0.9624
   58MPD2    N1  911   1.850   0.619  13.666 -0.4065 -0.1035  0.6202
   58MPD2    H7  912   1.780   0.556  13.627  0.6164  1.1077 -3.1535
   59TMC2    C1  913   0.205   0.173  12.827  0.4930 -0.1190 -0.0372
   59TMC2    C2  914   0.291   0.071  12.828  0.2225 -0.0480  0.0742
   59TMC2    C3  915   0.237   4.682  12.800  0.3228 -0.3287 -0.1683
   59TMC2    C4  916   0.078   0.170  12.783 -0.6904 -0.5515 -0.3679
   59TMC2    C5  917   0.025   0.045  12.767  0.5274  0.1993  0.2444
   59TMC2    C6  918   0.104   4.667  12.764 -0.0064  0.7363 -0.3933
   59TMC2     C  919   0.239   0.300  12.885  0.0796  0.4159  0.3905
   59TMC2     O  920   0.227   0.410  12.827  0.0006  0.7816  0.3300
   59TMC2     H  921   0.392   0.073  12.865  1.6761  3.9187 -4.1243
   59TMC2    H1  922   0.022   0.260  12.802 -1.0390 -1.3957  2.7580
   59TMC2    H2  923   0.063   4.572  12.733 -1.9100  1.0494  1.1359
   59TMC2    C7  924   4.630   0.026  12.708  0.1045  0.2817  0.7804
   59TMC2    C8  925   0.315   4.576  12.843  1.0039  0.2377  0.3904
   59TMC2    O1  926   4.586   4.654  12.699 -0.1327 -0.0162 -0.3192
   59TMC2    O2  927   0.359   4.576  12.956  0.1013  0.3254  0.1594
   59TMC2    O5  928   0.290   4.469  12.765 -0.3499 -0.4093 -0.1063
   59TMC2    H5  929   0.255   4.482  12.674  0.3626  0.1366 -0.2995
   60MPD2     C  930   0.321   0.503  13.085 -0.2313 -0.2760 -1.1309
   60MPD2    C1  931   0.344   0.367  13.106  0.6531  0.3551  0.9571
   60MPD2    C2  932   0.387   0.328  13.232  0.2273  0.1558 -0.3383
   60MPD2    C3  933   0.419   0.418  13.333 -0.5820 -0.1348 -0.0214
   60MPD2    C4  934   0.404   0.558  13.304 -0.9948 -0.0059 -0.3167
   60MPD2    C5  935   0.351   0.592  13.187  0.7446  0.6735 -0.5095
   60MPD2     H  936   0.408   0.224  13.251 -0.0124 -0.1551 -1.7978
   60MPD2    H1  937   0.417   0.636  13.378  2.9460 -0.8622 -0.0821
   60MPD2    H2  938   0.285   0.539  12.989 -0.5825 -2.5327 -1.8564
   60MPD2    H3  939   0.329   0.696  13.164 -3.2022 -0.4024 -1.6195
   60MPD2     N  940   0.470   0.370  13.458 -0.7571  0.1899 -0.1720
   60MPD2    H5  941   0.527   0.436  13.511 -1.4068 -0.0298  0.7964
   60MPD2    N1  942   0.289   0.272  13.014  0.2722 -0.2802  0.4291
   60MPD2    H7  943   0.293   0.178  13.053  2.4969  0.0073  0.8816
   61TMC2    C1  944   0.057   1.293  15.693  0.4063  0.7599  0.2657
   61TMC2    C2  945   0.053   1.199  15.792 -0.1962  0.0239  0.3041
   61TMC2    C3  946   0.067   1.246  15.918 -0.0397  0.3805 -0.5680
   61TMC2    C4  947   0.082   1.427  15.707 -0.4152 -0.5019 -0.1297
   61TMC2    C5  948   0.086   1.477  15.836 -0.1097 -0.4630 -1.2428
   61TMC2    C6  949   0.077   1.381  15.939 -0.0861  1.0755  0.9582
   61TMC2     C  950   0.037   1.242  15.558  0.4935  0.6547  0.7103
   61TMC2     O  951   4.708   1.139  15.552  0.4062  0.2768  0.4406
   61TMC2     H  952   0.073   1.095  15.773 -0.4278 -0.5223  3.0126
   61TMC2    H1  953   0.064   1.498  15.628 -3.9637  1.2797  2.2387
   61TMC2    H2  954   0.096   1.415  16.040  2.0248 -0.1936  0.9758
   61TMC2    C7  955   0.062   1.613  15.858 -0.0324 -0.1355 -0.1641
   61TMC2    C8  956   0.070   1.160  16.032  0.2636 -0.4461 -0.2983
   61TMC2    O1  957   0.095   1.692  15.770 -0.5298 -0.0570  0.0808
   61TMC2    O2  958   0.138   1.186  16.130  0.9516  0.5874  0.1620
   61TMC2    O5  959   4.682   1.104  16.027  0.0253  0.7293 -0.5544
   61TMC2    H5  960   4.638   1.134  15.945  1.8551  1.1753 -1.3743
   62MPD2     C  961   0.018   1.196  15.264  0.4749 -0.0213  0.1125
   62MPD2    C1  962   0.070   1.310  15.324  0.8273  0.2593  0.0708
   62MPD2    C2  963   0.125   1.411  15.247 -0.0227 -0.2387  0.0872
   62MPD2    C3  964   0.124   1.408  15.106 -0.7950 -0.3287  0.1643
   62MPD2    C4  965   0.074   1.292  15.044  0.2442  0.8158  0.2445
   62MPD2    C5  966   0.027   1.190  15.127  0.2944  0.7645 -0.2914
   62MPD2     H  967   0.161   1.504  15.289  0.6453 -0.4942  0.0726
   62MPD2    H1  968   0.065   1.269  14.939 -2.8771  1.8161  0.3047
   62MPD2    H2  969   4.707   1.107  15.306 -0.3102 -0.4435 -1.6677
   62MPD2    H3  970   4.732   1.100  15.073  1.4990  0.8908 -1.1972
   62MPD2     N  971   0.184   1.512  15.028  0.2566 -0.3040 -0.5539
   62MPD2    H5  972   0.177   1.490  14.929 -1.4046  2.1563 -0.9689
   62MPD2    N1  973   0.080   1.326  15.462  0.2725  0.6879 -0.5190
   62MPD2    H7  974   0.122   1.413  15.491 -0.4796  0.8564  0.0639
   63TMC2    C1  975   4.138   1.566  10.819 -0.8623  0.7596 -0.0550
   63TMC2    C2  976   4.253   1.601  10.884 -0.2118  0.1879  0.3278
   63TMC2    C3  977   4.362   1.611  10.798  0.0082 -0.5675  0.3861
   63TMC2    C4  978   4.129   1.546  10.679  0.0786  0.8494  0.3129
   63TMC2    C5  979   4.241   1.572  10.604 -0.3745 -0.3779 -0.2358
   63TMC2    C6  980   4.356   1.613  10.663  0.0248 -0.2906  0.7117
   63TMC2     C  981   4.016   1.568  10.895 -0.3367  0.1073 -0.4657
   63TMC2     O  982   4.022   1.592  11.019 -0.4598  0.1830  0.0224
   63TMC2     H  983   4.254   1.642  10.984  1.4138  2.0782 -0.4543
   63TMC2    H1  984   4.046   1.518  10.615 -0.0127  2.0408 -0.0998
   63TMC2    H2  985   4.444   1.605  10.601  1.6415 -0.1920  3.0139
   63TMC2    C7  986   4.236   1.598  10.458  0.1355  0.4401 -0.7149
   63TMC2    C8  987   4.477   1.681  10.844  0.8885 -0.5056  0.0821
   63TMC2    O1  988   4.149   1.541  10.395  0.4487 -0.5762  0.1042
   63TMC2    O2  989   4.490   1.792  10.789 -0.0439  0.3727 -0.1801
   63TMC2    O5  990   4.578   1.593  10.839 -0.2508  1.1404  0.2600
   63TMC2    H5  991   4.554   1.508  10.881 -0.6277  1.8299  1.4415
   64MPD2     C  992   3.527   1.409  10.886  0.2798 -0.0187  0.4710
   64MPD2    C1  993   3.594   1.378  10.768 -0.0072  0.3868  0.2339
   64MPD2    C2  994   3.720   1.431  10.745  0.1987 -0.8803 -0.9065
   64MPD2    C3  995   3.782   1.500  10.844 -0.1556  0.3358  0.1181
   64MPD2    C4  996   3.723   1.523  10.966  0.4727 -0.0900 -0.3655
   64MPD2    C5  997   3.595   1.477  10.982 -0.6432  0.0509 -0.7032
   64MPD2     H  998   3.770   1.405  10.653 -1.8845  2.4514 -2.9742
   64MPD2    H1  999   3.770   1.579  11.046 -0.9308 -0.0989  0.4756
   64MPD2    H2 1000   3.428   1.368  10.904  0.4912 -0.3735  0.8239
   64MPD2    H3 1001   3.545   1.490  11.077  0.3535 -0.2084 -0.1518
   64MPD2     N 1002   3.911   1.542  10.810 -0.4093 -0.2741  0.1091
   64MPD2    H5 1003   3.940   1.522  10.715  0.2626 -1.9829  0.6676
   64MPD2    N1 1004   3.540   1.296  10.662  0.0500 -0.5901 -0.2339
   64MPD2    H7 1005   3.603   1.270  10.587  1.1420  0.9841  0.1336
   65TMC2    C1 1006   0.382   1.848  15.728 -0.4995 -0.5883 -0.3567
   65TMC2    C2 1007   0.489   1.868  15.641 -0.0965  0.1663 -0.0328
   65TMC2    C3 1008   0.498   1.991  15.584  0.3013  0.0084  0.0093
   65TMC2    C4 1009   0.297   1.946  15.764  0.2860  0.5441  0.4175
   65TMC2    C5 1010   0.319   2.065  15.707 -0.3247  0.4395  0.4603
   65TMC2    C6 1011   0.409   2.096  15.609 -0.4731  0.1477 -0.9802
   65TMC2     C 1012   0.387   1.728  15.802 -0.0124 -0.1560  0.4218
   65TMC2     O 1013   0.352   1.733  15.921  0.4086  0.2553 -0.3201
   65TMC2     H 1014   0.573   1.800  15.630 -0.2609 -0.2085  1.0469
   65TMC2    H1 1015   0.211   1.919  15.824  1.5488  0.5675  2.2585
   65TMC2    H2 1016   0.408   2.191  15.557  0.5999  1.4469  1.3709
   65TMC2    C7 1017   0.278   2.174  15.794  0.1542 -0.1157  0.1344
   65TMC2    C8 1018   0.622   2.029  15.523  0.0249 -0.3890 -0.2144
   65TMC2    O1 1019   0.242   2.276  15.741 -0.1577 -0.2115  0.0895
   65TMC2    O2 1020   0.618   2.064  15.407  0.5171 -0.4742 -0.1632
   65TMC2    O5 1021   0.674   2.105  15.622 -0.3105 -0.2492  0.0655
   65TMC2    H5 1022   0.669   2.076  15.715  0.3350  0.3461  0.2931
   66MPD2     C 1023   0.442   1.457  15.901 -0.3973  0.4580 -0.6291
   66MPD2    C1 1024   0.422   1.487  15.769 -0.3591 -0.4715 -0.9584
   66MPD2    C2 1025   0.420   1.386  15.674 -0.1974  0.8892 -0.1836
   66MPD2    C3 1026   0.401   1.255  15.717 -0.6526 -0.1835 -0.4665
   66MPD2    C4 1027   0.433   1.226  15.849 -0.3039  0.2782 -0.3248
   66MPD2    C5 1028   0.452   1.324  15.933  1.6771 -0.8782 -0.3571
   66MPD2     H 1029   0.409   1.409  15.569 -0.1232  1.7796  0.0063
   66MPD2    H1 1030   0.440   1.124  15.886 -2.0762  0.9981  2.0253
   66MPD2    H2 1031   0.445   1.526  15.985  0.8957  3.1059 -2.8590
   66MPD2    H3 1032   0.458   1.295  16.038 -0.4917 -2.8648 -0.7782
   66MPD2     N 1033   0.380   1.149  15.631 -0.2790  0.2334 -0.2669
   66MPD2    H5 1034   0.367   1.059  15.676  2.9161  0.1039  0.4644
   66MPD2    N1 1035   0.415   1.621  15.724 -0.9010 -0.5278  0.1061
   66MPD2    H7 1036   0.415   1.625  15.622  1.5208  1.1596  0.1566
   67TMC2    C1 1037   0.469   0.233  14.126 -0.2009 -0.3865  0.0536
   67TMC2    C2 1038   0.404   0.357  14.104  0.6880 -0.3924 -0.2732
   67TMC2    C3 1039   0.431   0.460  14.182 -0.0521  0.3008  0.1964
   67TMC2    C4 1040   0.553   0.227  14.234  0.0086  0.2965 -0.0883
   67TMC2    C5 1041   0.577   0.331  14.315  0.2691 -0.7694  0.0211
   67TMC2    C6 1042   0.516   0.453  14.291 -0.3723  0.4955 -0.4568
   67TMC2     C 1043   0.454   0.120  14.038  0.0704  1.1482 -0.2099
   67TMC2     O 1044   0.528   0.025  14.059 -0.3935 -0.3237 -0.0612
   67TMC2     H 1045   0.325   0.364  14.030 -0.8574 -0.1979  1.3883
   67TMC2    H1 1046   0.606   0.132  14.240 -0.1623  0.3387  2.1302
   67TMC2    H2 1047   0.523   0.536  14.360  1.1007  1.7095 -2.0585
   67TMC2    C7 1048   0.654   0.296  14.438 -0.5146 -0.0143 -0.0859
   67TMC2    C8 1049   0.342   0.586  14.178  0.3483 -0.0783 -0.2859
   67TMC2    O1 1050   0.699   0.184  14.453 -0.3567 -0.2302 -0.0652
   67TMC2    O2 1051   0.320   0.656  14.273 -0.5953  0.4777 -0.3300
   67TMC2    O5 1052   0.267   0.583  14.067  0.3894 -0.2375  0.2812
   67TMC2    H5 1053   0.289   0.519  13.996 -0.5590 -1.0753  0.7509
   68MPD2     C 1054   0.394   4.652  13.829 -0.1428  0.1819 -0.2786
   68MPD2    C1 1055   0.314   0.023  13.865 -0.0622 -0.8039  1.2195
   68MPD2    C2 1056   0.192   0.041  13.802 -0.4056 -0.8416  1.1581
   68MPD2    C3 1057   0.139   4.679  13.715  0.9864 -0.3799 -0.3690
   68MPD2    C4 1058   0.218   4.572  13.684  0.0759 -0.2174  0.2419
   68MPD2    C5 1059   0.344   4.559  13.739 -0.4553 -0.6498 -0.1386
   68MPD2     H 1060   0.134   0.131  13.819 -1.3686 -1.7680  2.7596
   68MPD2    H1 1061   0.180   4.495  13.618 -1.7450  1.1297 -0.2929
   68MPD2    H2 1062   0.497   4.649  13.863 -0.4799 -0.5948  0.6656
   68MPD2    H3 1063   0.410   4.480  13.705 -1.4194 -0.7996 -1.6713
   68MPD2     N 1064   0.024   4.686  13.643  0.2784 -0.2608 -0.2865
   68MPD2    H5 1065   0.020   4.616  13.569  1.5034 -1.2729  0.5993
   68MPD2    N1 1066   0.353   0.128  13.948 -0.1623 -0.2903 -0.1834
   68MPD2    H7 1067   0.284   0.200  13.962 -1.1539 -1.6173  1.8132
   69TMC2    C1 1068   1.779   2.084  12.493 -0.3160 -0.4384  0.0249
   69TMC2    C2 1069   1.703   2.199  12.515  0.2200  0.6304 -0.1550
   69TMC2    C3 1070   1.754   2.322  12.496 -0.7561 -0.1758  0.0145
   69TMC2    C4 1071   1.897   2.102  12.425  0.5168  0.2158 -0.6188
   69TMC2    C5 1072   1.942   2.221  12.405 -0.0182 -0.1798  0.0108
   69TMC2    C6 1073   1.876   2.339  12.451  0.1606 -0.4986  0.3923
   69TMC2     C 1074   1.751   1.972  12.582  0.7047 -0.4189  0.1620
   69TMC2     O 1075   1.650   1.970  12.653 -0.5910  0.0845 -0.1570
   69TMC2     H 1076   1.604   2.196  12.560  0.6014  0.4213  0.6674
   69TMC2    H1 1077   1.956   2.016  12.393  0.8580 -0.4842  1.8843
   69TMC2    H2 1078   1.923   2.436  12.446 -1.5589  0.2779 -0.4782
   69TMC2    C7 1079   2.047   2.227  12.310  0.9330 -0.6821  0.5882
   69TMC2    C8 1080   1.673   2.438  12.506  0.2181 -0.1162 -0.1260
   69TMC2    O1 1081   2.128   2.135  12.305 -0.2870  0.0890 -0.1658
   69TMC2    O2 1082   1.706   2.536  12.575 -0.0956  0.5492 -0.4211
   69TMC2    O5 1083   1.593   2.429  12.396  0.2436  0.2337  0.2206
   69TMC2    H5 1084   1.609   2.352  12.338  1.2628 -0.0469  0.8956
   70MPD2     C 1085   1.955   1.673  12.616 -0.2169 -0.1980  0.0990
   70MPD2    C1 1086   1.845   1.754  12.646 -0.7135 -0.0992  0.0004
   70MPD2    C2 1087   1.772   1.722  12.755 -0.4120 -0.3177  0.5830
   70MPD2    C3 1088   1.817   1.624  12.844  0.5426 -0.5691 -0.5152
   70MPD2    C4 1089   1.925   1.547  12.817 -0.4021  0.3728  1.1970
   70MPD2    C5 1090   1.987   1.570  12.699 -0.3175  0.5774  0.2201
   70MPD2     H 1091   1.688   1.781  12.790  0.1134  2.2538 -2.4555
   70MPD2    H1 1092   1.953   1.471  12.889  1.2714 -0.2429 -0.1315
   70MPD2    H2 1093   2.024   1.676  12.532 -2.6009  1.0286 -1.8124
   70MPD2    H3 1094   2.070   1.507  12.669 -1.4882 -0.3359 -1.1024
   70MPD2     N 1095   1.748   1.595  12.966 -0.8041  0.4871 -0.0629
   70MPD2    H5 1096   1.806   1.544  13.031 -0.5075  1.9492  0.8268
   70MPD2    N1 1097   1.843   1.870  12.566  0.8629  0.2881 -0.2854
   70MPD2    H7 1098   1.906   1.873  12.486 -1.0281  0.8903 -1.7493
   71TMC2    C1 1099   0.634   2.514   1.535  0.2231  0.1773  0.6266
   71TMC2    C2 1100   0.755   2.575   1.559 -0.6205 -0.7198 -0.0119
   71TMC2    C3 1101   0.765   2.655   1.665 -0.2683  1.0256  0.1206
   71TMC2    C4 1102   0.530   2.534   1.617 -0.4332 -0.1682  0.5641
   71TMC2    C5 1103   0.543   2.609   1.734  0.4293 -0.2156  0.4549
   71TMC2    C6 1104   0.662   2.677   1.751 -1.0323 -0.1380  0.0167
   71TMC2     C 1105   0.611   2.454   1.403 -0.1707  0.3366  0.0768
   71TMC2     O 1106   0.496   2.465   1.358 -0.0119  0.8153  0.0568
   71TMC2     H 1107   0.845   2.555   1.501  0.2452 -1.9404  1.7349
   71TMC2    H1 1108   0.434   2.502   1.581 -0.7337  1.0607  0.2552
   71TMC2    H2 1109   0.676   2.744   1.835  1.4826  0.2919 -0.7315
   71TMC2    C7 1110   0.448   2.602   1.841 -0.3882 -0.4656  0.2203
   71TMC2    C8 1111   0.895   2.715   1.686 -0.3342  0.3610  0.8969
   71TMC2    O1 1112   0.465   2.670   1.941  0.8359  0.1129 -0.0819
   71TMC2    O2 1113   0.966   2.750   1.592 -0.2356 -0.2857 -0.1567
   71TMC2    O5 1114   0.943   2.677   1.803  0.0403  0.3566 -0.2023
   71TMC2    H5 1115   0.873   2.639   1.861 -1.5250  2.4061 -0.7652
   72MPD2     C 1116   0.761   2.256   0.966  0.7746 -0.7109 -0.1714
   72MPD2    C1 1117   0.635   2.290   1.005 -0.4354  0.3806 -0.1427
   72MPD2    C2 1118   0.624   2.344   1.129 -0.0489 -0.4535 -0.0634
   72MPD2    C3 1119   0.741   2.368   1.210  0.3112 -0.1634 -0.0048
   72MPD2    C4 1120   0.859   2.322   1.164 -0.3106  0.5652  0.0510
   72MPD2    C5 1121   0.867   2.262   1.047  0.1630  0.2843 -0.1150
   72MPD2     H 1122   0.525   2.385   1.150  0.0706 -0.6633  0.9417
   72MPD2    H1 1123   0.948   2.326   1.226 -1.3234  1.1692  1.4710
   72MPD2    H2 1124   0.787   2.203   0.875 -2.5280 -2.1988 -0.2350
   72MPD2    H3 1125   0.968   2.228   1.027  0.3231  0.0574  1.1004
   72MPD2     N 1126   0.729   2.414   1.342 -0.3641  0.1771  0.0568
   72MPD2    H5 1127   0.815   2.418   1.395  0.5477 -0.5020 -1.3765
   72MPD2    N1 1128   0.525   2.298   0.921 -0.1501 -0.5785 -0.4677
   72MPD2    H7 1129   0.433   2.321   0.960  0.4085  1.3524 -0.2524
   73TMC2    C1 1130   4.415   3.366  13.685  0.2449 -0.4641 -0.7091
   73TMC2    C2 1131   4.296   3.300  13.668  0.2170  0.2025 -0.9166
   73TMC2    C3 1132   4.202   3.314  13.765  0.3362  0.6839  0.1946
   73TMC2    C4 1133   4.442   3.429  13.804 -0.0112  0.3009  1.2025
   73TMC2    C5 1134   4.339   3.448  13.898  0.0043 -0.1118  0.4764
   73TMC2    C6 1135   4.216   3.399  13.872  0.2943  0.2830 -0.1817
   73TMC2     C 1136   4.453   3.454  13.576  0.3654 -0.9351  0.2495
   73TMC2     O 1137   4.531   3.546  13.608  0.2285  0.3326  0.0681
   73TMC2     H 1138   4.276   3.247  13.575  1.9256 -4.4374  1.3859
   73TMC2    H1 1139   4.538   3.475  13.823 -0.8006  1.1195  3.2168
   73TMC2    H2 1140   4.145   3.399  13.954  0.1997  0.2000 -0.2646
   73TMC2    C7 1141   4.329   3.585  13.953  0.2589 -0.2219 -1.0749
   73TMC2    C8 1142   4.074   3.308  13.704 -0.3421 -0.2422  0.6094
   73TMC2    O1 1143   4.269   3.613  14.053 -0.2454  0.4128  0.6594
   73TMC2    O2 1144   3.995   3.401  13.724 -0.2449 -0.0001 -0.8812
   73TMC2    O5 1145   4.037   3.179  13.701  0.1664 -0.1884 -0.0804
   73TMC2    H5 1146   4.113   3.118  13.693  0.7233  0.7943 -2.1004
   74MPD2     C 1147   4.337   3.734  13.157  0.3201 -0.1880  0.3885
   74MPD2    C1 1148   4.442   3.748  13.251 -0.1390  0.4025  0.2235
   74MPD2    C2 1149   4.457   3.652  13.348  0.0484  0.1044 -0.1522
   74MPD2    C3 1150   4.374   3.544  13.361 -0.3576  0.0057 -0.9098
   74MPD2    C4 1151   4.275   3.529  13.270 -0.3745 -0.5221  0.0999
   74MPD2    C5 1152   4.253   3.623  13.169  0.1033 -0.5377  0.8769
   74MPD2     H 1153   4.532   3.668  13.425 -0.3932 -1.8492  0.6855
   74MPD2    H1 1154   4.218   3.436  13.268 -1.1927  0.0415 -2.2648
   74MPD2    H2 1155   4.318   3.799  13.072  0.6973 -1.0142 -0.3350
   74MPD2    H3 1156   4.173   3.611  13.098  1.4403  3.0171 -1.2160
   74MPD2     N 1157   4.381   3.445  13.463 -0.2742  0.2314 -0.1324
   74MPD2    H5 1158   4.320   3.366  13.446  0.6270 -0.4264 -0.2875
   74MPD2    N1 1159   4.513   3.870  13.250 -0.1897 -0.1331  0.3200
   74MPD2    H7 1160   4.487   3.935  13.176  0.5654 -0.4866 -0.2619
   75TMC2    C1 1161   4.568   0.045  13.540 -0.2947  0.4979  0.2379
   75TMC2    C2 1162   4.560   4.666  13.464 -0.4919  0.4731 -0.3910
   75TMC2    C3 1163   4.483   4.679  13.351  0.3246  0.3000  0.3411
   75TMC2    C4 1164   4.530   0.169  13.504  0.4975 -0.8293  0.2419
   75TMC2    C5 1165   4.455   0.171  13.388  0.0401 -0.2268 -0.5499
   75TMC2    C6 1166   4.422   0.063  13.316  0.2064  0.0638 -0.0493
   75TMC2     C 1167   4.674   0.055  13.640 -0.0795  0.3043  0.2301
   75TMC2     O 1168   4.666   0.156  13.709 -0.0960 -0.1905  0.6278
   75TMC2     H 1169   4.574   4.568  13.506  1.0534  1.8341  2.2639
   75TMC2    H1 1170   4.546   0.268  13.547 -0.7340 -0.6521  0.2944
   75TMC2    H2 1171   4.375   0.074  13.219 -1.4892 -0.6951  0.6861
   75TMC2    C7 1172   4.358   0.278  13.368 -0.0258  0.1088 -0.6177
   75TMC2    C8 1173   4.418   4.551  13.306  0.3612 -0.5783 -0.3806
   75TMC2    O1 1174   4.365   0.317  13.254  0.8551 -0.0970 -0.2549
   75TMC2    O2 1175   4.478   4.452  13.269 -0.4562  0.3084  0.1552
   75TMC2    O5 1176   4.310   4.598  13.243  0.2319 -0.0759  0.4370
   75TMC2    H5 1177   4.261   4.663  13.298 -1.1666  0.1510 -1.0629
   76TMC2    C1 1178   3.359   1.456  11.712 -0.1037 -0.5241  0.0604
   76TMC2    C2 1179   3.297   1.398  11.606 -0.4258 -0.6526 -0.8919
   76TMC2    C3 1180   3.367   1.290  11.548 -0.5464  0.6136  0.3783
   76TMC2    C4 1181   3.477   1.409  11.770 -0.1321 -0.3662 -0.0471
   76TMC2    C5 1182   3.534   1.296  11.713 -0.5267  0.3536  0.2063
   76TMC2    C6 1183   3.475   1.239  11.602 -0.7429  0.3085 -0.1064
   76TMC2     C 1184   3.284   1.570  11.756 -0.3312 -1.1558  0.7253
   76TMC2     O 1185   3.182   1.599  11.701  0.4520  0.2212  0.2881
   76TMC2     H 1186   3.208   1.437  11.558 -2.9532 -2.5141  2.2394
   76TMC2    H1 1187   3.517   1.465  11.853 -1.5006 -1.0105  1.0342
   76TMC2    H2 1188   3.525   1.150  11.567  1.5507  0.2695  3.2821
   76TMC2    C7 1189   3.649   1.235  11.774 -0.8703 -0.2215 -0.1259
   76TMC2    C8 1190   3.282   1.218  11.461 -0.2746 -0.5845 -0.6216
   76TMC2    O1 1191   3.700   1.150  11.705 -0.0182  0.3359  0.2039
   76TMC2    O2 1192   3.223   1.261  11.368 -0.8568 -0.1831  0.0991
   76TMC2    O5 1193   3.280   1.084  11.495 -0.1615  0.2234  0.2860
   76TMC2    H5 1194   3.323   1.057  11.578 -1.3786 -0.0315  0.8333
   77MPD2     C 1195   3.193   1.915  12.120 -0.3726  0.7379 -0.5837
   77MPD2    C1 1196   3.130   1.891  12.001 -0.0456  0.2245  0.0932
   77MPD2    C2 1197   3.169   1.792  11.915 -0.5315 -0.9252 -0.0274
   77MPD2    C3 1198   3.275   1.716  11.956  0.2683  0.5257 -0.2652
   77MPD2    C4 1199   3.330   1.743  12.075 -0.4387 -0.1054 -0.1808
   77MPD2    C5 1200   3.299   1.841  12.164  0.4404 -0.0471 -0.0710
   77MPD2     H 1201   3.120   1.794  11.818 -0.0256 -2.0718 -0.3075
   77MPD2    H1 1202   3.415   1.681  12.101  0.3367  0.3334 -1.6253
   77MPD2    H2 1203   3.169   1.998  12.185  1.7474  1.3094 -0.5390
   77MPD2    H3 1204   3.350   1.866  12.256  1.1057  0.8127 -0.6676
   77MPD2     N 1205   3.329   1.612  11.883  0.3988 -0.0113 -0.7502
   77MPD2    H5 1206   3.410   1.564  11.921 -0.4861 -1.6823 -0.9945
   77MPD2    N1 1207   3.022   1.974  11.953 -0.0049  0.0883  0.2102
   77MPD2    H7 1208   2.974   1.944  11.869  1.5688 -0.1741 -0.6007
   78TMC2    C1 1209   4.710   1.620   1.459 -0.2179  0.1838 -0.1239
   78TMC2    C2 1210   4.690   1.638   1.327  0.2224  0.2285 -0.0338
   78TMC2    C3 1211   0.054   1.691   1.255 -0.0582 -0.3820 -0.0434
   78TMC2    C4 1212   0.085   1.672   1.519  0.6327  0.0733  0.0412
   78TMC2    C5 1213   0.188   1.713   1.443 -0.0522 -0.7184 -0.0233
   78TMC2    C6 1214   0.175   1.728   1.310  0.1734 -0.0063 -0.2968
   78TMC2     C 1215   4.612   1.552   1.544  0.1100  0.0403 -0.5646
   78TMC2     O 1216   4.651   1.555   1.661  0.2937 -0.1588 -0.6216
   78TMC2     H 1217   4.590   1.635   1.285 -0.1673 -0.2687  0.9380
   78TMC2    H1 1218   0.109   1.649   1.622  2.7974 -1.5567 -0.8273
   78TMC2    H2 1219   0.252   1.762   1.243 -0.4639  0.2553 -0.8952
   78TMC2    C7 1220   0.330   1.687   1.473 -0.0985  0.4132 -0.5156
   78TMC2    C8 1221   0.049   1.721   1.112 -0.4055 -0.0776  0.6568
   78TMC2    O1 1222   0.417   1.692   1.384 -0.4917  0.4052  0.0857
   78TMC2    O2 1223   0.141   1.782   1.057 -0.8796 -0.2854 -0.5965
   78TMC2    O5 1224   4.710   1.623   1.046  0.7659  0.0767 -0.2980
   78TMC2    H5 1225   4.638   1.581   1.097  1.0718  0.8946  0.7999
   79MPD1     C 1226   4.177   1.286   1.631 -0.0304 -0.4694  0.7671
   79MPD1    C1 1227   4.284   1.314   1.714  0.3030 -0.0695 -0.0492
   79MPD1    C2 1228   4.388   1.397   1.667 -0.7712  0.0666 -0.4494
   79MPD1    C3 1229   4.392   1.439   1.542  0.0350  0.1176  0.1052
   79MPD1    C4 1230   4.291   1.402   1.456 -0.0138  0.2211  0.1079
   79MPD1    C5 1231   4.179   1.336   1.503  0.1908 -0.2405  0.2499
   79MPD1     H 1232   4.468   1.427   1.734  0.2261 -0.7073 -1.3017
   79MPD1    H1 1233   4.300   1.432   1.352 -0.4547  0.4057  0.1239
   79MPD1    H2 1234   4.085   1.231   1.652 -1.1963  0.3989 -2.0404
   79MPD1    H3 1235   4.106   1.312   1.427  2.2655 -4.7944 -0.2801
   79MPD1     N 1236   4.498   1.507   1.481  0.2064 -0.5190  0.1117
   79MPD1    H5 1237   4.500   1.514   1.380 -2.9155  1.7486  0.1912
   79MPD1    N1 1238   4.307   1.259   1.841 -0.6034 -0.1272  0.4326
   79MPD1    H6 1239   4.374   1.314   1.895 -1.7397  0.8442  0.8354
   79MPD1    H7 1240   4.227   1.231   1.896  0.1207  0.3802  1.7471
   80TMC2    C1 1241   2.075   0.423  11.739 -0.6007 -0.0139  0.1761
   80TMC2    C2 1242   2.177   0.397  11.654 -0.2352  0.0977  0.3080
   80TMC2    C3 1243   2.194   0.267  11.613 -0.1466 -0.0902  0.6442
   80TMC2    C4 1244   1.991   0.321  11.777 -0.5288  0.0757 -0.0220
   80TMC2    C5 1245   2.031   0.192  11.752  0.3534  0.4943 -1.2283
   80TMC2    C6 1246   2.131   0.161  11.669  0.0589 -0.0744  0.2222
   80TMC2     C 1247   2.031   0.559  11.744  0.3909  0.3924  0.3999
   80TMC2     O 1248   2.085   0.624  11.653 -0.9271 -0.0962  0.8784
   80TMC2     H 1249   2.246   0.471  11.616  0.3596  0.7831  2.6949
   80TMC2    H1 1250   1.913   0.336  11.851 -0.8634 -3.3704  0.3291
   80TMC2    H2 1251   2.145   0.061  11.629  0.6604  0.0715  0.0516
   80TMC2    C7 1252   1.963   0.083  11.813  0.3076  0.0129  0.3069
   80TMC2    C8 1253   2.267   0.238  11.490 -0.2879  0.3381  0.0489
   80TMC2    O1 1254   1.945   4.726  11.729  0.4594  0.0390  0.6356
   80TMC2    O2 1255   2.283   0.123  11.456  0.0232 -0.3162  0.6401
   80TMC2    O5 1256   2.255   0.337  11.401  0.2858  0.5985 -0.2806
   80TMC2    H5 1257   2.225   0.426  11.430  0.7406  0.6731 -0.0323
   81MPD2     C 1258   1.993   0.840  11.832  0.4649 -0.2074 -0.3693
   81MPD2    C1 1259   1.962   0.729  11.911  0.1728 -0.7954 -0.5446
   81MPD2    C2 1260   1.926   0.751  12.037  0.1520 -0.3400  0.1684
   81MPD2    C3 1261   1.923   0.876  12.091  0.6046 -0.4137 -0.9001
   81MPD2    C4 1262   1.953   0.982  12.011  0.2178  0.7558 -0.4917
   81MPD2    C5 1263   1.984   0.968  11.880  0.0914 -0.4563  0.2002
   81MPD2     H 1264   1.924   0.660  12.097  1.2197 -0.7581 -0.4282
   81MPD2    H1 1265   1.950   1.083  12.049  1.2026  0.7251 -0.3322
   81MPD2    H2 1266   2.021   0.829  11.727  0.5343  0.1911 -0.3930
   81MPD2    H3 1267   1.995   1.058  11.820 -1.9944  1.8919  3.3703
   81MPD2     N 1268   1.888   0.900  12.226  0.1643  0.1764  0.5542
   81MPD2    H5 1269   1.878   0.999  12.246  0.1847 -0.1273  2.0644
   81MPD2    N1 1270   1.981   0.593  11.867  0.1595 -1.2392 -0.3178
   81MPD2    H7 1271   1.962   0.523  11.938  1.8609 -0.0538  1.2979
   82TMC2    C1 1272   4.562   0.270  12.068  0.3802  0.0715 -0.9719
   82TMC2    C2 1273   4.614   0.395  12.052  0.2907 -0.1640  0.8865
   82TMC2    C3 1274   0.013   0.401  12.032  0.0439  1.3884  0.1585
   82TMC2    C4 1275   4.644   0.162  12.044 -0.2366 -0.7398  0.0753
   82TMC2    C5 1276   0.039   0.178  12.001 -0.1661 -0.4888  0.3730
   82TMC2    C6 1277   0.100   0.301  11.998 -0.2302 -0.1526  0.0429
   82TMC2     C 1278   4.420   0.260  12.029 -0.4749 -0.3385 -1.1419
   82TMC2     O 1279   4.359   0.352  11.979  0.0879  0.3878  0.4503
   82TMC2     H 1280   4.547   0.480  12.063  2.3100  1.5503 -0.2159
   82TMC2    H1 1281   4.601   0.063  12.045 -1.1493 -0.3123  3.0913
   82TMC2    H2 1282   0.207   0.305  11.983 -0.0087 -0.9796  1.3472
   82TMC2    C7 1283   0.109   0.061  11.954  0.0790 -0.7253 -0.0694
   82TMC2    C8 1284   0.072   0.535  12.034  0.0981 -0.2095  0.3507
   82TMC2    O1 1285   0.074   4.693  12.002 -0.6519 -0.3568  0.3591
   82TMC2    O2 1286   0.185   0.550  12.076  0.1328  0.2954 -0.0861
   82TMC2    O5 1287   4.734   0.628  11.972 -0.5106  0.8303  0.0356
   82TMC2    H5 1288   4.671   0.589  11.908  2.4086 -2.9629 -0.5449
   83MPD2     C 1289   4.136   4.639  11.799  0.3994  0.6078 -0.0332
   83MPD2    C1 1290   4.167   0.033  11.764 -0.0558  0.2041 -0.1859
   83MPD2    C2 1291   4.247   0.112  11.849  0.1957  0.1584 -0.0805
   83MPD2    C3 1292   4.279   0.061  11.973 -0.2751  0.4217  1.0964
   83MPD2    C4 1293   4.250   4.666  12.001 -0.7762 -0.3132 -0.3801
   83MPD2    C5 1294   4.185   4.581  11.913 -0.1298  0.2038 -0.5617
   83MPD2     H 1295   4.293   0.206  11.823  2.0298 -0.7602 -0.1457
   83MPD2    H1 1296   4.298   4.627  12.090  1.7647 -1.3366 -2.1988
   83MPD2    H2 1297   4.071   4.580  11.736  1.0961  0.1036 -0.2812
   83MPD2    H3 1298   4.174   4.479  11.948 -1.2782  0.1316 -1.1013
   83MPD2     N 1299   4.370   0.131  12.057 -0.3581 -0.2641 -0.6759
   83MPD2    H5 1300   4.418   0.078  12.129  2.8953 -0.3624 -2.8880
   83MPD2    N1 1301   4.125   0.072  11.635 -0.3307 -0.9023 -0.5604
   83MPD2    H7 1302   4.081   4.735  11.580  0.9096 -0.9106 -1.5491
   84TMC2    C1 1303   2.328   3.396  10.869  0.3632  0.4490  0.2235
   84TMC2    C2 1304   2.376   3.272  10.851  0.4073  0.3124  1.1797
   84TMC2    C3 1305   2.440   3.250  10.727  0.2432  0.0534  0.7106
   84TMC2    C4 1306   2.348   3.498  10.786 -0.0365 -0.3153  0.9545
   84TMC2    C5 1307   2.415   3.470  10.666  0.1017 -0.1375 -0.1150
   84TMC2    C6 1308   2.471   3.344  10.642  0.1476  0.2791 -0.1203
   84TMC2     C 1309   2.236   3.403  10.982  0.4288 -0.5169 -0.5040
   84TMC2     O 1310   2.272   3.341  11.081 -0.4519  0.2281  0.8229
   84TMC2     H 1311   2.376   3.199  10.931 -0.5216 -1.2104 -0.2060
   84TMC2    H1 1312   2.319   3.593  10.829 -1.0991  0.3505 -1.2074
   84TMC2    H2 1313   2.515   3.322  10.546  0.8051  1.0912 -0.0019
   84TMC2    C7 1314   2.436   3.562  10.562  0.5313  0.1913 -0.5433
   84TMC2    C8 1315   2.452   3.114  10.681  0.0510 -0.3275 -0.1023
   84TMC2    O1 1316   2.502   3.527  10.464 -0.3883  0.4954 -0.1067
   84TMC2    O2 1317   2.554   3.067  10.628 -0.3938  0.3233 -0.0807
   84TMC2    O5 1318   2.325   3.066  10.676 -0.1619 -0.2969 -0.2144
   84TMC2    H5 1319   2.258   3.131  10.705  0.0318 -0.3635  0.3693
   85TMC2    C1 1320   2.816   2.265  16.127  0.2489 -0.0081 -0.2115
   85TMC2    C2 1321   2.810   2.396  16.165 -0.4061  0.6085 -0.1200
   85TMC2    C3 1322   2.788   2.489  16.066 -0.2324 -0.3979 -0.3322
   85TMC2    C4 1323   2.779   2.237  16.001  0.1124 -0.5538  0.1526
   85TMC2    C5 1324   2.745   2.327  15.909  0.1664 -0.0887 -0.4039
   85TMC2    C6 1325   2.749   2.460  15.938  1.0318 -0.7722 -0.2937
   85TMC2     C 1326   2.806   2.163  16.238  0.1303  0.1440  0.1136
   85TMC2     O 1327   2.858   2.195  16.344 -0.0404 -0.1423 -0.4483
   85TMC2     H 1328   2.837   2.423  16.266  0.7514 -2.3654  0.3551
   85TMC2    H1 1329   2.780   2.135  15.963  0.0917  0.7079 -3.2541
   85TMC2    H2 1330   2.719   2.546  15.880  2.2725  0.4828  0.8954
   85TMC2    C7 1331   2.736   2.285  15.768  0.2685 -0.8091 -0.1713
   85TMC2    C8 1332   2.730   2.616  16.114 -0.1648  0.1490 -0.3773
   85TMC2    O1 1333   2.733   2.166  15.746  0.5040  0.2430  0.1009
   85TMC2    O2 1334   2.721   2.712  16.044 -0.3993 -0.7022  0.0835
   85TMC2    O5 1335   2.627   2.583  16.198  0.8219 -0.0252 -0.0493
   85TMC2    H5 1336   2.616   2.486  16.210  0.2448  0.2910  1.9448
   86MPD2     C 1337   2.552   1.790  16.469  0.7024 -0.0808  0.5618
   86MPD2    C1 1338   2.513   1.783  16.341  0.4386  0.0944  0.2402
   86MPD2    C2 1339   2.565   1.880  16.251  0.1431  0.0077 -0.1059
   86MPD2    C3 1340   2.657   1.976  16.300  0.4909 -0.2525 -0.3206
   86MPD2    C4 1341   2.692   1.975  16.436  0.5319 -0.4744 -0.3114
   86MPD2    C5 1342   2.651   1.873  16.510 -0.4999 -0.1974  0.4379
   86MPD2     H 1343   2.552   1.880  16.143 -2.5442  0.3008  0.2320
   86MPD2    H1 1344   2.751   2.053  16.482 -1.3743 -0.0415  1.3898
   86MPD2    H2 1345   2.512   1.722  16.543 -0.0520  0.6385  0.8173
   86MPD2    H3 1346   2.667   1.889  16.616 -0.7405 -0.5892  0.5336
   86MPD2     N 1347   2.708   2.073  16.213  0.6335  0.3666  0.0949
   86MPD2    H5 1348   2.666   2.081  16.121  2.9299  2.3566 -0.7750
   86MPD2    N1 1349   2.427   1.680  16.292  0.3058 -0.4714 -0.4254
   86MPD2    H7 1350   2.404   1.686  16.193 -1.1003  0.7925 -0.0277
   87TMC2    C1 1351   1.133   0.716   1.304 -0.1625 -0.1666  0.2911
   87TMC2    C2 1352   1.261   0.699   1.347 -0.3617  0.0645  0.1705
   87TMC2    C3 1353   1.290   0.746   1.475  0.5741  0.6536  1.1180
   87TMC2    C4 1354   1.032   0.777   1.369 -0.3528  0.7954 -0.1972
   87TMC2    C5 1355   1.073   0.831   1.483 -0.4332  0.5395 -0.0108
   87TMC2    C6 1356   1.196   0.818   1.543  0.1523  0.2198 -0.3769
   87TMC2     C 1357   1.112   0.660   1.168 -0.7588  0.4720 -1.2878
   87TMC2     O 1358   1.194   0.693   1.083 -0.6691  0.4138  0.5569
   87TMC2     H 1359   1.323   0.641   1.280 -1.1903 -2.0547  1.2368
   87TMC2    H1 1360   0.929   0.774   1.335  0.5664 -0.2785 -2.9020
   87TMC2    H2 1361   1.221   0.855   1.642 -1.7879 -1.8493  0.8993
   87TMC2    C7 1362   0.971   0.885   1.568  0.4584  0.1238  0.0823
   87TMC2    C8 1363   1.409   0.696   1.539  0.3088 -0.0611 -0.1002
   87TMC2    O1 1364   0.994   0.882   1.687 -0.1620 -0.2387  0.0932
   87TMC2    O2 1365   1.402   0.687   1.661  0.4298 -0.1772 -0.3142
   87TMC2    O5 1366   1.510   0.674   1.457 -0.2210 -0.3926 -0.2770
   87TMC2    H5 1367   1.503   0.713   1.367  0.1300  0.6762  0.1539
   88MPD2     C 1368   0.724   0.987   1.696 -0.0035 -0.0536 -0.3066
   88MPD2    C1 1369   0.756   1.005   1.563 -0.7021 -0.0394 -0.2127
   88MPD2    C2 1370   0.667   1.084   1.493  1.0071 -0.2312  0.5341
   88MPD2    C3 1371   0.563   1.149   1.555  0.4660 -0.1377 -0.4198
   88MPD2    C4 1372   0.541   1.138   1.691  0.4941 -0.7081 -0.3184
   88MPD2    C5 1373   0.628   1.061   1.760 -0.1674 -0.4938  0.1786
   88MPD2     H 1374   0.679   1.096   1.386 -1.0033  0.2589  0.3654
   88MPD2    H1 1375   0.465   1.190   1.749 -1.9224 -1.7605 -2.5267
   88MPD2    H2 1376   0.780   0.927   1.767 -2.1542 -3.3615 -1.3966
   88MPD2    H3 1377   0.607   1.052   1.866  0.5385 -1.3485  0.2444
   88MPD2     N 1378   0.486   1.232   1.470  0.1512  0.0541  0.9025
   88MPD2    H5 1379   0.500   1.231   1.370 -1.2382 -1.9959  0.7187
   88MPD2    N1 1380   0.868   0.948   1.498  0.7305  0.4354 -0.5710
   88MPD2    H7 1381   0.877   0.953   1.397 -0.6713  1.2953 -0.6445
   89TMC2    C1 1382   1.027   4.123   1.426  0.0917  0.1050  0.3640
   89TMC2    C2 1383   0.984   4.064   1.310  1.1441 -0.0735 -0.0104
   89TMC2    C3 1384   1.037   4.116   1.193 -0.2007 -0.5966 -0.0335
   89TMC2    C4 1385   1.123   4.226   1.432 -0.4321 -0.0957 -0.8150
   89TMC2    C5 1386   1.149   4.287   1.312  0.0812  0.3431  0.4292
   89TMC2    C6 1387   1.113   4.228   1.195 -0.5182 -0.2526 -0.3730
   89TMC2     C 1388   0.990   4.079   1.559  0.2482  0.2330  0.0159
   89TMC2     O 1389   0.976   4.152   1.656 -0.2484  0.3324  0.3666
   89TMC2     H 1390   0.915   3.981   1.304  0.3114  0.7689 -2.1984
   89TMC2    H1 1391   1.149   4.275   1.525  0.5943 -3.1198  0.4795
   89TMC2    H2 1392   1.128   4.286   1.105 -2.2622  0.7777 -0.0007
   89TMC2    C7 1393   1.262   4.378   1.309  0.1263  1.2044  0.0466
   89TMC2    C8 1394   0.954   4.087   1.076 -1.1606 -0.5342 -0.0959
   89TMC2    O1 1395   1.288   4.427   1.418  0.3402 -0.1806  0.1509
   89TMC2    O2 1396   0.832   4.080   1.076  0.4768  0.2550 -0.4172
   89TMC2    O5 1397   1.034   4.057   0.973 -0.4308  0.1802 -0.6876
   89TMC2    H5 1398   1.129   4.070   0.992 -0.3411 -1.6794  0.0601
   90MPD2     C 1399   0.877   3.710   1.880 -0.3558 -0.6947 -0.3026
   90MPD2    C1 1400   0.952   3.654   1.773 -0.1594  0.8237  0.1334
   90MPD2    C2 1401   0.985   3.738   1.668  0.3185 -0.1804 -0.0923
   90MPD2    C3 1402   0.949   3.871   1.667  0.4181 -0.6439  0.1010
   90MPD2    C4 1403   0.868   3.920   1.763  0.3494 -0.1580  0.6218
   90MPD2    C5 1404   0.837   3.842   1.877  0.0006 -0.7196  0.3315
   90MPD2     H 1405   1.039   3.695   1.585  0.2115 -0.1179 -0.1933
   90MPD2    H1 1406   0.824   4.019   1.761  2.0851  0.6413  2.6436
   90MPD2    H2 1407   0.845   3.659   1.970  0.5667 -0.6700  0.0352
   90MPD2    H3 1408   0.772   3.891   1.949 -0.3857  0.2854 -0.6885
   90MPD2     N 1409   0.984   3.944   1.558  0.1803  0.6615 -0.1407
   90MPD2    H5 1410   1.034   3.901   1.482 -2.5253 -0.3255 -1.3803
   90MPD2    N1 1411   1.007   3.519   1.764 -0.1097 -1.0814  0.4326
   90MPD2    H7 1412   1.071   3.505   1.687  0.5732 -1.3012  1.0465
   91TMC2    C1 1413   2.437   3.368  16.700  0.2960 -0.0569  0.2060
   91TMC2    C2 1414   2.472   3.405  16.823 -0.2201 -0.1486  0.0984
   91TMC2    C3 1415   2.382   3.451  16.912  0.1065  0.4675 -0.7473
   91TMC2    C4 1416   2.310   3.394  16.663  0.1202 -0.5031  0.1217
   91TMC2    C5 1417   2.215   3.446  16.749  0.7321  0.1798 -0.8277
   91TMC2    C6 1418   2.256   3.478  16.875 -0.2157  0.5559  0.6884
   91TMC2     C 1419   2.522   3.281  16.622  0.3229  0.4578  0.2686
   91TMC2     O 1420   2.465   3.229  16.530 -0.2036  0.1411  0.3968
   91TMC2     H 1421   2.575   3.403  16.855  0.1893 -1.4343 -1.3379
   91TMC2    H1 1422   2.276   3.358  16.566  0.2327 -0.2293 -0.0198
   91TMC2    H2 1423   2.186   3.514  16.950  0.0069  1.0533  0.6602
   91TMC2    C7 1424   2.103   3.355  16.752 -0.3114  0.2884  0.3106
   91TMC2    C8 1425   2.433   3.449  17.047 -0.2316 -0.9328  0.8859
   91TMC2    O1 1426   2.078   3.309  16.862  0.0482 -0.4855 -0.1037
   91TMC2    O2 1427   2.527   3.379  17.083 -0.3766  0.0257  0.2811
   91TMC2    O5 1428   2.367   3.543  17.120 -0.0597 -0.4228 -0.3588
   91TMC2    H5 1429   2.295   3.600  17.087 -1.0433 -0.9706  0.8275
   92MPD2     C 1430   2.717   3.073  16.533 -0.0853  0.2564  0.0999
   92MPD2    C1 1431   2.751   3.173  16.622 -0.4216  0.5187  0.9589
   92MPD2    C2 1432   2.873   3.164  16.684  0.0390  0.4554 -0.3912
   92MPD2    C3 1433   2.973   3.068  16.665 -0.1716  0.7749  0.2359
   92MPD2    C4 1434   2.933   2.977  16.565 -0.7709  0.1910  0.0677
   92MPD2    C5 1435   2.810   2.981  16.505 -0.6823 -0.2681 -0.1357
   92MPD2     H 1436   2.901   3.228  16.766  1.8615 -0.8312 -0.0046
   92MPD2    H1 1437   3.003   2.901  16.532 -1.3461  0.2832 -1.3770
   92MPD2    H2 1438   2.620   3.072  16.485 -0.5384  0.3811  1.0096
   92MPD2    H3 1439   2.795   2.902  16.433  2.2299 -1.8669  1.0579
   92MPD2     N 1440   3.091   3.072  16.748  0.1469  0.7140  0.5611
   92MPD2    H5 1441   3.091   3.142  16.822 -0.6310  1.0299  0.2647
   92MPD2    N1 1442   2.649   3.263  16.671  0.2254  0.3751  0.0688
   92MPD2    H7 1443   2.663   3.306  16.762  1.1299 -1.5527  0.8449
   93TMC2    C1 1444   4.519   2.899  14.420 -0.2313 -0.4178 -0.4824
   93TMC2    C2 1445   4.462   2.811  14.342 -0.0754 -0.1698  0.1938
   93TMC2    C3 1446   4.545   2.745  14.261  0.7171 -0.1191 -0.4752
   93TMC2    C4 1447   4.655   2.918  14.425  0.2593 -0.1491 -0.1832
   93TMC2    C5 1448   0.000   2.857  14.327  0.0785  0.3489  0.5628
   93TMC2    C6 1449   4.678   2.767  14.242 -0.2428  0.1236 -0.0080
   93TMC2     C 1450   4.436   2.991  14.493  0.2850  0.1272  0.1461
   93TMC2     O 1451   4.491   3.059  14.580 -0.2309 -0.4978  0.3506
   93TMC2     H 1452   4.358   2.783  14.354  0.6681 -2.9104  0.2693
   93TMC2    H1 1453   4.703   2.982  14.499  0.8486 -0.0796 -0.6218
   93TMC2    H2 1454   0.005   2.720  14.167  2.8175  1.8254  1.4824
   93TMC2    C7 1455   0.141   2.885  14.318 -0.0937 -0.1963  0.6218
   93TMC2    C8 1456   4.483   2.646  14.172 -0.0079  0.1251 -0.3541
   93TMC2    O1 1457   0.216   2.802  14.263 -0.1102  0.6174  0.5147
   93TMC2    O2 1458   4.360   2.638  14.167 -0.4812  0.7661  0.0876
   93TMC2    O5 1459   4.559   2.537  14.166 -0.3081  0.2537 -0.2105
   93TMC2    H5 1460   4.647   2.559  14.203  0.2698 -0.2680 -1.2647
   94MPD2     C 1461   4.209   3.158  14.609  0.6631  0.1821 -0.5669
   94MPD2    C1 1462   4.209   3.092  14.484  0.6526 -0.1927 -0.4014
   94MPD2    C2 1463   4.118   3.125  14.388  0.4922 -1.2689 -0.4456
   94MPD2    C3 1464   4.044   3.241  14.404  0.1443  0.5042 -0.2792
   94MPD2    C4 1465   4.042   3.297  14.527  0.5524 -0.2122 -0.1867
   94MPD2    C5 1466   4.124   3.260  14.626  1.6788 -0.5668 -0.0135
   94MPD2     H 1467   4.114   3.076  14.291 -2.5216  1.5132 -1.7008
   94MPD2    H1 1468   3.986   3.390  14.542  0.3641 -0.0124 -2.1137
   94MPD2    H2 1469   4.271   3.132  14.693  0.9497 -0.9764 -1.1369
   94MPD2    H3 1470   4.121   3.300  14.727 -0.3951 -0.0526 -0.2923
   94MPD2     N 1471   3.971   3.286  14.295 -0.6640 -0.0013  0.5546
   94MPD2    H5 1472   3.952   3.213  14.227 -0.1142  0.7564 -0.4073
   94MPD2    N1 1473   4.307   3.000  14.442 -0.5651 -0.2900  0.6019
   94MPD2    H7 1474   4.279   2.952  14.357 -2.3485  1.8187  0.0021
   95TMC2    C1 1475   4.397   0.564  15.925  0.4391 -0.6654 -0.1781
   95TMC2    C2 1476   4.317   0.453  15.916 -0.1190 -0.3604  0.7614
   95TMC2    C3 1477   4.190   0.465  15.970  0.1883  0.6754 -0.2240
   95TMC2    C4 1478   4.364   0.680  15.982 -0.7543  0.0514 -0.0458
   95TMC2    C5 1479   4.244   0.681  16.044 -0.5548 -0.0506  0.0396
   95TMC2    C6 1480   4.148   0.585  16.034  0.2578 -0.8200  0.0271
   95TMC2     C 1481   4.502   0.566  15.827 -0.5907 -0.7951 -0.3453
   95TMC2     O 1482   4.586   0.652  15.853 -0.0484 -0.0598  0.4880
   95TMC2     H 1483   4.358   0.358  15.881  1.9201  0.4892  0.8358
   95TMC2    H1 1484   4.427   0.767  15.991 -1.1292  0.2087  1.0820
   95TMC2    H2 1485   4.051   0.604  16.079  0.5125  1.4491 -0.3464
   95TMC2    C7 1486   4.192   0.811  16.062  0.0867  0.7154 -0.3683
   95TMC2    C8 1487   4.142   0.341  16.026 -0.0442  0.5036 -0.4045
   95TMC2    O1 1488   4.072   0.825  16.040  0.1191 -0.9395  0.1235
   95TMC2    O2 1489   4.181   0.234  15.990  0.4212  0.1274 -0.2329
   95TMC2    O5 1490   4.108   0.370  16.150  0.4262  0.0122  0.0770
   95TMC2    H5 1491   4.130   0.463  16.172  0.7169 -0.0914  0.2182
   96MPD2     C 1492   4.725   0.453  15.386 -0.0435 -0.2777  0.1162
   96MPD2    C1 1493   0.036   0.535  15.483  0.0945 -0.4187  0.7662
   96MPD2    C2 1494   4.685   0.554  15.592 -0.3060  0.2418  0.4483
   96MPD2    C3 1495   4.572   0.473  15.611 -0.6108 -0.4511  0.7565
   96MPD2    C4 1496   4.537   0.373  15.514 -0.9265  0.2905  0.7930
   96MPD2    C5 1497   4.613   0.378  15.400  0.3284 -0.3410 -0.1805
   96MPD2     H 1498   4.708   0.630  15.666  2.3183 -0.3857  0.2911
   96MPD2    H1 1499   4.453   0.307  15.532 -0.8504  0.2621  1.0377
   96MPD2    H2 1500   0.047   0.453  15.294  0.4986 -2.1461  0.4500
   96MPD2    H3 1501   4.579   0.304  15.328 -1.2223  0.8587 -0.6907
   96MPD2     N 1502   4.482   0.481  15.724  0.0011  0.0453 -0.0664
   96MPD2    H5 1503   4.400   0.423  15.716 -0.2085  0.1439  1.4685
   96MPD2    N1 1504   0.140   0.620  15.451  0.0547  0.0613 -0.2714
   96MPD2    H7 1505   0.167   0.607  15.354  0.2226 -1.6327  0.0060
   97TMC2    C1 1506   2.223   2.344   0.757  0.1154  0.3752  0.2961
   97TMC2    C2 1507   2.333   2.286   0.806 -0.4221  0.1357  0.6378
   97TMC2    C3 1508   2.458   2.330   0.765 -0.2220 -0.2580  0.1738
   97TMC2    C4 1509   2.234   2.444   0.660  0.0448  0.8531 -0.6218
   97TMC2    C5 1510   2.363   2.489   0.620  0.2729  0.3211 -0.2946
   97TMC2    C6 1511   2.477   2.435   0.674  0.7344 -0.1975 -0.3054
   97TMC2     C 1512   2.097   2.269   0.764  0.1791 -0.2353  0.0180
   97TMC2     O 1513   1.995   2.340   0.746  0.0559  0.0706  0.1111
   97TMC2     H 1514   2.329   2.205   0.878 -0.6004  1.4756  2.1267
   97TMC2    H1 1515   2.147   2.481   0.607 -1.0995  2.4608  2.3806
   97TMC2    H2 1516   2.578   2.460   0.644  0.4919 -0.3709 -1.2567
   97TMC2    C7 1517   2.395   2.594   0.519  0.0200  0.3267  0.4907
   97TMC2    C8 1518   2.576   2.252   0.820 -0.4034 -0.0785 -0.0540
   97TMC2    O1 1519   2.512   2.615   0.490 -0.4586 -0.2849  0.2033
   97TMC2    O2 1520   2.686   2.261   0.767 -0.1833 -0.2959  0.7954
   97TMC2    O5 1521   2.562   2.274   0.956  0.2726  0.5409  0.3700
   97TMC2    H5 1522   2.475   2.288   0.998  0.7654  0.3439  1.4598
   98MPD2     C 1523   1.799   1.849   0.782  0.1767  0.4906  0.1468
   98MPD2    C1 1524   1.773   1.981   0.806 -0.2341  0.4350  0.0458
   98MPD2    C2 1525   1.877   2.073   0.797  0.6193  0.3371 -0.3486
   98MPD2    C3 1526   2.007   2.036   0.787  0.3775 -0.8209 -0.5458
   98MPD2    C4 1527   2.044   1.903   0.778  0.1840  0.3280  0.5698
   98MPD2    C5 1528   1.932   1.812   0.774  0.3036 -0.0193 -0.0971
   98MPD2     H 1529   1.857   2.179   0.808  1.4630  0.6285 -1.6843
   98MPD2    H1 1530   2.150   1.878   0.786  0.7364  3.1507  2.0056
   98MPD2    H2 1531   1.721   1.773   0.789  1.9217 -1.2631  0.5276
   98MPD2    H3 1532   1.948   1.705   0.766 -0.5056 -0.1463 -0.0321
   98MPD2     N 1533   2.110   2.132   0.762 -0.4601 -0.0783  0.6071
   98MPD2    H5 1534   2.206   2.098   0.762  0.5877  2.8605 -2.1055
   98MPD2    N1 1535   1.639   2.013   0.802 -0.1120  0.2169 -0.7141
   98MPD2    H7 1536   1.570   1.941   0.782 -2.2678  1.8702  0.7176
   99TMC2    C1 1537   0.212   4.267   2.036 -0.3853 -0.5443 -0.1056
   99TMC2    C2 1538   0.199   4.220   2.164 -0.2544  0.0463  0.3991
   99TMC2    C3 1539   0.080   4.240   2.220 -1.3710  0.0691 -0.0283
   99TMC2    C4 1540   0.108   4.327   1.962 -0.4123  0.0387  0.0100
   99TMC2    C5 1541   4.724   4.344   2.031  0.5046 -0.2382 -0.5187
   99TMC2    C6 1542   4.714   4.303   2.163 -0.0728 -0.7841  0.0599
   99TMC2     C 1543   0.347   4.266   1.980 -0.6513 -0.1188  0.4643
   99TMC2     O 1544   0.438   4.247   2.062  0.2712 -0.5845 -0.0368
   99TMC2     H 1545   0.282   4.182   2.223  0.0015 -2.5546 -1.6025
   99TMC2    H1 1546   0.121   4.368   1.862 -0.1524  0.0854  0.0616
   99TMC2    H2 1547   4.615   4.318   2.205 -0.0296  0.9623 -0.4845
   99TMC2    C7 1548   4.606   4.376   1.953  0.0159  0.1032  0.4905
   99TMC2    C8 1549   0.072   4.223   2.363 -0.0439 -0.2950  0.5149
   99TMC2    O1 1550   4.522   4.437   2.016  0.3760  0.4032 -0.8157
   99TMC2    O2 1551   0.169   4.221   2.439  0.0735  0.4477  0.3181
   99TMC2    O5 1552   4.691   4.151   2.387  0.1254  0.1111 -0.0392
   99TMC2    H5 1553   4.640   4.135   2.305  1.2691 -0.3105 -0.6676
  100MPD2     C 1554   0.597   4.308   1.834 -0.3781  0.3605 -0.0867
  100MPD2    C1 1555   0.472   4.309   1.778  0.2332  0.0472 -0.1709
  100MPD2    C2 1556   0.458   4.325   1.634  0.1881  0.6153  0.2067
  100MPD2    C3 1557   0.565   4.353   1.556  0.0016  0.1640  0.0327
  100MPD2    C4 1558   0.693   4.358   1.617 -0.0791 -0.1794 -0.1931
  100MPD2    C5 1559   0.701   4.335   1.754  0.5166  0.4201 -0.5403
  100MPD2     H 1560   0.357   4.316   1.597  0.6388 -0.2451 -0.8369
  100MPD2    H1 1561   0.780   4.358   1.552  0.1199  2.2098  0.1017
  100MPD2    H2 1562   0.620   4.287   1.938 -2.9627  0.9247  0.6090
  100MPD2    H3 1563   0.797   4.340   1.804  0.9778  1.0611 -1.4781
  100MPD2     N 1564   0.550   4.364   1.418  0.7805 -0.1725 -0.1242
  100MPD2    H5 1565   0.458   4.346   1.378 -0.0244  0.7166  1.3226
  100MPD2    N1 1566   0.352   4.277   1.842 -0.0689 -0.0800  0.1627
  100MPD2    H7 1567   0.267   4.288   1.788  1.0132  3.5673 -0.7630
  101TMC2    C1 1568   1.074   0.163  13.004 -0.7241  0.9954  0.0400
  101TMC2    C2 1569   1.142   0.083  12.917  0.0006  0.1105  0.5218
  101TMC2    C3 1570   1.196   0.133  12.807  0.2626 -0.0727  0.3920
  101TMC2    C4 1571   1.064   0.300  12.986  0.0621 -0.3581  0.4267
  101TMC2    C5 1572   1.115   0.346  12.864  0.4474  0.6983  0.0283
  101TMC2    C6 1573   1.174   0.260  12.776  0.6684  0.1221 -0.8009
  101TMC2     C 1574   1.000   0.117  13.120 -0.1018  0.7773 -0.1097
  101TMC2     O 1575   0.919   0.191  13.172  0.1455 -0.0442 -0.0394
  101TMC2     H 1576   1.156   4.714  12.940  1.9750 -0.0464 -1.3512
  101TMC2    H1 1577   1.002   0.352  13.058  2.4460  0.1291  2.1231
  101TMC2    H2 1578   1.238   0.298  12.698  1.9931  1.8774  1.1154
  101TMC2    C7 1579   1.167   0.483  12.878  0.1416 -0.0356  0.2539
  101TMC2    C8 1580   1.257   0.040  12.711  0.0197  0.3509 -0.3057
  101TMC2    O1 1581   1.260   0.522  12.812  0.1131 -0.1038  0.3099
  101TMC2    O2 1582   1.303   4.667  12.757 -0.2006  0.4974 -0.4057
  101TMC2    O5 1583   1.225   0.080  12.587  0.0844 -0.1846  0.1801
  101TMC2    H5 1584   1.183   0.168  12.593  0.9168  0.1569  0.9970
  102MPD2     C 1585   1.025   4.512  13.283 -0.0406 -0.0063 -0.1349
  102MPD2    C1 1586   0.975   4.641  13.259  0.1707 -0.0789  0.4551
  102MPD2    C2 1587   0.878   4.688  13.330  0.9725 -0.1496 -0.3186
  102MPD2    C3 1588   0.851   4.629  13.453  0.0778  0.6688  0.6841
  102MPD2    C4 1589   0.897   4.506  13.485 -0.2457 -0.3227  0.0847
  102MPD2    C5 1590   0.982   4.444  13.392 -0.7457  0.7043  0.0376
  102MPD2     H 1591   0.825   0.044  13.305  0.6805 -0.6875 -1.6878
  102MPD2    H1 1592   0.871   4.462  13.581  2.7725  0.2713  1.1446
  102MPD2    H2 1593   1.107   4.477  13.223  0.9102 -1.6807  2.1323
  102MPD2    H3 1594   1.026   4.348  13.418  2.0985  2.0440  0.2388
  102MPD2     N 1595   0.764   4.706  13.541  0.0625  0.3187 -0.2016
  102MPD2    H5 1596   0.712   0.049  13.503  0.0384  0.0348 -0.7581
  102MPD2    N1 1597   1.033   4.720  13.153  0.0908 -0.0637  0.3605
  102MPD2    H7 1598   1.111   4.679  13.102 -1.0936 -1.3937 -0.3482
  103TMC2    C1 1599   3.831   1.195  12.555 -0.1120 -0.0733 -0.2767
  103TMC2    C2 1600   3.963   1.165  12.586 -0.0904  0.2379 -0.0550
  103TMC2    C3 1601   4.000   1.182  12.717  0.1598  0.1369 -0.6204
  103TMC2    C4 1602   3.740   1.238  12.655  0.3821  0.0397 -0.1175
  103TMC2    C5 1603   3.789   1.265  12.778 -0.1432  0.5246  0.3009
  103TMC2    C6 1604   3.921   1.240  12.808  0.0424  0.0655  0.2671
  103TMC2     C 1605   3.784   1.216  12.412  0.4609  0.8422 -0.0645
  103TMC2     O 1606   3.664   1.203  12.394  0.1227  0.2374  0.6850
  103TMC2     H 1607   4.034   1.112  12.524 -0.2758 -2.2329  1.8596
  103TMC2    H1 1608   3.641   1.264  12.621  0.3840 -0.3037 -0.3920
  103TMC2    H2 1609   3.956   1.250  12.910 -0.2026  2.4129  0.1083
  103TMC2    C7 1610   3.703   1.294  12.899 -0.6792 -0.3159  0.0940
  103TMC2    C8 1611   4.104   1.103  12.774 -0.2883 -0.5265 -0.4259
  103TMC2    O1 1612   3.751   1.263  13.008 -0.2254 -0.2995 -0.4726
  103TMC2    O2 1613   4.100   1.033  12.872 -0.4809 -0.0136 -0.5419
  103TMC2    O5 1614   4.202   1.104  12.682  0.2078  0.2327 -0.3391
  103TMC2    H5 1615   4.192   1.167  12.608 -1.0481  1.0340  0.5073
  104MPD2     C 1616   4.008   1.165  12.120  0.1358 -0.2543 -0.5182
  104MPD2    C1 1617   3.890   1.197  12.186  0.1521 -0.0268  0.4433
  104MPD2    C2 1618   3.781   1.246  12.115 -0.3454 -0.2670  0.4917
  104MPD2    C3 1619   3.786   1.236  11.977  0.4243  0.0058  0.0461
  104MPD2    C4 1620   3.896   1.188  11.909  0.3172 -0.2911  0.2597
  104MPD2    C5 1621   4.007   1.155  11.984 -0.7621  0.2172  0.0684
  104MPD2     H 1622   3.696   1.281  12.172 -1.1642 -1.0257 -0.2901
  104MPD2    H1 1623   3.904   1.175  11.801  1.5065  0.6674  0.2327
  104MPD2    H2 1624   4.093   1.128  12.176  2.3972  0.9979 -3.0953
  104MPD2    H3 1625   4.093   1.109  11.937  0.6151  3.3319 -0.4616
  104MPD2     N 1626   3.670   1.272  11.904  0.1633  0.3714  0.2072
  104MPD2    H5 1627   3.596   1.327  11.946  0.4261 -0.2635  1.5133
  104MPD2    N1 1628   3.891   1.203  12.323 -0.2202 -0.0954 -0.2668
  104MPD2    H7 1629   3.982   1.191  12.365  0.4580  1.9081 -1.1786
  105TMC2    C1 1630   1.125   0.430   0.239  1.0647 -0.2467 -0.1636
  105TMC2    C2 1631   1.139   0.562   0.219  0.2337  0.1115  0.4860
  105TMC2    C3 1632   1.102   0.648   0.318 -0.2578  0.0761  0.0064
  105TMC2    C4 1633   1.069   0.386   0.359  0.3021 -0.0549 -0.1772
  105TMC2    C5 1634   1.038   0.475   0.458  0.5485  0.1868 -0.2176
  105TMC2    C6 1635   1.041   0.606   0.439 -0.0156 -0.3588  0.4247
  105TMC2     C 1636   1.155   0.330   0.143  0.0527 -0.0540 -0.6453
  105TMC2     O 1637   1.132   0.217   0.180  0.0022 -0.1793  0.4266
  105TMC2     H 1638   1.206   0.606   0.147  1.2442 -0.8116  0.8598
  105TMC2    H1 1639   1.060   0.281   0.384  0.2525  0.4357  1.7895
  105TMC2    H2 1640   1.017   0.677   0.518 -1.4008 -0.7812  0.3776
  105TMC2    C7 1641   0.960   0.426   0.569 -0.4766  0.7810  0.2376
  105TMC2    C8 1642   1.065   0.783   0.272  0.2863  0.1792 -0.1360
  105TMC2    O1 1643   0.900   0.321   0.547  0.2193 -0.0575 -0.3142
  105TMC2    O2 1644   1.069   0.885   0.340 -0.3270 -0.9914 -0.0267
  105TMC2    O5 1645   0.985   0.756   0.171 -0.4108 -0.0741 -0.9564
  105TMC2    H5 1646   0.995   0.668   0.129 -1.9623 -0.5660 -0.2943
  106MPD2     C 1647   1.324   0.187  17.414 -0.3954 -0.1979  0.5007
  106MPD2    C1 1648   1.313   0.323  17.412 -0.9661 -0.4109 -0.0333
  106MPD2    C2 1649   1.265   0.383  17.530 -0.3899 -0.0318 -0.6220
  106MPD2    C3 1650   1.236   0.318  17.649  0.3826  0.3919  0.5885
  106MPD2    C4 1651   1.251   0.178  17.647 -0.8007 -0.2840 -0.6805
  106MPD2    C5 1652   1.297   0.119  17.528 -0.0843 -0.5035 -0.7469
  106MPD2     H 1653   1.266   0.491  17.523 -2.0600  0.0370  0.3824
  106MPD2    H1 1654   1.239   0.108  17.729 -1.0762  2.2281  1.4349
  106MPD2    H2 1655   1.317   0.129  17.323 -0.5053 -0.2073  0.5144
  106MPD2    H3 1656   1.299   0.012  17.518  0.4902 -0.3775 -1.9464
  106MPD2     N 1657   1.191   0.387   0.019 -0.3082 -0.0103 -0.5558
  106MPD2    H5 1658   1.192   0.487   0.002 -0.4835  0.0899  0.0274
  106MPD2    N1 1659   1.340   0.407  17.303  0.4508 -0.0391 -0.5741
  106MPD2    H7 1660   1.329   0.508  17.310  3.4323  0.1926  0.4893
  107TMC2    C1 1661   1.875   3.683  11.865  0.4356  0.8697  0.1386
  107TMC2    C2 1662   1.979   3.616  11.923  0.2608 -0.3734 -0.3919
  107TMC2    C3 1663   2.061   3.549  11.835 -0.0244  0.2625 -0.1908
  107TMC2    C4 1664   1.847   3.689  11.737  0.2809 -0.0452 -0.1475
  107TMC2    C5 1665   1.922   3.602  11.654  0.3309 -0.3687  1.0253
  107TMC2    C6 1666   2.031   3.534  11.703  0.6509 -0.0014  0.6245
  107TMC2     C 1667   1.808   3.780  11.956  0.0511 -0.0186 -0.7471
  107TMC2     O 1668   1.809   3.752  12.075  0.0638  0.3726 -0.3656
  107TMC2     H 1669   2.009   3.627  12.026 -0.2806  2.0049 -0.4829
  107TMC2    H1 1670   1.755   3.736  11.704  1.0239  1.5710  0.0347
  107TMC2    H2 1671   2.096   3.479  11.636  1.2522  0.5757  0.7355
  107TMC2    C7 1672   1.887   3.619  11.515  0.2694  0.3890 -0.0548
  107TMC2    C8 1673   2.181   3.492  11.888  1.1858 -0.2865  0.2454
  107TMC2    O1 1674   1.811   3.717  11.493 -0.8673  0.0553  0.5321
  107TMC2    O2 1675   2.190   3.368  11.890  0.0612  0.9639 -0.0774
  107TMC2    O5 1676   2.234   3.571  11.978 -0.1834 -0.0427 -0.8208
  107TMC2    H5 1677   2.221   3.665  11.957 -0.6758  0.4132  1.5372
  108MPD2     C 1678   1.669   4.103  11.876  0.6183  0.2396  0.8095
  108MPD2    C1 1679   1.687   3.990  11.951  1.0636 -0.5708  0.0524
  108MPD2    C2 1680   1.630   3.984  12.078 -0.3177  0.0084 -0.1943
  108MPD2    C3 1681   1.558   4.092  12.124 -1.2696  0.4947 -0.4449
  108MPD2    C4 1682   1.545   4.202  12.044 -0.0746 -0.0251 -0.6073
  108MPD2    C5 1683   1.599   4.206  11.923 -0.3180  0.4815  1.3994
  108MPD2     H 1684   1.644   3.901  12.147 -0.0060 -1.0144 -1.5015
  108MPD2    H1 1685   1.484   4.287  12.074  1.5436  1.9164 -2.8091
  108MPD2    H2 1686   1.716   4.113  11.779  1.1582 -1.4952  0.9001
  108MPD2    H3 1687   1.589   4.300  11.869 -2.3977  0.4542  1.7399
  108MPD2     N 1688   1.495   4.100  12.248  0.0611  0.2082 -0.3288
  108MPD2    H5 1689   1.475   4.196  12.273 -0.2417 -0.6312  2.6358
  108MPD2    N1 1690   1.768   3.895  11.894  0.3692  0.4174 -0.0451
  108MPD2    H7 1691   1.799   3.908  11.798  1.5300  2.8299  0.6489
  109TMC2    C1 1692   0.878   1.212   0.404  0.5452  0.5055 -1.0131
  109TMC2    C2 1693   0.781   1.199   0.306  1.0029  0.8348 -0.2689
  109TMC2    C3 1694   0.755   1.307   0.222  0.5345 -0.3561 -0.2167
  109TMC2    C4 1695   0.936   1.335   0.421 -0.4150 -0.1310 -0.2096
  109TMC2    C5 1696   0.906   1.444   0.342 -0.2089 -0.1789 -0.0314
  109TMC2    C6 1697   0.809   1.436   0.244  0.1918 -0.0401  0.1086
  109TMC2     C 1698   0.898   1.099   0.496 -0.3453  0.4190  0.4593
  109TMC2     O 1699   0.828   1.002   0.471 -0.2612 -0.0935  0.1820
  109TMC2     H 1700   0.743   1.099   0.284 -2.4411  2.2520 -0.7587
  109TMC2    H1 1701   1.023   1.337   0.485 -0.0963  3.2650 -0.7048
  109TMC2    H2 1702   0.777   1.517   0.180 -0.6220 -0.6002 -0.1992
  109TMC2    C7 1703   0.988   1.564   0.353  0.1354  0.4753  0.3933
  109TMC2    C8 1704   0.659   1.288   0.124  0.1309  0.5335  0.1763
  109TMC2    O1 1705   1.056   1.577   0.455  0.1585 -0.6216 -0.1956
  109TMC2    O2 1706   0.574   1.198   0.128  0.2918 -0.0778 -0.8109
  109TMC2    O5 1707   0.672   1.380   0.024 -0.9009  0.4664  0.3205
  109TMC2    H5 1708   0.759   1.425   0.032 -0.4850 -0.6014  1.7028
  110MPD2     C 1709   0.920   0.969   0.998 -0.1749  0.4462  0.5069
  110MPD2    C1 1710   0.991   1.085   0.972  0.4277 -0.8835 -0.3853
  110MPD2    C2 1711   1.018   1.126   0.845 -0.2277  0.0709 -0.3072
  110MPD2    C3 1712   0.965   1.061   0.738 -0.3912 -0.9400  0.1335
  110MPD2    C4 1713   0.900   0.944   0.756  1.1771 -0.1844  0.0021
  110MPD2    C5 1714   0.889   0.897   0.884 -0.0017 -0.2048 -0.6811
  110MPD2     H 1715   1.048   1.229   0.829 -2.4180  0.7068 -0.2086
  110MPD2    H1 1716   0.856   0.894   0.671  1.3878  2.4695 -1.6672
  110MPD2    H2 1717   0.898   0.932   1.098 -0.3554  3.1136  1.4472
  110MPD2    H3 1718   0.838   0.802   0.894 -1.1647  0.3164 -1.6786
  110MPD2     N 1719   0.965   1.137   0.613  0.2355  0.8489  0.0437
  110MPD2    H5 1720   0.997   1.233   0.620  3.4318 -0.3512  1.7599
  110MPD2    N1 1721   1.037   1.174   1.076 -0.7586 -0.4129 -0.2857
  110MPD2    H7 1722   1.075   1.264   1.046 -2.7186 -0.1970 -2.1497
  111TMC2    C1 1723   1.064   1.967  12.350  0.4796  0.0318  0.3437
  111TMC2    C2 1724   0.956   1.991  12.433 -0.2943 -0.2967 -0.3424
  111TMC2    C3 1725   0.960   1.943  12.563 -0.2647 -1.2700  0.0080
  111TMC2    C4 1726   1.169   1.894  12.391 -0.6339 -0.1911  1.6378
  111TMC2    C5 1727   1.167   1.850  12.520 -0.9276  0.1325  0.0679
  111TMC2    C6 1728   1.067   1.873  12.607  0.2098  0.5745  0.3225
  111TMC2     C 1729   1.040   1.938  12.212 -0.2030 -0.0688 -0.1362
  111TMC2     O 1730   1.124   1.965  12.125  0.4104 -0.4676 -0.3367
  111TMC2     H 1731   0.874   2.051  12.396  0.0927  0.6710  0.3795
  111TMC2    H1 1732   1.238   1.861  12.313  0.5281  1.4601  1.9727
  111TMC2    H2 1733   1.080   1.842  12.711  1.8994 -2.0650 -0.6781
  111TMC2    C7 1734   1.265   1.758  12.560  0.6616 -0.5564  0.0875
  111TMC2    C8 1735   0.863   1.979  12.661  0.2685 -0.5625  0.1547
  111TMC2    O1 1736   1.234   1.674  12.641 -0.8065 -0.0314  1.0269
  111TMC2    O2 1737   0.868   1.966  12.782  0.0844 -0.0398 -0.0470
  111TMC2    O5 1738   0.749   1.999  12.586  0.0533  0.3924 -0.0413
  111TMC2    H5 1739   0.762   1.963  12.496 -1.5148  1.9228 -0.8732
  112MPD2     C 1740   0.733   1.762  11.840  0.1060 -0.1080  0.2001
  112MPD2    C1 1741   0.833   1.856  11.841 -0.4635  0.3991 -0.1222
  112MPD2    C2 1742   0.895   1.889  11.959 -0.1040  0.3743 -0.3034
  112MPD2    C3 1743   0.860   1.832  12.084  0.1354  0.3364  0.7102
  112MPD2    C4 1744   0.753   1.743  12.078  0.2384 -0.8729  0.0585
  112MPD2    C5 1745   0.691   1.701  11.962 -0.4591 -0.0834 -0.4722
  112MPD2     H 1746   0.975   1.961  11.947 -0.4257  0.7634 -0.0912
  112MPD2    H1 1747   0.707   1.705  12.168  0.8433 -1.8447 -0.0460
  112MPD2    H2 1748   0.670   1.735  11.756 -0.4492 -0.1514  0.6317
  112MPD2    H3 1749   0.607   1.633  11.966 -0.8490  0.5660  2.2153
  112MPD2     N 1750   0.931   1.862  12.203  0.0537 -0.1030 -0.2466
  112MPD2    H5 1751   0.886   1.839  12.291 -0.8493 -1.8299 -1.1515
  112MPD2    N1 1752   0.864   1.931  11.727  0.1804  0.4052 -0.1521
  112MPD2    H7 1753   0.927   2.008  11.745  2.1663 -0.7652 -2.1682
  113TMC2    C1 1754   4.608   4.442   0.591 -0.2545  0.7951  0.2463
  113TMC2    C2 1755   4.614   4.558   0.521 -0.0701  0.6440  0.1040
  113TMC2    C3 1756   4.513   4.584   0.436 -0.8383 -0.2191 -0.4329
  113TMC2    C4 1757   4.499   4.353   0.575  0.3683  0.4235 -0.1879
  113TMC2    C5 1758   4.404   4.390   0.486 -0.0797  0.0552 -0.9175
  113TMC2    C6 1759   4.406   4.505   0.412 -0.0104 -0.5483  0.7018
  113TMC2     C 1760   4.702   4.427   0.703  0.0864 -0.0438  0.2110
  113TMC2     O 1761   4.734   4.533   0.750 -0.2413  0.0933  0.1904
  113TMC2     H 1762   4.691   4.632   0.537 -0.1357  0.5496  0.8356
  113TMC2    H1 1763   4.500   4.256   0.623 -0.4636  0.2836 -0.4601
  113TMC2    H2 1764   4.322   4.544   0.356  1.8304  1.4318 -0.6288
  113TMC2    C7 1765   4.321   4.286   0.428  0.0828 -0.0731  0.1660
  113TMC2    C8 1766   4.517   4.699   0.352 -0.5888 -0.0645 -0.6988
  113TMC2    O1 1767   4.285   4.305   0.315  0.1686  0.4771 -0.1368
  113TMC2    O2 1768   4.561   0.073   0.380  0.4010 -0.1961 -0.1131
  113TMC2    O5 1769   4.476   4.652   0.234  0.4798 -0.9733  0.2655
  113TMC2    H5 1770   4.495   4.555   0.232  2.0567 -0.6147 -2.5603
  114MPD2     C 1771   0.227   4.221   1.078  0.1018 -0.3644  0.1504
  114MPD2    C1 1772   0.140   4.327   1.077 -0.0804  0.0040  0.4613
  114MPD2    C2 1773   0.066   4.342   0.960 -0.6651  0.2606 -0.2403
  114MPD2    C3 1774   0.080   4.264   0.849  0.5385  0.1132  0.4248
  114MPD2    C4 1775   0.162   4.156   0.854 -0.0410  0.5242  0.4886
  114MPD2    C5 1776   0.235   4.137   0.966 -0.6059  0.0526 -0.3117
  114MPD2     H 1777   4.735   4.427   0.956 -0.5180  0.1825 -3.7288
  114MPD2    H1 1778   0.168   4.094   0.766 -1.5965 -0.7091  1.2450
  114MPD2    H2 1779   0.287   4.208   1.168 -0.4127  1.9855  0.8096
  114MPD2    H3 1780   0.306   4.056   0.975 -0.3178 -0.0291 -3.6046
  114MPD2     N 1781   0.001   4.294   0.735 -0.4837  0.1649  0.0615
  114MPD2    H5 1782   4.732   4.225   0.661 -1.7604 -0.1207  0.4094
  114MPD2    N1 1783   0.113   4.407   1.190  0.1428 -0.3752 -0.8676
  114MPD2    H7 1784   0.037   4.472   1.172 -0.7041 -1.2612 -0.4354
  115TMC2    C1 1785   0.783   2.376   0.051  0.5444  0.8934 -0.1103
  115TMC2    C2 1786   0.919   2.402   0.063  0.5295 -1.0216  0.4960
  115TMC2    C3 1787   0.951   2.534   0.081  0.1050  0.1572  0.5838
  115TMC2    C4 1788   0.684   2.474   0.046  0.0680 -0.3402  0.5344
  115TMC2    C5 1789   0.730   2.604   0.060 -0.1423 -0.0258  0.3651
  115TMC2    C6 1790   0.861   2.642   0.073  0.5880 -0.2426  0.1241
  115TMC2     C 1791   0.750   2.242   0.015 -0.5163  0.1078 -0.7558
  115TMC2     O 1792   0.844   2.166  17.734  0.2437  0.4071  0.4307
  115TMC2     H 1793   0.996   2.327   0.071 -0.8748 -2.4463  0.7367
  115TMC2    H1 1794   0.584   2.453   0.083 -0.6059  0.2006 -0.9728
  115TMC2    H2 1795   0.897   2.743   0.084  1.5326 -0.6593  0.8195
  115TMC2    C7 1796   0.635   2.701   0.031  0.0689  0.0985 -0.1515
  115TMC2    C8 1797   1.091   2.558   0.086  1.0377  0.6064 -0.6995
  115TMC2    O1 1798   0.517   2.673   0.021 -0.0618 -0.2616 -0.1814
  115TMC2    O2 1799   1.167   2.461   0.091 -0.0453  0.3723  0.5510
  115TMC2    O5 1800   1.131   2.686   0.046 -0.0576 -0.2130  0.3688
  115TMC2    H5 1801   1.075   2.720  17.715  0.7647 -2.6076 -1.4108
  116MPD2     C 1802   0.386   1.920  17.604 -0.3633 -0.0852 -0.8275
  116MPD2    C1 1803   0.522   1.912  17.593  0.2442 -0.8453 -0.2290
  116MPD2    C2 1804   0.606   2.003  17.647 -0.0170  0.3695 -0.1452
  116MPD2    C3 1805   0.544   2.118  17.691  0.2544  0.1947 -0.4024
  116MPD2    C4 1806   0.407   2.128  17.705  0.2252 -0.4302 -0.0519
  116MPD2    C5 1807   0.328   2.029  17.665  0.0861 -0.1137 -0.6131
  116MPD2     H 1808   0.714   1.997  17.654  0.0221  0.1765 -0.9940
  116MPD2    H1 1809   0.360   2.216   0.006  0.7264 -1.1369  1.9764
  116MPD2    H2 1810   0.323   1.848  17.553 -0.5519 -1.6668  1.6608
  116MPD2    H3 1811   0.221   2.046  17.658  0.1398  0.0870 -0.9725
  116MPD2     N 1812   0.615   2.234  17.729  0.0863  0.8397  0.0542
  116MPD2    H5 1813   0.552   2.310   0.008  0.1201  0.3672  1.8571
  116MPD2    N1 1814   0.574   1.797  17.529  0.0378 -0.0930 -0.1082
  116MPD2    H7 1815   0.506   1.728  17.497 -0.7731  0.7698 -0.2288
  117TMC2    C1 1816   3.728   3.768  14.276 -0.5115  0.0436 -0.5481
  117TMC2    C2 1817   3.755   3.700  14.392 -0.2816 -0.2438  0.2393
  117TMC2    C3 1818   3.860   3.744  14.470 -0.1185  0.0017 -0.3434
  117TMC2    C4 1819   3.793   3.879  14.237  0.1834 -0.3395 -0.5464
  117TMC2    C5 1820   3.893   3.915  14.317 -0.4016 -0.5081  0.2160
  117TMC2    C6 1821   3.941   3.854  14.431 -0.2974  0.1839 -0.3030
  117TMC2     C 1822   3.625   3.710  14.203 -0.3259 -0.5876  0.2486
  117TMC2     O 1823   3.600   3.594  14.219  0.3754 -0.6299  0.1692
  117TMC2     H 1824   3.698   3.616  14.430  1.0442 -1.0983  0.3328
  117TMC2    H1 1825   3.786   3.933  14.143 -1.9978  0.5826  0.1349
  117TMC2    H2 1826   4.011   3.902  14.498  1.7016 -0.5231 -1.8591
  117TMC2    C7 1827   3.984   4.022  14.270 -0.4393  0.4888  1.0278
  117TMC2    C8 1828   3.907   3.673  14.581 -0.8162  0.4612  0.2876
  117TMC2    O1 1829   3.937   4.104  14.187 -0.1446 -0.4271  0.3472
  117TMC2    O2 1830   3.834   3.587  14.631 -0.0146 -0.2463  0.2721
  117TMC2    O5 1831   3.983   3.759  14.659 -0.2864  0.1086  0.0181
  117TMC2    H5 1832   4.054   3.808  14.613 -0.7674  2.0125  1.3120
  118MPD2     C 1833   4.346   4.062  14.326  0.2071 -0.7522  0.0603
  118MPD2    C1 1834   4.220   4.102  14.295  0.6082  0.8107  0.0145
  118MPD2    C2 1835   4.206   4.229  14.234 -0.0598  0.4711  0.3277
  118MPD2    C3 1836   4.317   4.311  14.218  0.4308 -0.1783 -0.6752
  118MPD2    C4 1837   4.446   4.272  14.265  0.1139 -0.1252  0.5865
  118MPD2    C5 1838   4.452   4.149  14.323 -0.4382  0.3772 -0.6008
  118MPD2     H 1839   4.109   4.262  14.199  0.1300 -0.7356 -1.3481
  118MPD2    H1 1840   4.537   4.329  14.250 -0.0006  0.0496  0.5690
  118MPD2    H2 1841   4.362   3.957  14.349 -0.8889 -0.3361  2.6947
  118MPD2    H3 1842   4.551   4.112  14.346 -0.4062 -0.4436 -2.0632
  118MPD2     N 1843   4.308   4.444  14.170 -0.7820  0.2201 -0.2036
  118MPD2    H5 1844   4.396   4.495  14.164  0.1063 -1.2096  0.6344
  118MPD2    N1 1845   4.111   4.014  14.318 -0.0804  0.2349 -0.2591
  118MPD2    H7 1846   4.137   3.935  14.376 -0.1337 -1.9561 -3.1961
  119TMC2    C1 1847   1.702   0.319  13.296 -0.0665  0.9966  0.5599
  119TMC2    C2 1848   1.794   0.274  13.205 -0.4698  0.2229  0.5322
  119TMC2    C3 1849   1.793   0.143  13.164  0.1616  0.2126  0.2137
  119TMC2    C4 1850   1.614   0.231  13.354  0.2085  0.7306 -0.1831
  119TMC2    C5 1851   1.607   0.103  13.303 -0.0240  0.6572  0.5102
  119TMC2    C6 1852   1.690   0.060  13.203 -0.4701  0.8353 -0.2786
  119TMC2     C 1853   1.673   0.460  13.313  1.1169  0.0715 -0.2987
  119TMC2     O 1854   1.582   0.484  13.391  0.5862  0.0758 -0.1348
  119TMC2     H 1855   1.870   0.336  13.158  0.4698  0.2130  2.0578
  119TMC2    H1 1856   1.542   0.269  13.427 -0.1787 -2.0295  0.8647
  119TMC2    H2 1857   1.681   4.696  13.162 -0.6407  1.1643 -1.0373
  119TMC2    C7 1858   1.536   0.005  13.370 -0.4762  0.5159  0.3385
  119TMC2    C8 1859   1.894   0.104  13.069  0.5374  0.1376  0.0289
  119TMC2    O1 1860   1.515   4.647  13.296 -0.0883 -0.4973 -0.2048
  119TMC2    O2 1861   1.913   0.172  12.968  0.4708  0.3708  0.9852
  119TMC2    O5 1862   1.908   4.706  13.082 -0.0582  0.1665 -0.4579
  119TMC2    H5 1863   1.878   4.674  13.170  0.7631  0.7928  0.0546
  120MPD2     C 1864   1.712   0.970  13.273 -0.2039 -0.5091 -0.1743
  120MPD2    C1 1865   1.619   0.891  13.333 -0.0996  0.1275  0.2075
  120MPD2    C2 1866   1.642   0.755  13.319 -0.4603  0.6164  0.3044
  120MPD2    C3 1867   1.752   0.692  13.259 -0.0921  0.0589 -0.0839
  120MPD2    C4 1868   1.844   0.777  13.203  0.5086  0.1673 -0.2780
  120MPD2    C5 1869   1.822   0.909  13.213  0.0079  0.0293 -0.3728
  120MPD2     H 1870   1.566   0.689  13.357 -0.9632  0.8150 -0.3640
  120MPD2    H1 1871   1.935   0.740  13.157  0.0834 -1.8984  0.5143
  120MPD2    H2 1872   1.691   1.075  13.258 -1.4988 -0.7074  0.1888
  120MPD2    H3 1873   1.894   0.970  13.159  3.1184 -2.2026  1.3117
  120MPD2     N 1874   1.765   0.546  13.253 -0.1948  0.0792  0.1723
  120MPD2    H5 1875   1.851   0.512  13.210 -1.3288 -0.8050 -1.3817
  120MPD2    N1 1876   1.516   0.952  13.405  0.1711  0.0306 -0.1932
  120MPD2    H7 1877   1.505   1.050  13.379  1.1658  0.1215 -0.2616
  121TMC2    C1 1878   3.558   1.740  14.224 -0.4162 -0.5155 -0.6594
  121TMC2    C2 1879   3.642   1.660  14.293  0.2994  0.7061 -0.1959
  121TMC2    C3 1880   3.597   1.534  14.319 -0.1393  0.4670 -0.0535
  121TMC2    C4 1881   3.438   1.693  14.183 -1.0260  0.0280 -0.5732
  121TMC2    C5 1882   3.399   1.574  14.215 -0.5374  0.5118  0.0044
  121TMC2    C6 1883   3.482   1.484  14.275 -0.5455  0.1996  0.0078
  121TMC2     C 1884   3.590   1.880  14.214 -0.5041  0.4709  0.3390
  121TMC2     O 1885   3.651   1.924  14.314  0.3462  0.1724 -0.2682
  121TMC2     H 1886   3.732   1.697  14.339 -0.0941  1.0976  0.2580
  121TMC2    H1 1887   3.372   1.753  14.121 -1.5315 -0.4797 -0.5247
  121TMC2    H2 1888   3.444   1.389  14.311 -0.6193 -0.2658 -1.3056
  121TMC2    C7 1889   3.273   1.519  14.162 -0.4013  0.2236  0.3349
  121TMC2    C8 1890   3.666   1.460  14.416  0.1068 -0.0902 -0.3243
  121TMC2    O1 1891   3.274   1.397  14.146 -0.1977 -0.1535  0.1304
  121TMC2    O2 1892   3.746   1.503  14.501 -0.2449  0.5221 -0.2088
  121TMC2    O5 1893   3.688   1.345  14.348 -0.2146  0.3973  0.2906
  121TMC2    H5 1894   3.656   1.348  14.255  0.8136  1.6122 -0.0243
  122MPD2     C 1895   3.638   2.165  14.124  0.2043 -0.1148  0.7541
  122MPD2    C1 1896   3.588   2.068  14.049  0.4102  0.7452  0.7430
  122MPD2    C2 1897   3.563   2.093  13.909  0.1395  0.3698 -0.0295
  122MPD2    C3 1898   3.584   2.221  13.855  0.2869 -0.5253 -0.0313
  122MPD2    C4 1899   3.610   2.319  13.942  0.3163 -0.0505 -0.5562
  122MPD2    C5 1900   3.642   2.290  14.071 -0.6982  0.1991 -0.1758
  122MPD2     H 1901   3.505   2.026  13.848 -0.6984  0.0025  1.1788
  122MPD2    H1 1902   3.636   2.415  13.899 -2.7652  0.2561 -1.7246
  122MPD2    H2 1903   3.652   2.151  14.231  0.6312 -3.0266  0.3056
  122MPD2    H3 1904   3.659   2.378  14.133  1.8554 -0.2056 -0.2901
  122MPD2     N 1905   3.562   2.256  13.717  0.0646  0.2117  0.7333
  122MPD2    H5 1906   3.592   2.349  13.690  1.1405 -0.2915  0.2298
  122MPD2    N1 1907   3.562   1.932  14.090  1.0623  0.0168  0.6422
  122MPD2    H7 1908   3.531   1.867  14.018  3.0345 -0.4643  0.2208
  123TMC2    C1 1909   1.633   0.704  11.093  1.0778  0.0775 -0.7436
  123TMC2    C2 1910   1.564   0.811  11.139  0.6479  0.1004  0.1611
  123TMC2    C3 1911   1.605   0.935  11.094  0.6010  0.2194  0.3139
  123TMC2    C4 1912   1.733   0.715  10.999 -0.6476  0.0177  0.0661
  123TMC2    C5 1913   1.773   0.842  10.963  0.0511 -0.4826  0.0122
  123TMC2    C6 1914   1.712   0.956  11.012 -0.3914  0.3093  0.7299
  123TMC2     C 1915   1.601   0.577  11.158 -0.2982  0.4926  0.1534
  123TMC2     O 1916   1.549   0.590  11.268  0.6525 -0.0413  0.3698
  123TMC2     H 1917   1.469   0.797  11.189  0.6279 -1.0264 -0.1795
  123TMC2    H1 1918   1.804   0.637  10.974  0.4525  0.6683  1.1988
  123TMC2    H2 1919   1.724   1.048  10.957  1.1632  0.0455  0.6521
  123TMC2    C7 1920   1.873   0.864  10.864 -0.9007 -0.7014  0.1874
  123TMC2    C8 1921   1.498   1.029  11.100 -0.6850  0.2577 -0.1094
  123TMC2    O1 1922   1.931   0.972  10.876  0.2138 -1.0363 -0.5008
  123TMC2    O2 1923   1.381   1.008  11.078  0.6832  0.1717 -0.0484
  123TMC2    O5 1924   1.548   1.136  11.168  0.1815  0.2374  0.2624
  123TMC2    H5 1925   1.645   1.125  11.159  0.5568  3.0688  0.7832
  124MPD2     C 1926   1.604   0.067  11.172  0.1970  0.1926  0.3269
  124MPD2    C1 1927   1.643   0.106  11.047  0.2893  0.7906  0.0060
  124MPD2    C2 1928   1.669   0.237  11.019 -0.2782  0.1223 -0.8221
  124MPD2    C3 1929   1.626   0.332  11.114 -0.9329  0.3340 -0.2277
  124MPD2    C4 1930   1.579   0.285  11.236 -0.1929  0.2985 -0.6457
  124MPD2    C5 1931   1.582   0.155  11.271  1.1058  0.6042  0.4812
  124MPD2     H 1932   1.691   0.277  10.921 -1.8757 -2.1478 -2.1141
  124MPD2    H1 1933   1.555   0.355  11.315 -1.3741  1.5970 -2.1554
  124MPD2    H2 1934   1.592   4.697  11.194  0.6662 -0.2936 -1.6743
  124MPD2    H3 1935   1.560   0.113  11.369  2.1878 -0.2587  0.3638
  124MPD2     N 1936   1.633   0.471  11.080 -0.0636 -0.3252 -0.7820
  124MPD2    H5 1937   1.660   0.494  10.985 -0.2271 -0.7738 -0.9377
  124MPD2    N1 1938   1.653   0.012  10.944  0.3043 -0.3915 -0.5163
  124MPD2    H7 1939   1.605   4.659  10.959  0.9285 -0.6926 -0.3018
  125TMC2    C1 1940   2.496   1.732   9.967 -0.3476  0.1652 -0.2985
  125TMC2    C2 1941   2.469   1.849   9.895 -0.2802  0.3800 -0.7165
  125TMC2    C3 1942   2.575   1.909   9.833  0.0350  0.1896 -0.1445
  125TMC2    C4 1943   2.626   1.679   9.973  0.0568  0.6650  0.7054
  125TMC2    C5 1944   2.728   1.739   9.906  1.0866  0.0798 -0.2216
  125TMC2    C6 1945   2.700   1.853   9.835  1.2161 -0.3598  0.0390
  125TMC2     C 1946   2.388   1.664  10.032  0.0106 -0.0092  0.2513
  125TMC2     O 1947   2.277   1.692   9.991 -0.2089  0.0321 -0.9642
  125TMC2     H 1948   2.367   1.885   9.886  0.5979  2.9288 -0.4755
  125TMC2    H1 1949   2.638   1.589  10.033  0.5204 -0.2090 -0.6931
  125TMC2    H2 1950   2.778   1.908   9.784  1.9035 -1.6878 -0.3184
  125TMC2    C7 1951   2.862   1.690   9.911  0.1605  0.3358  0.4322
  125TMC2    C8 1952   2.563   2.040   9.775 -0.3297 -0.0606  0.2364
  125TMC2    O1 1953   2.894   1.608   9.999 -0.1668 -0.4004  0.1930
  125TMC2    O2 1954   2.646   2.091   9.702 -0.2844 -0.0024 -0.1037
  125TMC2    O5 1955   2.446   2.099   9.811  0.2113  0.1308 -0.2219
  125TMC2    H5 1956   2.398   2.051   9.882  2.4430  0.2631  1.3929
  126MPD1     C 1957   2.159   1.334  10.348 -0.1787  0.3684  0.3603
  126MPD1    C1 1958   2.287   1.356  10.397  0.6170 -0.4637 -0.5906
  126MPD1    C2 1959   2.369   1.439  10.319  0.0521  0.2516 -0.1115
  126MPD1    C3 1960   2.318   1.504  10.209 -0.2533  0.5147 -0.2627
  126MPD1    C4 1961   2.186   1.495  10.174 -0.6102 -0.0301  0.4881
  126MPD1    C5 1962   2.111   1.400  10.242  0.2169 -0.3622  0.4184
  126MPD1     H 1963   2.469   1.467  10.353  0.8674  0.2503 -2.4971
  126MPD1    H1 1964   2.139   1.547  10.092 -0.4789 -1.7950 -0.7131
  126MPD1    H2 1965   2.083   1.274  10.396 -0.1199  2.0067  2.5298
  126MPD1    H3 1966   2.008   1.386  10.215 -0.2700  2.5346  0.7536
  126MPD1     N 1967   2.422   1.582  10.138 -0.0999  0.3020  0.2178
  126MPD1    H5 1968   2.517   1.580  10.173  0.0641 -0.4605 -0.2786
  126MPD1    N1 1969   2.341   1.282  10.498 -0.2027  0.1073 -0.2773
  126MPD1    H6 1970   2.430   1.321  10.528 -0.2741 -0.3963  0.5965
  126MPD1    H7 1971   2.282   1.275  10.580  0.2502  2.1331  0.2229
  127TMC2    C1 1972   3.844   0.528   9.785 -0.2939 -0.2334 -0.4819
  127TMC2    C2 1973   3.886   0.481   9.910  0.6126 -0.0761 -0.1148
  127TMC2    C3 1974   3.803   0.393   9.978 -0.2713  0.0728 -0.6532
  127TMC2    C4 1975   3.715   0.503   9.743  0.6844 -0.3400 -0.6166
  127TMC2    C5 1976   3.627   0.424   9.822 -0.8678  0.2086  0.7268
  127TMC2    C6 1977   3.683   0.351   9.926 -0.2284 -0.6183 -0.3707
  127TMC2     C 1978   3.927   0.622   9.714 -0.0180 -0.1234  1.0151
  127TMC2     O 1979   3.976   0.711   9.781 -0.6456  0.6621  0.0616
  127TMC2     H 1980   3.981   0.506   9.957  0.2442 -0.1263  0.6584
  127TMC2    H1 1981   3.671   0.554   9.658 -1.1355 -0.3554  0.3272
  127TMC2    H2 1982   3.631   0.279   9.988 -0.3298 -0.3564 -0.1504
  127TMC2    C7 1983   3.486   0.439   9.800 -0.2909  0.5180  0.4100
  127TMC2    C8 1984   3.854   0.352  10.108 -0.4485 -0.5570 -0.4624
  127TMC2    O1 1985   3.455   0.508   9.704 -0.3558  0.0970 -0.1437
  127TMC2    O2 1986   3.973   0.351  10.135 -0.4624 -0.2103 -0.1236
  127TMC2    O5 1987   3.754   0.356  10.201  0.2934 -0.0226  0.3571
  127TMC2    H5 1988   3.673   0.378  10.150  0.6638 -0.7858 -0.5600
  128MPD2     C 1989   3.975   0.644   9.358  0.0875 -0.3599  0.1531
  128MPD2    C1 1990   3.979   0.690   9.489  0.2407 -0.1628 -0.0567
  128MPD2    C2 1991   4.053   0.803   9.502  0.2136 -0.2435  0.6634
  128MPD2    C3 1992   4.109   0.877   9.395 -0.2920  0.3609  0.8087
  128MPD2    C4 1993   4.084   0.830   9.271 -0.1544  0.4680 -0.1158
  128MPD2    C5 1994   4.016   0.715   9.250 -0.6558 -0.1822 -0.2139
  128MPD2     H 1995   4.072   0.835   9.603 -0.9994  0.1634  0.7637
  128MPD2    H1 1996   4.116   0.875   9.177 -0.8481 -0.9962 -1.0551
  128MPD2    H2 1997   3.917   0.555   9.338 -1.3822  0.0403  2.6460
  128MPD2    H3 1998   3.997   0.674   9.152  2.0653  0.6463 -1.0841
  128MPD2     N 1999   4.175   0.997   9.421  0.6814  0.3107  0.6477
  128MPD2    H5 2000   4.207   1.019   9.515 -1.5893 -1.8237  1.9306
  128MPD2    N1 2001   3.920   0.607   9.579 -0.1035 -0.1348 -1.1162
  128MPD2    H7 2002   3.862   0.534   9.540 -0.2870  1.2852 -3.4917
  129TMC2    C1 2003   2.277   0.474   0.787  0.0624 -0.4510 -0.5887
  129TMC2    C2 2004   2.227   0.400   0.684  0.1241 -0.2504 -0.5299
  129TMC2    C3 2005   2.112   0.329   0.695  0.5672  0.4068 -0.1965
  129TMC2    C4 2006   2.208   0.486   0.904 -0.0457  0.2003  0.4929
  129TMC2    C5 2007   2.085   0.412   0.900  0.3237 -0.0751 -0.7895
  129TMC2    C6 2008   2.029   0.340   0.801  0.7071  0.2062  0.1501
  129TMC2     C 2009   2.413   0.517   0.789 -0.3432  0.1882  0.1946
  129TMC2     O 2010   2.485   0.451   0.724  0.1193 -0.2726  0.3107
  129TMC2     H 2011   2.290   0.384   0.597 -0.4202 -0.7911 -0.8216
  129TMC2    H1 2012   2.249   0.544   0.985  2.3011 -0.3964 -0.2619
  129TMC2    H2 2013   1.942   0.276   0.811  1.1790 -0.2549  1.3069
  129TMC2    C7 2014   2.006   0.431   1.015 -0.3507 -0.6831 -0.5084
  129TMC2    C8 2015   2.079   0.257   0.577 -0.1107  0.2170  0.6466
  129TMC2    O1 2016   1.983   0.543   1.054 -0.5247 -0.7668  0.3099
  129TMC2    O2 2017   1.969   0.269   0.521 -0.1694 -0.5318 -0.4615
  129TMC2    O5 2018   2.173   0.165   0.550  0.0423  0.0843  0.0978
  129TMC2    H5 2019   2.249   0.162   0.611 -1.9576  1.3631  2.6284
  130MPD2     C 2020   2.679   0.646   0.837  0.6757  0.1369  0.2220
  130MPD2    C1 2021   2.559   0.705   0.882 -0.2928  0.6364 -0.3782
  130MPD2    C2 2022   2.558   0.833   0.935  0.3618 -0.5852  0.4728
  130MPD2    C3 2023   2.676   0.905   0.951 -0.3031 -0.2720 -0.0639
  130MPD2    C4 2024   2.795   0.845   0.915 -0.1938  0.1406 -0.1675
  130MPD2    C5 2025   2.789   0.722   0.858  0.4323  0.4701  0.1666
  130MPD2     H 2026   2.465   0.877   0.970  0.9960  0.7798  0.4505
  130MPD2    H1 2027   2.893   0.891   0.924 -0.7119  0.8679  1.9098
  130MPD2    H2 2028   2.702   0.546   0.802 -0.6013  0.9216 -2.8630
  130MPD2    H3 2029   2.880   0.663   0.845  0.4762  0.7447 -0.7346
  130MPD2     N 2030   2.667   1.035   1.002 -0.2316 -0.7987 -0.4737
  130MPD2    H5 2031   2.572   1.068   1.016 -0.7301 -1.5197 -2.1194
  130MPD2    N1 2032   2.435   0.633   0.871 -0.6269  0.0273 -0.3492
  130MPD2    H7 2033   2.349   0.677   0.902 -0.3659 -0.5010  1.1203
  131TMC2    C1 2034   1.759   0.626  10.113 -0.4253  0.0474  0.4297
  131TMC2    C2 2035   1.753   0.652   9.977  0.1832  0.1224 -0.4483
  131TMC2    C3 2036   1.729   0.782   9.937 -0.1956 -0.0607  0.2120
  131TMC2    C4 2037   1.735   0.717  10.208  0.6242 -0.5768 -0.4649
  131TMC2    C5 2038   1.717   0.842  10.161  0.0633 -0.9419  0.0552
  131TMC2    C6 2039   1.717   0.877  10.027 -0.2011 -0.9461  0.1850
  131TMC2     C 2040   1.762   0.488  10.145 -0.5927  0.0442  0.6073
  131TMC2     O 2041   1.718   0.467  10.259  0.3832  0.3753  0.2379
  131TMC2     H 2042   1.747   0.568   9.909 -2.3257 -1.2201  1.4460
  131TMC2    H1 2043   1.769   0.697  10.310  1.8087 -1.1488 -0.9703
  131TMC2    H2 2044   1.701   0.982  10.003 -0.6168 -1.8036 -3.4047
  131TMC2    C7 2045   1.707   0.945  10.263  0.1896 -0.0721 -0.3323
  131TMC2    C8 2046   1.726   0.828   9.800 -0.8022  0.0047 -0.0954
  131TMC2    O1 2047   1.712   0.902  10.375  0.3334 -0.3486 -0.1433
  131TMC2    O2 2048   1.713   0.945   9.771  0.5477 -0.4122 -0.0671
  131TMC2    O5 2049   1.813   0.752   9.738 -0.3883 -0.2552  0.4801
  131TMC2    H5 2050   1.829   0.664   9.779 -0.1200 -0.7174 -0.6376
  132MPD2     C 2051   1.945   0.201   9.995  0.4245 -0.2203  0.4669
  132MPD2    C1 2052   1.861   0.266  10.088 -0.5653 -0.0536 -0.5910
  132MPD2    C2 2053   1.821   0.194  10.202 -0.1297 -0.6929  0.0723
  132MPD2    C3 2054   1.860   0.065  10.221  0.5858 -0.1479 -0.3176
  132MPD2    C4 2055   1.911   4.732  10.111  0.2445  0.6929  0.3913
  132MPD2    C5 2056   1.965   0.064  10.004  0.1168 -0.6381  0.4480
  132MPD2     H 2057   1.758   0.242  10.276 -0.7287  1.4890 -1.8619
  132MPD2    H1 2058   1.948   4.630  10.117 -1.2221  0.0619 -1.1287
  132MPD2    H2 2059   1.980   0.252   9.906  3.8188 -0.2448  1.7981
  132MPD2    H3 2060   2.015   0.007   9.926  1.8715  0.9311  0.4349
  132MPD2     N 2061   1.828   0.005  10.352  0.0910 -0.4441 -0.4594
  132MPD2    H5 2062   1.791   0.071  10.420 -2.2219 -0.8548 -1.3214
  132MPD2    N1 2063   1.837   0.399  10.062  0.7881  0.4175  0.5959
  132MPD2    H7 2064   1.870   0.438   9.974  1.0451 -0.6755  0.2149
  133TMC2    C1 2065   0.140   1.136   8.915  0.1495  0.3311 -0.3538
  133TMC2    C2 2066   0.111   1.053   8.804  0.3224 -0.1206 -0.3158
  133TMC2    C3 2067   0.056   1.106   8.692  0.1978  0.7992 -0.3291
  133TMC2    C4 2068   0.120   1.269   8.904  0.8816 -0.3618 -0.2905
  133TMC2    C5 2069   0.061   1.320   8.786  0.2395 -0.3088 -0.1606
  133TMC2    C6 2070   0.039   1.243   8.676 -0.9176 -0.4112 -0.3994
  133TMC2     C 2071   0.182   1.077   9.037  0.6796  0.2602  0.2578
  133TMC2     O 2072   0.241   1.142   9.120  0.0482  0.2248 -0.6517
  133TMC2     H 2073   0.122   0.946   8.814 -1.3804 -0.1573  1.1530
  133TMC2    H1 2074   0.109   1.336   8.988  0.1508 -1.5800  0.5924
  133TMC2    H2 2075   0.017   1.268   8.572 -2.3785  0.4047  0.0978
  133TMC2    C7 2076   0.061   1.465   8.769  0.0412 -0.5445  0.1511
  133TMC2    C8 2077   0.041   1.018   8.569  0.4921 -0.4086 -0.1408
  133TMC2    O1 2078   0.128   1.533   8.851 -0.0677 -0.0143  0.5374
  133TMC2    O2 2079   0.053   1.067   8.459 -0.2566 -1.4455  0.2978
  133TMC2    O5 2080   4.666   0.950   8.605 -0.0276  0.4806 -0.6577
  133TMC2    H5 2081   4.649   0.933   8.700 -0.5990 -0.3592 -0.9139
  134MPD2     C 2082   0.047   0.783   9.206  0.4037 -0.3632 -0.1126
  134MPD2    C1 2083   0.134   0.888   9.176  0.4824 -0.3536  0.2082
  134MPD2    C2 2084   0.234   0.907   9.277 -0.1640  0.4102 -0.0075
  134MPD2    C3 2085   0.240   0.830   9.394 -0.4940 -0.3246  0.0292
  134MPD2    C4 2086   0.154   0.728   9.415  0.0267 -0.0841  0.4637
  134MPD2    C5 2087   0.059   0.711   9.323  0.4119 -0.0167 -0.1849
  134MPD2     H 2088   0.302   0.991   9.266 -0.1552  0.4760  0.5240
  134MPD2    H1 2089   0.160   0.667   9.505  0.8425  0.0826  0.5231
  134MPD2    H2 2090   4.706   0.762   9.133  0.2587 -1.8558  0.4534
  134MPD2    H3 2091   4.714   0.644   9.350  1.1074 -1.4496 -1.6914
  134MPD2     N 2092   0.325   0.857   9.503  0.1136  0.1425 -0.1946
  134MPD2    H5 2093   0.315   0.803   9.589 -0.5318 -2.6270 -2.0243
  134MPD2    N1 2094   0.112   0.964   9.064  0.0642  0.2708 -0.1469
  134MPD2    H7 2095   0.036   0.942   8.999 -0.6534  1.7961  0.1548
  135TMC2    C1 2096   3.748   2.257   9.451  0.0253  0.0467 -0.0405
  135TMC2    C2 2097   3.688   2.157   9.383  0.8568 -0.7164 -0.0469
  135TMC2    C3 2098   3.556   2.135   9.410 -0.4956 -0.7342 -0.4115
  135TMC2    C4 2099   3.678   2.323   9.551 -0.1849  0.3730 -0.3224
  135TMC2    C5 2100   3.546   2.300   9.567 -0.1782  0.2988  0.3096
  135TMC2    C6 2101   3.475   2.207   9.495  0.6844  0.2409 -0.0750
  135TMC2     C 2102   3.893   2.274   9.446 -0.2390  0.1980 -0.5150
  135TMC2     O 2103   3.936   2.364   9.522 -0.7623 -0.8444 -0.3018
  135TMC2     H 2104   3.737   2.101   9.304  0.4096 -2.0496  0.6198
  135TMC2    H1 2105   3.729   2.388   9.621  0.4227  1.5474 -1.8407
  135TMC2    H2 2106   3.368   2.195   9.483  0.7871  1.7456 -2.4777
  135TMC2    C7 2107   3.477   2.378   9.660  0.4920 -0.2788 -0.1560
  135TMC2    C8 2108   3.504   2.017   9.348 -0.6028  0.6988 -0.2288
  135TMC2    O1 2109   3.516   2.495   9.677  0.7192 -0.2195  0.1500
  135TMC2    O2 2110   3.559   1.956   9.256 -0.2031  0.5640  0.0708
  135TMC2    O5 2111   3.402   1.963   9.419  0.4299 -0.4560 -1.1606
  135TMC2    H5 2112   3.367   2.016   9.493 -1.6796 -0.5812 -2.0624
  136MPD2     C 2113   4.179   2.201   9.453 -0.3616  0.1403  0.6445
  136MPD2    C1 2114   4.095   2.170   9.351  0.7432  0.1162 -0.1898
  136MPD2    C2 2115   4.147   2.100   9.243  0.1451  0.1309 -0.0926
  136MPD2    C3 2116   4.274   2.058   9.240 -0.1073  0.1039 -0.1428
  136MPD2    C4 2117   4.359   2.095   9.342  0.1556  0.1205 -0.1211
  136MPD2    C5 2118   4.313   2.169   9.443 -0.8375  0.1860  0.1940
  136MPD2     H 2119   4.070   2.065   9.175 -0.9084  4.8505 -1.3044
  136MPD2    H1 2120   4.464   2.070   9.350  0.0911 -0.2012 -0.2912
  136MPD2    H2 2121   4.146   2.259   9.538  0.2924 -1.0698  1.7260
  136MPD2    H3 2122   4.375   2.209   9.522 -0.9160 -0.0285  0.3647
  136MPD2     N 2123   4.326   1.971   9.138 -0.2971  0.5992 -0.4847
  136MPD2    H5 2124   4.424   1.944   9.142 -0.9053 -1.3740  0.8620
  136MPD2    N1 2125   3.957   2.190   9.353  0.0573  0.3478  0.7608
  136MPD2    H7 2126   3.901   2.150   9.278  0.8875  1.1632 -0.2962
  137TMC2    C1 2127   2.697   1.594   9.458 -0.5184  0.1618  0.4697
  137TMC2    C2 2128   2.765   1.576   9.342  0.5694  0.0485  0.1789
  137TMC2    C3 2129   2.724   1.642   9.234  0.1579  0.1605  0.4275
  137TMC2    C4 2130   2.596   1.683   9.464 -0.2624  0.0530 -0.3925
  137TMC2    C5 2131   2.562   1.748   9.352  0.3995  0.1894  0.6888
  137TMC2    C6 2132   2.629   1.743   9.240  0.1269  0.7260 -0.4080
  137TMC2     C 2133   2.736   1.511   9.558  0.4330  0.2263  0.7593
  137TMC2     O 2134   2.850   1.477   9.548  0.1833  0.8086  0.4177
  137TMC2     H 2135   2.858   1.522   9.332  1.3445  1.6390 -1.1551
  137TMC2    H1 2136   2.548   1.723   9.553 -1.2807 -0.4172 -0.7247
  137TMC2    H2 2137   2.597   1.791   9.148 -1.5976  2.1906  0.9443
  137TMC2    C7 2138   2.477   1.863   9.359 -0.1678 -0.4979  0.3742
  137TMC2    C8 2139   2.824   1.656   9.125  0.4850 -0.3946  0.2288
  137TMC2    O1 2140   2.506   1.961   9.284  0.2427 -0.4730  0.2497
  137TMC2    O2 2141   2.830   1.760   9.061 -0.1851 -0.1446 -0.1989
  137TMC2    O5 2142   2.837   1.530   9.069  0.2856  0.3387 -0.2208
  137TMC2    H5 2143   2.806   1.449   9.114 -0.5910 -0.0425 -1.5072
  138MPD2     C 2144   2.521   1.395   9.841  0.2893 -1.0349 -0.3490
  138MPD2    C1 2145   2.636   1.410   9.768  0.7776  0.0804  0.2738
  138MPD2    C2 2146   2.749   1.349   9.811 -0.1078  0.4986  0.5639
  138MPD2    C3 2147   2.752   1.267   9.924  0.1629 -0.2170  0.5173
  138MPD2    C4 2148   2.634   1.247   9.994  0.0811 -0.4887 -0.4192
  138MPD2    C5 2149   2.519   1.309   9.950  0.2532 -0.0079  0.4430
  138MPD2     H 2150   2.844   1.354   9.759  0.2409 -2.1701  0.9721
  138MPD2    H1 2151   2.621   1.184  10.082  1.0902 -0.4433 -0.2360
  138MPD2    H2 2152   2.430   1.444   9.806 -1.6020 -0.0905  5.7599
  138MPD2    H3 2153   2.423   1.290   9.997  0.5934 -1.2477  0.6490
  138MPD2     N 2154   2.871   1.197   9.948  0.0577  0.4052  0.0788
  138MPD2    H5 2155   2.950   1.220   9.888 -1.6055  2.9000 -1.1419
  138MPD2    N1 2156   2.636   1.492   9.648  0.1894 -0.0442  0.6303
  138MPD2    H7 2157   2.545   1.529   9.622  0.1787  0.6549  1.6641
  139TMC2    C1 2158   3.502   0.474  14.039  0.3409 -0.4997  0.1463
  139TMC2    C2 2159   3.512   0.493  14.170 -0.2125  0.6212 -0.1015
  139TMC2    C3 2160   3.413   0.554  14.239 -0.4553 -0.3693 -0.8350
  139TMC2    C4 2161   3.401   0.524  13.964 -0.0771  0.3222  0.9353
  139TMC2    C5 2162   3.309   0.601  14.033 -0.0502  0.1097  0.2793
  139TMC2    C6 2163   3.316   0.625  14.166  0.0947  0.9394 -0.1586
  139TMC2     C 2164   3.551   0.348  13.996 -0.3965 -0.2983  0.4493
  139TMC2     O 2165   3.594   0.345  13.883  0.9371  0.3637 -0.2532
  139TMC2     H 2166   3.597   0.442  14.213 -0.2464  0.9595  0.3559
  139TMC2    H1 2167   3.370   0.479  13.870 -0.5325  0.8104  0.8472
  139TMC2    H2 2168   3.244   0.680  14.226 -1.0491 -1.0464  0.2657
  139TMC2    C7 2169   3.199   0.661  13.955  0.1661 -0.3561 -0.0280
  139TMC2    C8 2170   3.432   0.594  14.376 -0.3703 -0.0149 -0.2339
  139TMC2    O1 2171   3.107   0.713  14.016 -0.0945  0.1847  0.3592
  139TMC2    O2 2172   3.537   0.625  14.433  0.7709  0.3015  0.0037
  139TMC2    O5 2173   3.316   0.564  14.434 -0.0552  0.6013 -0.1574
  139TMC2    H5 2174   3.264   0.503  14.377 -0.1959  2.1347 -1.6512
  140MPD2     C 2175   3.463   0.011  14.114 -0.3293  0.5897 -1.2320
  140MPD2    C1 2176   3.541   0.104  14.055 -0.0843 -0.4581  0.1592
  140MPD2    C2 2177   3.646   0.067  13.968 -0.5966  0.3782  0.1063
  140MPD2    C3 2178   3.679   4.669  13.942  0.1435 -0.0364 -0.6680
  140MPD2    C4 2179   3.602   4.575  14.011 -0.3890 -0.4302  0.3848
  140MPD2    C5 2180   3.494   4.613  14.087  0.6261  0.0219 -0.5728
  140MPD2     H 2181   3.706   0.143  13.920  2.2383 -0.9819  1.5172
  140MPD2    H1 2182   3.625   4.469  14.000  0.6481 -0.2856  1.1729
  140MPD2    H2 2183   3.383   0.036  14.183 -0.5668 -1.1530 -0.8788
  140MPD2    H3 2184   3.445   4.535  14.144  1.0776  1.0155  1.1653
  140MPD2     N 2185   3.785   4.629  13.854  0.5173  0.6503  0.0136
  140MPD2    H5 2186   3.830   4.700  13.797  1.1118  0.6168  0.4421
  140MPD2    N1 2187   3.510   0.243  14.075  0.3104  0.4863 -0.1564
  140MPD2    H7 2188   3.465   0.258  14.164 -2.8013  1.7313 -1.9331
  141TMC2    C1 2189   4.483   1.066  14.005  0.4957  0.4130  0.2601
  141TMC2    C2 2190   4.555   0.980  14.076 -0.0617 -0.9425 -0.1295
  141TMC2    C3 2191   4.613   1.012  14.193 -0.0160  0.2354 -0.9008
  141TMC2    C4 2192   4.459   1.195  14.050 -0.4926  0.2962  0.5836
  141TMC2    C5 2193   4.520   1.226  14.169 -0.2638 -0.3552 -0.5138
  141TMC2    C6 2194   4.589   1.136  14.244  0.1650  0.1336  0.4447
  141TMC2     C 2195   4.398   1.002  13.905  0.0728 -0.2783 -0.1607
  141TMC2     O 2196   4.454   0.899  13.861  0.0242  0.0910  0.2310
  141TMC2     H 2197   4.570   0.878  14.042 -0.6041 -0.6490 -1.2708
  141TMC2    H1 2198   4.417   1.274  13.990 -3.0380  0.3565  2.4239
  141TMC2    H2 2199   4.632   1.162  14.340  1.5337 -2.2013  0.4509
  141TMC2    C7 2200   4.528   1.373  14.207 -0.0338 -0.1619 -0.0485
  141TMC2    C8 2201   4.652   0.901  14.273 -0.5283 -1.1119  0.0129
  141TMC2    O1 2202   4.446   1.441  14.148  0.0717 -0.1930  0.1664
  141TMC2    O2 2203   4.702   0.804  14.224 -0.1856  0.0796  0.1866
  141TMC2    O5 2204   4.561   0.890  14.369 -0.0935  0.1558 -0.0213
  141TMC2    H5 2205   4.539   0.974  14.414 -1.8950 -0.4360  0.2061
  142TMC2    C1 2206   2.207   0.140  10.282  0.6937  0.2964  1.0447
  142TMC2    C2 2207   2.274   0.179  10.174  0.3119  0.2176  0.4603
  142TMC2    C3 2208   2.276   0.310  10.145  0.0626 -0.3996  0.0123
  142TMC2    C4 2209   2.119   0.226  10.347 -0.1315  0.2854  0.6976
  142TMC2    C5 2210   2.121   0.354  10.312 -0.3425  0.0317 -0.3041
  142TMC2    C6 2211   2.201   0.400  10.209 -0.4698  0.5412 -0.3832
  142TMC2     C 2212   2.230   4.731  10.309  0.3105 -0.2468  0.2093
  142TMC2     O 2213   2.246   4.656  10.214  0.2706 -0.1086  0.3390
  142TMC2     H 2214   2.314   0.109  10.102 -0.9873 -0.6336  0.5612
  142TMC2    H1 2215   2.067   0.178  10.429 -0.0882 -0.2110  0.4399
  142TMC2    H2 2216   2.199   0.504  10.179 -0.8100  1.4200  2.7413
  142TMC2    C7 2217   2.052   0.441  10.401 -0.3909 -0.1857  0.0951
  142TMC2    C8 2218   2.356   0.355  10.034  0.5232 -0.8829  0.3775
  142TMC2    O1 2219   1.975   0.389  10.480  0.5425  0.6989  0.2242
  142TMC2    O2 2220   2.312   0.429   9.947 -0.6132 -0.3259  0.2783
  142TMC2    O5 2221   2.481   0.290  10.033  0.0208 -0.0306 -0.2044
  142TMC2    H5 2222   2.498   0.232  10.111  1.7761  0.1865 -0.4166
  143MPD2     C 2223   2.116   4.343  10.627  0.7377 -0.3626  0.3774
  143MPD2    C1 2224   2.124   4.335  10.485  0.0055  0.4409 -0.2428
  143MPD2    C2 2225   2.143   4.457  10.419 -0.1927 -0.5711  0.2228
  143MPD2    C3 2226   2.138   4.579  10.489  0.2405  1.0950 -0.4178
  143MPD2    C4 2227   2.101   4.580  10.622 -0.5332 -0.4433 -0.4418
  143MPD2    C5 2228   2.094   4.463  10.693 -0.1368 -0.0844  0.1792
  143MPD2     H 2229   2.155   4.459  10.311 -3.1804 -0.2199 -0.1056
  143MPD2    H1 2230   2.109   4.676  10.673  1.0268 -0.0142 -1.4932
  143MPD2    H2 2231   2.098   4.256  10.688  2.2752 -2.4829 -2.2163
  143MPD2    H3 2232   2.075   4.468  10.799 -0.2090  0.9295  0.1177
  143MPD2     N 2233   2.183   4.706  10.439 -0.4037 -0.4300 -0.2876
  143MPD2    H5 2234   2.180   0.046  10.506  2.8590 -0.2683 -0.2977
  143MPD2    N1 2235   2.116   4.209  10.423  0.3681 -0.1526 -0.3125
  143MPD2    H7 2236   2.118   4.124  10.477 -0.2502 -0.5229 -0.8662
  144TMC2    C1 2237   0.210   3.307   0.494  0.2239 -0.3836  0.4129
  144TMC2    C2 2238   0.286   3.215   0.436  0.5361 -0.3058 -0.5209
  144TMC2    C3 2239   0.398   3.170   0.507  0.3449  0.1683 -0.3686
  144TMC2    C4 2240   0.236   3.353   0.618  0.2364 -0.3621  0.0951
  144TMC2    C5 2241   0.345   3.303   0.685  0.2561 -0.8985 -0.7981
  144TMC2    C6 2242   0.433   3.210   0.633  0.3993 -0.5620  0.0760
  144TMC2     C 2243   0.104   3.358   0.416  0.1581 -0.3422  0.0900
  144TMC2     O 2244   0.117   3.346   0.297 -0.9449 -0.5096 -0.4405
  144TMC2     H 2245   0.267   3.169   0.340  1.7169 -0.0014 -0.8931
  144TMC2    H1 2246   0.187   3.448   0.637 -0.5863 -0.7962  0.1507
  144TMC2    H2 2247   0.516   3.171   0.691  0.5732  0.4745  0.5159
  144TMC2    C7 2248   0.361   3.343   0.824  0.3222  0.3906  0.1113
  144TMC2    C8 2249   0.464   3.046   0.470 -0.1313  0.4936 -0.7613
  144TMC2    O1 2250   0.448   3.285   0.887  0.4192  0.4489  0.0799
  144TMC2    O2 2251   0.534   2.986   0.551 -0.5636  0.2085  0.1858
  144TMC2    O5 2252   0.505   3.089   0.348  0.1263 -0.3356  0.7469
  144TMC2    H5 2253   0.474   3.178   0.322 -0.7123 -0.5442  1.0301
  145MPD2     C 2254   4.433   3.642   0.318 -0.1469  0.6772  0.2526
  145MPD2    C1 2255   4.483   3.530   0.254 -0.3438  0.0735 -1.0601
  145MPD2    C2 2256   4.589   3.466   0.301 -0.5397  0.3177 -0.2009
  145MPD2    C3 2257   4.656   3.524   0.410 -0.2108 -1.3440 -0.3861
  145MPD2    C4 2258   4.605   3.635   0.474 -0.0985 -0.5013 -0.4419
  145MPD2    C5 2259   4.502   3.699   0.421  0.2281 -0.0108  0.4274
  145MPD2     H 2260   4.623   3.377   0.250 -0.5500  1.1240 -1.6180
  145MPD2    H1 2261   4.650   3.664   0.568 -0.1135  0.7095 -0.8177
  145MPD2    H2 2262   4.343   3.693   0.287 -0.2245 -0.7031 -1.7875
  145MPD2    H3 2263   4.455   3.782   0.472 -0.5015  0.1434 -0.4880
  145MPD2     N 2264   0.029   3.455   0.475  0.3043 -0.0026  0.1770
  145MPD2    H5 2265   0.049   3.473   0.573 -0.9705 -0.3961  0.5024
  145MPD2    N1 2266   4.428   3.491   0.131  0.0606  0.3052 -0.0496
  145MPD2    H7 2267   4.475   3.416   0.082  0.8276 -0.5923  2.0607
  146TMC2    C1 2268   0.640   2.523  12.540 -0.0561  0.0379  0.3749
  146TMC2    C2 2269   0.616   2.629  12.462 -0.2735 -0.3276  0.5622
  146TMC2    C3 2270   0.703   2.658  12.358  0.2181 -0.4548  0.1121
  146TMC2    C4 2271   0.748   2.437  12.514 -0.0155 -0.2662  0.7416
  146TMC2    C5 2272   0.834   2.480  12.420 -0.5130  0.3873  1.0981
  146TMC2    C6 2273   0.815   2.586  12.341  0.1920 -0.7229  0.0334
  146TMC2     C 2274   0.572   2.527  12.675 -0.6471 -0.4222 -0.7519
  146TMC2     O 2275   0.471   2.595  12.691  0.4579  0.6903  0.3639
  146TMC2     H 2276   0.535   2.697  12.483  2.0481  2.4149  0.7138
  146TMC2    H1 2277   0.758   2.339  12.558  1.4809 -0.8793 -0.9642
  146TMC2    H2 2278   0.874   2.604  12.251  1.7163  0.5843  1.3049
  146TMC2    C7 2279   0.966   2.416  12.406 -0.3261  0.3721  0.4795
  146TMC2    C8 2280   0.681   2.765  12.269  0.3157  0.2753  0.0962
  146TMC2    O1 2281   1.003   2.427  12.291 -0.5553  0.3923  0.1327
  146TMC2    O2 2282   0.771   2.816  12.203  0.3327 -0.1270 -0.2118
  146TMC2    O5 2283   0.559   2.758  12.226  0.0499 -0.2734  0.0963
  146TMC2    H5 2284   0.511   2.682  12.267 -1.8855  0.3224 -1.0715
  147MPD2     C 2285   1.378   2.130  12.499 -1.0841 -0.4262 -0.5501
  147MPD2    C1 2286   1.304   2.123  12.614  0.5054  0.6000  1.2042
  147MPD2    C2 2287   1.183   2.199  12.619  0.0528  0.0460 -0.1034
  147MPD2    C3 2288   1.138   2.266  12.503  0.0787 -0.0519  0.2813
  147MPD2    C4 2289   1.219   2.260  12.388 -0.4795 -0.3952  0.3687
  147MPD2    C5 2290   1.339   2.196  12.380 -0.8752 -0.4949  0.0461
  147MPD2     H 2291   1.127   2.206  12.712  0.6800 -1.1803  0.3768
  147MPD2    H1 2292   1.200   2.312  12.296  2.2943 -1.1227 -0.6368
  147MPD2    H2 2293   1.464   2.065  12.491 -1.5610 -1.1815  0.4990
  147MPD2    H3 2294   1.397   2.213  12.290  0.5471  0.5084  1.1484
  147MPD2     N 2295   1.014   2.338  12.508 -0.2905  0.9852  0.5792
  147MPD2    H5 2296   0.965   2.339  12.597 -3.5724  0.8355 -1.2516
  147MPD2    N1 2297   1.359   2.063  12.728 -0.3348  0.3129 -0.0302
  147MPD2    H7 2298   1.454   2.026  12.716 -0.3885  0.1308  0.0970
  148TMC2    C1 2299   0.870   1.055  10.989  0.0929  0.5228  0.3383
  148TMC2    C2 2300   0.941   1.149  11.056  0.0012 -0.1727 -0.2969
  148TMC2    C3 2301   1.051   1.111  11.124  0.1580  0.5165 -0.8311
  148TMC2    C4 2302   0.913   0.927  10.969 -0.3575 -0.3893 -0.5565
  148TMC2    C5 2303   1.019   0.887  11.045 -0.3046  1.1110  0.0392
  148TMC2    C6 2304   1.093   0.978  11.122 -1.2330 -0.2796 -0.2847
  148TMC2     C 2305   0.773   1.099  10.895 -0.0247  0.2802  0.2010
  148TMC2     O 2306   0.801   1.207  10.841  0.3144  0.8470 -0.0421
  148TMC2     H 2307   0.917   1.254  11.045 -1.9703 -0.9759 -3.7239
  148TMC2    H1 2308   0.860   0.846  10.920 -3.4309  1.2410  0.0784
  148TMC2    H2 2309   1.180   0.957  11.183  0.0264  3.7978 -0.6401
  148TMC2    C7 2310   1.083   0.763  11.014 -0.3275  0.8506  0.1529
  148TMC2    C8 2311   1.113   1.217  11.202  0.1196  0.2609 -1.0253
  148TMC2    O1 2312   1.021   0.667  10.965 -0.0271  0.2603  0.0984
  148TMC2    O2 2313   1.049   1.300  11.260 -0.2454 -0.3221 -0.1343
  148TMC2    O5 2314   1.244   1.204  11.210 -0.5360  0.2902 -0.2487
  148TMC2    H5 2315   1.292   1.141  11.152  0.0848  0.8879 -0.3880
  149MPD2     C 2316   0.610   1.095  10.648  0.3456  0.1627  0.6239
  149MPD2    C1 2317   0.609   0.988  10.740 -0.2218 -0.6014  0.1611
  149MPD2    C2 2318   0.528   0.882  10.719  0.0888 -0.1495 -0.2682
  149MPD2    C3 2319   0.439   0.882  10.614 -0.0517 -0.0696 -0.2075
  149MPD2    C4 2320   0.443   0.985  10.526 -0.7419  0.0463  0.2474
  149MPD2    C5 2321   0.529   1.082  10.546  0.3228 -0.0971  0.4162
  149MPD2     H 2322   0.528   0.811  10.801 -1.3126 -0.4308 -0.5015
  149MPD2    H1 2323   0.372   0.984  10.444 -2.1264  1.0247  1.4309
  149MPD2    H2 2324   0.680   1.178  10.650  0.8701 -0.2515 -0.6253
  149MPD2    H3 2325   0.535   1.150  10.462 -0.4286  1.0696  1.3151
  149MPD2     N 2326   0.353   0.771  10.586  0.8119 -0.4431 -0.1006
  149MPD2    H5 2327   0.286   0.792  10.512 -0.5330  0.4405  1.3831
  149MPD2    N1 2328   0.685   0.996  10.857  0.0516  0.1606  0.4770
  149MPD2    H7 2329   0.683   0.921  10.925  0.9323 -0.1283  0.1757
  150TMC2    C1 2330   3.545   0.020  12.423 -0.2901  0.0985 -0.1060
  150TMC2    C2 2331   3.559   0.040  12.287 -0.1185 -0.5789 -0.4213
  150TMC2    C3 2332   3.672   0.116  12.251 -0.8631  0.6253 -0.9483
  150TMC2    C4 2333   3.640   0.064  12.506 -0.3035  0.6342 -0.1600
  150TMC2    C5 2334   3.752   0.122  12.456  0.8834 -0.3550 -0.5501
  150TMC2    C6 2335   3.765   0.168  12.332  0.1959  0.2416 -0.0805
  150TMC2     C 2336   3.435   4.666  12.464 -0.0522 -0.2271 -0.3340
  150TMC2     O 2337   3.473   4.592  12.549 -0.1599 -0.7187 -0.5851
  150TMC2     H 2338   3.512   4.717  12.209 -0.6945 -3.6092  2.2487
  150TMC2    H1 2339   3.640   0.038  12.611  1.6383  1.9229  0.1506
  150TMC2    H2 2340   3.859   0.213  12.305  1.0610 -1.5232 -0.0045
  150TMC2    C7 2341   3.855   0.164  12.545 -0.5052 -0.1243 -0.7509
  150TMC2    C8 2342   3.700   0.152  12.111  0.1175  0.1925 -0.6276
  150TMC2    O1 2343   3.893   0.280  12.545 -0.3633 -0.6577  0.1986
  150TMC2    O2 2344   3.805   0.192  12.067  0.3327  0.7774 -0.0335
  150TMC2    O5 2345   3.582   0.154  12.037 -0.0403 -0.3958 -0.2036
  150TMC2    H5 2346   3.498   0.131  12.082  1.1312  0.6886  2.5882
  151MPD2     C 2347   2.976   4.440  12.410  0.2950  0.1316  0.1338
  151MPD2    C1 2348   2.979   4.545  12.324  0.7312  0.3497 -0.0851
  151MPD2    C2 2349   3.101   4.616  12.314  0.5413  0.2002 -0.2822
  151MPD2    C3 2350   3.205   4.602  12.401  0.8516 -0.2904 -0.3747
  151MPD2    C4 2351   3.186   4.520  12.504 -0.0012 -0.4968  0.0636
  151MPD2    C5 2352   3.079   4.437  12.505 -0.0118 -0.2635  0.2512
  151MPD2     H 2353   3.111   4.691  12.237 -0.9636  1.1303  0.4359
  151MPD2    H1 2354   3.251   4.505  12.590  0.9175 -1.2040 -0.7521
  151MPD2    H2 2355   2.883   4.385  12.416  0.0048  0.2208 -3.2896
  151MPD2    H3 2356   3.076   4.358  12.579 -3.1213 -0.3475  0.0440
  151MPD2     N 2357   3.324   4.671  12.382 -0.1393 -0.3667  0.3375
  151MPD2    H5 2358   3.332   4.733  12.302 -2.0580  0.9537  1.1643
  151MPD2    N1 2359   2.868   4.583  12.243  0.3676 -0.6471 -0.1470
  151MPD2    H7 2360   2.789   4.520  12.237  1.1551 -1.5328 -1.4013
  152TMC2    C1 2361   2.684   4.386  12.784 -0.3354 -0.3214 -0.3778
  152TMC2    C2 2362   2.774   4.279  12.808  0.0850  0.3753 -0.5970
  152TMC2    C3 2363   2.901   4.318  12.809 -0.5456 -0.9627 -0.8479
  152TMC2    C4 2364   2.716   4.520  12.754  0.4995  0.1152 -0.1320
  152TMC2    C5 2365   2.847   4.551  12.751  0.0265  0.8332 -0.9923
  152TMC2    C6 2366   2.940   4.453  12.778 -0.5924  0.0556 -0.5182
  152TMC2     C 2367   2.548   4.353  12.787  0.3140  0.0316  0.1480
  152TMC2     O 2368   2.474   4.409  12.704  0.3479 -0.1584 -0.0501
  152TMC2     H 2369   2.745   4.174  12.806  0.6191  0.1719  3.9744
  152TMC2    H1 2370   2.637   4.592  12.737  1.8946  1.4278 -1.0538
  152TMC2    H2 2371   3.043   4.484  12.779 -0.1157 -1.5082  0.9480
  152TMC2    C7 2372   2.877   4.674  12.676  0.1778  0.0229 -0.2555
  152TMC2    C8 2373   3.003   4.211  12.819  0.2388  0.9553  0.0403
  152TMC2    O1 2374   2.786   4.717  12.607 -0.3361  0.2417  0.6384
  152TMC2    O2 2375   3.109   4.224  12.767 -0.0345 -0.5112 -0.1285
  152TMC2    O5 2376   2.955   4.111  12.895  0.3481  0.8556  0.2046
  152TMC2    H5 2377   2.875   4.133  12.947 -0.4433 -0.4541 -0.4798
  153MPD2     C 2378   2.381   4.171  13.052  0.5295 -0.0276 -0.0709
  153MPD2    C1 2379   2.396   4.253  12.942 -0.3283  0.6748 -0.5081
  153MPD2    C2 2380   2.280   4.309  12.879  0.0474  0.1694  0.1212
  153MPD2    C3 2381   2.153   4.301  12.939  0.5419 -0.2650 -0.5091
  153MPD2    C4 2382   2.140   4.232  13.058 -0.1682 -0.6790 -0.3356
  153MPD2    C5 2383   2.254   4.170  13.107  0.2478  0.2984  0.4877
  153MPD2     H 2384   2.287   4.356  12.782  0.0650 -1.5258 -0.6953
  153MPD2    H1 2385   2.048   4.212  13.111 -0.2642  1.2893  0.2368
  153MPD2    H2 2386   2.461   4.127  13.110  1.0340 -1.9339 -2.2422
  153MPD2    H3 2387   2.244   4.111  13.198 -0.3163 -0.1784  0.1141
  153MPD2     N 2388   2.051   4.378  12.875 -0.1041 -0.0223  0.6324
  153MPD2    H5 2389   2.084   4.425  12.791  0.3884  0.0783  0.8790
  153MPD2    N1 2390   2.520   4.275  12.895  0.0475 -0.6081 -0.0146
  153MPD2    H7 2391   2.593   4.258  12.963 -0.0484 -0.3105  0.1600
  154TMC2    C1 2392   0.261   0.983   1.157  0.2952  0.0444 -0.3067
  154TMC2    C2 2393   0.190   1.018   1.044 -0.1370  0.6896  0.6757
  154TMC2    C3 2394   0.252   1.057   0.929  0.3641 -0.2325  0.3625
  154TMC2    C4 2395   0.395   0.993   1.154 -0.5028  0.5397  0.0997
  154TMC2    C5 2396   0.454   1.047   1.042  0.2773 -0.2940 -0.2164
  154TMC2    C6 2397   0.379   1.087   0.938  0.3991  0.6701  0.1726
  154TMC2     C 2398   0.192   0.961   1.280 -0.4226  0.0350  0.9729
  154TMC2     O 2399   0.068   0.965   1.268  0.3006 -0.5171  0.0856
  154TMC2     H 2400   0.082   1.016   1.047 -0.1949  1.3195 -0.6421
  154TMC2    H1 2401   0.457   0.987   1.242  0.0841 -0.6588 -0.3877
  154TMC2    H2 2402   0.420   1.132   0.849 -0.9773  3.5208  0.9841
  154TMC2    C7 2403   0.568   1.135   1.075 -0.3207  0.0265  0.1440
  154TMC2    C8 2404   0.178   1.106   0.817 -0.2424 -0.4309  0.7720
  154TMC2    O1 2405   0.574   1.164   1.197  0.1026  0.5898  0.1955
  154TMC2    O2 2406   0.206   1.209   0.755  0.0905 -0.1504 -0.8908
  154TMC2    O5 2407   0.056   1.053   0.807 -0.0802  0.1332 -0.0164
  154TMC2    H5 2408   0.029   0.978   0.864 -1.3908 -1.1547 -2.3266
  155MPD2     C 2409   0.306   0.881   1.614  0.1134  0.1386  0.2226
  155MPD2    C1 2410   0.219   0.894   1.509 -0.2912 -0.2726 -0.0627
  155MPD2    C2 2411   0.085   0.867   1.540 -0.0480  0.0466  0.1049
  155MPD2    C3 2412   0.045   0.826   1.668  0.2667 -0.3724  0.5454
  155MPD2    C4 2413   0.133   0.826   1.771 -0.1604 -0.4732  0.0034
  155MPD2    C5 2414   0.262   0.860   1.744  0.3096  0.4800  0.1975
  155MPD2     H 2415   0.011   0.859   1.461 -0.4094  1.4616  0.3004
  155MPD2    H1 2416   0.102   0.816   1.874  0.7250  0.9759  0.4103
  155MPD2    H2 2417   0.410   0.903   1.591 -0.4283  0.8433 -1.4865
  155MPD2    H3 2418   0.337   0.880   1.820  0.7931 -0.0847 -0.1247
  155MPD2     N 2419   4.638   0.807   1.690 -0.0298  0.5383  0.3446
  155MPD2    H5 2420   4.577   0.820   1.609  0.2408 -0.4779 -0.0345
  155MPD2    N1 2421   0.269   0.923   1.384  0.1278  0.1369  0.1434
  155MPD2    H7 2422   0.365   0.898   1.362 -0.2317 -2.5748  1.6606
  156TMC2    C1 2423   3.419   2.258  12.118 -0.3407 -0.2186 -0.4185
  156TMC2    C2 2424   3.540   2.203  12.128  0.4306 -0.4564 -0.6314
  156TMC2    C3 2425   3.567   2.103  12.036  0.0548  0.1909 -0.3359
  156TMC2    C4 2426   3.333   2.235  12.018  0.6839  0.0622 -0.4180
  156TMC2    C5 2427   3.370   2.149  11.918  0.1124 -0.2398 -0.0286
  156TMC2    C6 2428   3.492   2.083  11.921 -0.3068  0.5603  0.2794
  156TMC2     C 2429   3.374   2.360  12.225  0.1178  0.6395 -0.7822
  156TMC2     O 2430   3.250   2.381  12.227  0.0831  0.1251 -0.5325
  156TMC2     H 2431   3.615   2.220  12.204 -1.5083 -0.1875  1.2078
  156TMC2    H1 2432   3.235   2.279  12.011 -0.1581 -1.3844  2.2490
  156TMC2    H2 2433   3.526   2.010  11.848 -0.3828  0.6257  0.1774
  156TMC2    C7 2434   3.293   2.161  11.798  0.9050 -0.0266  0.1729
  156TMC2    C8 2435   3.661   1.999  12.072  0.3225  0.5247 -1.1276
  156TMC2    O1 2436   3.227   2.264  11.791 -0.5281  0.8552 -0.1905
  156TMC2    O2 2437   3.633   1.882  12.063 -0.3509 -0.3145  0.9466
  156TMC2    O5 2438   3.781   2.056  12.038  0.2957  0.1522 -0.2114
  156TMC2    H5 2439   3.776   2.153  12.027 -0.8194  0.1790  0.5750
  157MPD2     C 2440   3.565   2.524  12.485 -0.0549  0.4742 -0.3017
  157MPD2    C1 2441   3.458   2.500  12.405 -0.0812  0.2526 -0.5984
  157MPD2    C2 2442   3.333   2.553  12.437  0.3382 -0.5182  0.1389
  157MPD2    C3 2443   3.329   2.646  12.545 -0.9731  0.5159 -0.2686
  157MPD2    C4 2444   3.441   2.667  12.620 -0.4924 -0.8801 -0.1898
  157MPD2    C5 2445   3.551   2.599  12.591  0.0285  0.1787 -0.1925
  157MPD2     H 2446   3.234   2.535  12.397  0.6056  0.0220 -0.7454
  157MPD2    H1 2447   3.438   2.727  12.710  0.3826 -2.1904  0.7216
  157MPD2    H2 2448   3.662   2.477  12.469  0.3696  1.5713 -0.9550
  157MPD2    H3 2449   3.642   2.612  12.649 -0.2368 -0.0782  0.2889
  157MPD2     N 2450   3.210   2.712  12.579 -0.0387 -0.1927  0.8164
  157MPD2    H5 2451   3.126   2.680  12.532  0.6279  0.4212 -0.7885
  157MPD2    N1 2452   3.477   2.406  12.301 -0.2166 -0.0328  0.3351
  157MPD2    H7 2453   3.573   2.386  12.276 -0.0691  3.0892 -1.6436
  158TMC2    C1 2454   3.138   1.190  12.927 -0.4134 -0.4998  0.0335
  158TMC2    C2 2455   3.163   1.214  12.794  0.1184  0.0118  0.2488
  158TMC2    C3 2456   3.072   1.287  12.720 -0.2141 -0.3125 -0.0516
  158TMC2    C4 2457   3.012   1.219  12.986 -0.1228  0.5385  0.0877
  158TMC2    C5 2458   2.913   1.270  12.904  0.2195  0.0361 -0.5659
  158TMC2    C6 2459   2.944   1.315  12.773 -0.1534  0.1164  0.2649
  158TMC2     C 2460   3.253   1.136  13.008  0.3160 -0.0167  0.2881
  158TMC2     O 2461   3.345   1.092  12.948 -0.5874 -0.4599  0.2478
  158TMC2     H 2462   3.250   1.172  12.746 -1.1183 -0.2241 -1.7988
  158TMC2    H1 2463   2.989   1.181  13.085  0.4721  2.6174  1.0268
  158TMC2    H2 2464   2.861   1.349  12.712  0.6665 -1.2663 -1.6234
  158TMC2    C7 2465   2.787   1.327  12.958  0.6697 -0.2388 -0.2358
  158TMC2    C8 2466   3.111   1.312  12.578 -0.5860 -0.1239  0.0277
  158TMC2    O1 2467   2.721   1.401  12.883 -0.7013 -0.1353 -0.0328
  158TMC2    O2 2468   3.209   1.270  12.523  0.1251  0.2962 -0.7993
  158TMC2    O5 2469   3.001   1.364  12.519 -0.2902 -0.2309  0.2573
  158TMC2    H5 2470   2.920   1.354  12.573 -0.0409  0.8670  0.8374
  159MPD2     C 2471   3.439   0.988  13.466 -0.5603  0.0364 -0.5057
  159MPD2    C1 2472   3.322   1.063  13.487  0.9142  0.6922 -0.2240
  159MPD2    C2 2473   3.252   1.108  13.374  0.4567 -0.2517  0.5695
  159MPD2    C3 2474   3.307   1.096  13.248  0.7792 -0.5613 -0.5976
  159MPD2    C4 2475   3.429   1.034  13.230 -0.3816  0.0600  0.0768
  159MPD2    C5 2476   3.498   0.986  13.343 -0.3261 -0.3520 -0.0181
  159MPD2     H 2477   3.155   1.156  13.387  1.0895  1.3664 -0.5853
  159MPD2    H1 2478   3.478   1.018  13.135 -0.2616 -0.3503  0.2047
  159MPD2    H2 2479   3.504   0.944  13.542 -0.7868  2.7630  1.2783
  159MPD2    H3 2480   3.599   0.947  13.341  0.3900  1.7606 -3.4431
  159MPD2     N 2481   3.225   1.146  13.144  0.3734 -0.9375 -0.7556
  159MPD2    H5 2482   3.150   1.208  13.173  0.2404 -0.9224 -1.1287
  159MPD2    N1 2483   3.278   1.067  13.618  0.0886  0.2786 -0.0687
  159MPD2    H7 2484   3.336   1.019  13.686 -0.1169 -0.6535 -0.5541
  160TMC2    C1 2485   3.320   3.977   1.464  0.1950  0.2201  0.0635
  160TMC2    C2 2486   3.361   3.935   1.585  0.7620  0.2328 -0.0287
  160TMC2    C3 2487   3.465   3.846   1.593  0.6685 -0.7929  0.3060
  160TMC2    C4 2488   3.382   3.939   1.343  0.6851 -0.3263  1.4872
  160TMC2    C5 2489   3.477   3.841   1.358 -0.5975  0.2080  0.3503
  160TMC2    C6 2490   3.514   3.791   1.477  0.9218  0.2916 -0.5378
  160TMC2     C 2491   3.254   4.104   1.469  0.2471  0.1261 -0.2502
  160TMC2     O 2492   3.279   4.165   1.572 -0.3264 -0.1778 -0.7522
  160TMC2     H 2493   3.307   3.965   1.674  1.1571  0.5420  0.1102
  160TMC2    H1 2494   3.353   3.989   1.252 -1.2776 -1.6279  1.3844
  160TMC2    H2 2495   3.593   3.717   1.477 -0.2983 -1.0072  2.1975
  160TMC2    C7 2496   3.547   3.778   1.245 -0.3062  0.1473  0.0071
  160TMC2    C8 2497   3.513   3.806   1.723  0.2307  0.3930  0.0475
  160TMC2    O1 2498   3.594   3.669   1.271  0.4600  0.3127 -0.0121
  160TMC2    O2 2499   3.539   3.686   1.741 -0.4232 -0.2074  0.6396
  160TMC2    O5 2500   3.479   3.895   1.812 -0.3028 -0.0159 -0.4298
  160TMC2    H5 2501   3.481   3.980   1.762 -2.0064  1.0735  1.3843
  161MPD2     C 2502   3.117   4.356   1.415 -0.1060  0.3406  0.2993
  161MPD2    C1 2503   3.125   4.257   1.322 -0.4293  0.6040  0.5983
  161MPD2    C2 2504   3.050   4.270   1.213  0.0229 -0.5187  0.1026
  161MPD2    C3 2505   2.976   4.380   1.184  0.1749 -0.1175  0.2503
  161MPD2    C4 2506   2.978   4.484   1.278 -1.2976 -0.0595  0.2085
  161MPD2    C5 2507   3.049   4.468   1.391 -0.2363 -0.2592  0.0221
  161MPD2     H 2508   3.049   4.189   1.141 -2.0122 -0.1913 -0.2421
  161MPD2    H1 2509   2.928   4.580   1.270  1.5657  1.7109  3.4317
  161MPD2    H2 2510   3.162   4.354   1.514  0.8867  1.9822 -0.1064
  161MPD2    H3 2511   3.054   4.554   1.457  2.4021  0.0326 -0.5606
  161MPD2     N 2512   2.904   4.400   1.067 -0.2609 -0.3398 -0.3865
  161MPD2    H5 2513   2.867   4.493   1.050 -0.5846 -0.2552  0.7679
  161MPD2    N1 2514   3.198   4.145   1.349 -0.1951  0.1940 -0.0746
  161MPD2    H7 2515   3.193   4.068   1.283  0.0813  0.4757 -0.4171
  162TMC2    C1 2516   1.774   1.466   1.366 -0.2306 -0.2528 -0.3687
  162TMC2    C2 2517   1.685   1.560   1.411 -0.6253  0.6010  0.9278
  162TMC2    C3 2518   1.726   1.663   1.495 -0.1087  0.2242  0.5738
  162TMC2    C4 2519   1.904   1.460   1.423  0.3475  0.1275  0.2405
  162TMC2    C5 2520   1.937   1.554   1.515 -0.0405 -0.2959 -0.1861
  162TMC2    C6 2521   1.847   1.649   1.556  0.9613 -0.8184 -0.1867
  162TMC2     C 2522   1.720   1.349   1.297 -0.0731  0.2602  0.2870
  162TMC2     O 2523   1.800   1.267   1.257 -0.4976  0.2906 -0.0357
  162TMC2     H 2524   1.582   1.555   1.379 -0.6054  0.4421  0.8890
  162TMC2    H1 2525   1.969   1.380   1.390 -0.6182  0.0685 -1.5637
  162TMC2    H2 2526   1.890   1.717   1.629 -1.5095 -0.2755  0.7624
  162TMC2    C7 2527   2.011   1.503   1.619 -0.1037  0.1898  0.2154
  162TMC2    C8 2528   1.633   1.769   1.515  0.0085  0.3549 -0.4677
  162TMC2    O1 2529   2.081   1.583   1.680  0.5282  0.2260  0.1602
  162TMC2    O2 2530   1.514   1.755   1.496  0.0193  0.3375 -0.1701
  162TMC2    O5 2531   1.702   1.885   1.486  0.7121  0.1724  0.0800
  162TMC2    H5 2532   1.790   1.875   1.443  0.4508 -0.1053 -0.4016
  163MPD2     C 2533   1.367   1.008   1.146  0.4575 -0.1075  0.7102
  163MPD2    C1 2534   1.472   1.067   1.078  0.0952  0.8929 -0.1738
  163MPD2    C2 2535   1.556   1.154   1.148 -0.1179  0.8499 -0.1301
  163MPD2    C3 2536   1.517   1.214   1.266  0.2067  0.5784 -0.5607
  163MPD2    C4 2537   1.397   1.166   1.328 -0.0557  0.2190 -0.1344
  163MPD2    C5 2538   1.330   1.060   1.270 -0.4211  0.4922  0.1139
  163MPD2     H 2539   1.647   1.185   1.098 -0.7590 -0.2562 -1.9952
  163MPD2    H1 2540   1.350   1.215   1.412  0.4480  1.4412 -0.5663
  163MPD2    H2 2541   1.309   0.936   1.090  1.5624 -1.3041  1.1181
  163MPD2    H3 2542   1.246   1.019   1.325  0.6424 -1.1996  0.4943
  163MPD2     N 2543   1.587   1.322   1.324  0.0912  0.0413  0.3172
  163MPD2    H5 2544   1.545   1.380   1.396 -0.8844  1.2309 -1.1966
  163MPD2    N1 2545   1.505   1.015   0.952 -0.1225 -0.0312 -0.0708
  163MPD2    H7 2546   1.451   0.935   0.919  0.1356 -1.4471  2.9547
  164TMC2    C1 2547   1.569   0.777  11.763  0.3769 -0.4159 -0.2612
  164TMC2    C2 2548   1.645   0.882  11.797  0.8045 -0.3180 -0.0983
  164TMC2    C3 2549   1.649   0.984  11.707 -0.1180 -0.2590  0.4122
  164TMC2    C4 2550   1.524   0.751  11.636 -0.1415  0.5213 -0.1687
  164TMC2    C5 2551   1.536   0.852  11.545  0.4012  1.2469 -0.3016
  164TMC2    C6 2552   1.590   0.972  11.588 -0.3982  0.2815 -0.0970
  164TMC2     C 2553   1.555   0.671  11.859  0.5561 -0.0181  0.6353
  164TMC2     O 2554   1.641   0.671  11.947  0.3005 -0.4415 -0.1891
  164TMC2     H 2555   1.667   0.899  11.902 -0.3199  2.2422 -0.2853
  164TMC2    H1 2556   1.478   0.657  11.606 -0.5278 -0.0432  2.2246
  164TMC2    H2 2557   1.571   1.061  11.529 -0.4163  0.6047  0.3910
  164TMC2    C7 2558   1.421   0.862  11.453  0.4769 -0.4757  0.2882
  164TMC2    C8 2559   1.684   1.115  11.763  0.6543 -0.0629 -0.3531
  164TMC2    O1 2560   1.372   0.972  11.431  0.0393 -0.1578  0.3688
  164TMC2    O2 2561   1.636   1.157  11.870  0.4109 -0.1932 -0.6492
  164TMC2    O5 2562   1.712   1.197  11.664  0.2452  0.2098  0.2925
  164TMC2    H5 2563   1.740   1.148  11.585 -0.7036  0.2942 -0.0889
  165TMC2    C1 2564   3.591   2.510   1.154 -0.0893  0.6617 -0.4539
  165TMC2    C2 2565   3.630   2.387   1.106  0.2211  0.7065 -0.0045
  165TMC2    C3 2566   3.737   2.384   1.016 -0.7558 -0.2032  0.1810
  165TMC2    C4 2567   3.662   2.623   1.124  0.1599 -0.1250  0.0542
  165TMC2    C5 2568   3.764   2.616   1.031 -0.2954 -1.0744 -0.0546
  165TMC2    C6 2569   3.802   2.496   0.974  0.5683  0.3485 -1.2445
  165TMC2     C 2570   3.476   2.511   1.241  0.8375  0.1678 -0.1968
  165TMC2     O 2571   3.388   2.433   1.222 -0.0372 -0.0272 -0.1930
  165TMC2     H 2572   3.573   2.296   1.116 -0.5557  1.1900 -0.0776
  165TMC2    H1 2573   3.638   2.718   1.171  0.5356 -0.3609  0.7324
  165TMC2    H2 2574   3.874   2.486   0.893  1.4682  1.3450 -0.5505
  165TMC2    C7 2575   3.806   2.744   0.971 -0.4903 -0.0025  0.6884
  165TMC2    C8 2576   3.763   2.259   0.946 -0.2063 -0.2428 -0.4116
  165TMC2    O1 2577   3.759   2.844   1.018 -0.0262  0.9475 -0.0441
  165TMC2    O2 2578   3.680   2.184   0.903 -0.8584  0.1132 -0.1286
  165TMC2    O5 2579   3.900   2.241   0.935 -0.2523 -0.0024 -0.0919
  165TMC2    H5 2580   3.968   2.295   0.981 -1.8651  0.2893  1.9632
  166MPD2     C 2581   3.187   2.714   1.617 -0.1943 -0.0990 -0.3429
  166MPD2    C1 2582   3.168   2.603   1.541  0.6249  0.2670 -0.2402
  166MPD2    C2 2583   3.260   2.567   1.447  0.1533  0.0585  0.7182
  166MPD2    C3 2584   3.378   2.634   1.435 -0.0431 -0.2478  0.2690
  166MPD2    C4 2585   3.395   2.753   1.504 -0.1076 -0.0872 -0.1319
  166MPD2    C5 2586   3.295   2.787   1.594 -0.2536 -0.5084  0.2737
  166MPD2     H 2587   3.241   2.473   1.397 -3.1082  0.3295  1.4327
  166MPD2    H1 2588   3.478   2.820   1.483  2.0323 -3.2684 -1.8717
  166MPD2    H2 2589   3.114   2.748   1.689  0.6257  0.7341  0.0884
  166MPD2    H3 2590   3.307   2.883   1.644  0.6234 -0.9930  0.9990
  166MPD2     N 2591   3.483   2.606   1.343  0.1058 -0.0427  0.3581
  166MPD2    H5 2592   3.567   2.663   1.353  1.4503 -2.1196  0.8182
  166MPD2    N1 2593   3.052   2.529   1.567  0.1023  0.2598 -0.1050
  166MPD2    H7 2594   2.984   2.574   1.627 -1.7241 -1.2740 -1.0106
  167TMC2    C1 2595   1.193   4.140  13.237 -0.0118  0.4049  0.3715
  167TMC2    C2 2596   1.227   4.095  13.367 -0.0994 -1.1402  0.1938
  167TMC2    C3 2597   1.362   4.076  13.396 -0.0881  0.1365 -0.4079
  167TMC2    C4 2598   1.288   4.178  13.146  0.1822 -0.4516  0.1053
  167TMC2    C5 2599   1.420   4.165  13.188  0.9378  0.8662 -0.1728
  167TMC2    C6 2600   1.459   4.120  13.308 -0.0894  0.1515 -0.0592
  167TMC2     C 2601   1.052   4.161  13.208  0.3369  0.7574  0.1516
  167TMC2     O 2602   0.970   4.114  13.287  0.0094 -0.2561 -0.5530
  167TMC2     H 2603   1.146   4.070  13.433 -0.8364  0.8743  0.0365
  167TMC2    H1 2604   1.257   4.194  13.044 -0.7534 -0.1986  0.4230
  167TMC2    H2 2605   1.558   4.080  13.327 -0.8173 -1.5562  0.1284
  167TMC2    C7 2606   1.523   4.175  13.086 -0.3906 -0.0498  0.1941
  167TMC2    C8 2607   1.394   4.080  13.537  0.0730 -0.3337  0.7841
  167TMC2    O1 2608   1.627   4.106  13.094 -0.6443  0.1877  0.1864
  167TMC2    O2 2609   1.315   4.033  13.616 -0.2843 -0.3904  0.9530
  167TMC2    O5 2610   1.461   4.194  13.555  0.3824  0.1177 -0.1925
  167TMC2    H5 2611   1.485   4.250  13.478 -1.6678 -0.7424 -1.4426
  168MPD2     C 2612   0.778   4.204  13.086 -0.3011  0.9169  0.0379
  168MPD2    C1 2613   0.890   4.283  13.060 -0.3290  0.4221 -0.6250
  168MPD2    C2 2614   0.874   4.385  12.977 -0.1950 -0.6454  0.0807
  168MPD2    C3 2615   0.756   4.420  12.914 -1.0088 -0.3149  0.2650
  168MPD2    C4 2616   0.645   4.358  12.944  0.0759  0.4761  0.8959
  168MPD2    C5 2617   0.657   4.255  13.034  0.4430  0.2795  0.4013
  168MPD2     H 2618   0.960   4.451  12.971 -0.1425 -0.8520 -1.4092
  168MPD2    H1 2619   0.551   4.381  12.895  1.0280 -0.2158 -1.2463
  168MPD2    H2 2620   0.782   4.113  13.145  0.0093  0.2556 -1.0129
  168MPD2    H3 2621   0.563   4.206  13.060  0.2749 -0.1127 -0.9717
  168MPD2     N 2622   0.737   4.533  12.833 -0.4324  0.2348  0.0499
  168MPD2    H5 2623   0.646   4.546  12.790  0.8287  1.3138 -2.2981
  168MPD2    N1 2624   1.022   4.252  13.104 -0.2778 -0.2157 -0.2535
  168MPD2    H7 2625   1.097   4.299  13.054  1.6251 -1.5138  1.3716
  169MPD1     C 2626   2.788   1.018   9.660 -0.8726  0.3081 -1.1357
  169MPD1    C1 2627   2.708   0.930   9.726 -0.6509 -0.5322  0.5975
  169MPD1    C2 2628   2.734   0.793   9.705 -0.6254 -0.6453 -0.6483
  169MPD1    C3 2629   2.827   0.748   9.615  0.6741 -0.3622 -0.7048
  169MPD1    C4 2630   2.905   0.841   9.550  0.1021 -0.3644  0.7221
  169MPD1    C5 2631   2.889   0.975   9.574 -0.2012 -0.3613 -0.0490
  169MPD1     H 2632   2.667   0.721   9.750 -0.6794  0.2053  0.6487
  169MPD1    H1 2633   2.985   0.815   9.482  0.3228  0.4084  0.6816
  169MPD1    H2 2634   2.775   1.125   9.675 -0.5070 -0.1347  2.2410
  169MPD1    H3 2635   2.940   1.046   9.510 -1.0195  1.1669  0.9899
  169MPD1     N 2636   2.827   0.609   9.600 -0.5199 -0.6217  0.9375
  169MPD1    H5 2637   2.762   0.555   9.657 -2.1973 -0.0390 -0.4156
  169MPD1    N1 2638   2.594   0.983   9.787  0.0301 -0.0476 -0.7767
  169MPD1    H6 2639   2.607   1.076   9.828  0.9143  0.4604 -2.2266
  169MPD1    H7 2640   2.570   0.924   9.867 -0.1884 -1.3208 -1.7923
  170MPD1     C 2641   1.429   3.101  13.419 -0.0088  0.1822 -0.1483
  170MPD1    C1 2642   1.521   3.196  13.388  0.0135  0.5048 -0.3861
  170MPD1    C2 2643   1.626   3.214  13.479  0.7355 -0.6170  0.2448
  170MPD1    C3 2644   1.647   3.127  13.587 -0.2794 -0.0276  0.1766
  170MPD1    C4 2645   1.558   3.025  13.606  0.2077  0.0308 -0.8714
  170MPD1    C5 2646   1.453   3.010  13.515  0.9197  0.0578  0.8066
  170MPD1     H 2647   1.691   3.301  13.476  0.1004 -0.0357  2.6022
  170MPD1    H1 2648   1.570   2.945  13.678  0.7104  2.7249  2.0368
  170MPD1    H2 2649   1.343   3.081  13.357  0.3185  0.3850 -0.6665
  170MPD1    H3 2650   1.382   2.928  13.525  1.3405 -0.4916 -0.7070
  170MPD1     N 2651   1.760   3.150  13.667  0.0492  0.1825 -0.2569
  170MPD1    H5 2652   1.813   3.236  13.653  0.7667 -0.4326 -1.3204
  170MPD1    N1 2653   1.486   3.294  13.286 -0.2329 -0.4097 -0.1454
  170MPD1    H6 2654   1.417   3.264  13.217 -0.1275 -2.4818  0.6557
  170MPD1    H7 2655   1.566   3.341  13.244 -0.8958  2.1631  1.4332
  171MPD1     C 2656   0.332   4.079  15.453 -0.1827 -0.3429 -0.2715
  171MPD1    C1 2657   0.384   3.964  15.393 -0.7505 -0.4533 -0.1895
  171MPD1    C2 2658   0.463   3.883  15.472 -0.4104 -0.9151  0.0871
  171MPD1    C3 2659   0.511   3.930  15.593 -1.1243  0.1505  0.1607
  171MPD1    C4 2660   0.479   4.057  15.636  0.1333 -0.5000 -0.1553
  171MPD1    C5 2661   0.384   4.127  15.568  0.5028 -0.2553 -0.5570
  171MPD1     H 2662   0.490   3.786  15.432 -1.3819 -0.0247 -2.7394
  171MPD1    H1 2663   0.522   4.105  15.722 -0.9139  0.3456 -0.0988
  171MPD1    H2 2664   0.256   4.138  15.403  1.1449  0.7226 -1.0159
  171MPD1    H3 2665   0.344   4.220  15.608  0.5881 -0.4654  0.0070
  171MPD1     N 2666   0.581   3.851  15.689  0.3895  0.0116  0.1819
  171MPD1    H5 2667   0.611   3.892  15.777 -1.6553 -0.6735  1.1864
  171MPD1    N1 2668   0.333   3.917  15.271  0.4697  0.2521 -0.1564
  171MPD1    H6 2669   0.394   3.866  15.207 -0.6924  0.5857 -1.5332
  171MPD1    H7 2670   0.300   3.991  15.209 -1.0134  1.1648  1.7292
  172MPD1     C 2671   4.725   3.424  17.543 -0.4298  0.3252 -0.3235
  172MPD1    C1 2672   4.664   3.535  17.498  0.7411 -0.7032  0.0375
  172MPD1    C2 2673   4.645   3.640  17.583 -0.5774  0.2598  0.4456
  172MPD1    C3 2674   4.697   3.644  17.711 -0.2575 -0.3898  0.2907
  172MPD1    C4 2675   0.031   3.526   0.017 -0.0540 -0.3451  0.4044
  172MPD1    C5 2676   0.048   3.421  17.667  0.5867  0.2096 -0.2484
  172MPD1     H 2677   4.591   3.722  17.536 -0.0924  1.4744  1.9956
  172MPD1    H1 2678   0.055   3.517   0.122 -1.2307 -2.6429  0.4588
  172MPD1    H2 2679   4.735   3.331  17.488 -1.7879 -0.0604  0.0659
  172MPD1    H3 2680   0.082   3.324  17.702  1.8473 -0.1151 -2.3884
  172MPD1     N 2681   4.663   3.744   0.059  0.5554  0.3654  0.1747
  172MPD1    H5 2682   4.718   3.747   0.145  0.4012 -0.2750  0.2948
  172MPD1    N1 2683   4.582   3.526  17.382  0.1629  0.1552  0.1445
  172MPD1    H6 2684   4.557   3.614  17.337  1.7874  0.6417  0.2016
  172MPD1    H7 2685   4.604   3.458  17.309  0.7009  0.1924  0.2721
  173MPD1     C 2686   1.908   3.846  14.486 -0.1988  0.3791  0.3773
  173MPD1    C1 2687   1.776   3.803  14.491 -0.3402  0.2302 -0.1459
  173MPD1    C2 2688   1.757   3.672  14.515  0.0433  0.3815 -0.2487
  173MPD1    C3 2689   1.853   3.590  14.546 -0.5914 -0.3470 -0.3593
  173MPD1    C4 2690   1.980   3.635  14.563  0.6530  0.0134  0.6469
  173MPD1    C5 2691   2.010   3.765  14.535 -0.0486 -0.2934  0.0444
  173MPD1     H 2692   1.655   3.636  14.511  1.0260 -2.5618  0.7606
  173MPD1    H1 2693   2.054   3.566  14.604 -0.0705 -1.0465  0.1720
  173MPD1    H2 2694   1.940   3.947  14.462 -0.6999 -0.0533 -2.0874
  173MPD1    H3 2695   2.114   3.798  14.533  0.4269 -1.8748 -1.1853
  173MPD1     N 2696   1.823   3.456  14.588  0.2922 -0.3687 -0.2059
  173MPD1    H5 2697   1.727   3.424  14.579 -0.3748  2.0308 -1.3728
  173MPD1    N1 2698   1.673   3.882  14.429  0.5746  0.2091 -0.1966
  173MPD1    H6 2699   1.694   3.978  14.457  1.6418  0.3568 -1.5442
  173MPD1    H7 2700   1.586   3.852  14.472  1.0853  1.3398  1.6727
  174MPD1     C 2701   1.943   2.403  14.550 -0.6332  0.4066 -0.2457
  174MPD1    C1 2702   2.048   2.488  14.544  0.5686  0.7013  0.0510
  174MPD1    C2 2703   2.025   2.613  14.589 -0.5443  0.5268 -0.1103
  174MPD1    C3 2704   1.916   2.646  14.668 -0.3161  0.1370  0.0512
  174MPD1    C4 2705   1.810   2.554  14.672 -0.8798  0.0082 -0.2486
  174MPD1    C5 2706   1.837   2.428  14.620  0.4283  0.4444  0.1034
  174MPD1     H 2707   2.100   2.691  14.589  0.1407 -0.1288  3.0391
  174MPD1    H1 2708   1.713   2.570  14.717  0.2232  1.3115  1.6539
  174MPD1    H2 2709   1.939   2.313  14.489 -3.0619  1.0914 -1.1000
  174MPD1    H3 2710   1.758   2.353  14.632 -1.0833  2.4580  2.8332
  174MPD1     N 2711   1.890   2.778  14.717  0.1860  0.7149 -0.0533
  174MPD1    H5 2712   1.799   2.797  14.756 -0.8565  0.2625 -2.2604
  174MPD1    N1 2713   2.167   2.458  14.481  0.4201 -1.1751 -0.0755
  174MPD1    H6 2714   2.255   2.494  14.518  0.7159 -0.8959 -1.0447
  174MPD1    H7 2715   2.179   2.358  14.466 -1.0007 -1.2019 -0.9885
  175MPD1     C 2716   4.260   4.398  14.935  0.2546  0.2349  0.5231
  175MPD1    C1 2717   4.332   4.299  14.996 -0.2282  0.1702  0.2847
  175MPD1    C2 2718   4.328   4.278  15.131 -0.4364 -0.1431 -0.0210
  175MPD1    C3 2719   4.234   4.346  15.210 -0.1748 -0.7435  0.2084
  175MPD1    C4 2720   4.147   4.431  15.144 -0.7153  0.0159  0.2530
  175MPD1    C5 2721   4.167   4.463  15.011  0.8192  0.0780 -0.9704
  175MPD1     H 2722   4.403   4.210  15.170 -1.7806 -1.6533 -0.0698
  175MPD1    H1 2723   4.072   4.489  15.198 -0.1138 -0.2809  1.4123
  175MPD1    H2 2724   4.277   4.424  14.831 -0.3694 -1.3940  0.0087
  175MPD1    H3 2725   4.109   4.540  14.963  1.6090  0.1537 -1.7921
  175MPD1     N 2726   4.220   4.326  15.352 -0.1078 -0.2462 -0.7838
  175MPD1    H5 2727   4.143   4.375  15.397 -1.0797 -0.8071 -1.8144
  175MPD1    N1 2728   4.422   4.230  14.915 -0.3435 -0.4580 -0.3816
  175MPD1    H6 2729   4.407   4.251  14.816  1.5654 -0.6785 -0.7218
  175MPD1    H7 2730   4.414   4.129  14.926  0.1629 -0.5436 -0.7858
  176MPD1     C 2731   1.266   1.208   0.286 -0.3359 -0.2391  0.0327
  176MPD1    C1 2732   1.293   1.305   0.377  0.2853 -0.2976 -0.6862
  176MPD1    C2 2733   1.319   1.435   0.329 -0.4233 -0.1836  0.5199
  176MPD1    C3 2734   1.303   1.473   0.198 -0.1323  0.4905  0.2867
  176MPD1    C4 2735   1.270   1.372   0.109 -0.2755 -0.5070 -0.0070
  176MPD1    C5 2736   1.260   1.245   0.156  0.3932 -0.6172  0.9190
  176MPD1     H 2737   1.362   1.507   0.397 -1.8458 -1.5273  2.8256
  176MPD1    H1 2738   1.263   1.380   0.001  3.2989 -1.0095 -0.2771
  176MPD1    H2 2739   1.287   1.105   0.314 -0.9862 -0.2801  0.3713
  176MPD1    H3 2740   1.259   1.171   0.076  1.8513  0.3840 -0.0268
  176MPD1     N 2741   1.317   1.606   0.166 -0.4199 -0.3562  0.7201
  176MPD1    H5 2742   1.341   1.671   0.240 -0.6794 -0.9915  1.3563
  176MPD1    N1 2743   1.305   1.269   0.515 -0.6500  0.8892 -0.0639
  176MPD1    H6 2744   1.278   1.174   0.539  0.3954  0.9065  1.1289
  176MPD1    H7 2745   1.256   1.328   0.582 -2.9255 -0.5581 -0.4425
  177MPD1     C 2746   4.642   1.186  10.136  0.1778 -0.4089 -0.4036
  177MPD1    C1 2747   4.557   1.093  10.084 -0.4717 -0.0915  0.0601
  177MPD1    C2 2748   4.500   1.096   9.957  0.3088  0.6164 -0.7392
  177MPD1    C3 2749   4.546   1.196   9.869  0.2847  0.4616 -0.0350
  177MPD1    C4 2750   4.638   1.289   9.922  0.0876  0.0770 -0.8229
  177MPD1    C5 2751   4.687   1.276  10.050 -0.2688  0.0966  0.9739
  177MPD1     H 2752   4.433   1.018   9.924 -0.9622  1.0609  0.8145
  177MPD1    H1 2753   4.666   1.374   9.861 -2.0934  1.0711 -0.4432
  177MPD1    H2 2754   4.672   1.189  10.240 -0.0873  1.2876 -0.3654
  177MPD1    H3 2755   0.016   1.354  10.090  1.4448  0.2885 -2.1360
  177MPD1     N 2756   4.487   1.202   9.741  0.7697 -0.4346  0.0202
  177MPD1    H5 2757   4.415   1.135   9.715 -2.5918  2.8835  0.8696
  177MPD1    N1 2758   4.514   0.999  10.177 -0.0624  0.3109 -0.1114
  177MPD1    H6 2759   4.573   0.991  10.260 -0.6261  4.0933  0.6446
  177MPD1    H7 2760   4.506   0.907  10.136 -0.4127  0.1788  0.2541
  178MPD1     C 2761   2.088   2.479   0.234  0.1712 -0.1502 -0.2186
  178MPD1    C1 2762   2.033   2.357   0.223  0.4432  0.7302 -0.4771
  178MPD1    C2 2763   2.075   2.278   0.118 -0.8998  0.0028  0.2160
  178MPD1    C3 2764   2.184   2.315   0.042 -0.0835 -0.5424  0.5734
  178MPD1    C4 2765   2.246   2.432   0.065  0.3091  0.7536 -0.6141
  178MPD1    C5 2766   2.188   2.516   0.152  0.2385  1.0020  0.1681
  178MPD1     H 2767   2.034   2.179   0.105 -0.0913 -0.0882 -1.6151
  178MPD1    H1 2768   2.340   2.461   0.020  1.2453 -1.6034 -0.1787
  178MPD1    H2 2769   2.061   2.555   0.307  2.3167 -0.9442  1.4113
  178MPD1    H3 2770   2.237   2.613   0.158 -0.7182  1.4113  1.4130
  178MPD1     N 2771   2.240   2.233  17.682  0.1190 -1.0471  0.1905
  178MPD1    H5 2772   2.328   2.265  17.642 -0.2034  0.3619  0.5920
  178MPD1    N1 2773   1.918   2.319   0.297 -0.4394 -0.3381  0.2561
  178MPD1    H6 2774   1.920   2.220   0.322 -0.6322 -0.6070 -0.8068
  178MPD1    H7 2775   1.917   2.371   0.385  1.8262  1.1871 -0.6269
  179MPD1     C 2776   1.520   1.236  16.065 -0.2091  0.2633  0.3414
  179MPD1    C1 2777   1.555   1.208  16.192  0.0152 -0.3462  0.8372
  179MPD1    C2 2778   1.537   1.079  16.232 -0.5318  0.0132 -0.1205
  179MPD1    C3 2779   1.491   0.978  16.143  0.2591 -0.0317 -0.0478
  179MPD1    C4 2780   1.441   1.014  16.023  0.2388  0.3295 -0.2569
  179MPD1    C5 2781   1.467   1.138  15.981  0.2108 -0.7593 -0.0439
  179MPD1     H 2782   1.581   1.055  16.328 -1.0575 -0.5548 -0.0187
  179MPD1    H1 2783   1.406   0.940  15.952  1.0658 -0.4150  0.1144
  179MPD1    H2 2784   1.549   1.332  16.024  2.8330 -1.8680 -2.4968
  179MPD1    H3 2785   1.450   1.163  15.876 -0.6917 -0.3987  0.1817
  179MPD1     N 2786   1.506   0.839  16.161 -0.0141  0.0631  0.7327
  179MPD1    H5 2787   1.483   0.778  16.083 -1.0154 -1.1508  1.9555
  179MPD1    N1 2788   1.621   1.305  16.265  0.3856 -0.0201 -0.2330
  179MPD1    H6 2789   1.711   1.325  16.222 -0.9962  0.6154 -2.8223
  179MPD1    H7 2790   1.630   1.273  16.361 -2.1357  0.8705  0.3271
  180MPD1     C 2791   1.238   1.429  15.565 -0.2248 -0.1447  0.5081
  180MPD1    C1 2792   1.319   1.355  15.483 -0.5550  0.3308  0.0825
  180MPD1    C2 2793   1.260   1.314  15.358  0.4809  0.2046 -0.0080
  180MPD1    C3 2794   1.152   1.385  15.307 -0.2604  0.3809  0.8311
  180MPD1    C4 2795   1.082   1.470  15.382  0.3499 -0.2947  0.6803
  180MPD1    C5 2796   1.114   1.483  15.517 -0.8926 -0.3605 -0.4632
  180MPD1     H 2797   1.302   1.239  15.293  2.9338  0.5224  1.2151
  180MPD1    H1 2798   0.990   1.518  15.351  1.4732  1.6761  0.4101
  180MPD1    H2 2799   1.249   1.445  15.671  1.9981  0.5958  0.1671
  180MPD1    H3 2800   1.041   1.531  15.581  2.0006  3.1214  0.1816
  180MPD1     N 2801   1.123   1.349  15.175 -0.2453 -0.2743  0.0758
  180MPD1    H5 2802   1.197   1.296  15.131 -3.6112 -4.2176 -0.8357
  180MPD1    N1 2803   1.435   1.288  15.526 -0.2553  0.1985 -0.6390
  180MPD1    H6 2804   1.494   1.349  15.583 -0.5067  1.8932 -2.2010
  180MPD1    H7 2805   1.493   1.251  15.452  2.1643  0.1275  1.2845
  181MPD1     C 2806   3.647   3.093  10.396 -0.4527 -0.6085  0.6704
  181MPD1    C1 2807   3.699   2.970  10.361 -0.1839  0.7751 -0.8625
  181MPD1    C2 2808   3.832   2.960  10.314  0.1343  0.3450  0.1288
  181MPD1    C3 2809   3.902   3.083  10.290  0.5336 -0.1755 -0.5257
  181MPD1    C4 2810   3.850   3.202  10.331  0.3445 -0.2405 -0.4569
  181MPD1    C5 2811   3.722   3.208  10.384  0.7195 -0.4213 -0.4652
  181MPD1     H 2812   3.875   2.863  10.294 -0.9145 -0.1148  0.0882
  181MPD1    H1 2813   3.897   3.293  10.296  2.1748 -1.1879 -0.4578
  181MPD1    H2 2814   3.554   3.106  10.449  0.1822 -0.9903  1.8607
  181MPD1    H3 2815   3.687   3.309  10.403 -1.4055 -0.9318 -1.6917
  181MPD1     N 2816   4.035   3.094  10.235 -0.4791 -0.3492  0.2456
  181MPD1    H5 2817   4.079   3.185  10.231  2.0679 -1.6182 -0.1935
  181MPD1    N1 2818   3.624   2.853  10.382  0.0774  0.1635  0.0880
  181MPD1    H6 2819   3.622   2.792  10.300  0.8323  0.1581  0.0737
  181MPD1    H7 2820   3.526   2.877  10.389  0.0800 -0.1848  1.2668
  182MPD1     C 2821   4.554   2.642   1.749  0.6358  0.4951  0.2127
  182MPD1    C1 2822   4.633   2.596   1.646 -0.7150  0.2214 -0.0419
  182MPD1    C2 2823   4.573   2.508   1.558 -0.8798  0.2543 -0.5688
  182MPD1    C3 2824   4.439   2.465   1.569  0.8586 -0.1695 -0.0666
  182MPD1    C4 2825   4.363   2.518   1.672 -0.2466 -1.2634  0.0507
  182MPD1    C5 2826   4.424   2.603   1.762  0.7744 -0.2073  0.9732
  182MPD1     H 2827   4.637   2.491   1.472  0.1971  0.7039  0.1484
  182MPD1    H1 2828   4.258   2.496   1.688  0.0001 -3.0037 -0.7431
  182MPD1    H2 2829   4.595   2.701   1.830 -1.3875  1.1355  0.7703
  182MPD1    H3 2830   4.371   2.634   1.851 -0.4230 -0.1019  0.2196
  182MPD1     N 2831   4.383   2.363   1.491 -0.1929  0.4243  0.0945
  182MPD1    H5 2832   4.282   2.351   1.491  0.0421 -1.6629 -0.7372
  182MPD1    N1 2833   0.021   2.652   1.627  0.5167  0.2935 -0.0067
  182MPD1    H6 2834   0.063   2.669   1.719  0.8089  0.8301 -0.2399
  182MPD1    H7 2835   0.078   2.593   1.568 -1.8213 -1.4794 -0.4852
  183MPD1     C 2836   4.441   2.350   8.402 -0.0057  0.2043  0.0005
  183MPD1    C1 2837   4.330   2.297   8.460 -0.0785  0.6122  0.0540
  183MPD1    C2 2838   4.310   2.303   8.601  0.1033  0.4640 -0.0626
  183MPD1    C3 2839   4.407   2.351   8.685 -0.0730  0.5026 -0.7716
  183MPD1    C4 2840   4.521   2.397   8.626  0.3209  1.2110  0.4711
  183MPD1    C5 2841   4.543   2.393   8.491  0.2281  0.0646 -0.4260
  183MPD1     H 2842   4.218   2.261   8.641 -1.0008  0.6379 -2.3881
  183MPD1    H1 2843   4.592   2.455   8.684  1.6522 -0.0596  0.0991
  183MPD1    H2 2844   4.455   2.353   8.295 -1.0281 -1.5870 -0.1814
  183MPD1    H3 2845   4.631   2.435   8.444  0.8708  2.1430  2.6141
  183MPD1     N 2846   4.369   2.380   8.820 -0.1214  0.1333 -0.0297
  183MPD1    H5 2847   4.275   2.350   8.846 -0.0793 -0.7453 -0.9091
  183MPD1    N1 2848   4.224   2.252   8.383  0.0535  0.4788  0.6761
  183MPD1    H6 2849   4.165   2.183   8.430  1.7384 -2.3491 -1.3840
  183MPD1    H7 2850   4.256   2.208   8.296  0.6376  1.4124  0.4228
  184MPD1     C 2851   3.593   0.697  10.217 -0.1541 -0.6377  0.1882
  184MPD1    C1 2852   3.484   0.713  10.131 -0.0746  0.2445 -0.4050
  184MPD1    C2 2853   3.506   0.756   9.998  0.0791  0.1248  0.1984
  184MPD1    C3 2854   3.628   0.802   9.961 -0.2932  0.0138 -0.5130
  184MPD1    C4 2855   3.734   0.805  10.055  0.0373  1.4158 -0.1241
  184MPD1    C5 2856   3.715   0.745  10.176  0.5436  0.5879 -0.0922
  184MPD1     H 2857   3.427   0.752   9.923  2.2501 -3.0831 -1.9083
  184MPD1    H1 2858   3.833   0.836  10.022 -1.2202  1.4518 -3.8729
  184MPD1    H2 2859   3.600   0.663  10.319 -0.5469 -0.9809  0.1007
  184MPD1    H3 2860   3.798   0.743  10.246 -1.6376 -0.4040  2.4310
  184MPD1     N 2861   3.656   0.861   9.839 -0.1096 -0.3866  0.0536
  184MPD1    H5 2862   3.747   0.905   9.832  0.3054 -1.4126 -1.0738
  184MPD1    N1 2863   3.363   0.652  10.171  0.3328  0.3496 -0.1817
  184MPD1    H6 2864   3.341   0.640  10.270  1.6405  0.7958  0.1611
  184MPD1    H7 2865   3.283   0.704  10.135 -1.9239 -2.1739  1.1609
  185MPD1     C 2866   3.782   0.890   8.741 -0.0529 -0.5099 -0.6400
  185MPD1    C1 2867   3.789   0.787   8.840 -0.7924  0.5569 -0.9067
  185MPD1    C2 2868   3.772   0.822   8.971  0.4090  0.2576  0.0269
  185MPD1    C3 2869   3.726   0.945   9.011 -0.5157  0.3333  0.8081
  185MPD1    C4 2870   3.713   1.040   8.910 -0.7405  0.1987  0.6702
  185MPD1    C5 2871   3.737   1.011   8.776  0.3194  0.0202 -0.0466
  185MPD1     H 2872   3.783   0.743   9.044 -0.1331 -2.4501 -2.8299
  185MPD1    H1 2873   3.685   1.142   8.935 -2.5373  0.0946 -0.8583
  185MPD1    H2 2874   3.798   0.873   8.635  0.8737 -0.8951 -0.4360
  185MPD1    H3 2875   3.717   1.087   8.701  0.3443  0.7268  0.6523
  185MPD1     N 2876   3.718   0.972   9.149 -0.4945  0.0805  1.1182
  185MPD1    H5 2877   3.702   1.070   9.169 -0.1676  0.1178  1.1949
  185MPD1    N1 2878   3.844   0.663   8.813  0.0668  0.6564 -0.3251
  185MPD1    H6 2879   3.818   0.589   8.878 -2.8190  1.9720  0.0250
  185MPD1    H7 2880   3.812   0.633   8.720  1.2394  0.7767 -0.7640
  186MPD1     C 2881   2.229   4.735  16.026  0.0516  0.3432 -0.1946
  186MPD1    C1 2882   2.283   0.111  15.967 -0.0148 -0.4194 -0.0276
  186MPD1    C2 2883   2.266   0.227  16.035 -0.2617  0.5750  0.4415
  186MPD1    C3 2884   2.208   0.234  16.164 -0.3683  0.0917  0.0681
  186MPD1    C4 2885   2.160   0.118  16.225  0.2049  0.3109 -0.0416
  186MPD1    C5 2886   2.171   4.736  16.151  0.8213  0.6740 -0.5379
  186MPD1     H 2887   2.300   0.319  15.989 -0.7916  0.1925 -0.7088
  186MPD1    H1 2888   2.117   0.106  16.323 -0.4967 -1.5545 -0.5760
  186MPD1    H2 2889   2.232   4.640  15.975 -0.5388 -0.9989  2.2503
  186MPD1    H3 2890   2.125   4.651  16.200  0.8948  1.8777  1.6158
  186MPD1     N 2891   2.199   0.352  16.240 -0.3981 -0.1005 -0.7485
  186MPD1    H5 2892   2.174   0.338  16.338 -0.9318  0.3618 -0.8174
  186MPD1    N1 2893   2.355   0.111  15.846 -0.5070  0.4814  0.2635
  186MPD1    H6 2894   2.308   0.060  15.772  0.3911 -1.5633  1.0706
  186MPD1    H7 2895   2.357   0.202  15.802  1.9158  0.2421 -0.1065
  187MPD1     C 2896   2.038   2.536  17.500  0.6324  0.4986  0.3656
  187MPD1    C1 2897   2.045   2.618  17.395  0.4075 -1.3339 -0.8892
  187MPD1    C2 2898   1.928   2.690  17.358 -0.1419 -0.2966  0.4819
  187MPD1    C3 2899   1.807   2.664  17.424 -0.7500 -0.1625  0.4862
  187MPD1    C4 2900   1.806   2.577  17.535 -0.4082 -0.7718 -0.2694
  187MPD1    C5 2901   1.922   2.508  17.572 -0.4110  0.1603 -0.3771
  187MPD1     H 2902   1.936   2.760  17.275 -0.0737 -0.8143  0.0538
  187MPD1    H1 2903   1.715   2.558  17.589 -0.9068  2.1552 -0.0577
  187MPD1    H2 2904   2.127   2.484  17.534  0.4395  1.2431  1.9787
  187MPD1    H3 2905   1.927   2.444  17.659  0.5883  2.5521  1.3293
  187MPD1     N 2906   1.685   2.726  17.381 -0.5799 -0.3247  0.3677
  187MPD1    H5 2907   1.604   2.687  17.428  0.2003 -1.6026  0.6469
  187MPD1    N1 2908   2.173   2.657  17.341 -0.2214  0.0395  0.5387
  187MPD1    H6 2909   2.172   2.683  17.242 -1.6564  0.3500  0.6370
  187MPD1    H7 2910   2.247   2.590  17.359  1.0863  1.0080 -1.1644
  188MPD1     C 2911   1.522   2.570  10.960 -0.0206 -0.0920  0.3022
  188MPD1    C1 2912   1.476   2.483  11.052 -0.1700  0.6305 -0.1251
  188MPD1    C2 2913   1.398   2.389  11.007 -0.5605  0.0593 -0.0708
  188MPD1    C3 2914   1.368   2.364  10.875  0.0934 -0.0190 -0.1862
  188MPD1    C4 2915   1.427   2.445  10.781 -0.0397 -0.1122  1.2858
  188MPD1    C5 2916   1.493   2.555  10.827 -0.5686  0.4803  0.1679
  188MPD1     H 2917   1.362   2.323  11.086  2.2662  0.2813  1.4159
  188MPD1    H1 2918   1.395   2.436  10.677 -1.3173 -2.2021  1.8531
  188MPD1    H2 2919   1.563   2.667  10.986  1.0438  0.3629 -3.0796
  188MPD1    H3 2920   1.527   2.623  10.749  0.8195 -0.6343 -0.1984
  188MPD1     N 2921   1.295   2.253  10.824  0.2960 -0.2251  0.3929
  188MPD1    H5 2922   1.303   2.231  10.725 -2.9454  2.0494 -0.3899
  188MPD1    N1 2923   1.497   2.515  11.191  0.4304  0.0791 -0.2356
  188MPD1    H6 2924   1.583   2.565  11.215 -0.0208  0.5995  0.3096
  188MPD1    H7 2925   1.483   2.430  11.246 -0.0341  1.2783  1.5113
  189MPD1     C 2926   3.496   2.787   0.180  0.5922 -0.8057 -0.0705
  189MPD1    C1 2927   3.377   2.721   0.205  0.0005 -0.0727 -1.2178
  189MPD1    C2 2928   3.259   2.786   0.195 -0.3844  0.3165 -0.4395
  189MPD1    C3 2929   3.254   2.920   0.153  0.0042  0.2550 -0.5558
  189MPD1    C4 2930   3.373   2.978   0.113  0.1944  0.4110  0.3587
  189MPD1    C5 2931   3.495   2.911   0.134 -0.2263 -0.7817 -0.2890
  189MPD1     H 2932   3.169   2.743   0.238  0.7405 -0.2882  1.2904
  189MPD1    H1 2933   3.377   3.083   0.084 -1.0521  0.8711  1.8115
  189MPD1    H2 2934   3.588   2.732   0.199 -0.6350 -1.7057  3.3003
  189MPD1    H3 2935   3.590   2.957   0.109  0.4275 -2.3971 -0.8088
  189MPD1     N 2936   3.122   2.977   0.136  0.6152  0.0023 -0.1045
  189MPD1    H5 2937   3.045   2.917   0.163  0.9808  0.7777  2.6599
  189MPD1    N1 2938   3.383   2.602   0.285 -0.1766 -0.3218 -0.0150
  189MPD1    H6 2939   3.469   2.547   0.286  0.2513  0.4051  3.1991
  189MPD1    H7 2940   3.315   2.532   0.259  0.0467 -0.6317  0.2404
  190MPD1     C 2941   1.999   0.806  16.176 -0.4313  0.2890  0.5572
  190MPD1    C1 2942   2.061   0.834  16.047 -0.3718  0.2912 -0.4769
  190MPD1    C2 2943   2.031   0.956  15.997  0.2212  0.1436  0.0534
  190MPD1    C3 2944   1.976   1.059  16.069  0.0675  0.7998 -0.0232
  190MPD1    C4 2945   1.934   1.034  16.198  0.5073 -0.8009 -0.5774
  190MPD1    C5 2946   1.945   0.907  16.258  0.6519  0.5841  0.2433
  190MPD1     H 2947   2.063   0.978  15.896  0.8303 -2.7186 -0.3652
  190MPD1    H1 2948   1.879   1.099  16.265 -0.1027 -1.0680 -0.8225
  190MPD1    H2 2949   1.999   0.707  16.221  0.2032  0.6213  1.2877
  190MPD1    H3 2950   1.893   0.883  16.350 -0.9048  0.7335 -0.5958
  190MPD1     N 2951   1.964   1.185  15.999  0.2842 -0.5852  0.2302
  190MPD1    H5 2952   1.998   1.195  15.904 -1.0604 -1.2696 -0.3259
  190MPD1    N1 2953   2.106   0.726  15.967  0.4343  0.0944 -0.0836
  190MPD1    H6 2954   2.168   0.758  15.893 -1.4014  0.8872 -1.2712
  190MPD1    H7 2955   2.144   0.642  16.010  0.3726 -1.1885 -2.5871
  191MPD1     C 2956   0.972   3.285  13.562  0.2064  0.1705  0.1891
  191MPD1    C1 2957   0.857   3.346  13.508  0.4094 -0.3233 -0.7622
  191MPD1    C2 2958   0.874   3.411  13.387 -0.1041  0.9780  0.1375
  191MPD1    C3 2959   0.990   3.410  13.314 -0.0750  0.0208  0.7754
  191MPD1    C4 2960   1.099   3.342  13.370  0.1742 -0.2027 -0.4058
  191MPD1    C5 2961   1.088   3.283  13.484  0.0946 -0.0765 -0.5370
  191MPD1     H 2962   0.782   3.439  13.338  1.0584  0.4891 -2.3266
  191MPD1    H1 2963   1.196   3.332  13.323  0.5121  0.1310  0.2097
  191MPD1    H2 2964   0.976   3.221  13.649  1.0116  0.1268  0.1234
  191MPD1    H3 2965   1.185   3.248  13.519 -0.1566  1.1466  1.4097
  191MPD1     N 2966   1.001   3.477  13.185 -0.1470 -0.4865  0.4816
  191MPD1    H5 2967   0.924   3.537  13.158  0.6166  0.5418  0.5780
  191MPD1    N1 2968   0.730   3.322  13.562  0.5370 -0.2810 -0.8850
  191MPD1    H6 2969   0.732   3.306  13.662  1.6389  0.6994 -0.7484
  191MPD1    H7 2970   0.671   3.404  13.549  1.4184  0.4397 -0.3595
  192MPD1     C 2971   0.313   3.617  12.790  0.3133  0.2423  0.3784
  192MPD1    C1 2972   0.383   3.555  12.688 -0.3932 -0.4281  0.4861
  192MPD1    C2 2973   0.518   3.564  12.696  0.5327 -0.5908 -0.2625
  192MPD1    C3 2974   0.585   3.630  12.796 -0.6370  0.3026  0.0203
  192MPD1    C4 2975   0.510   3.694  12.892 -0.5231  0.1948  0.1551
  192MPD1    C5 2976   0.378   3.692  12.877 -0.0076  0.4089 -0.6057
  192MPD1     H 2977   0.580   3.507  12.628 -0.8383  0.3780 -2.3085
  192MPD1    H1 2978   0.547   3.737  12.985 -2.7201 -0.1588  1.2013
  192MPD1    H2 2979   0.206   3.605  12.801  0.6283 -4.0144 -1.1342
  192MPD1    H3 2980   0.325   3.757  12.946  0.6872 -1.1468  1.3968
  192MPD1     N 2981   0.725   3.626  12.818 -0.6500  0.3259 -0.2345
  192MPD1    H5 2982   0.762   3.651  12.909 -0.0983 -0.3742 -0.2703
  192MPD1    N1 2983   0.325   3.484  12.584 -0.3890  0.0062 -0.1727
  192MPD1    H6 2984   0.383   3.497  12.502 -1.5704  0.7487 -0.9030
  192MPD1    H7 2985   0.227   3.507  12.567 -0.4978 -0.9338 -0.8190
  193MPD1     C 2986   0.524   3.556  16.171  0.1392  0.4781 -0.1299
  193MPD1    C1 2987   0.508   3.692  16.151  0.0604  0.4012 -0.1660
  193MPD1    C2 2988   0.592   3.778  16.220  0.8159  0.3287  0.1387
  193MPD1    C3 2989   0.679   3.727  16.317  0.4805 -0.0038 -0.1369
  193MPD1    C4 2990   0.697   3.592  16.329  0.2275  0.4776  0.2471
  193MPD1    C5 2991   0.621   3.511  16.254 -0.3800 -0.1211 -0.4607
  193MPD1     H 2992   0.583   3.882  16.192  0.6940  0.9902  2.6864
  193MPD1    H1 2993   0.761   3.556  16.408  2.2945  2.3665 -0.5708
  193MPD1    H2 2994   0.459   3.487  16.117  1.7746 -0.6154 -0.7057
  193MPD1    H3 2995   0.638   3.404  16.256 -0.6337 -0.1504  0.2675
  193MPD1     N 2996   0.769   3.810  16.391 -0.3392  0.1793 -0.2646
  193MPD1    H5 2997   0.842   3.766  16.446  0.6707  0.7420 -1.1603
  193MPD1    N1 2998   0.427   3.718  16.044 -0.5386 -0.3757  0.1309
  193MPD1    H6 2999   0.378   3.806  16.060  1.1615  0.5083  0.4483
  193MPD1    H7 3000   0.371   3.633  16.035 -0.6534 -0.2167 -0.5989
  194MPD1     C 3001   2.915   1.129  17.359 -0.1532 -0.9948 -0.6403
  194MPD1    C1 3002   2.988   1.225  17.305 -0.2786  0.2605  0.9931
  194MPD1    C2 3003   3.104   1.196  17.240  0.1427 -0.5074 -0.0123
  194MPD1    C3 3004   3.147   1.065  17.214  0.5045 -0.0002 -0.3136
  194MPD1    C4 3005   3.063   0.967  17.265 -0.1495 -0.0985  0.3860
  194MPD1    C5 3006   2.956   1.002  17.341 -0.2345 -0.4569 -0.0566
  194MPD1     H 3007   3.176   1.277  17.233 -0.5888  0.3303  2.0364
  194MPD1    H1 3008   3.072   0.860  17.250  0.1293 -0.1227  0.7149
  194MPD1    H2 3009   2.838   1.139  17.435  2.2581  1.1436  1.5181
  194MPD1    H3 3010   2.895   0.925  17.387 -1.3129 -0.2424 -1.1277
  194MPD1     N 3011   3.261   1.038  17.132 -0.0877 -0.2592 -0.3407
  194MPD1    H5 3012   3.264   0.940  17.106  0.9221 -0.1157 -0.7631
  194MPD1    N1 3013   2.962   1.356  17.344 -0.6726 -0.4455  0.9343
  194MPD1    H6 3014   2.865   1.365  17.373 -1.0484  1.6720 -0.9561
  194MPD1    H7 3015   2.983   1.428  17.275  1.5524 -1.3130  0.7104
  195MPD1     C 3016   0.918   3.469   0.751  0.0536  0.2053  0.4784
  195MPD1    C1 3017   1.052   3.446   0.750  0.3955 -0.0492  0.2794
  195MPD1    C2 3018   1.107   3.329   0.715  0.0551 -0.8830 -0.3660
  195MPD1    C3 3019   1.014   3.236   0.660  0.3284  0.6422  0.0491
  195MPD1    C4 3020   0.880   3.263   0.651  0.1982  0.8344 -0.6566
  195MPD1    C5 3021   0.831   3.376   0.711  0.2949  0.2272  0.3629
  195MPD1     H 3022   1.212   3.312   0.695 -0.2616 -0.6340 -2.2987
  195MPD1    H1 3023   0.807   3.197   0.605 -1.2182  2.4415 -0.7003
  195MPD1    H2 3024   0.875   3.567   0.766 -0.9747 -0.2149  0.3518
  195MPD1    H3 3025   0.727   3.403   0.697  0.6682  1.5655  0.2015
  195MPD1     N 3026   1.051   3.106   0.608  0.0556 -0.0851 -0.0319
  195MPD1    H5 3027   0.977   3.039   0.591 -1.6119  1.1878  2.1518
  195MPD1    N1 3028   1.142   3.550   0.760 -0.3002  0.3763 -0.8050
  195MPD1    H6 3029   1.227   3.510   0.799 -1.2732 -2.3818 -1.5595
  195MPD1    H7 3030   1.107   3.604   0.840 -1.1867  0.5168 -1.2851
  196MPD1     C 3031   0.023   1.797   0.240 -0.3894  0.2865 -0.7165
  196MPD1    C1 3032   0.018   1.923   0.191 -0.1612  0.0416 -0.4648
  196MPD1    C2 3033   0.082   2.029   0.259  0.2971 -0.8211  0.2660
  196MPD1    C3 3034   0.135   2.012   0.388  0.0810 -0.8140 -0.1669
  196MPD1    C4 3035   0.139   1.884   0.434 -0.1740  0.3179 -0.3865
  196MPD1    C5 3036   0.081   1.776   0.367  0.3606  0.0493  0.0981
  196MPD1     H 3037   0.093   2.127   0.215 -2.6366 -0.9339 -0.7366
  196MPD1    H1 3038   0.184   1.858   0.529  2.3551  1.1837 -1.3570
  196MPD1    H2 3039   4.716   1.708   0.195 -0.3714  0.2439 -0.6489
  196MPD1    H3 3040   0.088   1.680   0.417  0.7849 -0.1407 -0.3269
  196MPD1     N 3041   0.181   2.113   0.468 -0.1660  0.0380 -0.2279
  196MPD1    H5 3042   0.216   2.082   0.558 -2.7612 -0.4801  0.6060
  196MPD1    N1 3043   4.706   1.957   0.061  0.7058  1.5001  0.5502
  196MPD1    H6 3044   4.661   2.048   0.055 -0.3029  0.9914  0.2927
  196MPD1    H7 3045   4.632   1.889   0.045  2.2034  0.3073 -1.2760
  197MPD1     C 3046   4.235   3.679  17.124  0.2129 -0.5480 -0.0930
  197MPD1    C1 3047   4.308   3.770  17.193  0.1199  0.2094  0.0678
  197MPD1    C2 3048   4.312   3.903  17.143 -1.0731  0.0859 -0.5374
  197MPD1    C3 3049   4.232   3.944  17.037 -0.4708 -0.1833  0.2695
  197MPD1    C4 3050   4.156   3.846  16.979 -0.2740  0.4564 -0.1231
  197MPD1    C5 3051   4.162   3.716  17.022 -0.2334 -0.3427  0.4874
  197MPD1     H 3052   4.381   3.965  17.200  0.9252 -2.0536 -0.6302
  197MPD1    H1 3053   4.090   3.861  16.893 -0.5147 -1.1152 -0.2090
  197MPD1    H2 3054   4.241   3.573  17.148 -0.9589 -1.3735 -3.3817
  197MPD1    H3 3055   4.102   3.649  16.962  1.0833 -1.7497  0.7498
  197MPD1     N 3056   4.242   4.070  16.973 -0.4621 -0.2038 -0.1510
  197MPD1    H5 3057   4.179   4.086  16.895  3.2003  0.7006 -2.9527
  197MPD1    N1 3058   4.402   3.719  17.284  0.0435 -0.0197  0.4460
  197MPD1    H6 3059   4.366   3.635  17.330 -1.3511  0.6740  0.6104
  197MPD1    H7 3060   4.402   3.777  17.368  0.1760  1.1173 -0.3504
  198MPD1     C 3061   1.962   2.414  15.865  1.1312 -0.0380 -0.2573
  198MPD1    C1 3062   1.959   2.470  15.993 -0.2670 -0.7393 -1.5552
  198MPD1    C2 3063   1.882   2.578  16.013 -0.0568  0.1466 -1.1691
  198MPD1    C3 3064   1.789   2.615  15.919 -0.4702 -0.4239 -0.6229
  198MPD1    C4 3065   1.769   2.547  15.806 -0.0046  0.0266 -0.0416
  198MPD1    C5 3066   1.857   2.444  15.784  0.4934  0.2624  0.0145
  198MPD1     H 3067   1.899   2.637  16.103  2.2063 -2.4146  0.0831
  198MPD1    H1 3068   1.690   2.561  15.732 -2.7597 -0.1066  2.8687
  198MPD1    H2 3069   2.028   2.336  15.827  1.8052  0.9283 -1.0489
  198MPD1    H3 3070   1.840   2.376  15.701  0.6108 -3.2110  2.8389
  198MPD1     N 3071   1.711   2.731  15.949 -0.9500 -0.4478  0.1082
  198MPD1    H5 3072   1.734   2.768  16.041 -1.5798  0.7267 -0.2138
  198MPD1    N1 3073   2.065   2.451  16.081  0.3808 -0.2941 -0.0165
  198MPD1    H6 3074   2.054   2.491  16.174 -0.6977 -0.9696  0.1426
  198MPD1    H7 3075   2.115   2.362  16.074 -1.3897 -1.2112 -0.8592
  199MPD1     C 3076   3.653   3.998  10.021 -0.3898  0.1370 -0.4583
  199MPD1    C1 3077   3.596   3.910  10.112  0.0764 -0.5270 -0.9338
  199MPD1    C2 3078   3.475   3.945  10.164  0.1340  0.0660  0.1127
  199MPD1    C3 3079   3.396   4.050  10.108 -0.1314 -0.4610  0.2083
  199MPD1    C4 3080   3.458   4.121  10.009 -0.3700 -0.2610  1.2424
  199MPD1    C5 3081   3.581   4.096   9.968 -0.3343 -0.8786  1.0124
  199MPD1     H 3082   3.432   3.882  10.241  0.1911 -0.8648 -0.6165
  199MPD1    H1 3083   3.412   4.206   9.960  0.8015 -0.9018 -0.9675
  199MPD1    H2 3084   3.755   3.980   9.987 -0.4923  1.1021 -1.2527
  199MPD1    H3 3085   3.625   4.151   9.885  0.8034 -0.9688  1.5622
  199MPD1     N 3086   3.268   4.091  10.140  0.0413 -0.2556  0.1647
  199MPD1    H5 3087   3.242   4.163  10.073  2.4687  0.2892 -0.1618
  199MPD1    N1 3088   3.666   3.806  10.181  0.1075  1.0506  0.4608
  199MPD1    H6 3089   3.737   3.759  10.125  0.8676  1.9035  0.7201
  199MPD1    H7 3090   3.620   3.739  10.243  1.3843  1.0636  1.4322
  200MPD1     C 3091   2.552   3.787  14.758 -0.2068 -0.1202 -0.7234
  200MPD1    C1 3092   2.529   3.808  14.624  0.4472 -0.5270  0.5898
  200MPD1    C2 3093   2.633   3.844  14.547  0.0199  0.0922  0.1089
  200MPD1    C3 3094   2.764   3.824  14.589  0.7264  0.3232  0.3185
  200MPD1    C4 3095   2.787   3.774  14.715  0.1754 -0.4269 -0.1252
  200MPD1    C5 3096   2.681   3.755  14.796  0.0823  0.3374  0.1924
  200MPD1     H 3097   2.616   3.881  14.446 -1.5114  0.6293  0.5586
  200MPD1    H1 3098   2.885   3.746  14.750  0.0529 -1.7057 -0.8055
  200MPD1    H2 3099   2.470   3.754  14.821  1.5272  1.8191  2.5908
  200MPD1    H3 3100   2.690   3.699  14.888  0.4147  0.3146  0.1458
  200MPD1     N 3101   2.869   3.845  14.497 -0.5601  0.2472  0.3528
  200MPD1    H5 3102   2.839   3.862  14.402 -1.6721  1.2466  0.8785
  200MPD1    N1 3103   2.396   3.833  14.576  0.2262  0.2925 -0.3099
  200MPD1    H6 3104   2.391   3.808  14.477 -0.1736  1.9243 -0.7006
  200MPD1    H7 3105   2.344   3.759  14.623  1.9216  0.1398  1.3033
  201MPD1     C 3106   4.349   2.826  13.822 -0.2923 -0.2820  0.4968
  201MPD1    C1 3107   4.332   2.701  13.767  0.1704 -0.6220  0.4202
  201MPD1    C2 3108   4.443   2.619  13.777 -0.3182 -0.7597  0.0646
  201MPD1    C3 3109   4.569   2.648  13.831  0.1821  0.8083 -0.2956
  201MPD1    C4 3110   4.580   2.777  13.892 -0.4020  0.0023 -0.7645
  201MPD1    C5 3111   4.466   2.859  13.891  0.2357  0.2177  0.1050
  201MPD1     H 3112   4.423   2.519  13.740  1.3834  0.7170 -4.8749
  201MPD1    H1 3113   4.677   2.814  13.921 -0.9225  1.5211 -0.9445
  201MPD1    H2 3114   4.271   2.901  13.834 -1.8484 -1.6402 -1.1032
  201MPD1    H3 3115   4.476   2.963  13.920  1.2721  0.3232 -0.6253
  201MPD1     N 3116   4.672   2.555  13.828 -0.5028  0.2239 -0.3661
  201MPD1    H5 3117   4.652   2.461  13.797  0.0463  0.4337 -1.3565
  201MPD1    N1 3118   4.208   2.643  13.735 -0.3987  0.0508  0.5726
  201MPD1    H6 3119   4.217   2.563  13.673  0.3434  0.3002  0.3596
  201MPD1    H7 3120   4.148   2.709  13.686  0.7711  0.3778 -0.4237
  202MPD1     C 3121   0.353   1.412   9.371 -0.0585 -0.0314  1.3802
  202MPD1    C1 3122   0.259   1.510   9.351 -0.3809 -0.4036 -0.6062
  202MPD1    C2 3123   0.303   1.642   9.384  0.0337  0.3341  0.3383
  202MPD1    C3 3124   0.415   1.661   9.463  0.3295  0.2808  0.2171
  202MPD1    C4 3125   0.499   1.557   9.476 -0.0746 -0.1016 -0.1973
  202MPD1    C5 3126   0.474   1.434   9.431 -0.1257 -0.7411 -1.0180
  202MPD1     H 3127   0.234   1.726   9.381  1.1282  1.2806  1.5747
  202MPD1    H1 3128   0.597   1.565   9.520  0.3214 -1.7343 -0.7958
  202MPD1    H2 3129   0.329   1.319   9.321  1.6621 -0.3216  1.0952
  202MPD1    H3 3130   0.547   1.354   9.443  1.1015  0.7680  1.5683
  202MPD1     N 3131   0.459   1.778   9.520 -0.4103  0.6992  0.4230
  202MPD1    H5 3132   0.540   1.773   9.580 -0.1419 -1.9891 -0.1797
  202MPD1    N1 3133   0.178   1.500   9.234  0.0703  0.2360 -0.2817
  202MPD1    H6 3134   0.127   1.411   9.233 -0.8665  0.7607  0.2688
  202MPD1    H7 3135   0.113   1.577   9.222  2.3303  2.2531  0.5038
  203MPD1     C 3136   3.598   3.858  12.555  0.3290  0.2901 -0.6740
  203MPD1    C1 3137   3.620   3.773  12.451  0.3554 -0.2823  0.0391
  203MPD1    C2 3138   3.640   3.637  12.484 -0.0499 -0.3087  0.5657
  203MPD1    C3 3139   3.599   3.589  12.601  0.2913 -0.0807  0.2348
  203MPD1    C4 3140   3.572   3.684  12.706  0.0094 -0.5601 -0.4171
  203MPD1    C5 3141   3.562   3.812  12.681  1.5637  0.8956  0.3226
  203MPD1     H 3142   3.676   3.563  12.413 -0.7035  2.2330 -2.4008
  203MPD1    H1 3143   3.549   3.663  12.810  0.5761 -0.7317 -0.3236
  203MPD1    H2 3144   3.592   3.964  12.536  0.6887  0.7845  2.0300
  203MPD1    H3 3145   3.530   3.882  12.757  0.3472 -0.4010  0.9978
  203MPD1     N 3146   3.606   3.451  12.618 -0.0365 -0.1885 -0.1416
  203MPD1    H5 3147   3.623   3.409  12.527 -2.8758  0.7815 -1.1065
  203MPD1    N1 3148   3.658   3.827  12.328 -0.0758  0.7696 -0.8347
  203MPD1    H6 3149   3.629   3.775  12.245 -0.0496 -0.0666 -0.3217
  203MPD1    H7 3150   3.617   3.919  12.316 -0.3112  0.9776  1.5757
  204MPD1     C 3151   3.554   4.663   0.338  1.1081 -0.6454 -0.4873
  204MPD1    C1 3152   3.564   4.680   0.204  0.0071  0.7243 -0.9052
  204MPD1    C2 3153   3.573   4.568   0.118  0.5983 -0.0479  0.2780
  204MPD1    C3 3154   3.555   4.442   0.166 -0.0087 -0.2974  0.2658
  204MPD1    C4 3155   3.556   4.423   0.303  0.4430  0.8114 -0.2210
  204MPD1    C5 3156   3.554   4.533   0.384 -0.0627  0.5871 -0.1466
  204MPD1     H 3157   3.588   4.585   0.012  0.2391 -1.1463  0.0492
  204MPD1    H1 3158   3.557   4.325   0.349  1.6885  0.3209 -1.2959
  204MPD1    H2 3159   3.545   0.004   0.414  1.7629  0.8692 -1.9460
  204MPD1    H3 3160   3.539   4.525   0.491  1.0663 -0.8333 -0.0875
  204MPD1     N 3161   3.531   4.336   0.068  0.3701 -0.2770 -0.1912
  204MPD1    H5 3162   3.531   4.369  17.714  1.5992 -0.2218 -0.1742
  204MPD1    N1 3163   3.558   0.071   0.149  0.6206 -0.0209 -0.0707
  204MPD1    H6 3164   3.601   0.081   0.057 -1.4808 -0.7397 -1.1145
  204MPD1    H7 3165   3.601   0.134   0.216  1.3945 -0.7083  0.0909
  205MPD1     C 3166   3.607   3.113  16.508  0.1924  0.4686 -0.4762
  205MPD1    C1 3167   3.540   3.191  16.590 -0.2218 -0.6585  0.3376
  205MPD1    C2 3168   3.590   3.204  16.720 -0.0525  0.1898  0.7444
  205MPD1    C3 3169   3.709   3.142  16.761  0.8929  0.0902 -0.0213
  205MPD1    C4 3170   3.763   3.047  16.676  0.2905  0.1870  0.4338
  205MPD1    C5 3171   3.712   3.038  16.548 -0.0476 -0.0189  0.8427
  205MPD1     H 3172   3.534   3.269  16.786  0.5278  0.0883  1.3396
  205MPD1    H1 3173   3.847   2.984  16.702  1.1464  0.9730 -0.4349
  205MPD1    H2 3174   3.587   3.106  16.402  2.6909 -0.1092 -0.9259
  205MPD1    H3 3175   3.758   2.967  16.480  0.3755  1.6972 -0.6857
  205MPD1     N 3176   3.762   3.143  16.889  0.1795 -0.1734 -0.3745
  205MPD1    H5 3177   3.845   3.085  16.894 -0.5030 -1.1756 -0.6088
  205MPD1    N1 3178   3.440   3.271  16.530  0.1804  0.6176 -0.1686
  205MPD1    H6 3179   3.376   3.214  16.474 -1.1812  1.0981  0.9071
  205MPD1    H7 3180   3.385   3.303  16.608  1.5472  3.3990 -0.3620
  206MPD1     C 3181   3.506   1.293  16.769  0.6309  0.2439  0.4499
  206MPD1    C1 3182   3.377   1.310  16.741  0.1226 -0.4628  0.5050
  206MPD1    C2 3183   3.338   1.299  16.616 -0.2793 -0.5139  0.4514
  206MPD1    C3 3184   3.421   1.264  16.518  0.5637  0.5383  0.6112
  206MPD1    C4 3185   3.549   1.228  16.547  0.5054 -0.0473 -0.0446
  206MPD1    C5 3186   3.589   1.243  16.676  0.4065  0.8623 -0.4999
  206MPD1     H 3187   3.235   1.329  16.603  0.1140 -0.0291 -1.5981
  206MPD1    H1 3188   3.621   1.196  16.472  1.1137 -1.3242  1.0812
  206MPD1    H2 3189   3.545   1.314  16.868  0.6299 -2.2975  0.9882
  206MPD1    H3 3190   3.692   1.223  16.705  0.0562 -0.7517 -0.3521
  206MPD1     N 3191   3.374   1.255  16.379 -0.3300 -0.0092  0.5075
  206MPD1    H5 3192   3.439   1.218  16.310 -1.3065 -2.0105  0.6717
  206MPD1    N1 3193   3.297   1.366  16.845  0.0297  0.4695 -0.6919
  206MPD1    H6 3194   3.204   1.326  16.850 -0.6154  1.7824 -2.2847
  206MPD1    H7 3195   3.329   1.346  16.939  1.8173  1.4317 -1.0941
  207MPD1     C 3196   2.505   4.056   9.518 -0.3281  0.6973 -0.5071
  207MPD1    C1 3197   2.567   3.972   9.604 -0.3345 -0.1775 -0.2799
  207MPD1    C2 3198   2.513   3.947   9.729 -0.5836 -0.6754 -0.7403
  207MPD1    C3 3199   2.395   4.017   9.763 -0.2901 -0.0209 -0.6494
  207MPD1    C4 3200   2.326   4.109   9.675  0.4222 -0.5806 -0.2240
  207MPD1    C5 3201   2.385   4.116   9.550 -0.0220 -0.2970  0.0973
  207MPD1     H 3202   2.572   3.888   9.797  0.2731  0.3281 -0.6283
  207MPD1    H1 3203   2.236   4.165   9.697 -0.3972 -1.5056 -1.2356
  207MPD1    H2 3204   2.542   4.077   9.418 -1.9197  0.5729 -1.1153
  207MPD1    H3 3205   2.342   4.179   9.474  0.0694 -1.3665 -0.8441
  207MPD1     N 3206   2.320   3.983   9.880 -0.2518 -0.2555  0.1664
  207MPD1    H5 3207   2.228   4.025   9.894 -0.0187 -0.5730  2.6666
  207MPD1    N1 3208   2.668   3.894   9.550 -0.0090  0.0591 -0.4913
  207MPD1    H6 3209   2.718   3.837   9.618 -0.5532 -2.8799 -2.6003
  207MPD1    H7 3210   2.734   3.944   9.490  0.3220 -0.1489 -0.3002
  208MPD1     C 3211   4.383   3.378   0.717 -0.1004 -0.7848  0.5890
  208MPD1    C1 3212   4.395   3.267   0.796  0.9309  0.3974  0.1357
  208MPD1    C2 3213   4.379   3.143   0.736  0.0436  0.1113  0.0299
  208MPD1    C3 3214   4.373   3.133   0.597 -0.4792  0.4648  0.0667
  208MPD1    C4 3215   4.376   3.247   0.522 -0.5544  0.6461 -0.1945
  208MPD1    C5 3216   4.376   3.373   0.582  0.1171 -0.4752  0.5591
  208MPD1     H 3217   4.379   3.054   0.797 -2.8094 -0.3990 -0.6860
  208MPD1    H1 3218   4.356   3.252   0.416  2.6565 -1.5772 -0.8990
  208MPD1    H2 3219   4.376   3.481   0.751 -1.0518 -0.7271  0.2424
  208MPD1    H3 3220   4.351   3.467   0.535 -1.4950 -0.9547  0.4576
  208MPD1     N 3221   4.348   3.001   0.547  0.0170 -0.2147  0.2954
  208MPD1    H5 3222   4.352   2.933   0.622 -0.2624 -0.7340 -0.1615
  208MPD1    N1 3223   4.406   3.278   0.937 -0.0124 -0.7943  0.3697
  208MPD1    H6 3224   4.463   3.201   0.970 -0.7695 -1.6687 -0.3689
  208MPD1    H7 3225   4.452   3.364   0.966 -0.8273  0.2706 -1.4445
  209MPD1     C 3226   1.752   2.449  10.293 -0.0232  0.2952  0.0515
  209MPD1    C1 3227   1.829   2.558  10.254  0.5196 -0.1345 -0.4055
  209MPD1    C2 3228   1.783   2.685  10.304 -0.2716 -0.3330  0.1085
  209MPD1    C3 3229   1.683   2.694  10.390  0.0535  0.3562  0.2111
  209MPD1    C4 3230   1.614   2.584  10.441 -0.3486 -0.2802 -0.7084
  209MPD1    C5 3231   1.650   2.461  10.391  0.2180  0.2589  0.4850
  209MPD1     H 3232   1.843   2.769  10.271  1.8841 -1.2553  1.6954
  209MPD1    H1 3233   1.541   2.579  10.521  0.9509  0.3777  0.5156
  209MPD1    H2 3234   1.786   2.355  10.252  2.4315  1.3259 -0.2715
  209MPD1    H3 3235   1.613   2.370  10.437 -1.2679  0.1495 -0.9378
  209MPD1     N 3236   1.653   2.826  10.432  0.2500 -0.2177  0.1991
  209MPD1    H5 3237   1.711   2.901  10.396  0.1865 -0.6128 -0.7089
  209MPD1    N1 3238   1.925   2.536  10.153 -0.7419 -0.2558 -0.0207
  209MPD1    H6 3239   1.961   2.442  10.144  0.6109  0.1758  0.9121
  209MPD1    H7 3240   2.000   2.605  10.146 -1.8265  0.8396 -0.8253
  210MPD1     C 3241   1.501   3.309  11.390 -0.0348  0.2574 -0.2703
  210MPD1    C1 3242   1.431   3.204  11.330  0.1360  0.3275 -0.0402
  210MPD1    C2 3243   1.450   3.184  11.200 -0.1599 -0.6491  0.2475
  210MPD1    C3 3244   1.516   3.274  11.117 -0.2057  0.6413 -0.3861
  210MPD1    C4 3245   1.567   3.389  11.171  0.3600  0.2531 -1.0575
  210MPD1    C5 3246   1.551   3.411  11.309  0.2531  0.5869 -0.1111
  210MPD1     H 3247   1.417   3.089  11.159  2.4847 -1.1139 -0.7956
  210MPD1    H1 3248   1.614   3.462  11.105  1.6616 -0.8878 -1.3856
  210MPD1    H2 3249   1.497   3.319  11.498  0.8328 -0.6600 -0.1527
  210MPD1    H3 3250   1.595   3.505  11.341  1.4519 -0.0172  0.0105
  210MPD1     N 3251   1.552   3.245  10.979  0.3445  0.3588 -0.1058
  210MPD1    H5 3252   1.574   3.328  10.924  1.7032 -1.1821 -1.8542
  210MPD1    N1 3253   1.370   3.104  11.410 -0.8454  0.2237 -0.4119
  210MPD1    H6 3254   1.332   3.149  11.494  0.6175  2.4054 -0.9109
  210MPD1    H7 3255   1.298   3.055  11.358 -1.0709  1.3539 -1.1664
  211MPD1     C 3256   3.985   2.576  16.776  0.1318 -0.7615 -0.3946
  211MPD1    C1 3257   3.898   2.615  16.666  0.0038  0.0355  0.3575
  211MPD1    C2 3258   3.788   2.695  16.685  0.2120  0.9566 -0.1072
  211MPD1    C3 3259   3.770   2.746  16.813  0.1791  0.3985  0.2746
  211MPD1    C4 3260   3.865   2.717  16.914  0.1221 -0.2031  0.4400
  211MPD1    C5 3261   3.969   2.634  16.892 -0.0053 -0.2181 -0.8539
  211MPD1     H 3262   3.714   2.701  16.606  0.4394  1.4392 -0.2855
  211MPD1    H1 3263   3.846   2.737  17.019 -1.8934  1.7085 -0.2930
  211MPD1    H2 3264   4.051   2.490  16.765 -2.2988 -2.7970  0.8280
  211MPD1    H3 3265   4.028   2.611  16.980  0.8404 -5.0562 -2.7079
  211MPD1     N 3266   3.646   2.810  16.836 -0.1944 -0.8131 -0.2433
  211MPD1    H5 3267   3.599   2.819  16.746  0.1859  0.4871 -0.3219
  211MPD1    N1 3268   3.907   2.552  16.542  0.7936 -0.0017  0.2474
  211MPD1    H6 3269   3.876   2.620  16.473  0.4873 -0.3724  0.0189
  211MPD1    H7 3270   4.005   2.539  16.518  0.4350  0.3693 -1.4657
  212MPD1     C 3271   2.979   1.686  16.698 -0.6468  0.2750 -0.1410
  212MPD1    C1 3272   3.043   1.568  16.666  0.1605 -0.7009 -0.5337
  212MPD1    C2 3273   3.005   1.450  16.724 -0.7357 -0.8022 -0.0661
  212MPD1    C3 3274   2.903   1.437  16.808 -0.0359  0.7197 -0.5473
  212MPD1    C4 3275   2.822   1.549  16.823  0.1700  0.1044 -0.6381
  212MPD1    C5 3276   2.863   1.674  16.780 -0.3230 -0.0209 -0.0255
  212MPD1     H 3277   3.071   1.365  16.707  2.4713  1.1166  2.8760
  212MPD1    H1 3278   2.737   1.547  16.891 -2.2931 -0.1083 -3.7068
  212MPD1    H2 3279   3.021   1.785  16.683 -0.3440  0.3151  1.0453
  212MPD1    H3 3280   2.805   1.763  16.805 -3.3871 -0.9163 -3.8700
  212MPD1     N 3281   2.866   1.324  16.881  0.4462  0.1966 -0.2538
  212MPD1    H5 3282   2.777   1.329  16.929  0.3915  0.9373 -0.4278
  212MPD1    N1 3283   3.160   1.576  16.591  0.9127  0.1817  0.1010
  212MPD1    H6 3284   3.159   1.488  16.539 -0.1736  0.0456  0.3503
  212MPD1    H7 3285   3.152   1.653  16.525  0.5511  0.3715  0.3673
  213MPD1     C 3286   1.811   1.302  15.621  0.1200 -0.5060 -0.1326
  213MPD1    C1 3287   1.868   1.428  15.577  0.4735 -0.0981  0.0034
  213MPD1    C2 3288   1.798   1.540  15.610 -0.4910 -0.3866 -0.0331
  213MPD1    C3 3289   1.689   1.542  15.694 -0.1290  0.5823  0.2072
  213MPD1    C4 3290   1.635   1.419  15.740  0.4784  0.1186 -0.8335
  213MPD1    C5 3291   1.706   1.299  15.707  0.0570  0.2075 -0.0046
  213MPD1     H 3292   1.826   1.638  15.572  3.1375 -1.8759 -1.1982
  213MPD1    H1 3293   1.546   1.413  15.802  0.3320  1.5973 -0.9001
  213MPD1    H2 3294   1.849   1.209  15.581 -1.4636 -0.6708 -1.2273
  213MPD1    H3 3295   1.671   1.202  15.740  1.0711 -0.1494  0.0278
  213MPD1     N 3296   1.624   1.667  15.722 -0.1557 -0.1439 -0.4266
  213MPD1    H5 3297   1.666   1.748  15.678  1.1637 -1.3952 -1.4746
  213MPD1    N1 3298   1.951   1.420  15.464  0.2631 -0.7377  0.5650
  213MPD1    H6 3299   2.018   1.496  15.475  0.3113 -0.5401 -1.1564
  213MPD1    H7 3300   2.015   1.341  15.461  0.1044 -0.8239 -0.3501
  214MPD1     C 3301   1.141   2.450  16.310 -0.2585  0.2499  0.0946
  214MPD1    C1 3302   1.228   2.351  16.342  0.2030  0.1781 -0.5293
  214MPD1    C2 3303   1.247   2.252  16.249 -0.1539  0.1633  0.0185
  214MPD1    C3 3304   1.213   2.275  16.120  0.0191 -0.8274  0.2198
  214MPD1    C4 3305   1.122   2.369  16.090  0.6489 -0.6605 -0.0013
  214MPD1    C5 3306   1.079   2.448  16.188 -0.2425  0.7095  0.3403
  214MPD1     H 3307   1.301   2.165  16.287 -1.4680 -0.0818  1.3002
  214MPD1    H1 3308   1.090   2.386  15.988 -1.7330  3.0664  1.3877
  214MPD1    H2 3309   1.114   2.520  16.389  1.0495  2.5778 -1.5374
  214MPD1    H3 3310   1.002   2.521  16.163  0.9554  1.5547 -0.8849
  214MPD1     N 3311   1.260   2.189  16.024 -0.5597  1.0729  0.3359
  214MPD1    H5 3312   1.245   2.217  15.927 -3.4745  2.1282  1.0914
  214MPD1    N1 3313   1.297   2.352  16.467  0.1441 -0.0988  0.0999
  214MPD1    H6 3314   1.302   2.255  16.498 -0.4677 -0.5769 -1.2802
  214MPD1    H7 3315   1.240   2.398  16.538 -1.8787 -1.6512 -0.5246
  215MPD1     C 3316   1.636   3.995  11.273  0.8926 -0.0382 -0.5807
  215MPD1    C1 3317   1.541   3.966  11.373 -0.0932  0.3964 -0.2318
  215MPD1    C2 3318   1.442   3.876  11.349 -0.6840 -0.6043 -0.1521
  215MPD1    C3 3319   1.433   3.814  11.222  0.1659 -0.1794  0.4117
  215MPD1    C4 3320   1.535   3.836  11.133 -0.6784 -0.4251 -0.2758
  215MPD1    C5 3321   1.636   3.923  11.157  0.6510  0.2807 -0.4171
  215MPD1     H 3322   1.354   3.856  11.409  0.7541  0.2010  2.1908
  215MPD1    H1 3323   1.542   3.784  11.038 -2.0816  2.1742 -1.8151
  215MPD1    H2 3324   1.717   4.067  11.283  2.6216 -1.8617 -1.4827
  215MPD1    H3 3325   1.714   3.941  11.084  0.2540  0.4491 -0.7990
  215MPD1     N 3326   1.336   3.712  11.203 -0.3824 -0.2807 -0.2445
  215MPD1    H5 3327   1.278   3.694  11.284 -1.1521 -1.1362 -0.9892
  215MPD1    N1 3328   1.528   4.049  11.479 -0.5383 -0.4914  0.3017
  215MPD1    H6 3329   1.611   4.106  11.494 -0.8295 -0.0505  0.2525
  215MPD1    H7 3330   1.482   4.007  11.560 -2.0920  1.2858  0.3449
  216MPD1     C 3331   2.770   1.005   0.295 -0.6708  0.0272  0.7714
  216MPD1    C1 3332   2.893   0.940   0.276 -0.3035 -0.3491 -0.4630
  216MPD1    C2 3333   2.896   0.810   0.241 -0.2635 -0.8579 -0.2397
  216MPD1    C3 3334   2.783   0.738   0.198  0.3170  0.5308  0.4011
  216MPD1    C4 3335   2.665   0.812   0.196 -0.4242  0.4613 -0.3348
  216MPD1    C5 3336   2.660   0.942   0.245  0.2302 -0.2948  0.9850
  216MPD1     H 3337   2.990   0.757   0.248 -0.0272 -0.4444 -0.2566
  216MPD1    H1 3338   2.567   0.769   0.180 -1.0708  0.3978  3.7407
  216MPD1    H2 3339   2.766   1.099   0.349 -0.1734 -0.0385  0.9213
  216MPD1    H3 3340   2.563   0.988   0.257  0.1960 -0.2571  0.5583
  216MPD1     N 3341   2.809   0.602   0.158  0.7273 -0.1037  0.0335
  216MPD1    H5 3342   2.905   0.570   0.165  1.0414  0.7871 -0.1973
  216MPD1    N1 3343   3.011   0.994   0.336  0.0203 -0.4547  0.4661
  216MPD1    H6 3344   3.104   0.968   0.304 -0.1562 -0.7283  0.1827
  216MPD1    H7 3345   3.007   1.096   0.332  1.9389 -0.5254 -3.1034
  217MPD1     C 3346   4.125   1.541   8.151 -0.5749  0.2769  0.3521
  217MPD1    C1 3347   4.145   1.675   8.181  0.2179 -0.3070  0.9923
  217MPD1    C2 3348   4.208   1.703   8.296 -0.5025  0.6369  0.1322
  217MPD1    C3 3349   4.229   1.607   8.399  0.9827  0.2694  0.1544
  217MPD1    C4 3350   4.191   1.476   8.367  0.4999 -0.1910 -0.5374
  217MPD1    C5 3351   4.136   1.445   8.247  0.7693 -0.6932 -0.5289
  217MPD1     H 3352   4.241   1.805   8.313  1.2487  0.0771  0.1312
  217MPD1    H1 3353   4.209   1.396   8.438 -0.5701 -0.6832 -0.8307
  217MPD1    H2 3354   4.097   1.510   8.051 -1.8784  1.8236  0.2410
  217MPD1    H3 3355   4.114   1.340   8.231 -0.5416 -0.2543 -1.5770
  217MPD1     N 3356   4.277   1.626   8.527 -0.1063  0.0685  0.0023
  217MPD1    H5 3357   4.283   1.548   8.593  0.8764 -2.0362 -2.5793
  217MPD1    N1 3358   4.142   1.769   8.074 -0.0429 -0.0345  0.7017
  217MPD1    H6 3359   4.139   1.869   8.095  2.1528 -0.1215  1.4213
  217MPD1    H7 3360   4.055   1.744   8.028  0.7500 -1.1909 -0.1581
  218MPD1     C 3361   4.430   3.543  12.817 -0.4696 -0.1887 -0.0744
  218MPD1    C1 3362   4.556   3.540  12.863  0.7168 -0.2048 -0.1656
  218MPD1    C2 3363   4.636   3.439  12.808 -0.4171 -0.9581 -0.7458
  218MPD1    C3 3364   4.596   3.363  12.704  0.3860  0.7845  0.1116
  218MPD1    C4 3365   4.467   3.364  12.660 -0.7365  0.0289  0.0354
  218MPD1    C5 3366   4.389   3.454  12.724 -0.2057  0.3168  0.4729
  218MPD1     H 3367   0.003   3.432  12.843 -1.0232 -0.1559  1.2011
  218MPD1    H1 3368   4.419   3.295  12.591  0.7129  0.7860 -1.7375
  218MPD1    H2 3369   4.356   3.601  12.872 -1.2873 -0.6431 -0.6869
  218MPD1    H3 3370   4.283   3.450  12.700 -0.2101  0.9553  0.3685
  218MPD1     N 3371   4.698   3.286  12.648  0.0634 -0.0992 -0.3424
  218MPD1    H5 3372   0.053   3.295  12.691  0.5952 -0.4373 -1.3891
  218MPD1    N1 3373   4.600   3.639  12.951  0.3060 -0.2609  0.2678
  218MPD1    H6 3374   4.682   3.608  13.003  0.8330  1.4541  0.4529
  218MPD1    H7 3375   4.530   3.663  13.020  1.5287  0.3668  1.3020
  219MPD1     C 3376   0.388   2.938  11.731 -1.0336 -0.1518 -0.2654
  219MPD1    C1 3377   0.298   2.865  11.807 -0.4132  0.1780 -0.1180
  219MPD1    C2 3378   0.285   2.899  11.943 -0.2687 -0.0893  0.4823
  219MPD1    C3 3379   0.369   2.990  11.995  0.0463 -0.3949  0.0956
  219MPD1    C4 3380   0.458   3.054  11.920 -0.1914 -0.2938 -0.1454
  219MPD1    C5 3381   0.470   3.032  11.791 -0.6554  0.6772  0.2317
  219MPD1     H 3382   0.204   2.851  11.997  0.3670 -0.5059  1.0669
  219MPD1    H1 3383   0.509   3.141  11.959  0.7473 -1.1642  0.5771
  219MPD1    H2 3384   0.399   2.912  11.626 -0.5855 -0.8020 -0.0591
  219MPD1    H3 3385   0.550   3.086  11.741  0.4373  0.9199  2.2460
  219MPD1     N 3386   0.342   3.044  12.119  0.1260 -1.0175  0.3107
  219MPD1    H5 3387   0.387   3.132  12.140 -0.6787 -0.6873  0.6536
  219MPD1    N1 3388   0.200   2.782  11.743 -0.0685 -0.1653 -0.0337
  219MPD1    H6 3389   0.178   2.704  11.805  0.3202 -1.4421 -1.5032
  219MPD1    H7 3390   0.227   2.735  11.657 -0.1611 -1.6487  0.7528
  220MPD1     C 3391   0.608   2.381  10.225  0.5853  0.0021  0.4852
  220MPD1    C1 3392   0.476   2.388  10.193  0.1979 -0.2094  0.0607
  220MPD1    C2 3393   0.400   2.489  10.246 -0.0995  0.0050  0.1027
  220MPD1    C3 3394   0.448   2.569  10.343 -0.2175 -0.4941 -0.3983
  220MPD1    C4 3395   0.579   2.559  10.381 -0.5063  0.0544 -0.5747
  220MPD1    C5 3396   0.658   2.461  10.325  0.1119 -0.2208  0.3310
  220MPD1     H 3397   0.298   2.509  10.215 -0.1377 -1.2270 -0.5445
  220MPD1    H1 3398   0.622   2.615  10.464 -1.1170  0.7615 -0.7318
  220MPD1    H2 3399   0.681   2.311  10.186  1.8151  0.5308  1.8336
  220MPD1    H3 3400   0.758   2.451  10.364 -0.2340 -0.8770  1.0641
  220MPD1     N 3401   0.370   2.671  10.391  0.1509 -0.5980  0.2019
  220MPD1    H5 3402   0.270   2.661  10.377  0.0227 -0.6825  1.1907
  220MPD1    N1 3403   0.426   2.310  10.088  0.0945  0.3138  0.1960
  220MPD1    H6 3404   0.326   2.289  10.097  0.3774 -1.4238 -0.7347
  220MPD1    H7 3405   0.472   2.220  10.082  0.3872  0.6731 -2.6538
  221MPD1     C 3406   3.392   2.593  15.795  0.3141 -0.2816 -0.5037
  221MPD1    C1 3407   3.306   2.492  15.797  0.6425  0.2838  0.0949
  221MPD1    C2 3408   3.306   2.412  15.911 -0.5357  0.2597  0.6742
  221MPD1    C3 3409   3.408   2.418  16.000 -0.3441  0.3220 -0.3076
  221MPD1    C4 3410   3.496   2.527  15.995 -1.0084  0.5315 -0.8157
  221MPD1    C5 3411   3.484   2.610  15.894 -0.0600  0.0700 -0.5198
  221MPD1     H 3412   3.232   2.336  15.930  0.0075 -1.2297 -3.2648
  221MPD1    H1 3413   3.583   2.536  16.058 -1.6090  1.7478 -0.1708
  221MPD1    H2 3414   3.394   2.660  15.710  2.8175  0.1736 -0.0963
  221MPD1    H3 3415   3.547   2.696  15.880  0.0299  0.2040  0.7387
  221MPD1     N 3416   3.409   2.319  16.100 -0.5987 -0.1659 -0.2379
  221MPD1    H5 3417   3.341   2.246  16.088 -0.7907  0.5441 -3.4090
  221MPD1    N1 3418   3.200   2.480  15.703 -0.3010  0.4200 -0.2636
  221MPD1    H6 3419   3.165   2.385  15.704  0.7701  0.0155 -0.3179
  221MPD1    H7 3420   3.228   2.504  15.608 -1.3189 -3.1441 -1.4775
  222MPD1     C 3421   2.254   0.823   0.037 -0.4930  0.0196 -0.2853
  222MPD1    C1 3422   2.334   0.929   0.016  0.4200  0.3403  0.1253
  222MPD1    C2 3423   2.347   1.024   0.120  0.1731  0.2034  0.8149
  222MPD1    C3 3424   2.295   1.006   0.247  0.2636  0.3992 -0.1833
  222MPD1    C4 3425   2.232   0.886   0.266 -0.4269  0.6821  0.2822
  222MPD1    C5 3426   2.205   0.799   0.164 -0.4878 -0.5535  0.2725
  222MPD1     H 3427   2.412   1.108   0.102 -1.0024  1.1205  0.9045
  222MPD1    H1 3428   2.192   0.860   0.364 -0.0897 -0.9401 -0.0070
  222MPD1    H2 3429   2.229   0.754  17.699 -3.6255  2.7203 -1.6606
  222MPD1    H3 3430   2.153   0.704   0.174 -2.6022  0.4039 -1.4680
  222MPD1     N 3431   2.293   1.087   0.363  0.9609 -0.4021  0.0393
  222MPD1    H5 3432   2.252   1.054   0.450  2.0384  0.1858  0.7713
  222MPD1    N1 3433   2.374   0.959  17.627 -0.1870  0.4532  0.1841
  222MPD1    H6 3434   2.463   1.008  17.627 -0.6703  1.3244  3.0442
  222MPD1    H7 3435   2.383   0.880  17.563 -2.2733  1.1745 -0.9892
  223MPD1     C 3436   1.496   1.600   0.643  0.3463 -0.3584 -1.0745
  223MPD1    C1 3437   1.570   1.684   0.568 -0.6175 -0.9626 -0.1650
  223MPD1    C2 3438   1.703   1.647   0.541 -0.6732  0.0299  0.0529
  223MPD1    C3 3439   1.764   1.538   0.598 -0.0896 -0.0959 -0.0212
  223MPD1    C4 3440   1.687   1.457   0.677 -0.3433 -0.1054 -0.5465
  223MPD1    C5 3441   1.551   1.496   0.702 -0.0979 -0.0835 -0.1842
  223MPD1     H 3442   1.761   1.713   0.478 -0.8405  1.0228  0.9531
  223MPD1    H1 3443   1.720   1.364   0.719 -0.4442  0.4043  0.6641
  223MPD1    H2 3444   1.393   1.624   0.670  0.1314  0.2233 -2.4256
  223MPD1    H3 3445   1.496   1.425   0.762 -0.4800  1.3480  1.1731
  223MPD1     N 3446   1.897   1.510   0.568  0.0382 -0.0523 -0.2920
  223MPD1    H5 3447   1.940   1.577   0.505 -1.1037  0.7843 -0.1652
  223MPD1    N1 3448   1.501   1.783   0.487 -0.1290  0.0893  0.5818
  223MPD1    H6 3449   1.404   1.805   0.504 -0.5977 -1.4300 -0.0496
  223MPD1    H7 3450   1.552   1.862   0.448  0.8160 -0.9529 -0.3506
  224MPD1     C 3451   4.699   1.899   8.917  0.5120  0.1649  0.4441
  224MPD1    C1 3452   4.675   2.035   8.940 -0.2999 -0.6779 -0.0805
  224MPD1    C2 3453   4.703   2.078   9.069  0.3141 -1.3075  0.4790
  224MPD1    C3 3454   4.719   1.986   9.175 -0.4002  0.5101  1.1143
  224MPD1    C4 3455   4.736   1.855   9.148  0.5802  0.2197 -0.3419
  224MPD1    C5 3456   0.001   1.816   9.020 -0.5186  0.1765 -0.0403
  224MPD1     H 3457   4.708   2.185   9.084  1.9604 -1.2972 -0.2013
  224MPD1    H1 3458   0.012   1.784   9.229  0.0770 -1.3941 -1.6840
  224MPD1    H2 3459   4.688   1.855   8.819  1.6664  0.2267  0.2837
  224MPD1    H3 3460   0.029   1.712   9.007 -0.2694  0.2917 -0.4283
  224MPD1     N 3461   0.005   2.023   9.312  0.1276  0.7824 -0.3536
  224MPD1    H5 3462   0.022   1.949   9.378  0.0082  0.9542 -0.1300
  224MPD1    N1 3463   4.672   2.127   8.833 -0.0224  0.0099  0.3355
  224MPD1    H6 3464   4.652   2.216   8.878  0.0449  0.2397 -0.0880
  224MPD1    H7 3465   4.608   2.101   8.758  0.0715  1.9998 -0.4412
  225MPD1     C 3466   1.041   3.819  12.427 -0.1307  0.2678 -0.1482
  225MPD1    C1 3467   0.950   3.780  12.337  0.3161  0.8001 -0.1298
  225MPD1    C2 3468   0.815   3.789  12.373  0.6474 -0.7914 -0.3029
  225MPD1    C3 3469   0.774   3.843  12.498  0.2148 -0.0033 -0.6334
  225MPD1    C4 3470   0.870   3.874  12.584  1.1147 -0.2540  0.0463
  225MPD1    C5 3471   1.006   3.862  12.550  0.0907 -0.0660 -0.8876
  225MPD1     H 3472   0.749   3.765  12.291 -1.1504  0.0572  0.8980
  225MPD1    H1 3473   0.848   3.924  12.678  2.2191 -1.9368  1.2055
  225MPD1    H2 3474   1.145   3.844  12.406  0.0497  0.1184  0.5639
  225MPD1    H3 3475   1.081   3.898  12.619 -0.2659  2.2540 -1.7070
  225MPD1     N 3476   0.643   3.864  12.539 -0.1867 -0.1666  0.6951
  225MPD1    H5 3477   0.621   3.898  12.632 -0.4518  0.9677  0.2105
  225MPD1    N1 3478   0.986   3.761  12.204 -0.2652  0.5000 -0.0631
  225MPD1    H6 3479   0.914   3.722  12.143  2.2916 -1.8747 -1.5390
  225MPD1    H7 3480   1.070   3.707  12.187  0.1338  1.8949 -2.5780
  226MPD1     C 3481   3.511   3.581   9.580  0.5866 -0.6068  0.2598
  226MPD1    C1 3482   3.439   3.527   9.684  0.3920 -0.3097 -0.1762
  226MPD1    C2 3483   3.423   3.389   9.682 -0.0879  0.0929  0.1236
  226MPD1    C3 3484   3.481   3.313   9.584 -0.0639 -0.1783 -0.0871
  226MPD1    C4 3485   3.575   3.366   9.500  1.1956 -0.1946  0.4423
  226MPD1    C5 3486   3.592   3.500   9.503 -0.2685 -0.5986 -0.5073
  226MPD1     H 3487   3.349   3.355   9.754  0.6106  0.5044  1.0352
  226MPD1    H1 3488   3.623   3.306   9.423  2.2285  0.2956  0.7011
  226MPD1    H2 3489   3.509   3.689   9.578 -0.2700 -0.5499  3.9287
  226MPD1    H3 3490   3.664   3.542   9.434  0.7684  1.4013  1.7532
  226MPD1     N 3491   3.449   3.177   9.583 -0.1040 -0.0055  0.5307
  226MPD1    H5 3492   3.384   3.155   9.657  2.3956 -0.0241  2.7379
  226MPD1    N1 3493   3.350   3.611   9.755 -0.2202  1.0827 -0.5391
  226MPD1    H6 3494   3.322   3.567   9.842  1.5083  0.5694 -0.2431
  226MPD1    H7 3495   3.381   3.705   9.776 -2.1927  2.0195 -1.7736
  227MPD1     C 3496   2.842   2.962  10.071  0.2326  0.0233 -0.0707
  227MPD1    C1 3497   2.967   3.020  10.091  0.0473 -0.0334  1.2125
  227MPD1    C2 3498   3.068   2.992  10.001  0.0526 -0.2938  0.3628
  227MPD1    C3 3499   3.044   2.902   9.895 -0.0994  0.3440  0.8219
  227MPD1    C4 3500   2.918   2.841   9.886 -0.0932 -0.0485  0.0676
  227MPD1    C5 3501   2.821   2.865   9.979 -0.0998  0.3388  0.4478
  227MPD1     H 3502   3.164   3.035  10.028 -0.2263  1.2244 -1.0377
  227MPD1    H1 3503   2.891   2.781   9.800  1.8167  1.2534 -1.4409
  227MPD1    H2 3504   2.770   3.004  10.141 -0.3154 -0.1908 -0.5054
  227MPD1    H3 3505   2.726   2.815   9.970  1.4048 -2.6608  1.4058
  227MPD1     N 3506   3.146   2.881   9.804  0.4024 -0.6297  0.4425
  227MPD1    H5 3507   3.230   2.936   9.822  1.8350 -1.9738 -2.1297
  227MPD1    N1 3508   2.994   3.120  10.196  0.4083  0.5927 -0.3566
  227MPD1    H6 3509   2.956   3.096  10.287  0.4637  0.2887 -0.4132
  227MPD1    H7 3510   3.093   3.142  10.210  0.0139  1.9411  0.3320
  228MPD1     C 3511   2.215   1.978  12.800  0.2809  0.1636  0.4197
  228MPD1    C1 3512   2.138   2.070  12.739  0.0739 -0.0259 -0.4151
  228MPD1    C2 3513   2.004   2.084  12.780 -0.0998  0.5402  0.5993
  228MPD1    C3 3514   1.951   2.012  12.882  0.9589 -0.2770 -0.4043
  228MPD1    C4 3515   2.025   1.913  12.930  0.1123 -0.2883  0.3260
  228MPD1    C5 3516   2.154   1.895  12.891 -0.2561 -0.1243  0.2728
  228MPD1     H 3517   1.937   2.149  12.726 -1.2856  0.5281  2.0768
  228MPD1    H1 3518   1.991   1.856  13.016 -1.5155 -0.8318 -0.6776
  228MPD1    H2 3519   2.320   1.957  12.786 -0.1321 -1.1026 -0.7734
  228MPD1    H3 3520   2.215   1.814  12.928  0.7115  0.2103 -0.5676
  228MPD1     N 3521   1.828   2.053  12.930 -0.4270 -1.2945  0.1202
  228MPD1    H5 3522   1.784   2.125  12.873 -0.4442 -2.0260 -0.7923
  228MPD1    N1 3523   2.175   2.146  12.628 -0.0743  0.0701  0.2658
  228MPD1    H6 3524   2.259   2.128  12.573 -1.5801  0.3659 -2.1385
  228MPD1    H7 3525   2.148   2.243  12.615  0.7986  0.5905  2.3471
  229MPD1     C 3526   2.163   0.627  14.226 -0.3228 -0.3484 -0.2973
  229MPD1    C1 3527   2.073   0.564  14.313  0.1543 -0.3562  0.0350
  229MPD1    C2 3528   2.121   0.469  14.407  0.0176 -0.4387 -0.5674
  229MPD1    C3 3529   2.247   0.412  14.391  0.0429  0.0520 -0.1841
  229MPD1    C4 3530   2.327   0.465  14.292 -0.6426 -0.3810  0.4021
  229MPD1    C5 3531   2.291   0.567  14.211 -0.3993 -0.4390 -0.3668
  229MPD1     H 3532   2.053   0.442  14.487  0.4591 -2.4124 -0.8473
  229MPD1    H1 3533   2.426   0.422  14.283 -1.3066 -1.9868  0.8053
  229MPD1    H2 3534   2.131   0.703  14.157 -0.4437 -1.1931 -1.1758
  229MPD1    H3 3535   2.353   0.611  14.134  1.3479  0.0891  1.3469
  229MPD1     N 3536   2.305   0.310  14.474  0.0476 -0.1946 -0.0287
  229MPD1    H5 3537   2.404   0.288  14.464  0.3397  1.5255 -0.9602
  229MPD1    N1 3538   1.944   0.628  14.320  0.2826 -0.7590 -0.2316
  229MPD1    H6 3539   1.867   0.564  14.336 -1.5195  1.5720  0.4725
  229MPD1    H7 3540   1.923   0.676  14.232 -0.4555  1.6332  1.2613
  230MPD1     C 3541   1.976   4.632  15.363 -0.1232 -0.2381 -0.5844
  230MPD1    C1 3542   1.930   0.007  15.295 -0.0992 -0.2139 -0.7581
  230MPD1    C2 3543   1.971   0.026  15.167  0.8015  0.1796 -0.0490
  230MPD1    C3 3544   2.077   4.695  15.105  0.5533  0.2505  0.3653
  230MPD1    C4 3545   2.126   4.590  15.176  0.9376  0.4535  0.5084
  230MPD1    C5 3546   2.077   4.562  15.302 -0.0437 -0.1305 -0.3333
  230MPD1     H 3547   1.925   0.104  15.107  2.9567  1.2863 -0.2762
  230MPD1    H1 3548   2.220   4.543  15.148  0.2340 -1.3595  1.1652
  230MPD1    H2 3549   1.956   4.598  15.464  0.9237  0.3572 -0.1779
  230MPD1    H3 3550   2.127   4.490  15.366  0.9065  0.8011 -0.0329
  230MPD1     N 3551   2.126   4.725  14.976  0.9810 -0.5782  0.3946
  230MPD1    H5 3552   2.078   0.068  14.933 -3.7121 -2.8438  1.5300
  230MPD1    N1 3553   1.829   0.083  15.353 -0.0220 -0.3900 -0.6159
  230MPD1    H6 3554   1.821   0.180  15.323  1.8604  0.3552  1.2976
  230MPD1    H7 3555   1.848   0.076  15.453  0.3824  0.0520 -0.6682
  231MPD1     C 3556   0.967   1.912  15.857  1.0466 -0.0290 -0.2546
  231MPD1    C1 3557   0.938   1.873  15.730 -0.6560 -0.4494  0.4716
  231MPD1    C2 3558   0.970   1.973  15.636  0.2845  0.3582  0.8536
  231MPD1    C3 3559   1.006   2.103  15.665  0.0969  0.3729  0.0511
  231MPD1    C4 3560   1.016   2.143  15.796  0.8208 -0.4083 -0.3193
  231MPD1    C5 3561   0.999   2.044  15.890 -1.3512 -0.7293 -0.1211
  231MPD1     H 3562   0.975   1.947  15.531 -0.8301  0.6319  0.7388
  231MPD1    H1 3563   1.062   2.235  15.829  0.3805 -0.2024 -0.2911
  231MPD1    H2 3564   0.970   1.844  15.941  0.3176  0.5442  0.2364
  231MPD1    H3 3565   1.044   2.066  15.986 -0.8937 -0.8934 -0.2974
  231MPD1     N 3566   1.031   2.180  15.547  0.1188 -0.1458  0.1603
  231MPD1    H5 3567   1.011   2.144  15.454  1.1574 -2.0899  0.6986
  231MPD1    N1 3568   0.913   1.734  15.703  0.8674 -0.3382 -0.3946
  231MPD1    H6 3569   0.851   1.697  15.775  1.1281  0.6016  0.3018
  231MPD1    H7 3570   0.862   1.722  15.615 -0.5206  0.2206  0.3359
  232MPD1     C 3571   2.358   4.242  17.674 -0.5212  0.1394 -0.6564
  232MPD1    C1 3572   2.284   4.258   0.041  0.4084  0.8569 -0.5965
  232MPD1    C2 3573   2.149   4.266   0.021 -0.0764 -0.1101 -0.6600
  232MPD1    C3 3574   2.094   4.260  17.637  0.1632  0.7449  0.0569
  232MPD1    C4 3575   2.175   4.228  17.530 -0.2684  0.4618  0.5104
  232MPD1    C5 3576   2.309   4.223  17.552  0.7321 -0.3438 -0.1175
  232MPD1     H 3577   2.080   4.281   0.103  1.5056 -0.7707  0.7818
  232MPD1    H1 3578   2.129   4.201  17.436 -1.8982  1.4181  1.0415
  232MPD1    H2 3579   2.464   4.225  17.684 -0.2127  3.3183  1.4979
  232MPD1    H3 3580   2.377   4.191  17.474 -1.0009 -1.6238 -1.0963
  232MPD1     N 3581   1.951   4.273  17.628 -0.6328 -0.1566  0.0640
  232MPD1    H5 3582   1.902   4.292  17.715 -0.0777  1.9396 -0.0790
  232MPD1    N1 3583   2.346   4.289   0.162  0.4471 -0.1083 -0.6075
  232MPD1    H6 3584   2.441   4.253   0.171 -0.4779 -3.0150 -2.6245
  232MPD1    H7 3585   2.289   4.235   0.227 -1.1382  2.5292  0.1976
  233MPD1     C 3586   2.886   1.902   1.978 -0.5431  0.1809 -0.1409
  233MPD1    C1 3587   2.881   2.039   2.004 -0.2047  1.3463 -0.5749
  233MPD1    C2 3588   2.976   2.112   1.941 -0.1412  0.0115  0.0665
  233MPD1    C3 3589   3.079   2.059   1.863 -0.2971  0.5910 -0.0619
  233MPD1    C4 3590   3.091   1.924   1.855  0.2046 -0.2626  0.5975
  233MPD1    C5 3591   2.996   1.843   1.915 -0.1655  0.1792  0.0785
  233MPD1     H 3592   2.959   2.219   1.951  3.0412  0.4016  1.1998
  233MPD1    H1 3593   3.168   1.868   1.804  0.7404  2.5077 -1.6444
  233MPD1    H2 3594   2.808   1.836   2.016 -1.0368  0.0995 -1.3054
  233MPD1    H3 3595   2.997   1.737   1.891  1.8060  0.1296  0.3329
  233MPD1     N 3596   3.176   2.132   1.803  0.0174 -0.4568  0.2616
  233MPD1    H5 3597   3.235   2.083   1.737  1.2155  1.8470 -0.3953
  233MPD1    N1 3598   2.774   2.098   2.069  0.4840  0.3672  0.3889
  233MPD1    H6 3599   2.804   2.186   2.111 -0.9262  3.0853 -4.3628
  233MPD1    H7 3600   2.717   2.048   2.138 -0.6237  1.6139  0.3707
  234MPD1     C 3601   4.616   0.535  10.099  0.6464  0.4025 -0.2147
  234MPD1    C1 3602   4.734   0.600  10.116  0.7497  0.4699 -0.0794
  234MPD1    C2 3603   0.032   0.702  10.030 -0.2851  0.2309  0.1301
  234MPD1    C3 3604   4.685   0.750   9.930  0.1158  0.4592  0.3135
  234MPD1    C4 3605   4.563   0.683   9.921  0.3691 -0.6347  0.1567
  234MPD1    C5 3606   4.528   0.584  10.011  0.5781 -0.0528  0.2230
  234MPD1     H 3607   0.133   0.738  10.041  0.0588 -0.7109  0.0694
  234MPD1    H1 3608   4.501   0.719   9.840  3.5318  1.4496 -1.3904
  234MPD1    H2 3609   4.584   0.445  10.151  0.3229 -0.2019 -1.4485
  234MPD1    H3 3610   4.429   0.542  10.002  0.2928  1.0329 -1.5660
  234MPD1     N 3611   4.721   0.854   9.848 -0.3517 -0.2801 -0.8990
  234MPD1    H5 3612   0.073   0.900   9.871 -1.9561  1.9378  0.7491
  234MPD1    N1 3613   0.092   0.557  10.213 -0.1211 -0.0360  0.2153
  234MPD1    H6 3614   0.179   0.608  10.225  0.9407 -1.8146  0.0820
  234MPD1    H7 3615   0.059   0.503  10.293  1.4804  0.0562  0.9341
  235MPD1     C 3616   2.024   3.936  10.985  0.0202 -0.4434  0.5006
  235MPD1    C1 3617   1.968   4.021  11.080  0.5901  1.0465  0.3424
  235MPD1    C2 3618   1.906   4.136  11.033 -0.2374 -0.7397  0.0045
  235MPD1    C3 3619   1.896   4.165  10.897 -0.0553  0.4168  0.0840
  235MPD1    C4 3620   1.942   4.071  10.808  0.3300  0.4387  0.3309
  235MPD1    C5 3621   1.988   3.953  10.855 -0.1200 -0.0772  0.5114
  235MPD1     H 3622   1.876   4.209  11.107  2.3788  1.9062 -1.5744
  235MPD1    H1 3623   1.939   4.076  10.700 -2.0979 -3.5562  0.1793
  235MPD1    H2 3624   2.081   3.849  11.015 -0.4058 -1.2943 -1.1054
  235MPD1    H3 3625   2.007   3.875  10.782  0.1603 -0.0122  0.5148
  235MPD1     N 3626   1.824   4.279  10.852  0.3821  0.5228 -0.4465
  235MPD1    H5 3627   1.812   4.351  10.922  0.4613  0.4550 -0.3629
  235MPD1    N1 3628   2.015   4.011  11.211 -0.0329  0.3518 -0.4293
  235MPD1    H6 3629   2.049   3.916  11.224  1.1876  0.9478  0.7450
  235MPD1    H7 3630   1.962   4.043  11.293 -0.3288  1.4555 -1.0446
  236MPD1     C 3631   4.163   0.664  10.248  0.0189 -0.8952 -0.2194
  236MPD1    C1 3632   4.267   0.754  10.244 -0.8109  0.8539  0.9187
  236MPD1    C2 3633   4.385   0.717  10.306 -0.5378  0.1584  0.3183
  236MPD1    C3 3634   4.404   0.598  10.374 -0.3444  0.1736  0.6326
  236MPD1    C4 3635   4.291   0.516  10.386 -0.6232 -0.4391 -0.5822
  236MPD1    C5 3636   4.183   0.554  10.315  0.1873  0.1223 -0.3168
  236MPD1     H 3637   4.473   0.779  10.295  0.3111 -1.2842 -0.9020
  236MPD1    H1 3638   4.292   0.415  10.425 -0.5094 -0.1234  0.2352
  236MPD1    H2 3639   4.068   0.693  10.204 -0.2170  0.3227  1.0648
  236MPD1    H3 3640   4.095   0.491  10.327  0.5123 -0.5965 -1.7935
  236MPD1     N 3641   4.526   0.548  10.434 -0.2586  0.0863 -0.0906
  236MPD1    H5 3642   4.534   0.451  10.459  0.8307  0.6797  1.8407
  236MPD1    N1 3643   4.257   0.868  10.159 -0.0556 -0.0967 -0.1607
  236MPD1    H6 3644   4.171   0.922  10.164 -0.5307 -1.0797  2.1667
  236MPD1    H7 3645   4.335   0.929  10.184  0.0061  0.3723 -1.4890
  237MPD1     C 3646   0.979   3.274  15.316 -0.1891  0.3272 -0.0419
  237MPD1    C1 3647   0.953   3.377  15.401  0.6275  0.0213  0.6305
  237MPD1    C2 3648   0.835   3.442  15.408 -0.1244 -0.1802  0.4596
  237MPD1    C3 3649   0.722   3.382  15.355 -0.5500 -0.2796  0.3431
  237MPD1    C4 3650   0.738   3.272  15.267  0.3288 -0.4483  0.2166
  237MPD1    C5 3651   0.866   3.216  15.247 -0.5260 -0.1721 -0.4576
  237MPD1     H 3652   0.830   3.534  15.465 -0.1689  0.5208 -0.6593
  237MPD1    H1 3653   0.659   3.229  15.207  0.9656 -0.4506 -0.6373
  237MPD1    H2 3654   1.074   3.221  15.310 -1.0278 -0.7300 -3.5150
  237MPD1    H3 3655   0.870   3.128  15.184 -2.3175 -0.7133  0.1722
  237MPD1     N 3656   0.606   3.449  15.366 -0.3998 -0.1289 -0.3597
  237MPD1    H5 3657   0.600   3.526  15.432  0.0505 -1.3582  1.1301
  237MPD1    N1 3658   1.066   3.440  15.460 -0.3847  0.1567  0.0331
  237MPD1    H6 3659   1.141   3.375  15.483  0.1226  0.5244 -0.5723
  237MPD1    H7 3660   1.038   3.490  15.544 -1.3274 -0.9105  0.3392
  238MPD1     C 3661   2.203   1.100  14.862 -0.0491 -0.5244 -0.2459
  238MPD1    C1 3662   2.267   1.214  14.829  0.0961  1.0310  0.0821
  238MPD1    C2 3663   2.192   1.324  14.789  0.7103  0.5621 -0.0106
  238MPD1    C3 3664   2.049   1.314  14.793  0.6596 -0.0675  0.1693
  238MPD1    C4 3665   1.986   1.196  14.833 -0.0496 -0.1311  0.3211
  238MPD1    C5 3666   2.065   1.093  14.863 -0.2627 -0.0753 -0.3997
  238MPD1     H 3667   2.247   1.413  14.762  2.1614 -0.7706 -1.4486
  238MPD1    H1 3668   1.879   1.186  14.844 -0.4642  3.2799 -0.6899
  238MPD1    H2 3669   2.261   1.017  14.901 -0.7612 -0.9251 -0.0306
  238MPD1    H3 3670   2.018   0.997  14.885  0.4351 -0.4692 -0.6322
  238MPD1     N 3671   1.970   1.422  14.754  0.1373  0.3872 -0.3828
  238MPD1    H5 3672   1.870   1.406  14.766  0.7768 -2.1234  1.5967
  238MPD1    N1 3673   2.403   1.222  14.851  0.1168  1.1810 -0.1234
  238MPD1    H6 3674   2.444   1.129  14.857 -3.2203 -0.2061  1.4808
  238MPD1    H7 3675   2.439   1.276  14.773  0.1989  1.4040  0.0698
  239MPD1     C 3676   2.219   2.282  14.922  1.0115 -0.0904 -0.3473
  239MPD1    C1 3677   2.205   2.372  15.025 -0.2296  0.0006 -0.5743
  239MPD1    C2 3678   2.229   2.513  15.009  0.3234 -0.0549 -0.0343
  239MPD1    C3 3679   2.272   2.555  14.884 -0.1132  0.4095  0.9773
  239MPD1    C4 3680   2.291   2.463  14.781 -0.3432  0.2084  0.1925
  239MPD1    C5 3681   2.261   2.331  14.799  0.0695  0.1555 -0.2599
  239MPD1     H 3682   2.206   2.575  15.095 -1.6226  0.9378 -1.2642
  239MPD1    H1 3683   2.330   2.503  14.689 -2.7865  1.0255 -0.4644
  239MPD1    H2 3684   2.191   2.178  14.934 -0.3406 -0.0537 -3.0287
  239MPD1    H3 3685   2.281   2.262  14.718 -0.5546  0.0341 -0.3136
  239MPD1     N 3686   2.294   2.688  14.849  0.1096 -0.0487 -0.0181
  239MPD1    H5 3687   2.324   2.701  14.753  1.1505 -0.8084  0.1920
  239MPD1    N1 3688   2.142   2.330  15.148 -0.1976 -0.0652  0.1946
  239MPD1    H6 3689   2.173   2.239  15.181 -0.7000 -0.0999  0.5794
  239MPD1    H7 3690   2.171   2.400  15.217  1.1700 -0.4974  0.0561
  240MPD1     C 3691   0.730   3.680  14.653  0.0112  0.3346  0.4133
  240MPD1    C1 3692   0.677   3.566  14.615  0.2507  0.0055 -0.1932
  240MPD1    C2 3693   0.761   3.468  14.555  0.0911  0.3961 -0.5318
  240MPD1    C3 3694   0.894   3.476  14.569 -0.1296 -0.2060  0.2808
  240MPD1    C4 3695   0.942   3.591  14.626  0.2437 -0.3882  0.2782
  240MPD1    C5 3696   0.864   3.692  14.652  0.6192 -0.1379 -0.0377
  240MPD1     H 3697   0.727   3.374  14.513 -0.6810 -0.1066  1.2139
  240MPD1    H1 3698   1.047   3.603  14.652 -0.4769  1.7798  2.2028
  240MPD1    H2 3699   0.677   3.764  14.697  1.3344  0.7469  1.1980
  240MPD1    H3 3700   0.916   3.766  14.711  0.6805 -0.6764  0.5803
  240MPD1     N 3701   0.975   3.359  14.531  0.6215 -0.0996  0.6997
  240MPD1    H5 3702   0.922   3.283  14.490 -1.8253  2.3975 -0.8200
  240MPD1    N1 3703   0.535   3.547  14.603  0.1696 -0.6243 -0.1316
  240MPD1    H6 3704   0.493   3.599  14.680  0.8739 -0.4123  0.1106
  240MPD1    H7 3705   0.507   3.450  14.609 -1.1256 -0.1575  1.5090
  241MPD1     C 3706   1.931   3.083  14.318  0.9679 -0.0471 -0.2887
  241MPD1    C1 3707   1.864   2.965  14.344 -0.0284  0.4201 -1.1586
  241MPD1    C2 3708   1.729   2.970  14.354 -0.5794  1.2082 -0.1074
  241MPD1    C3 3709   1.664   3.093  14.366  0.5255 -0.4145  0.2930
  241MPD1    C4 3710   1.734   3.205  14.362 -0.2179  0.7089  0.2988
  241MPD1    C5 3711   1.872   3.202  14.336 -0.1819  0.7188 -0.1049
  241MPD1     H 3712   1.675   2.877  14.371 -0.2858  1.4037  1.8866
  241MPD1    H1 3713   1.685   3.302  14.367  0.4679  1.0824 -0.2540
  241MPD1    H2 3714   2.031   3.089  14.277  1.0170  1.2335  0.0380
  241MPD1    H3 3715   1.923   3.298  14.334 -0.4351  0.8607  0.2050
  241MPD1     N 3716   1.522   3.114  14.398  0.2298 -0.4126  0.0126
  241MPD1    H5 3717   1.483   3.207  14.404  3.1212  0.8074  0.1401
  241MPD1    N1 3718   1.942   2.844  14.342  0.5380 -0.3265  0.2542
  241MPD1    H6 3719   2.036   2.866  14.377 -0.0767  2.6070  0.0410
  241MPD1    H7 3720   1.904   2.780  14.411  0.4981  0.3737  0.8812
  242MPD1     C 3721   0.943   0.897  16.064  0.8018  0.1520 -0.1045
  242MPD1    C1 3722   1.042   0.807  16.102 -0.3097  0.4964  0.6857
  242MPD1    C2 3723   1.136   0.777  16.006 -0.6275 -0.5303  0.9516
  242MPD1    C3 3724   1.140   0.840  15.877  0.3168 -0.4338 -0.9022
  242MPD1    C4 3725   1.045   0.939  15.850  0.5310  0.3964 -0.1278
  242MPD1    C5 3726   0.956   0.967  15.947  0.2562 -0.7155  0.4833
  242MPD1     H 3727   1.211   0.704  16.032 -0.3546  0.0468  1.7596
  242MPD1    H1 3728   1.044   0.985  15.753  1.4003  2.8525  1.0339
  242MPD1    H2 3729   0.855   0.925  16.120  1.3647  0.7741  0.4756
  242MPD1    H3 3730   0.879   1.038  15.921  1.8368  1.1134  0.8497
  242MPD1     N 3731   1.227   0.801  15.773  0.0191 -0.6501  0.4195
  242MPD1    H5 3732   1.228   0.858  15.690 -0.3598 -1.0127  0.1662
  242MPD1    N1 3733   1.005   0.715  16.199 -0.4047 -0.3755 -0.1382
  242MPD1    H6 3734   1.081   0.685  16.261 -0.5829  0.5466  0.5357
  242MPD1    H7 3735   0.953   0.762  16.273  1.1536  0.3426  0.5094
  243MPD1     C 3736   3.288   0.283  17.115  0.4702  0.5279 -0.0933
  243MPD1    C1 3737   3.263   0.208  17.230  0.0675  0.0776  0.0008
  243MPD1    C2 3738   3.180   0.098  17.225  0.1728 -0.0494 -0.5898
  243MPD1    C3 3739   3.131   0.058  17.104 -0.7165 -0.5097  0.3609
  243MPD1    C4 3740   3.158   0.132  16.994 -0.1024  0.0280 -0.3448
  243MPD1    C5 3741   3.235   0.241  16.998  0.6105  0.3403  0.1881
  243MPD1     H 3742   3.151   0.050  17.317 -1.5115  0.5783 -0.7821
  243MPD1    H1 3743   3.113   0.105  16.899 -0.8765 -1.7994  0.5238
  243MPD1    H2 3744   3.348   0.372  17.122 -1.6823  2.1336 -1.8744
  243MPD1    H3 3745   3.253   0.303  16.911  0.0416  0.9085  0.4698
  243MPD1     N 3746   3.062   4.672  17.077 -0.5548 -0.5068 -0.2212
  243MPD1    H5 3747   3.031   4.663  16.980  0.9338  0.7868 -0.8213
  243MPD1    N1 3748   3.331   0.234  17.350 -0.5177  0.5468  0.0549
  243MPD1    H6 3749   3.379   0.324  17.354  2.3014 -0.9052 -1.0487
  243MPD1    H7 3750   3.266   0.215  17.426 -0.9572  0.7135 -0.2780
  244MPD1     C 3751   3.089   3.948   0.001 -0.3439  0.1034 -0.3081
  244MPD1    C1 3752   3.118   4.084   0.002  0.4498  0.1982  0.2476
  244MPD1    C2 3753   3.107   4.149  17.625  0.3431  0.0474 -0.0623
  244MPD1    C3 3754   3.078   4.084  17.503  0.1346 -0.2138 -0.3402
  244MPD1    C4 3755   3.056   3.949  17.503 -0.2144 -0.2097  0.1872
  244MPD1    C5 3756   3.065   3.885  17.620  0.6741 -0.0999  0.1410
  244MPD1     H 3757   3.106   4.257  17.625  0.4352  0.0510 -0.9564
  244MPD1    H1 3758   3.048   3.899  17.407 -0.6262 -1.4801  0.8874
  244MPD1    H2 3759   3.092   3.890   0.092  0.0729  0.4723 -0.0861
  244MPD1    H3 3760   3.038   3.780  17.628 -2.4661  0.6844 -0.2589
  244MPD1     N 3761   3.070   4.165  17.388  0.1006 -0.7664  0.0905
  244MPD1    H5 3762   3.095   4.263  17.397 -0.3324 -0.5550 -1.1219
  244MPD1    N1 3763   3.130   4.153   0.124  0.2142 -0.3297 -0.1911
  244MPD1    H6 3764   3.169   4.247   0.127  0.7746 -0.6075  1.3166
  244MPD1    H7 3765   3.181   4.095   0.191  1.3290 -0.9250 -1.5588
  245MPD1     C 3766   0.022   0.022  13.164  0.0778 -0.3229  0.2661
  245MPD1    C1 3767   0.104   0.056  13.267 -0.8242 -0.2219 -0.1793
  245MPD1    C2 3768   0.096   0.187  13.307 -0.4049 -0.4299  0.5819
  245MPD1    C3 3769   0.021   0.292  13.257 -0.3307 -0.1021  0.4060
  245MPD1    C4 3770   4.677   0.245  13.151  0.1964  0.0121  1.4778
  245MPD1    C5 3771   4.679   0.116  13.107 -0.3201  0.1826  0.4501
  245MPD1     H 3772   0.158   0.213  13.391 -2.9881 -0.1756  2.3949
  245MPD1    H1 3773   4.612   0.311  13.095  1.6200  0.8585  0.8109
  245MPD1    H2 3774   0.021   4.657  13.123 -1.2888 -0.9982  1.9667
  245MPD1    H3 3775   4.617   0.089  13.022  3.2642 -0.3860 -1.9943
  245MPD1     N 3776   0.033   0.424  13.299  0.5893  0.2743  0.4585
  245MPD1    H5 3777   0.095   0.438  13.378  0.6349 -0.3043  0.5268
  245MPD1    N1 3778   0.200   4.706  13.322  0.3535  0.7275 -0.3911
  245MPD1    H6 3779   0.175   4.609  13.310  1.8542  0.4052 -1.0260
  245MPD1    H7 3780   0.237   4.732  13.413  0.8141 -1.2318 -0.0355
  246MPD1     C 3781   4.716   1.834   8.411  0.9324  0.4147  0.6636
  246MPD1    C1 3782   4.630   1.736   8.385 -0.1102 -0.4575  0.5394
  246MPD1    C2 3783   4.619   1.626   8.476 -0.1586 -0.4383  0.8040
  246MPD1    C3 3784   4.698   1.617   8.588 -0.2838 -0.1624  0.3405
  246MPD1    C4 3785   0.051   1.720   8.610  0.6202 -0.7968  0.3662
  246MPD1    C5 3786   0.044   1.832   8.535 -0.0914 -0.3564 -0.4479
  246MPD1     H 3787   4.557   1.547   8.434  0.6008  0.4327 -1.9287
  246MPD1    H1 3788   0.111   1.723   8.700 -0.3052 -0.6446  0.9726
  246MPD1    H2 3789   0.000   1.921   8.350 -0.4148 -0.5289 -1.1163
  246MPD1    H3 3790   0.122   1.903   8.559 -1.2239  0.2052  1.5718
  246MPD1     N 3791   4.710   1.494   8.660  0.6206  0.6569  0.9665
  246MPD1    H5 3792   4.651   1.418   8.627 -0.6697  1.3886  1.6080
  246MPD1    N1 3793   4.562   1.733   8.263 -0.3948  0.0382 -0.2812
  246MPD1    H6 3794   4.474   1.683   8.270  0.4046 -1.4292 -0.7196
  246MPD1    H7 3795   4.537   1.828   8.236 -1.2896 -0.1471 -0.0995
  247MPD1     C 3796   4.234   1.313  16.209 -0.0234 -0.4255  0.0405
  247MPD1    C1 3797   4.156   1.249  16.112 -0.3060 -0.6102  0.1761
  247MPD1    C2 3798   4.182   1.118  16.083 -0.6491 -0.1052  0.5730
  247MPD1    C3 3799   4.261   1.037  16.162  0.1111 -0.2631 -0.6358
  247MPD1    C4 3800   4.330   1.101  16.260  0.2804  0.2841 -0.5605
  247MPD1    C5 3801   4.322   1.239  16.280  0.2247 -0.7189 -0.5363
  247MPD1     H 3802   4.134   1.071  15.998  0.5783  0.0837 -0.2282
  247MPD1    H1 3803   4.392   1.043  16.327  1.0312 -0.3710 -1.8134
  247MPD1    H2 3804   4.227   1.421  16.216  0.4235 -0.2601 -2.0083
  247MPD1    H3 3805   4.383   1.283  16.358 -0.4774  0.0379 -0.4149
  247MPD1     N 3806   4.278   0.898  16.136  0.2679  0.2909 -0.2457
  247MPD1    H5 3807   4.350   0.857  16.194 -0.0368  1.2811  0.8168
  247MPD1    N1 3808   4.073   1.328  16.026  0.0734  0.3588 -0.0251
  247MPD1    H6 3809   4.030   1.411  16.068  1.4785  1.1437 -0.1542
  247MPD1    H7 3810   4.001   1.264  15.992  1.2499 -0.8616 -0.2042
  248MPD1     C 3811   0.849   1.549   0.945 -0.0178 -0.4641  0.5237
  248MPD1    C1 3812   0.811   1.479   0.831  0.3520  0.4388  0.4160
  248MPD1    C2 3813   0.745   1.359   0.844  0.4014 -0.3131  0.3121
  248MPD1    C3 3814   0.709   1.313   0.968  0.5170  0.2268  0.4745
  248MPD1    C4 3815   0.740   1.383   1.087 -0.3604 -0.5320  0.4326
  248MPD1    C5 3816   0.805   1.506   1.066  0.2563  0.3689 -0.5698
  248MPD1     H 3817   0.720   1.301   0.755 -2.2239 -0.2766  1.0263
  248MPD1    H1 3818   0.704   1.359   1.186 -1.1512 -0.6931  0.1098
  248MPD1    H2 3819   0.898   1.645   0.943  1.1613 -1.0672  0.6653
  248MPD1    H3 3820   0.825   1.582   1.141 -0.2883  1.0392 -1.1026
  248MPD1     N 3821   0.633   1.196   0.971 -0.0323  0.0745  0.2478
  248MPD1    H5 3822   0.624   1.149   0.881  0.9965  0.0191  0.1770
  248MPD1    N1 3823   0.858   1.516   0.706  0.2048  0.0091  0.3112
  248MPD1    H6 3824   0.881   1.614   0.692  3.4726 -0.4038  2.9603
  248MPD1    H7 3825   0.775   1.490   0.652  2.1510 -1.9581 -1.7379
  249MPD1     C 3826   3.270   3.544  10.180 -0.0747 -1.0074 -0.7551
  249MPD1    C1 3827   3.143   3.504  10.185  0.8255 -0.8723 -0.3687
  249MPD1    C2 3828   3.048   3.583  10.127  0.2917 -0.3760 -0.4401
  249MPD1    C3 3829   3.074   3.706  10.074  0.2208  0.3599 -0.2869
  249MPD1    C4 3830   3.207   3.745  10.069  0.1975  0.0461  0.3112
  249MPD1    C5 3831   3.305   3.668  10.129 -0.0339 -0.3614  0.4977
  249MPD1     H 3832   2.940   3.570  10.136  0.0698  0.9787 -1.2115
  249MPD1    H1 3833   3.236   3.833  10.013  0.4450  1.3908  2.5227
  249MPD1    H2 3834   3.351   3.482  10.218  0.6271  0.1153 -0.4141
  249MPD1    H3 3835   3.411   3.691  10.124 -0.1982 -0.4341 -3.4555
  249MPD1     N 3836   2.963   3.786  10.035  0.6445  0.2780  1.1403
  249MPD1    H5 3837   2.870   3.746  10.046  0.4304  0.4518 -0.0453
  249MPD1    N1 3838   3.103   3.402  10.269  0.8016  0.1437  0.2599
  249MPD1    H6 3839   3.175   3.330  10.263 -0.1186 -0.7514  0.1079
  249MPD1    H7 3840   3.015   3.366  10.234 -0.3023  0.0786  3.0550
  250MPD2     C 3841   3.348   3.844  13.444  0.1755  0.1457  0.1341
  250MPD2    C1 3842   3.259   3.873  13.345  0.1510 -0.1523 -0.0651
  250MPD2    C2 3843   3.157   3.778  13.319  0.4430  0.0664  0.1107
  250MPD2    C3 3844   3.143   3.664  13.398  0.6580  0.2034  0.4885
  250MPD2    C4 3845   3.226   3.645  13.500  0.1957 -0.1311  0.3592
  250MPD2    C5 3846   3.330   3.730  13.516  0.2937  1.3746  0.9296
  250MPD2     H 3847   3.080   3.793  13.244  0.2620 -0.7823  0.1314
  250MPD2    H1 3848   3.222   3.561  13.568  1.5689 -1.5792 -1.3437
  250MPD2    H2 3849   3.433   3.904  13.474  0.7443 -0.1068 -0.9505
  250MPD2    H3 3850   3.393   3.711  13.601  1.5927 -2.4585 -0.8882
  250MPD2     N 3851   3.040   3.569  13.379 -0.4437  0.0258  0.2443
  250MPD2    H5 3852   3.035   3.500  13.453  2.1314  1.7781  2.0776
  250MPD2    N1 3853   3.273   3.990  13.271  0.1961 -0.0064  0.1137
  250MPD2    H7 3854   3.359   4.043  13.285  0.6889 -0.0453 -2.7920
  251TMC3    C1 3855   3.203   4.180  13.150 -0.7542  0.3250 -0.0412
  251TMC3    C2 3856   3.106   4.273  13.168  0.4733 -0.2386  0.0388
  251TMC3    C3 3857   3.142   4.402  13.185 -0.1007 -0.6878 -0.6284
  251TMC3    C4 3858   3.333   4.211  13.141  0.8833  0.1612  0.6443
  251TMC3    C5 3859   3.363   4.345  13.144 -0.3972  0.3079 -0.5474
  251TMC3    C6 3860   3.272   4.443  13.175  0.2809  0.0585  0.8392
  251TMC3     C 3861   3.167   4.049  13.196 -0.1923 -0.3141  0.1818
  251TMC3     O 3862   3.051   4.008  13.178 -0.1777  0.4621  0.1475
  251TMC3     H 3863   3.002   4.244  13.174  0.4286 -0.1821 -0.5450
  251TMC3    H1 3864   3.414   4.143  13.119 -1.4188 -2.2884 -0.1833
  251TMC3    H2 3865   3.291   4.550  13.185 -2.8852  0.6185  0.7404
  251TMC3    C7 3866   3.499   4.375  13.161 -0.1445  0.4103 -0.4886
  251TMC3    C8 3867   3.025   4.490  13.205  0.0030 -0.8011  0.4430
  251TMC3    O1 3868   3.570   4.292  13.212  0.2111 -0.1936  0.0089
  251TMC3    O2 3869   2.927   4.448  13.267  0.3186  0.0635  0.0694
  252TMC3    C1 3870   2.913   0.391   9.532 -0.2928  0.2545  0.3901
  252TMC3    C2 3871   3.026   0.326   9.498 -0.4950 -0.0644  0.1493
  252TMC3    C3 3872   3.048   0.205   9.548  0.4379 -0.2513 -0.3061
  252TMC3    C4 3873   2.819   0.335   9.613  0.5909 -0.6377  0.1553
  252TMC3    C5 3874   2.843   0.216   9.661  0.1847 -0.2048 -0.2016
  252TMC3    C6 3875   2.959   0.150   9.635 -0.3867  0.2032 -0.4849
  252TMC3     C 3876   2.921   0.535   9.522  0.2864  0.0314 -0.0331
  252TMC3     O 3877   3.014   0.575   9.452 -0.0608 -0.2223 -0.3639
  252TMC3     H 3878   3.106   0.381   9.450  0.0786 -1.2592 -0.2719
  252TMC3    H1 3879   2.727   0.391   9.621 -0.8666 -2.9971 -0.0737
  252TMC3    H2 3880   2.975   0.045   9.655 -2.4058  0.1655  0.9610
  252TMC3    C7 3881   2.736   0.165   9.750  0.3454 -0.2575 -0.0532
  252TMC3    C8 3882   3.183   0.164   9.542  0.3897  0.4667 -0.3770
  252TMC3    O1 3883   2.637   0.227   9.757  0.2534  0.0388  0.2975
  252TMC3    O2 3884   3.268   0.191   9.458  0.7209  0.0459 -0.3356
  253MPD2     C 3885   0.161   3.831  15.678 -0.5282  0.0193 -0.0684
  253MPD2    C1 3886   0.037   3.827  15.619  0.3916  0.2576  0.4200
  253MPD2    C2 3887   4.662   3.781  15.694  0.6208  0.6055 -0.2278
  253MPD2    C3 3888   4.676   3.747  15.831 -0.5840 -0.2340 -0.8275
  253MPD2    C4 3889   0.068   3.755  15.883 -0.1775  1.2015 -0.2559
  253MPD2    C5 3890   0.173   3.798  15.808 -0.3778  0.0236 -0.5345
  253MPD2     H 3891   4.566   3.777  15.645  0.8897 -1.0088 -0.6349
  253MPD2    H1 3892   0.087   3.718  15.983 -1.8309  2.2231  0.4265
  253MPD2    H2 3893   0.253   3.856  15.626 -1.5495  0.6485 -1.5828
  253MPD2    H3 3894   0.271   3.782  15.852  0.0698  2.1097 -0.7680
  253MPD2     N 3895   4.567   3.699  15.914  0.2131  0.0046  0.2236
  253MPD2    H5 3896   4.587   3.674  16.010 -1.7788 -0.0085  0.6387
  253MPD2    N1 3897   0.031   3.856  15.481 -0.8456 -0.3231  0.0043
  253MPD2    H7 3898   0.113   3.901  15.442 -0.9686 -0.0722  0.0387
  254TMC3    C1 3899   4.356   3.633  15.997 -0.0217 -0.0178 -0.1094
  254TMC3    C2 3900   4.229   3.659  15.979 -0.9084  0.0372 -0.3945
  254TMC3    C3 3901   4.151   3.633  16.091 -0.0481 -0.1552  0.3140
  254TMC3    C4 3902   4.409   3.574  16.112 -0.4424 -0.0303 -0.3593
  254TMC3    C5 3903   4.330   3.545  16.219  0.1236 -0.0108 -0.2253
  254TMC3    C6 3904   4.199   3.572  16.204  0.0784  1.3349  0.3315
  254TMC3     C 3905   4.435   3.674  15.881 -0.2880  0.1119  0.2051
  254TMC3     O 3906   4.383   3.685  15.769  0.4660  0.1180 -0.0179
  254TMC3     H 3907   4.188   3.716  15.897  1.2848 -0.5024 -1.8543
  254TMC3    H1 3908   4.515   3.556  16.121 -0.2854  0.0737 -2.1434
  254TMC3    H2 3909   4.138   3.555  16.292 -1.0291 -1.5244 -0.9961
  254TMC3    C7 3910   4.393   3.497  16.345  0.2072 -0.1898 -0.8493
  254TMC3    C8 3911   4.016   3.682  16.107 -0.1775  0.3022  0.7946
  254TMC3    O1 3912   4.319   3.430  16.412  0.7089  0.8045  0.0652
  254TMC3    O2 3913   3.954   3.633  16.199 -0.3963 -0.0466 -0.2030
  255MPD2     C 3914   3.371   1.641  10.244  0.4121  0.3750 -0.1358
  255MPD2    C1 3915   3.235   1.613  10.242 -0.2105 -0.1066  0.1960
  255MPD2    C2 3916   3.198   1.480  10.230  0.6962  0.4856  0.2296
  255MPD2    C3 3917   3.306   1.383  10.235  0.2258  0.7323 -0.8028
  255MPD2    C4 3918   3.436   1.413  10.233  0.2964  0.4295 -0.0023
  255MPD2    C5 3919   3.467   1.548  10.242  0.1043  1.3408  0.0023
  255MPD2     H 3920   3.094   1.450  10.229  0.3129  1.8558 -0.9145
  255MPD2    H1 3921   3.516   1.341  10.240 -0.4730 -0.3480  0.7214
  255MPD2    H2 3922   3.409   1.739  10.271 -2.1996  1.4957 -0.5565
  255MPD2    H3 3923   3.567   1.581  10.265 -0.1022  1.0900  1.2656
  255MPD2     N 3924   3.261   1.256  10.235  0.4678 -0.6024  0.0345
  255MPD2    H5 3925   3.162   1.235  10.230  0.4604 -0.9977  2.0578
  255MPD2    N1 3926   3.145   1.721  10.248 -0.1878 -0.0557 -0.6068
  255MPD2    H7 3927   3.188   1.813  10.247  1.1303 -0.6264  2.0237
  256TMC3    C1 3928   2.933   1.832  10.261  0.2342  0.1784  0.5153
  256TMC3    C2 3929   2.975   1.930  10.179  0.7571 -0.0684  0.3607
  256TMC3    C3 3930   2.886   2.027  10.147 -0.6602 -0.5590 -0.4192
  256TMC3    C4 3931   2.804   1.824  10.312  0.2267  0.1042  0.2091
  256TMC3    C5 3932   2.723   1.929  10.281 -0.2822  0.1642  0.4751
  256TMC3    C6 3933   2.763   2.032  10.199 -0.8065  0.4345  0.1023
  256TMC3     C 3934   3.009   1.710  10.274 -0.2881  0.2597 -0.0131
  256TMC3     O 3935   2.948   1.610  10.314 -0.0272  0.3125 -0.0200
  256TMC3     H 3936   3.079   1.952  10.154  0.2823 -1.3362 -2.6538
  256TMC3    H1 3937   2.772   1.738  10.370 -2.1070 -0.6189 -2.2080
  256TMC3    H2 3938   2.691   2.106  10.166 -1.0643  0.5855  0.9968
  256TMC3    C7 3939   2.580   1.915  10.299  0.8211 -0.2727  0.2923
  256TMC3    C8 3940   2.923   2.155  10.079  0.0897 -0.0294 -0.6905
  256TMC3    O1 3941   2.507   1.994  10.243  0.0129  0.0942  0.6340
  256TMC3    O2 3942   2.837   2.239  10.077  0.2805  0.1956 -0.7620
  257MPD2     C 3943   2.335   3.762  13.626  0.6918  0.2409 -0.1109
  257MPD2    C1 3944   2.244   3.688  13.550  0.7850  0.5157  0.1083
  257MPD2    C2 3945   2.183   3.580  13.610  0.4881 -0.2703 -0.2850
  257MPD2    C3 3946   2.201   3.541  13.742  0.6148 -0.1921  0.1864
  257MPD2    C4 3947   2.290   3.618  13.808  0.1004 -0.0035  1.3883
  257MPD2    C5 3948   2.356   3.725  13.753  0.0372  0.3963 -0.0123
  257MPD2     H 3949   2.125   3.506  13.556  0.0579  0.9024 -1.4184
  257MPD2    H1 3950   2.309   3.607  13.914 -1.1887 -1.1315  1.4995
  257MPD2    H2 3951   2.385   3.849  13.585 -0.9206  0.3685 -1.8350
  257MPD2    H3 3952   2.419   3.798  13.803 -1.6780  0.7956  1.5790
  257MPD2     N 3953   2.135   3.426  13.790  0.0438  0.2620 -1.1350
  257MPD2    H5 3954   2.078   3.377  13.722 -1.3922 -0.2472  0.4299
  257MPD2    N1 3955   2.237   3.715  13.415 -0.1478  0.0162  0.2287
  257MPD2    H7 3956   2.294   3.793  13.382 -0.7792 -0.3848 -1.8188
  258TMC3    C1 3957   2.093   3.237  13.915 -0.1507  0.5217  0.1505
  258TMC3    C2 3958   1.979   3.217  13.847 -1.1750 -0.4809  1.3094
  258TMC3    C3 3959   1.915   3.099  13.853 -0.2321  0.1967 -0.3663
  258TMC3    C4 3960   2.135   3.143  14.008  0.1074  0.2765 -0.1647
  258TMC3    C5 3961   2.069   3.022  14.010  0.1806 -0.2754 -0.1994
  258TMC3    C6 3962   1.961   2.994  13.928  0.0627  0.0681  0.5341
  258TMC3     C 3963   2.154   3.366  13.913 -0.2131 -0.4780 -0.4976
  258TMC3     O 3964   2.231   3.397  14.006 -0.1557  0.4823  0.2562
  258TMC3     H 3965   1.934   3.296  13.787  0.4803 -1.6277 -1.4741
  258TMC3    H1 3966   2.194   3.175  14.093 -0.4400  0.6152  0.0891
  258TMC3    H2 3967   1.923   2.893  13.921  0.6206 -0.2146  1.6904
  258TMC3    C7 3968   2.142   2.902  14.048 -0.1634  0.6515 -0.5729
  258TMC3    C8 3969   1.790   3.074  13.781  0.4439  0.6428  0.2985
  258TMC3    O1 3970   2.072   2.800  14.067  0.2248 -0.1212 -0.1603
  258TMC3    O2 3971   1.731   2.975  13.824  0.5818  0.2226  0.8647
  259MPD2     C 3972   1.393   0.266   1.393  0.2827  0.2389  0.3283
  259MPD2    C1 3973   1.291   0.175   1.370 -0.0668  0.4930 -0.3040
  259MPD2    C2 3974   1.223   0.186   1.249  0.2539  0.7082  0.0165
  259MPD2    C3 3975   1.255   0.273   1.154 -0.6093  0.2180 -0.2843
  259MPD2    C4 3976   1.353   0.370   1.180 -0.0186 -0.5558  0.1924
  259MPD2    C5 3977   1.416   0.368   1.308  0.2501 -0.7840  0.5814
  259MPD2     H 3978   1.152   0.111   1.215 -1.8142  1.5321  2.5244
  259MPD2    H1 3979   1.383   0.448   1.111 -1.0417 -0.2338  0.1022
  259MPD2    H2 3980   1.453   0.277   1.482 -0.7264 -0.0104  1.0390
  259MPD2    H3 3981   1.490   0.445   1.322  0.1479 -0.6375  0.3138
  259MPD2     N 3982   1.211   0.253   1.020  0.1042 -0.0268  0.4544
  259MPD2    H5 3983   1.138   0.186   0.999 -0.1196  0.9496 -2.0060
  259MPD2    N1 3984   1.269   0.076   1.469  0.2347 -0.0530 -0.7213
  259MPD2    H7 3985   1.321   0.090   1.555 -0.5108  0.6919 -0.3867
  260TMC3    C1 3986   1.218   0.259   0.785 -0.2608 -0.1530 -0.1138
  260TMC3    C2 3987   1.320   0.268   0.692  0.7277 -0.6015  0.7689
  260TMC3    C3 3988   1.327   0.171   0.600 -0.3319 -0.4269  0.4025
  260TMC3    C4 3989   1.126   0.157   0.787  0.3047 -0.9895  0.2277
  260TMC3    C5 3990   1.137   0.061   0.687  0.5215 -0.6805 -0.5258
  260TMC3    C6 3991   1.231   0.073   0.589 -0.3619  0.4281 -0.6254
  260TMC3     C 3992   1.250   0.328   0.911  0.2092  0.2581  0.1079
  260TMC3     O 3993   1.317   0.425   0.903 -0.0357 -0.0992 -0.0117
  260TMC3     H 3994   1.391   0.350   0.697  0.8789 -0.5154 -2.5687
  260TMC3    H1 3995   1.039   0.156   0.852 -0.7805  0.6026 -1.1951
  260TMC3    H2 3996   1.237   0.012   0.500  1.7753 -1.4962  0.8531
  260TMC3    C7 3997   1.027   4.707   0.654 -0.7915 -0.1881 -0.7053
  260TMC3    C8 3998   1.389   0.211   0.468 -0.3246  0.2337 -0.2769
  260TMC3    O1 3999   1.048   4.625   0.564 -0.4241 -0.0661 -0.3381
  260TMC3    O2 4000   1.402   0.330   0.451 -0.0530 -0.0191  0.6225
  261MPD2     C 4001   2.280   3.406  13.028 -0.0290  0.2461 -0.3876
  261MPD2    C1 4002   2.405   3.428  12.975  0.5881  0.7887 -0.2073
  261MPD2    C2 4003   2.418   3.471  12.850  0.3227 -0.2208  0.0257
  261MPD2    C3 4004   2.310   3.490  12.771 -0.3260  0.2724 -0.7460
  261MPD2    C4 4005   2.177   3.473  12.822 -0.3494 -0.4680 -0.0378
  261MPD2    C5 4006   2.163   3.417  12.950 -0.2327  0.1293 -0.6111
  261MPD2     H 4007   2.520   3.483  12.814 -0.0321 -0.6553 -1.1265
  261MPD2    H1 4008   2.087   3.476  12.763 -0.5209  2.4850  0.3753
  261MPD2    H2 4009   2.263   3.375  13.130 -0.1894 -0.7045 -0.7057
  261MPD2    H3 4010   2.061   3.412  12.985  1.8507 -2.0069  5.2215
  261MPD2     N 4011   2.333   3.539  12.644 -0.2371 -0.6240  0.6127
  261MPD2    H5 4012   2.430   3.542  12.616 -0.3631  1.4928  0.3972
  261MPD2    N1 4013   2.524   3.404  13.044 -0.2330  0.2562 -0.1957
  261MPD2    H7 4014   2.608   3.433  12.993  0.7521 -2.1045  0.0958
  262TMC3    C1 4015   2.314   3.645  12.446  0.0091 -0.0847  0.8769
  262TMC3    C2 4016   2.285   3.770  12.383  0.4562 -0.4662  0.1978
  262TMC3    C3 4017   2.360   3.807  12.272 -0.6810 -0.3539 -0.0092
  262TMC3    C4 4018   2.400   3.560  12.383  0.1860  0.3297  0.1720
  262TMC3    C5 4019   2.450   3.595  12.258 -0.1616 -0.1675  0.2523
  262TMC3    C6 4020   2.433   3.723  12.204 -0.2825  0.0565 -0.2589
  262TMC3     C 4021   2.245   3.600  12.564  0.1914 -0.0369  0.2596
  262TMC3     O 4022   2.135   3.656  12.584 -0.0110 -0.0232  0.5360
  262TMC3     H 4023   2.237   3.844  12.446 -0.9644 -3.1414  2.2891
  262TMC3    H1 4024   2.414   3.465  12.434  0.6281  0.1360 -0.3182
  262TMC3    H2 4025   2.476   3.753  12.109 -0.8072 -0.5966 -0.7062
  262TMC3    C7 4026   2.528   3.496  12.194  0.5300 -0.3240  0.5224
  262TMC3    C8 4027   2.367   3.953  12.257 -0.2611  0.1778 -0.2258
  262TMC3    O1 4028   2.587   3.416  12.267  0.0665  0.1961  0.0733
  262TMC3    O2 4029   2.475   4.002  12.216 -0.4758 -0.2006 -0.3854
  263MPD2     C 4030   3.567   2.501  11.625 -0.7782 -0.3338  0.3049
  263MPD2    C1 4031   3.621   2.622  11.596  0.3496 -0.4104  0.0570
  263MPD2    C2 4032   3.559   2.695  11.498 -0.4939  0.0551 -0.3166
  263MPD2    C3 4033   3.460   2.646  11.419 -0.2874 -0.3094  0.0308
  263MPD2    C4 4034   3.407   2.524  11.442 -0.0642  0.1981 -0.3260
  263MPD2    C5 4035   3.460   2.453  11.556 -0.0790 -0.0098 -1.1486
  263MPD2     H 4036   3.595   2.796  11.482 -0.8040  0.3859  1.0715
  263MPD2    H1 4037   3.330   2.472  11.387 -0.5007 -1.0948  1.5401
  263MPD2    H2 4038   3.606   2.436  11.702  0.0826  0.1265  0.2456
  263MPD2    H3 4039   3.409   2.361  11.582 -0.6635  0.7817  0.4911
  263MPD2     N 4040   3.425   2.723  11.311 -0.1349 -0.0853 -0.0428
  263MPD2    H5 4041   3.452   2.821  11.301 -2.0035  0.6966  2.5088
  263MPD2    N1 4042   3.731   2.660  11.677  0.7030  0.0938 -0.1391
  263MPD2    H7 4043   3.751   2.603  11.758  1.0097  1.4535  0.7484
  264TMC3    C1 4044   3.391   2.775  11.092  0.3320 -0.3650  0.2587
  264TMC3    C2 4045   3.413   2.908  11.128  0.1085  0.0214 -0.1071
  264TMC3    C3 4046   3.471   2.985  11.030  0.2864  0.3486 -0.1800
  264TMC3    C4 4047   3.420   2.732  10.964  0.5910 -0.4571  0.2685
  264TMC3    C5 4048   3.485   2.810  10.874  0.3139 -0.5145  0.0463
  264TMC3    C6 4049   3.513   2.942  10.901  0.4460 -0.7328  0.0284
  264TMC3     C 4050   3.372   2.677  11.195 -1.0386 -0.4600 -0.6621
  264TMC3     O 4051   3.333   2.565  11.156  0.0988  0.0581  0.4893
  264TMC3     H 4052   3.416   2.943  11.230 -1.3659  1.2060 -0.4679
  264TMC3    H1 4053   3.434   2.626  10.948  2.1909 -0.0661 -0.9586
  264TMC3    H2 4054   3.574   2.992  10.827  0.1560  0.8074  0.8335
  264TMC3    C7 4055   3.541   2.759  10.753 -0.4390  0.1268 -0.2841
  264TMC3    C8 4056   3.524   3.118  11.070  0.0809  0.4274 -0.8529
  264TMC3    O1 4057   3.646   2.809  10.718 -0.1839 -0.3542 -0.0321
  264TMC3    O2 4058   3.621   3.160  11.007 -0.0141 -0.0534 -0.1101
  265MPD2     C 4059   0.830   3.068  15.695 -0.6629  0.5717 -0.6189
  265MPD2    C1 4060   0.915   3.171  15.722 -0.1354 -0.1704 -0.4768
  265MPD2    C2 4061   1.042   3.160  15.671  0.5710 -0.1544 -0.0334
  265MPD2    C3 4062   1.087   3.049  15.604 -0.4685  0.5228 -0.7031
  265MPD2    C4 4063   1.003   2.941  15.594 -0.0835 -0.0176 -0.0751
  265MPD2    C5 4064   0.872   2.953  15.641 -0.1638  0.1330 -0.0020
  265MPD2     H 4065   1.117   3.236  15.692  1.1269 -0.5679 -0.5230
  265MPD2    H1 4066   1.039   2.853  15.542  0.6367 -0.1010  0.5592
  265MPD2    H2 4067   0.725   3.072  15.720 -1.1784 -0.6801 -2.5599
  265MPD2    H3 4068   0.798   2.875  15.626  2.7914 -2.5840 -0.3357
  265MPD2     N 4069   1.217   3.027  15.553  1.0478 -0.4243 -0.1023
  265MPD2    H5 4070   1.236   2.935  15.517  1.1098 -0.3464 -0.2690
  265MPD2    N1 4071   0.883   3.294  15.792  0.1369  0.1449 -0.2202
  265MPD2    H7 4072   0.953   3.366  15.808 -0.8606  1.3884 -1.5097
  266TMC3    C1 4073   0.738   3.456  15.880 -0.1561  0.0726  0.3916
  266TMC3    C2 4074   0.823   3.519  15.967  0.3144 -0.8009  0.3093
  266TMC3    C3 4075   0.827   3.657  15.956  0.1234  0.0893  0.1611
  266TMC3    C4 4076   0.663   3.523  15.789 -0.2028  0.2193 -0.0733
  266TMC3    C5 4077   0.667   3.655  15.795 -0.4094 -0.5414  0.2621
  266TMC3    C6 4078   0.740   3.734  15.881 -0.0973  0.4576 -0.0925
  266TMC3     C 4079   0.756   3.321  15.830  0.0193  0.3188 -0.1134
  266TMC3     O 4080   0.652   3.265  15.807  0.2366  0.5506 -0.2889
  266TMC3     H 4081   0.885   3.462  16.034  0.9455  0.3941  0.7243
  266TMC3    H1 4082   0.624   3.463  15.707 -1.0811  1.8200 -0.8179
  266TMC3    H2 4083   0.743   3.843  15.884 -1.2101  0.5157 -1.1524
  266TMC3    C7 4084   0.609   3.717  15.671 -0.5232  0.3043  0.2626
  266TMC3    C8 4085   0.922   3.715  16.047  0.3656  0.0384  0.2804
  266TMC3    O1 4086   0.584   3.642  15.578 -0.3475 -0.0473  0.2744
  266TMC3    O2 4087   0.986   3.634  16.108 -0.0771 -0.1533  0.5748
  267MPD2     C 4088   3.577   0.506   0.027  0.2649  0.6111 -0.4184
  267MPD2    C1 4089   3.533   0.400  17.686  0.4064  0.3448 -1.1377
  267MPD2    C2 4090   3.404   0.366  17.682 -1.2639  0.5890 -0.2179
  267MPD2    C3 4091   3.311   0.435   0.013  0.1311 -0.7247 -0.8867
  267MPD2    C4 4092   3.353   0.537   0.100  0.2871  0.0872 -0.6021
  267MPD2    C5 4093   3.486   0.568   0.101 -0.3142 -0.2250  0.1822
  267MPD2     H 4094   3.382   0.278  17.623 -0.4634  0.1534  0.1417
  267MPD2    H1 4095   3.280   0.582   0.167  0.9401 -1.5567  1.2292
  267MPD2    H2 4096   3.683   0.528   0.035  0.6834 -1.6128  0.0962
  267MPD2    H3 4097   3.514   0.647   0.170  1.6667 -0.8703  0.1260
  267MPD2     N 4098   3.173   0.405   0.020  0.0870 -0.3306  0.6897
  267MPD2    H5 4099   3.118   0.456   0.088 -0.7309  3.2879 -2.7288
  267MPD2    N1 4100   3.638   0.332  17.619 -0.8992  0.5019  0.1768
  267MPD2    H7 4101   3.734   0.364  17.631 -1.0922  0.2423  2.4123
  268TMC3    C1 4102   3.758   0.168  17.510 -1.2539 -0.8757 -0.0544
  268TMC3    C2 4103   3.833   0.266  17.449  0.5022  0.2792 -0.2509
  268TMC3    C3 4104   3.964   0.245  17.414 -0.4870 -0.1487 -0.4306
  268TMC3    C4 4105   3.802   0.034  17.508  0.5637 -0.6974 -0.3528
  268TMC3    C5 4106   3.939   0.019  17.482 -0.1548  0.2711  0.8442
  268TMC3    C6 4107   4.020   0.124  17.440 -0.2375 -0.5455  0.7570
  268TMC3     C 4108   3.628   0.204  17.569 -0.3513 -0.7905 -0.0566
  268TMC3     O 4109   3.543   0.122  17.590 -0.0015  0.2763  0.3033
  268TMC3     H 4110   3.796   0.367  17.436 -0.8583 -0.3747 -1.5439
  268TMC3    H1 4111   3.739   4.687  17.536  1.4039 -1.2381 -0.0641
  268TMC3    H2 4112   4.124   0.101  17.422  0.1391  2.0431 -0.3697
  268TMC3    C7 4113   3.996   4.622  17.498  0.8372 -0.3898 -1.3766
  268TMC3    C8 4114   4.040   0.358  17.369 -0.6783 -0.4417 -0.2793
  268TMC3    O1 4115   4.076   4.614  17.585  0.0931 -0.2872  0.6395
  268TMC3    O2 4116   4.162   0.369  17.387 -0.9057 -0.3671  0.7636
  269MPD2     C 4117   3.847   3.892  15.642 -0.1677 -0.0073  0.2375
  269MPD2    C1 4118   3.721   3.939  15.677  0.4911  0.3299  0.6152
  269MPD2    C2 4119   3.683   4.064  15.631 -0.1388  0.5242 -0.3673
  269MPD2    C3 4120   3.759   4.144  15.547 -0.9382 -0.3089 -0.4052
  269MPD2    C4 4121   3.874   4.090  15.504  0.0295  0.7423 -0.3606
  269MPD2    C5 4122   3.913   3.964  15.543 -0.3517 -0.6308 -0.0618
  269MPD2     H 4123   3.587   4.101  15.667 -0.3984  0.5081 -1.0362
  269MPD2    H1 4124   3.935   4.144  15.432 -0.3583 -1.5289 -2.3781
  269MPD2    H2 4125   3.880   3.796  15.680  1.7338  0.5600  0.0069
  269MPD2    H3 4126   4.014   3.935  15.516 -0.3221 -0.5458 -0.0423
  269MPD2     N 4127   3.715   4.272  15.515  0.7980  0.4063  0.8047
  269MPD2    H5 4128   3.626   4.298  15.556  0.3913  0.4547 -0.0909
  269MPD2    N1 4129   3.645   3.863  15.772  0.2342  0.1853 -0.2204
  269MPD2    H7 4130   3.683   3.773  15.799  0.0362  0.5717  1.3090
  270TMC3    C1 4131   3.452   3.788  15.908  0.5372 -1.0915  0.2379
  270TMC3    C2 4132   3.323   3.781  15.898  0.1202 -1.2160 -0.5406
  270TMC3    C3 4133   3.257   3.680  15.962 -0.8577  0.1610 -0.4256
  270TMC3    C4 4134   3.527   3.697  15.974  0.5513 -0.1345 -0.3067
  270TMC3    C5 4135   3.459   3.591  16.025  0.5811 -0.0585  0.2045
  270TMC3    C6 4136   3.324   3.583  16.027  0.8710 -0.4136  0.3461
  270TMC3     C 4137   3.516   3.889  15.822  0.0385  1.0045  0.6550
  270TMC3     O 4138   3.432   3.972  15.786 -0.2284 -0.2326  0.6859
  270TMC3     H 4139   3.264   3.856  15.846  2.2811  0.6248 -0.3187
  270TMC3    H1 4140   3.635   3.706  15.973  0.5584 -0.1917 -0.1095
  270TMC3    H2 4141   3.272   3.492  16.054  0.2807 -0.0104  0.5730
  270TMC3    C7 4142   3.543   3.474  16.063 -1.5583  0.6418 -0.0909
  270TMC3    C8 4143   3.154   3.617  15.885 -0.2167  0.2454 -0.0753
  270TMC3    O1 4144   3.664   3.493  16.043 -0.0884  0.4314  0.4119
  270TMC3    O2 4145   3.058   3.561  15.938 -0.4678  0.3541  0.5220
  271MPD2     C 4146   2.817   3.590  14.139  0.1835  1.0474  0.5770
  271MPD2    C1 4147   2.747   3.571  14.255  0.5400  0.0404  0.1329
  271MPD2    C2 4148   2.613   3.602  14.261  0.2934  0.4896  0.1167
  271MPD2    C3 4149   2.556   3.656  14.149  0.4682 -0.3560 -0.6102
  271MPD2    C4 4150   2.632   3.684  14.036 -0.4046  0.0970  0.1839
  271MPD2    C5 4151   2.761   3.642  14.031  0.0662  0.3116 -0.1366
  271MPD2     H 4152   2.559   3.585  14.354  0.8575 -3.1072 -0.2494
  271MPD2    H1 4153   2.592   3.730  13.946 -2.9964 -1.4603  0.5439
  271MPD2    H2 4154   2.924   3.571  14.133  0.2006  1.3491 -0.0867
  271MPD2    H3 4155   2.822   3.662  13.943  1.0901  0.1735  0.5456
  271MPD2     N 4156   2.422   3.695  14.162 -0.8965  0.7353 -0.4034
  271MPD2    H5 4157   2.370   3.652  14.237 -1.2619 -0.2961 -1.2488
  271MPD2    N1 4158   2.816   3.533  14.371 -0.1742 -0.4377 -0.5894
  271MPD2    H7 4159   2.758   3.513  14.451 -1.8436  1.4471 -1.3047
  272TMC3    C1 4160   2.990   3.451  14.511 -0.2884  0.4673 -0.4124
  272TMC3    C2 4161   3.115   3.404  14.506 -0.6350  0.1463  0.2233
  272TMC3    C3 4162   3.175   3.372  14.621  0.4757  0.5916 -0.7958
  272TMC3    C4 4163   2.922   3.479  14.625 -0.2955  0.7042 -0.2476
  272TMC3    C5 4164   2.993   3.460  14.736  0.1270  0.0479  0.6539
  272TMC3    C6 4165   3.120   3.405  14.740 -0.6199  0.5183 -0.2478
  272TMC3     C 4166   2.952   3.513  14.382 -0.2500  0.5255 -0.3636
  272TMC3     O 4167   3.044   3.528  14.306 -0.3695 -0.1392 -0.0969
  272TMC3     H 4168   3.180   3.376  14.424 -1.6409 -0.8558 -0.2320
  272TMC3    H1 4169   2.824   3.525  14.620  0.6294  2.5985 -1.0757
  272TMC3    H2 4170   3.166   3.375  14.834 -0.5521 -1.0408 -0.7752
  272TMC3    C7 4171   2.930   3.503  14.858 -0.2854 -0.5665  0.3966
  272TMC3    C8 4172   3.310   3.319  14.612 -0.3894  0.3467  0.2254
  272TMC3    O1 4173   2.812   3.488  14.882  0.0083  0.0725 -0.5909
  272TMC3    O2 4174   3.370   3.352  14.508  0.2774 -0.5116  0.1056
  273MPD2     C 4175   3.813   1.967  11.687  0.2652  0.3826 -0.0949
  273MPD2    C1 4176   3.935   1.925  11.729 -0.7785  0.3704 -0.4007
  273MPD2    C2 4177   4.033   1.928  11.638 -0.9111 -1.1087 -0.1301
  273MPD2    C3 4178   4.013   1.953  11.503  0.0922  0.1187  0.1665
  273MPD2    C4 4179   3.884   1.972  11.460 -0.2122  0.3255  0.6971
  273MPD2    C5 4180   3.788   1.977  11.554  0.8832  0.4572 -0.8142
  273MPD2     H 4181   4.135   1.911  11.670 -0.3876  1.2243 -0.5159
  273MPD2    H1 4182   3.862   1.981  11.354 -0.8959 -2.5507  0.5881
  273MPD2    H2 4183   3.727   1.973  11.752  0.0009 -3.4924 -0.0793
  273MPD2    H3 4184   3.685   2.002  11.533  0.9315  2.2891  1.2118
  273MPD2     N 4185   4.114   1.953  11.403  0.6776  0.7235 -0.2382
  273MPD2    H5 4186   4.092   1.940  11.305  0.1926 -0.2931  0.0013
  273MPD2    N1 4187   3.955   1.909  11.865  0.3145  0.4429 -0.2966
  273MPD2    H7 4188   3.884   1.938  11.930 -0.5259 -3.1464  0.4038
  274TMC3    C1 4189   4.320   1.995  11.302  1.1372  0.3851  0.0490
  274TMC3    C2 4190   4.257   1.935  11.198 -0.0470 -0.5573  0.1689
  274TMC3    C3 4191   4.272   1.992  11.073  0.3121  0.4841  0.4114
  274TMC3    C4 4192   4.371   2.122  11.282 -0.0963  0.3950 -0.6992
  274TMC3    C5 4193   4.385   2.167  11.157 -0.2150 -0.6631 -0.2093
  274TMC3    C6 4194   4.341   2.100  11.044  0.7489  0.0995 -0.6124
  274TMC3     C 4195   4.246   1.982  11.428  0.2299 -0.7903 -0.3385
  274TMC3     O 4196   4.300   2.016  11.533  0.2902  0.6043  0.0697
  274TMC3     H 4197   4.220   1.833  11.208  1.7288 -1.3813 -1.6802
  274TMC3    H1 4198   4.420   2.175  11.363  1.4973 -1.0598 -0.7141
  274TMC3    H2 4199   4.335   2.148  10.947  2.4856 -0.7017 -1.1045
  274TMC3    C7 4200   4.412   2.306  11.129  0.5061 -0.2102 -0.2371
  274TMC3    C8 4201   4.175   1.947  10.983 -0.1460  0.5770  0.5770
  274TMC3    O1 4202   4.499   2.330  11.045 -0.6014  0.8621  0.3243
  274TMC3    O2 4203   4.083   1.893  11.041  0.2993  0.5428  0.4273
  275MPD2     C 4204   4.106   0.249  14.342  0.3563 -0.3981 -0.8510
  275MPD2    C1 4205   4.133   0.148  14.435 -0.0695 -0.7186  0.6020
  275MPD2    C2 4206   4.071   0.022  14.433  0.0670  0.5243  0.3689
  275MPD2    C3 4207   3.970   0.006  14.335  0.1220 -0.0208 -0.3444
  275MPD2    C4 4208   3.945   0.103  14.234  0.1922  0.0466 -0.9355
  275MPD2    C5 4209   4.014   0.225  14.237 -0.3551 -0.3039  0.6758
  275MPD2     H 4210   4.086   4.681  14.508  1.4675  1.9433  1.5347
  275MPD2    H1 4211   3.873   0.094  14.153 -1.7219  0.2824  0.7255
  275MPD2    H2 4212   4.154   0.346  14.333 -0.6422  0.1489 -0.3066
  275MPD2    H3 4213   3.987   0.305  14.169  1.2054  1.0570  1.6244
  275MPD2     N 4214   3.882   4.634  14.330 -0.1183 -0.1728  0.1897
  275MPD2    H5 4215   3.796   4.653  14.279 -0.1381  2.3655  1.1680
  275MPD2    N1 4216   4.218   0.170  14.543 -0.2533 -0.0012  0.1490
  275MPD2    H7 4217   4.225   0.101  14.617 -1.8659  0.4364  0.6999
  276TMC3    C1 4218   4.359   0.293  14.688 -0.3135 -0.1810  0.2972
  276TMC3    C2 4219   4.406   0.180  14.748 -0.1402 -0.0088  0.5203
  276TMC3    C3 4220   4.460   0.199  14.873 -0.0763 -1.0197  0.0082
  276TMC3    C4 4221   4.380   0.421  14.732  0.7625 -0.0544 -0.2711
  276TMC3    C5 4222   4.420   0.438  14.866 -0.1198  0.6651  0.4143
  276TMC3    C6 4223   4.452   0.321  14.938 -0.3141  0.1431  0.1042
  276TMC3     C 4224   4.288   0.291  14.560 -0.9381  0.2151  0.0013
  276TMC3     O 4225   4.306   0.391  14.492 -0.0030  0.2461 -0.8532
  276TMC3     H 4226   4.418   0.081  14.707 -0.2383 -0.4785  1.6336
  276TMC3    H1 4227   4.349   0.511  14.680 -0.3474 -0.2916 -0.0154
  276TMC3    H2 4228   4.504   0.333  15.033  0.6371 -2.6229 -0.0383
  276TMC3    C7 4229   4.498   0.553  14.910 -0.0040  0.6190 -0.9322
  276TMC3    C8 4230   4.583   0.128  14.898 -0.6084 -0.0695  0.8311
  276TMC3    O1 4231   4.529   0.553  15.030 -0.1788 -0.3604  0.0235
  276TMC3    O2 4232   4.681   0.194  14.923 -0.5746 -0.0347 -0.1252
  277MPD2     C 4233   1.356   3.441  13.760 -0.0888 -0.2917  0.0182
  277MPD2    C1 4234   1.221   3.449  13.770 -0.5334 -0.4759  0.4450
  277MPD2    C2 4235   1.152   3.358  13.847  0.3539 -0.3292  0.7999
  277MPD2    C3 4236   1.226   3.262  13.914  0.3736 -0.1420 -0.2438
  277MPD2    C4 4237   1.358   3.243  13.892  0.0166 -0.2132  0.3311
  277MPD2    C5 4238   1.423   3.335  13.814  0.1169 -0.7792 -0.0363
  277MPD2     H 4239   1.047   3.377  13.871 -0.2761 -1.6762 -0.9277
  277MPD2    H1 4240   1.414   3.165  13.943  0.1710  0.2716  0.9097
  277MPD2    H2 4241   1.406   3.519  13.704 -0.9308 -0.3131 -0.7734
  277MPD2    H3 4242   1.527   3.316  13.791 -0.0279  0.1844 -1.4772
  277MPD2     N 4243   1.160   3.175  14.004 -0.3373  0.2702 -0.0420
  277MPD2    H5 4244   1.060   3.191  14.016 -0.5207 -2.0093  1.5761
  277MPD2    N1 4245   1.167   3.558  13.702  0.1647  0.1513  0.8451
  277MPD2    H7 4246   1.228   3.617  13.647 -0.5109  0.8714  0.8626
  278TMC3    C1 4247   1.100   3.020  14.176 -0.2679  0.7487  0.4070
  278TMC3    C2 4248   1.111   2.886  14.192 -0.2457 -0.7925  0.0404
  278TMC3    C3 4249   0.996   2.820  14.231  0.0290 -0.2219 -0.0801
  278TMC3    C4 4250   0.978   3.086  14.203  0.4760  0.1842 -0.1806
  278TMC3    C5 4251   0.874   3.010  14.246  0.0674 -0.3515  0.0492
  278TMC3    C6 4252   0.876   2.880  14.264  0.1384 -0.3252 -0.7595
  278TMC3     C 4253   1.207   3.082  14.097  0.0411 -0.3475 -0.9905
  278TMC3     O 4254   1.320   3.037  14.114 -0.4491  0.3830 -0.5907
  278TMC3     H 4255   1.203   2.835  14.166  0.0969 -0.2386  0.1675
  278TMC3    H1 4256   0.949   3.189  14.187  0.1683  0.6007  3.1668
  278TMC3    H2 4257   0.790   2.835  14.313  0.5625 -1.7658 -1.3290
  278TMC3    C7 4258   0.766   3.090  14.308 -0.3840 -0.0100 -0.4225
  278TMC3    C8 4259   1.006   2.679  14.246  0.0740  0.0927 -0.1273
  278TMC3    O1 4260   0.799   3.201  14.353 -0.0698 -0.1552  0.4705
  278TMC3    O2 4261   1.115   2.621  14.261 -0.1041 -0.1076  0.2122
  279MPD2     C 4262   0.226   3.729   0.397 -1.0652 -0.2745 -0.4185
  279MPD2    C1 4263   0.182   3.853   0.359 -0.4942 -0.5832 -0.3426
  279MPD2    C2 4264   0.224   3.900   0.234 -0.0004 -0.2139  0.3049
  279MPD2    C3 4265   0.285   3.818   0.141  0.6138 -0.2569  0.4356
  279MPD2    C4 4266   0.329   3.691   0.184  0.8989  0.3059 -0.2186
  279MPD2    C5 4267   0.298   3.648   0.313  0.1606  0.5410  0.2137
  279MPD2     H 4268   0.195   3.999   0.203 -1.5789 -0.3348  1.4120
  279MPD2    H1 4269   0.369   3.613   0.120  1.0547  1.0768 -1.0541
  279MPD2    H2 4270   0.191   3.685   0.489 -2.2804  2.2978  0.3455
  279MPD2    H3 4271   0.336   3.551   0.341  0.9749  0.3668 -1.4958
  279MPD2     N 4272   0.284   3.845   0.008  0.3306  0.1959  0.9644
  279MPD2    H5 4273   0.321   3.770  17.691  0.4828  0.0182  1.2853
  279MPD2    N1 4274   0.109   3.921   0.454 -0.5133 -0.2855  0.4865
  279MPD2    H7 4275   0.117   3.891   0.551  2.6235 -1.8744 -0.2545
  280TMC3    C1 4276   4.707   4.051   0.313  0.2929 -0.2163 -0.3134
  280TMC3    C2 4277   4.654   3.940   0.247 -0.6874  0.8457 -0.0605
  280TMC3    C3 4278   4.571   3.952   0.135 -0.2888 -0.4907 -0.5045
  280TMC3    C4 4279   4.666   4.178   0.277 -0.3744 -0.2461  0.1474
  280TMC3    C5 4280   4.572   4.182   0.175 -0.1515 -0.3212  0.1322
  280TMC3    C6 4281   4.523   4.076   0.100 -0.4921 -0.0281 -0.1950
  280TMC3     C 4282   0.033   4.036   0.441  0.0198 -0.1704  0.0998
  280TMC3     O 4283   4.727   4.118   0.523 -0.0021  0.6326 -0.3297
  280TMC3     H 4284   4.676   3.840   0.282  0.8438  0.2660 -2.7492
  280TMC3    H1 4285   4.700   4.264   0.334  0.8162  0.7054 -2.0228
  280TMC3    H2 4286   4.458   4.086   0.014 -3.0774  0.5895  1.8170
  280TMC3    C7 4287   4.541   4.319   0.129 -0.0633  0.1569 -0.3679
  280TMC3    C8 4288   4.577   3.851   0.032 -0.5677 -0.2897  0.3979
  280TMC3    O1 4289   4.588   4.419   0.188  0.3186  0.3336 -0.6120
  280TMC3    O2 4290   4.505   3.874  17.679 -0.1515 -0.6744 -0.2766
  281TMC3    C1 4291   3.931   4.493  13.741  0.4974 -0.1058  0.0549
  281TMC3    C2 4292   3.964   4.597  13.657 -0.1206 -0.3864  0.0400
  281TMC3    C3 4293   4.066   4.589  13.571  0.3033 -0.6873  0.4871
  281TMC3    C4 4294   3.986   4.371  13.714  0.2925 -0.5239 -0.0424
  281TMC3    C5 4295   4.083   4.360  13.622 -0.0856  0.2534  0.3849
  281TMC3    C6 4296   4.136   4.473  13.554  0.5170 -0.0521  0.3545
  281TMC3     C 4297   3.826   4.498  13.843 -0.3660 -0.8409 -0.1266
  281TMC3     O 4298   3.810   4.396  13.915  0.0096  0.0377 -0.4660
  281TMC3     H 4299   3.914   4.693  13.663 -1.0433 -0.7776 -1.4453
  281TMC3    H1 4300   3.932   4.289  13.761  2.1077 -1.1810  0.8967
  281TMC3    H2 4301   4.207   4.442  13.478  1.0850 -2.1020  1.7284
  281TMC3    C7 4302   4.100   4.227  13.565  0.3248 -0.3268  0.7046
  281TMC3    C8 4303   4.043   4.645  13.440 -0.3262 -0.0234  0.9919
  281TMC3    O1 4304   4.147   4.230  13.449 -0.3790 -0.0815 -0.0482
  281TMC3    O2 4305   4.131   4.711  13.388  1.3261 -0.2773 -0.1108
  282MPD2     C 4306   0.926   0.453  14.835  0.2590 -0.8798 -0.6478
  282MPD2    C1 4307   0.801   0.517  14.844 -0.3093  0.2482 -0.1899
  282MPD2    C2 4308   0.708   0.492  14.742  0.3489  0.9845  0.0302
  282MPD2    C3 4309   0.735   0.409  14.633 -0.1754 -0.0652  0.9294
  282MPD2    C4 4310   0.866   0.354  14.626 -0.2170 -0.4872 -0.4616
  282MPD2    C5 4311   0.953   0.375  14.729  0.8496 -0.4723 -0.1156
  282MPD2     H 4312   0.616   0.549  14.747 -0.8561 -0.9788  0.1872
  282MPD2    H1 4313   0.904   0.302  14.538  0.3847 -1.4153  0.3444
  282MPD2    H2 4314   0.989   0.460  14.923  1.4924  2.3390 -1.7924
  282MPD2    H3 4315   1.045   0.319  14.739  0.2021 -1.6902 -0.9667
  282MPD2     N 4316   0.648   0.397  14.528 -0.1891 -0.1609 -0.3306
  282MPD2    H5 4317   0.568   0.459  14.516  0.5192  0.5658 -1.3355
  282MPD2    N1 4318   0.754   0.598  14.955 -0.5521  0.1073 -0.4221
  282MPD2    H7 4319   0.654   0.614  14.949 -0.7393 -1.1795 -0.8381
  283TMC3    C1 4320   0.738   0.685  15.172  1.1630  0.5764 -0.3154
  283TMC3    C2 4321   0.792   0.770  15.256 -0.5235 -0.0659  0.0278
  283TMC3    C3 4322   0.733   0.785  15.379  0.6648 -0.0695  0.2349
  283TMC3    C4 4323   0.624   0.611  15.217 -0.2050  0.0299 -0.1615
  283TMC3    C5 4324   0.578   0.623  15.344  0.1630  1.6198  0.3755
  283TMC3    C6 4325   0.622   0.724  15.423  0.8596 -0.3975 -0.5236
  283TMC3     C 4326   0.830   0.634  15.068 -0.4532 -0.1094  0.4600
  283TMC3     O 4327   0.951   0.619  15.091  0.5997 -0.1603  0.1682
  283TMC3     H 4328   0.888   0.810  15.225  0.7197 -1.6943  1.7925
  283TMC3    H1 4329   0.585   0.542  15.143 -0.9088 -0.2958  0.5254
  283TMC3    H2 4330   0.565   0.759  15.509  0.6837 -0.9919 -0.3974
  283TMC3    C7 4331   0.488   0.522  15.407 -0.2334 -0.4796  0.6721
  283TMC3    C8 4332   0.763   0.899  15.461 -0.3841  0.0973 -0.1343
  283TMC3    O1 4333   0.477   0.540  15.528 -0.2713 -0.0161  0.4273
  283TMC3    O2 4334   0.767   0.875  15.580  0.4332 -0.5213 -0.4707
  284MPD2     C 4335   3.415   4.320  12.361 -0.1488 -0.1619  0.3262
  284MPD2    C1 4336   3.538   4.328  12.305  0.2337 -1.0851  0.2046
  284MPD2    C2 4337   3.646   4.286  12.382  0.3973  0.1853 -0.4503
  284MPD2    C3 4338   3.634   4.244  12.514 -0.7911  0.1465 -0.4591
  284MPD2    C4 4339   3.510   4.229  12.566 -0.4129 -0.3396  0.5867
  284MPD2    C5 4340   3.401   4.258  12.482  0.3203 -0.5203  0.2524
  284MPD2     H 4341   3.743   4.298  12.336  0.0824  2.9591 -0.3516
  284MPD2    H1 4342   3.501   4.187  12.666  0.0764  1.3615  1.3553
  284MPD2    H2 4343   3.320   4.334  12.311  1.4447 -0.1696 -2.6432
  284MPD2    H3 4344   3.307   4.234  12.529 -0.7166 -0.8643 -2.0260
  284MPD2     N 4345   3.734   4.200  12.601  0.2349  0.2138  0.3348
  284MPD2    H5 4346   3.713   4.163  12.693 -1.3803 -0.6150 -0.3813
  284MPD2    N1 4347   3.563   4.371  12.177  0.5540 -0.5183 -0.1681
  284MPD2    H7 4348   3.658   4.351  12.146  0.7057  0.4323 -0.3209
  285TMC3    C1 4349   3.504   4.440  11.951 -0.0471  0.3785  0.3699
  285TMC3    C2 4350   3.615   4.382  11.904  0.2347  0.6723 -0.2937
  285TMC3    C3 4351   3.627   4.383  11.766  0.3011 -0.2470  0.2674
  285TMC3    C4 4352   3.411   4.505  11.871  0.3161  0.2359 -0.1907
  285TMC3    C5 4353   3.422   4.508  11.735 -0.7051  0.9420  0.8413
  285TMC3    C6 4354   3.535   4.445  11.680 -0.3048  0.8642  0.4548
  285TMC3     C 4355   3.470   4.421  12.095 -0.5564 -0.9221 -0.1488
  285TMC3     O 4356   3.355   4.459  12.119 -0.3094 -0.3791 -0.2614
  285TMC3     H 4357   3.663   4.296  11.948 -0.7745  0.1947 -0.1293
  285TMC3    H1 4358   3.334   4.560  11.923 -0.8282 -1.1736 -0.3814
  285TMC3    H2 4359   3.542   4.445  11.571 -0.8306 -0.8665  0.4113
  285TMC3    C7 4360   3.377   4.623  11.670 -0.2675 -0.6320 -0.0255
  285TMC3    C8 4361   3.721   4.292  11.704  0.2845  0.2190 -0.1834
  285TMC3    O1 4362   3.413   4.727  11.725 -0.2882  0.2448 -0.5301
  285TMC3    O2 4363   3.679   4.236  11.600 -0.0745  0.1604  1.0430
  286MPD2     C 4364   4.329   3.456   1.406  0.2986  0.2522  0.8836
  286MPD2    C1 4365   4.330   3.376   1.292 -0.2246 -0.5876 -0.2399
  286MPD2    C2 4366   4.416   3.271   1.275  0.1125 -0.5972  0.0142
  286MPD2    C3 4367   4.508   3.243   1.377 -0.4076  0.6433 -0.6096
  286MPD2    C4 4368   4.501   3.316   1.498 -0.4934  0.3799  0.1473
  286MPD2    C5 4369   4.418   3.422   1.510  0.7452  0.5156 -0.5385
  286MPD2     H 4370   4.415   3.216   1.182  2.4802 -0.4228 -0.1083
  286MPD2    H1 4371   4.569   3.308   1.582 -0.6229 -1.4268  0.0888
  286MPD2    H2 4372   4.255   3.534   1.421 -0.5308 -0.3658  0.0181
  286MPD2    H3 4373   4.426   3.492   1.593  0.2091 -0.1179  0.0516
  286MPD2     N 4374   4.594   3.132   1.370 -0.8157  0.4874  0.4006
  286MPD2    H5 4375   4.649   3.107   1.452  1.2586  3.0718 -0.2015
  286MPD2    N1 4376   4.254   3.413   1.177 -0.3930 -0.5250 -0.4892
  286MPD2    H7 4377   4.270   3.361   1.091  0.1853 -0.9454 -0.1243
  287TMC3    C1 4378   4.692   2.932   1.287 -0.1056 -0.9521  0.1554
  287TMC3    C2 4379   4.672   2.820   1.223  0.5749  0.9119 -0.0972
  287TMC3    C3 4380   0.040   2.735   1.206 -0.5839  0.6360  0.6951
  287TMC3    C4 4381   0.086   2.962   1.332 -0.2209  0.1307 -0.5800
  287TMC3    C5 4382   0.186   2.875   1.321  0.3881  0.4934  0.4755
  287TMC3    C6 4383   0.161   2.755   1.262  0.0918  0.9038 -0.1844
  287TMC3     C 4384   4.611   3.047   1.258  0.5288 -0.5645 -0.0593
  287TMC3     O 4385   4.558   3.048   1.145  0.1517 -0.7553  0.6952
  287TMC3     H 4386   4.571   2.803   1.188  1.3296 -0.4410 -1.6770
  287TMC3    H1 4387   0.114   3.063   1.359  0.4693 -1.2516  3.7853
  287TMC3    H2 4388   0.236   2.677   1.267 -0.6383  0.2141 -0.0620
  287TMC3    C7 4389   0.323   2.915   1.352 -0.5496  0.2661 -0.0976
  287TMC3    C8 4390   0.022   2.625   1.115  0.2985  0.6420  0.2839
  287TMC3    O1 4391   0.339   3.013   1.426  0.0556  0.4389 -0.0443
  287TMC3    O2 4392   0.089   2.524   1.133  0.2074 -0.0415  0.1755
  288TMC3    C1 4393   1.893   3.013  14.722 -0.2835 -0.1171 -0.8520
  288TMC3    C2 4394   1.778   3.015  14.799 -0.0633  0.0356  0.2673
  288TMC3    C3 4395   1.702   3.126  14.793 -0.5108  0.7698 -0.7537
  288TMC3    C4 4396   1.937   3.127  14.650 -1.0122  0.1071  0.1053
  288TMC3    C5 4397   1.861   3.241  14.660  0.4365  0.5602 -0.0453
  288TMC3    C6 4398   1.736   3.240  14.721 -0.1219 -0.3991 -0.4518
  288TMC3     C 4399   1.969   2.895  14.702  0.6793 -0.0310 -0.2551
  288TMC3     O 4400   2.079   2.905  14.654 -0.0559  0.4237 -0.2003
  288TMC3     H 4401   1.746   2.927  14.852  1.3464 -1.9914 -2.2688
  288TMC3    H1 4402   2.023   3.122  14.585  0.8693 -0.7303  2.6500
  288TMC3    H2 4403   1.694   3.335  14.751  0.7202 -0.2145  0.1397
  288TMC3    C7 4404   1.915   3.358  14.598  0.8132  0.0596 -0.5031
  288TMC3    C8 4405   1.574   3.143  14.869 -0.3562 -0.6669  0.7348
  288TMC3    O1 4406   2.025   3.340  14.554 -0.1993  0.0762  0.1823
  288TMC3    O2 4407   1.545   3.261  14.887  0.2717 -0.7472 -0.4840
  289MPD2     C 4408   1.049   2.523  14.669  0.6318  0.2398  0.1450
  289MPD2    C1 4409   0.981   2.628  14.621  0.0533  0.1303  0.5432
  289MPD2    C2 4410   0.849   2.618  14.585 -0.2350  0.3580 -0.0500
  289MPD2    C3 4411   0.785   2.507  14.625 -0.6288 -0.4067 -0.1725
  289MPD2    C4 4412   0.848   2.409  14.705 -0.4778 -0.2191  0.4571
  289MPD2    C5 4413   0.979   2.412  14.709 -0.5440  0.0181  0.2944
  289MPD2     H 4414   0.801   2.704  14.541  0.3847  0.1562 -1.1024
  289MPD2    H1 4415   0.796   2.325  14.749  0.3535 -0.9211  0.0825
  289MPD2    H2 4416   1.157   2.529  14.673  0.7949 -1.2837 -2.2890
  289MPD2    H3 4417   1.037   2.331  14.753  2.4282  1.2311 -1.3657
  289MPD2     N 4418   0.643   2.502  14.616  0.6008  0.3249  0.5890
  289MPD2    H5 4419   0.599   2.428  14.670 -0.2866  0.2712 -0.2091
  289MPD2    N1 4420   1.052   2.750  14.604 -0.1728 -0.2374  0.1835
  289MPD2    H7 4421   1.152   2.738  14.620 -0.7207 -0.3522  3.6543
  290TMC3    C1 4422   0.431   2.555  14.567 -0.2649  0.1220 -0.7909
  290TMC3    C2 4423   0.384   2.676  14.620 -0.3055 -0.7583 -0.3467
  290TMC3    C3 4424   0.250   2.707  14.605  0.3534  0.2920  0.8665
  290TMC3    C4 4425   0.357   2.470  14.486 -0.6497 -0.1489  0.1399
  290TMC3    C5 4426   0.221   2.500  14.482 -0.7810 -1.3191 -0.2334
  290TMC3    C6 4427   0.167   2.613  14.549 -0.0727  0.8796  0.2123
  290TMC3     C 4428   0.566   2.585  14.540 -0.5660  0.1321  0.8161
  290TMC3     O 4429   0.592   2.673  14.459 -0.2760 -0.6223  0.0617
  290TMC3     H 4430   0.459   2.741  14.665  0.5184 -2.3810  0.6031
  290TMC3    H1 4431   0.409   2.397  14.426 -0.1432 -2.0507  2.9157
  290TMC3    H2 4432   0.060   2.628  14.546 -0.2955 -0.2478  2.2657
  290TMC3    C7 4433   0.149   2.446  14.371 -0.4555 -0.6499  0.4250
  290TMC3    C8 4434   0.200   2.839  14.652 -0.1355 -0.7548 -0.2203
  290TMC3    O1 4435   0.047   2.502  14.323 -0.5006  0.0359  0.5039
  290TMC3    O2 4436   0.078   2.858  14.654 -0.0291 -0.0033 -0.2194
  291MPD2     C 4437   0.503   2.501   0.350  0.2542 -0.2463 -1.0071
  291MPD2    C1 4438   0.613   2.432   0.384 -0.4868 -1.0989 -0.3313
  291MPD2    C2 4439   0.725   2.500   0.417  0.2035  0.5259 -0.0936
  291MPD2    C3 4440   0.729   2.635   0.408 -0.1011  0.1290 -0.3778
  291MPD2    C4 4441   0.611   2.704   0.365  0.4420  0.9112  0.9025
  291MPD2    C5 4442   0.496   2.642   0.342  0.0606  0.5763 -0.4736
  291MPD2     H 4443   0.812   2.448   0.456  0.5439  1.4845  0.4423
  291MPD2    H1 4444   0.612   2.812   0.356  0.6815  0.6185 -2.5687
  291MPD2    H2 4445   0.407   2.456   0.327 -0.8464  1.4104  0.3490
  291MPD2    H3 4446   0.406   2.693   0.310 -0.6448 -0.1818  0.2921
  291MPD2     N 4447   0.849   2.712   0.422  0.2384 -1.0187 -0.6181
  291MPD2    H5 4448   0.837   2.811   0.436 -2.4637 -1.1525 -1.7828
  291MPD2    N1 4449   0.623   2.292   0.390 -0.0843  0.2995  0.2464
  291MPD2    H7 4450   0.707   2.251   0.430  1.0216  1.5710 -0.7273
  292TMC3    C1 4451   0.569   2.062   0.366  0.3080 -0.1913  0.9934
  292TMC3    C2 4452   0.653   2.027   0.473  0.4739 -0.7107 -0.7588
  292TMC3    C3 4453   0.682   1.893   0.487 -0.4745  0.5516 -0.1052
  292TMC3    C4 4454   0.518   1.965   0.279 -0.4733  0.0943 -0.0175
  292TMC3    C5 4455   0.552   1.830   0.308 -0.2129  0.5358 -0.1343
  292TMC3    C6 4456   0.629   1.794   0.414  0.1299 -0.2754 -0.2156
  292TMC3     C 4457   0.532   2.201   0.338  0.5731 -0.2762  0.4421
  292TMC3     O 4458   0.442   2.219   0.257 -0.2424  0.0806 -0.3954
  292TMC3     H 4459   0.706   2.097   0.536 -0.1297 -1.0235  0.1040
  292TMC3    H1 4460   0.453   1.987   0.196  3.4848 -0.3348 -3.2186
  292TMC3    H2 4461   0.652   1.690   0.435  0.0219 -0.2168  0.1805
  292TMC3    C7 4462   0.482   1.720   0.241 -0.3335 -0.0422 -0.1946
  292TMC3    C8 4463   0.734   1.866   0.623 -0.6452  0.6277 -0.9692
  292TMC3    O1 4464   0.509   1.609   0.281  0.1116  0.0784 -0.0007
  292TMC3    O2 4465   0.837   1.925   0.661  0.0662 -0.7909 -0.1867
  293MPD2     C 4466   2.227   2.983  13.121 -0.1454 -0.0789  0.3345
  293MPD2    C1 4467   2.136   3.072  13.159  0.0816  0.1098 -0.1028
  293MPD2    C2 4468   2.156   3.132  13.282  0.6954  0.5355  0.1033
  293MPD2    C3 4469   2.259   3.097  13.365  0.4164 -0.0449 -0.2833
  293MPD2    C4 4470   2.342   2.989  13.334 -0.5988  0.6828 -0.1116
  293MPD2    C5 4471   2.325   2.940  13.205 -0.2843  0.4152 -0.2964
  293MPD2     H 4472   2.102   3.223  13.307 -2.3844 -1.2022 -0.1024
  293MPD2    H1 4473   2.423   2.953  13.396  1.8171  0.6819 -3.2827
  293MPD2    H2 4474   2.204   2.929  13.029 -0.5585  0.8575 -0.1092
  293MPD2    H3 4475   2.405   2.874  13.172  1.4667  1.8618  1.0476
  293MPD2     N 4476   2.291   3.182  13.476 -0.1379 -0.6291 -0.0810
  293MPD2    H5 4477   2.231   3.264  13.471 -2.1144 -2.0163  0.8855
  293MPD2    N1 4478   2.032   3.101  13.069  0.4736 -0.0279  0.7948
  293MPD2    H7 4479   2.035   3.050  12.981 -0.7635  1.7465 -0.2656
  294TMC3    C1 4480   1.845   3.201  12.981 -0.6546  0.0269  0.7384
  294TMC3    C2 4481   1.708   3.193  12.999  0.0304 -0.5222 -0.0065
  294TMC3    C3 4482   1.630   3.196  12.890  0.3523 -1.0236  0.1451
  294TMC3    C4 4483   1.897   3.237  12.858 -0.4969 -0.6278 -0.3957
  294TMC3    C5 4484   1.817   3.251  12.751 -0.1130  0.0357 -0.7000
  294TMC3    C6 4485   1.684   3.213  12.760  0.9584  0.8186 -0.2416
  294TMC3     C 4486   1.926   3.185  13.100  0.0442 -0.5371 -0.5283
  294TMC3     O 4487   1.899   3.252  13.203  0.2875 -0.0894  0.7495
  294TMC3     H 4488   1.664   3.183  13.097  0.5482 -0.6745  0.2114
  294TMC3    H1 4489   2.005   3.239  12.847 -0.5780 -1.5272 -1.3202
  294TMC3    H2 4490   1.624   3.202  12.670  1.1220 -0.5567 -0.1778
  294TMC3    C7 4491   1.880   3.262  12.623  0.3921  0.8998  0.4616
  294TMC3    C8 4492   1.484   3.173  12.902 -1.0187 -0.7794  0.5056
  294TMC3    O1 4493   2.003   3.271  12.623  0.4119  0.3576  0.0665
  294TMC3    O2 4494   1.450   3.126  13.009  0.3603  0.1059  0.3859
  295MPD2     C 4495   3.172   1.984   0.850  0.3025 -0.5345 -0.1571
  295MPD2    C1 4496   3.077   1.935   0.758  0.0897 -0.1491  0.0992
  295MPD2    C2 4497   3.015   1.817   0.786  0.6014 -0.5424 -0.2816
  295MPD2    C3 4498   3.038   1.752   0.905 -0.0895 -0.5988  0.1532
  295MPD2    C4 4499   3.130   1.808   0.994 -0.8023 -0.2300  0.0534
  295MPD2    C5 4500   3.202   1.914   0.964 -0.3220  0.2055  0.2722
  295MPD2     H 4501   2.949   1.771   0.713  0.0330  1.1888 -0.8608
  295MPD2    H1 4502   3.165   1.757   1.083  1.0997  2.3501  0.7933
  295MPD2    H2 4503   3.226   2.075   0.827  0.2773 -0.2670  0.8266
  295MPD2    H3 4504   3.270   1.952   1.040 -1.5285 -1.6315  2.2570
  295MPD2     N 4505   2.968   1.638   0.958  0.0874 -0.1701 -0.2532
  295MPD2    H5 4506   3.002   1.601   1.046 -2.3820 -0.3916  0.6131
  295MPD2    N1 4507   3.044   2.006   0.642 -0.0827 -0.3675 -0.8784
  295MPD2    H7 4508   2.962   1.973   0.591  0.0499  0.2348 -1.4704
  296TMC3    C1 4509   2.787   1.489   0.970 -0.5498 -0.5286  0.2370
  296TMC3    C2 4510   2.708   1.525   1.072  0.5251 -0.7431  0.9581
  296TMC3    C3 4511   2.645   1.435   1.157 -0.9834 -0.1749 -0.7738
  296TMC3    C4 4512   2.801   1.357   0.940  0.0285  0.8471  0.2230
  296TMC3    C5 4513   2.732   1.263   1.020 -0.6736  0.7421 -1.1296
  296TMC3    C6 4514   2.645   1.306   1.122  0.1148  0.0199 -0.0103
  296TMC3     C 4515   2.858   1.587   0.892  0.8487 -0.0575  0.0202
  296TMC3     O 4516   2.813   1.619   0.783  0.2060  0.5298 -0.2348
  296TMC3     H 4517   2.701   1.631   1.095 -1.6659 -0.5616 -0.5253
  296TMC3    H1 4518   2.874   1.333   0.863  2.0810  1.4633  1.9502
  296TMC3    H2 4519   2.596   1.223   1.172  0.5698 -1.6996 -2.4542
  296TMC3    C7 4520   2.770   1.126   1.001  0.1548 -0.0881 -1.0816
  296TMC3    C8 4521   2.569   1.477   1.271  0.4366  0.1215 -0.0094
  296TMC3    O1 4522   2.876   1.114   0.949  0.2357 -0.1138 -0.0681
  296TMC3    O2 4523   2.460   1.417   1.284  0.3405 -0.1651 -0.1670
  297MPD2     C 4524   4.478   3.961  16.072 -0.4252  0.2109  0.5273
  297MPD2    C1 4525   4.512   4.064  15.987  0.2988 -0.1271  0.2128
  297MPD2    C2 4526   4.640   4.117  16.001  0.2490 -0.1199 -0.2651
  297MPD2    C3 4527   0.006   4.070  16.084 -0.0750 -0.2064  0.4058
  297MPD2    C4 4528   4.711   3.957  16.156  0.0909 -0.1748  0.4520
  297MPD2    C5 4529   4.580   3.911  16.154  0.2184  0.7581  0.6222
  297MPD2     H 4530   4.662   4.207  15.944  0.1664  0.0607 -0.0140
  297MPD2    H1 4531   0.039   3.904  16.225  1.3015 -2.5496 -2.5229
  297MPD2    H2 4532   4.380   3.916  16.074  0.2604 -1.2839  0.3324
  297MPD2    H3 4533   4.552   3.824  16.212 -0.4093  1.5696  1.5372
  297MPD2     N 4534   0.130   4.131  16.079 -0.1998  0.6801  0.0513
  297MPD2    H5 4535   0.142   4.226  16.045 -1.1328  0.3844 -1.0781
  297MPD2    N1 4536   4.417   4.108  15.889  0.0612  0.9476 -0.0945
  297MPD2    H7 4537   4.434   4.186  15.826 -0.0153 -1.9320 -3.6759
  298TMC3    C1 4538   4.223   4.133  15.760 -0.1775 -0.0820  0.2583
  298TMC3    C2 4539   4.296   4.157  15.646  0.4618 -0.2270  0.1141
  298TMC3    C3 4540   4.246   4.250  15.562  0.0015  0.5106  0.1001
  298TMC3    C4 4541   4.119   4.200  15.807 -0.6408 -0.0077  0.6429
  298TMC3    C5 4542   4.080   4.309  15.730 -0.1500 -0.5106  0.4917
  298TMC3    C6 4543   4.139   4.332  15.606 -0.3283 -0.0088 -0.0908
  298TMC3     C 4544   4.290   4.058  15.868  0.0555 -0.7733  0.2624
  298TMC3     O 4545   4.211   3.996  15.939  0.0315 -0.2687 -0.3261
  298TMC3     H 4546   4.371   4.089  15.607  2.6209  0.7925  2.4873
  298TMC3    H1 4547   4.072   4.181  15.903 -1.1853 -0.4311  0.2926
  298TMC3    H2 4548   4.114   4.414  15.540  1.9114  0.9834  0.2798
  298TMC3    C7 4549   4.003   4.418  15.792 -0.1800 -0.4249 -0.3530
  298TMC3    C8 4550   4.295   4.245  15.425  0.1321 -0.4672  0.0451
  298TMC3    O1 4551   3.947   4.394  15.897  0.3850  1.0237  0.0886
  298TMC3    O2 4552   4.390   4.171  15.401  0.3615 -0.4501  0.2236
  299MPD2     C 4553   1.025   3.890  10.929  0.2818 -0.0455 -0.2911
  299MPD2    C1 4554   0.954   3.821  11.022 -0.1433  0.3740  0.2380
  299MPD2    C2 4555   0.852   3.741  10.984 -0.3285 -0.1508 -0.0344
  299MPD2    C3 4556   0.803   3.734  10.859  0.6288  0.3950  0.6252
  299MPD2    C4 4557   0.860   3.816  10.763 -0.0433 -0.2008 -0.7919
  299MPD2    C5 4558   0.971   3.888  10.803 -0.2148  0.1570 -0.2960
  299MPD2     H 4559   0.806   3.696  11.071 -0.9132 -0.0087 -0.2728
  299MPD2    H1 4560   0.811   3.832  10.668  0.1985 -0.5813 -0.9787
  299MPD2    H2 4561   1.117   3.945  10.947 -0.7580  2.6531 -3.2755
  299MPD2    H3 4562   1.019   3.962  10.741  1.7345 -1.9211 -1.2498
  299MPD2     N 4563   0.687   3.655  10.832 -0.2351 -0.3877  0.1570
  299MPD2    H5 4564   0.641   3.664  10.742  2.9378 -1.1083 -1.5281
  299MPD2    N1 4565   0.979   3.826  11.161  0.4469  0.4476  0.4746
  299MPD2    H7 4566   0.917   3.771  11.219 -0.4757  0.4171 -0.5374
  300TMC3    C1 4567   0.475   3.539  10.879  0.5499  0.0048 -0.0116
  300TMC3    C2 4568   0.412   3.609  10.774  0.1968 -0.0656 -0.1138
  300TMC3    C3 4569   0.274   3.593  10.764  0.3033  0.9691 -0.2616
  300TMC3    C4 4570   0.395   3.462  10.967  0.5958  0.4707 -0.4488
  300TMC3    C5 4571   0.260   3.454  10.946 -0.0455 -0.2113  0.4402
  300TMC3    C6 4572   0.196   3.524  10.852  0.2206 -0.4754 -0.3364
  300TMC3     C 4573   0.611   3.574  10.923  0.4602  0.7078  0.5578
  300TMC3     O 4574   0.635   3.555  11.042  0.1377  0.0313  0.2975
  300TMC3     H 4575   0.464   3.685  10.718  0.4110 -0.2782 -0.2033
  300TMC3    H1 4576   0.436   3.415  11.056  1.2003 -0.3019 -1.1249
  300TMC3    H2 4577   0.088   3.527  10.839  0.1544  0.3192  0.3786
  300TMC3    C7 4578   0.181   3.371  11.040  0.1909 -0.0061  0.3539
  300TMC3    C8 4579   0.206   3.676  10.676 -0.4478  0.0298  0.2267
  300TMC3    O1 4580   0.236   3.267  11.078 -0.8180 -0.3003  0.5155
  300TMC3    O2 4581   0.257   3.692  10.560  0.1208  0.4809 -0.4154
  301MPD2     C 4582   2.975   0.394   0.613 -0.2201 -0.0538 -0.6639
  301MPD2    C1 4583   2.841   0.358   0.599 -0.3431 -0.8075  0.2290
  301MPD2    C2 4584   2.803   0.226   0.634 -0.4779  0.4648  0.4659
  301MPD2    C3 4585   2.894   0.132   0.684  0.4457 -0.2661  0.1509
  301MPD2    C4 4586   3.027   0.166   0.707 -0.2581  0.7111 -0.7593
  301MPD2    C5 4587   3.063   0.297   0.660  0.1238 -0.5715 -0.0430
  301MPD2     H 4588   2.707   0.186   0.605 -0.1148  1.3536 -1.9831
  301MPD2    H1 4589   3.105   0.108   0.755 -0.6289  1.4048  0.6788
  301MPD2    H2 4590   3.008   0.497   0.605 -2.8479  0.9419  1.2375
  301MPD2    H3 4591   3.160   0.340   0.684 -0.3773  0.2903  0.4697
  301MPD2     N 4592   2.860   4.734   0.711 -0.0065 -0.6850 -0.8363
  301MPD2    H5 4593   2.926   4.675   0.761  1.4367 -1.3888 -3.6264
  301MPD2    N1 4594   2.741   0.445   0.548  0.1547  0.1322  0.3068
  301MPD2    H7 4595   2.658   0.387   0.538  0.8488 -1.2289  2.2636
  302TMC3    C1 4596   2.741   4.523   0.720  0.1618  0.2421  0.3936
  302TMC3    C2 4597   2.825   4.479   0.822  0.7476 -0.0094 -0.0890
  302TMC3    C3 4598   2.805   4.353   0.860 -0.0650  0.6513 -0.0592
  302TMC3    C4 4599   2.653   4.436   0.651 -0.1285 -0.3363  0.2491
  302TMC3    C5 4600   2.657   4.303   0.678  0.4277  0.7331 -0.7201
  302TMC3    C6 4601   2.733   4.255   0.783  0.1663 -0.5619  0.4635
  302TMC3     C 4602   2.746   4.670   0.678 -0.2349 -0.4518  0.4002
  302TMC3     O 4603   2.658   4.704   0.595  0.2941 -0.3823  0.1127
  302TMC3     H 4604   2.892   4.550   0.868 -0.8535  1.4128  0.0628
  302TMC3    H1 4605   2.607   4.474   0.560  0.7330 -0.3611 -0.1951
  302TMC3    H2 4606   2.730   4.150   0.809  0.4016 -1.4032 -2.8324
  302TMC3    C7 4607   2.549   4.223   0.630  0.4489  0.1520 -0.0806
  302TMC3    C8 4608   2.856   4.300   0.978  0.4728  0.4467 -0.2046
  302TMC3    O1 4609   2.582   4.106   0.607 -0.0791  0.1303  0.3335
  302TMC3    O2 4610   2.869   4.180   0.977 -0.9454  0.3473 -0.6736
  303MPD2     C 4611   2.836   3.057  11.511 -0.4541 -0.7514  0.5513
  303MPD2    C1 4612   2.772   2.971  11.426 -0.1058 -0.4018 -0.1650
  303MPD2    C2 4613   2.779   3.010  11.295  0.2101 -0.7918  0.6632
  303MPD2    C3 4614   2.850   3.116  11.247 -0.0864 -0.5312  0.2653
  303MPD2    C4 4615   2.913   3.198  11.340 -0.1823  0.3066 -0.3864
  303MPD2    C5 4616   2.911   3.165  11.471  0.9866 -0.0173  0.2625
  303MPD2     H 4617   2.731   2.946  11.222  2.3208 -1.8102  0.1743
  303MPD2    H1 4618   2.969   3.284  11.305  3.5218 -1.2531  1.6832
  303MPD2    H2 4619   2.828   3.036  11.617 -1.2637 -2.0129  0.2388
  303MPD2    H3 4620   2.961   3.216  11.553 -1.3700 -0.2135  1.8203
  303MPD2     N 4621   2.870   3.148  11.110  0.0905 -0.1981 -0.5543
  303MPD2    H5 4622   2.911   3.238  11.090  1.5524 -0.7070  0.1661
  303MPD2    N1 4623   2.702   2.858  11.473  0.4711  0.2037 -0.3144
  303MPD2    H7 4624   2.680   2.847  11.571 -1.0833 -1.6995 -0.8735
  304TMC3    C1 4625   2.598   2.655  11.456 -0.1386 -0.3152 -0.1871
  304TMC3    C2 4626   2.478   2.700  11.481  0.0619  0.4445  0.1403
  304TMC3    C3 4627   2.363   2.631  11.451 -0.0615  0.1756 -0.1098
  304TMC3    C4 4628   2.623   2.527  11.407 -0.1014 -0.1469  0.8064
  304TMC3    C5 4629   2.505   2.458  11.385 -0.0565 -0.4702 -0.0138
  304TMC3    C6 4630   2.375   2.499  11.419  0.6739  0.2757 -0.2668
  304TMC3     C 4631   2.683   2.755  11.389  0.4501  0.0930 -0.2775
  304TMC3     O 4632   2.744   2.730  11.285 -0.2409  0.3509  0.3411
  304TMC3     H 4633   2.470   2.800  11.520  1.0570  1.5511 -2.4628
  304TMC3    H1 4634   2.720   2.491  11.376  0.0165  0.4032  0.5268
  304TMC3    H2 4635   2.282   2.446  11.400  1.0882 -0.2754 -0.7467
  304TMC3    C7 4636   2.497   2.387  11.263 -0.1158 -0.3736  0.1134
  304TMC3    C8 4637   2.284   2.712  11.348 -0.0635  0.4110  0.1228
  304TMC3    O1 4638   2.390   2.392  11.202  0.2056 -0.6013 -0.5148
  304TMC3    O2 4639   2.285   2.831  11.370 -0.5038 -0.0544 -0.0947
  305MPD2     C 4640   0.712   0.800  14.184 -0.1339 -0.2923  0.5493
  305MPD2    C1 4641   0.779   0.685  14.206  0.5344 -0.2751  0.2781
  305MPD2    C2 4642   0.771   0.594  14.102  0.4057 -0.4729 -0.4933
  305MPD2    C3 4643   0.703   0.610  13.984  0.7332 -0.4008  0.7835
  305MPD2    C4 4644   0.629   0.730  13.971  1.0010  0.5045  0.1350
  305MPD2    C5 4645   0.622   0.819  14.074 -0.1056  0.0182 -0.3209
  305MPD2     H 4646   0.817   0.498  14.120 -1.0817 -0.7060  2.0265
  305MPD2    H1 4647   0.569   0.745  13.882  2.6859  0.1063 -1.0852
  305MPD2    H2 4648   0.713   0.875  14.263 -1.1461  0.9750 -0.6273
  305MPD2    H3 4649   0.555   0.904  14.069  0.1843  0.3394  1.3091
  305MPD2     N 4650   0.681   0.506  13.891 -0.1568  0.0467  0.8270
  305MPD2    H5 4651   0.621   0.530  13.812  0.0610 -1.7766  0.1228
  305MPD2    N1 4652   0.864   0.673  14.324  0.0986  1.3299 -0.0630
  305MPD2    H7 4653   0.857   0.748  14.392 -0.7681  0.2459  1.0502
  306TMC3    C1 4654   1.032   0.598  14.474 -0.2331  0.1643  0.3365
  306TMC3    C2 4655   1.162   0.559  14.479  0.0942 -0.5999 -0.7962
  306TMC3    C3 4656   1.232   0.583  14.592  0.0334  0.4261 -0.1163
  306TMC3    C4 4657   0.981   0.678  14.577  0.1136  0.0324 -0.0408
  306TMC3    C5 4658   1.061   0.716  14.680  0.9528  0.7668 -0.0737
  306TMC3    C6 4659   1.192   0.669  14.694  0.1550 -0.7376 -0.1920
  306TMC3     C 4660   0.957   0.576  14.354 -0.5447  0.5628 -0.6298
  306TMC3     O 4661   0.997   0.484  14.285  0.0531  0.2916 -0.3744
  306TMC3     H 4662   1.204   0.488  14.408 -1.1393 -1.1549 -0.9621
  306TMC3    H1 4663   0.880   0.714  14.593 -0.3429 -1.2865  0.1116
  306TMC3    H2 4664   1.263   0.716  14.761 -1.8010  0.8622  0.7620
  306TMC3    C7 4665   1.023   0.826  14.769 -0.2336 -1.0358  0.3449
  306TMC3    C8 4666   1.351   0.513  14.616  0.7842 -0.9133 -0.5771
  306TMC3    O1 4667   0.940   0.908  14.729  0.3893 -0.2356  0.5679
  306TMC3    O2 4668   1.397   0.456  14.518 -0.4881 -0.4145 -0.0337
  307MPD2     C 4669   3.565   2.487   0.651  0.0832 -0.2296 -0.0244
  307MPD2    C1 4670   3.555   2.620   0.676 -1.2065  0.3222  0.8748
  307MPD2    C2 4671   3.481   2.657   0.780 -0.2349 -0.4320 -0.2626
  307MPD2    C3 4672   3.407   2.566   0.851  0.1443  0.9520 -0.0380
  307MPD2    C4 4673   3.407   2.436   0.818 -0.2074  0.1902 -0.0292
  307MPD2    C5 4674   3.498   2.394   0.727 -0.7438 -0.2191  0.0053
  307MPD2     H 4675   3.469   2.761   0.810 -0.0743 -0.0306 -1.5904
  307MPD2    H1 4676   3.353   2.362   0.877  0.7937  0.3073  1.0428
  307MPD2    H2 4677   3.627   2.445   0.573  1.0687  0.0840  0.5821
  307MPD2    H3 4678   3.515   2.288   0.709 -2.6859 -0.7419  1.3026
  307MPD2     N 4679   3.312   2.601   0.946 -0.1828 -0.4981  0.0272
  307MPD2    H5 4680   3.243   2.531   0.970 -0.8854  0.4738  0.8327
  307MPD2    N1 4681   3.641   2.712   0.604  0.3826  0.1235 -0.4654
  307MPD2    H7 4682   3.640   2.812   0.624  0.7815 -0.4747  2.5284
  308TMC3    C1 4683   2.981   2.658   1.168 -0.0276 -0.2774 -0.2151
  308TMC3    C2 4684   2.994   2.727   1.288 -0.2859  0.4208  0.1279
  308TMC3    C3 4685   3.097   2.816   1.301 -0.1559  0.6803  0.0499
  308TMC3    C4 4686   3.069   2.669   1.064 -0.7872  0.1659 -0.7404
  308TMC3    C5 4687   3.184   2.743   1.095 -0.4160 -0.2553 -0.6062
  308TMC3    C6 4688   3.200   2.815   1.213  0.1026 -0.6995  0.3494
  308TMC3     C 4689   2.843   2.651   1.130 -0.3308 -0.0358  0.2678
  308TMC3     O 4690   2.771   2.597   1.208 -0.2652 -0.4124  0.3130
  308TMC3     H 4691   2.900   2.731   1.341 -0.1741  0.8769  0.2895
  308TMC3    H1 4692   3.060   2.599   0.981 -1.3342  1.0794 -1.4558
  308TMC3    H2 4693   3.292   2.862   1.244 -0.3494 -0.2551  1.0245
  308TMC3    C7 4694   3.299   2.730   1.005 -0.0289 -0.2619 -0.0835
  308TMC3    C8 4695   3.081   2.936   1.385  0.2072 -0.0934 -0.3788
  308TMC3    O1 4696   3.381   2.824   1.011 -0.4301 -0.6388 -0.5959
  308TMC3    O2 4697   2.991   2.941   1.466 -0.1644 -0.6286 -0.0402
  309MPD2     C 4698   2.712   3.950  17.439 -1.0722 -0.3327  0.5584
  309MPD2    C1 4699   2.638   3.937  17.327  0.4377 -0.3213  0.3385
  309MPD2    C2 4700   2.500   3.913  17.333  0.5480 -0.1928  0.2527
  309MPD2    C3 4701   2.441   3.867  17.456  0.5331 -0.1934  0.1423
  309MPD2    C4 4702   2.526   3.849  17.562  0.2074  0.4939  0.2549
  309MPD2    C5 4703   2.657   3.896  17.563  0.9374 -0.1892 -0.4938
  309MPD2     H 4704   2.440   3.910  17.243 -0.9750  0.6136  1.2298
  309MPD2    H1 4705   2.502   3.800  17.656  0.7832  0.4199  0.3667
  309MPD2    H2 4706   2.808   4.000  17.445 -0.5815 -0.8181 -3.3945
  309MPD2    H3 4707   2.709   3.914  17.656  0.0647  1.2816 -0.2833
  309MPD2     N 4708   2.296   3.844  17.475 -0.2929 -0.4195  0.6702
  309MPD2    H5 4709   2.262   3.814  17.566 -0.5811  2.0532  1.3767
  309MPD2    N1 4710   2.708   3.968  17.208 -0.5009  0.0581  0.0363
  309MPD2    H7 4711   2.809   3.973  17.219 -0.8743  0.9704  3.0593
  310TMC3    C1 4712   2.767   3.943  16.982 -0.7496  0.7728  0.3540
  310TMC3    C2 4713   2.740   3.984  16.854  0.0604  0.1448 -0.2096
  310TMC3    C3 4714   2.835   3.959  16.757  0.3336 -0.4609  0.2780
  310TMC3    C4 4715   2.879   3.866  17.016 -0.5909 -0.4090  0.4689
  310TMC3    C5 4716   2.963   3.854  16.914 -0.3695 -0.2507 -0.5125
  310TMC3    C6 4717   2.949   3.895  16.788 -0.0411  1.3749 -0.1141
  310TMC3     C 4718   2.661   3.950  17.079 -0.3862 -0.0093 -0.5312
  310TMC3     O 4719   2.548   3.933  17.035  0.0242  0.1466  0.5765
  310TMC3     H 4720   2.655   4.046  16.827  0.4637  0.4100 -0.8810
  310TMC3    H1 4721   2.885   3.821  17.115 -0.2032  0.2412  0.7447
  310TMC3    H2 4722   3.027   3.884  16.713 -0.8864 -1.8518 -0.5211
  310TMC3    C7 4723   3.069   3.761  16.936 -0.0746 -0.3192  0.4365
  310TMC3    C8 4724   2.799   3.997  16.620 -0.1791 -0.1915 -0.2412
  310TMC3    O1 4725   3.108   3.685  16.847 -0.4675 -0.8930 -0.1188
  310TMC3    O2 4726   2.689   4.040  16.596 -0.2393  0.5933  0.4026
  311MPD2     C 4727   4.078   0.881  12.411 -0.2651  0.9778 -0.0795
  311MPD2    C1 4728   4.151   0.824  12.514 -0.4202  0.7177 -0.3774
  311MPD2    C2 4729   4.079   0.753  12.610 -0.5265  0.5863  0.0514
  311MPD2    C3 4730   3.943   0.729  12.597  0.4432  0.0061  0.1857
  311MPD2    C4 4731   3.871   0.791  12.497 -0.1766  0.1110  0.4085
  311MPD2    C5 4732   3.940   0.864  12.403 -0.7877  0.3040 -0.4241
  311MPD2     H 4733   4.135   0.715  12.695  2.0402  1.5125 -1.2225
  311MPD2    H1 4734   3.765   0.786  12.480  0.0218 -2.0728 -0.1396
  311MPD2    H2 4735   4.122   0.931  12.325 -1.3008  1.1991 -0.4883
  311MPD2    H3 4736   3.895   0.906  12.314 -1.9350  2.4417  1.1784
  311MPD2     N 4737   3.892   0.628  12.682 -0.2108  0.2510  0.1498
  311MPD2    H5 4738   3.952   0.583  12.750 -0.9860 -0.4161  0.3897
  311MPD2    N1 4739   4.295   0.848  12.522  0.5658 -0.7488  0.0470
  311MPD2    H7 4740   4.329   0.912  12.451  0.6360  0.6279  1.2995
  312TMC3    C1 4741   3.743   0.461  12.752  0.6896 -0.1005 -0.2356
  312TMC3    C2 4742   3.647   0.385  12.707 -0.4709 -0.0544  0.2403
  312TMC3    C3 4743   3.583   0.305  12.794 -0.6855  0.0747  0.2170
  312TMC3    C4 4744   3.801   0.450  12.880  0.7908  0.4795 -0.6314
  312TMC3    C5 4745   3.746   0.353  12.966 -0.1716 -0.1397 -0.1302
  312TMC3    C6 4746   3.636   0.283  12.922 -0.0475  0.5947 -0.0189
  312TMC3     C 4747   3.769   0.573  12.659  0.4267  0.1960  0.7297
  312TMC3     O 4748   3.682   0.613  12.589 -0.0558  0.0567 -0.2452
  312TMC3     H 4749   3.631   0.381  12.600  0.3010  1.4725  0.0595
  312TMC3    H1 4750   3.880   0.511  12.921  0.5199  0.6463 -0.3593
  312TMC3    H2 4751   3.592   0.215  12.993  2.1123 -1.8699 -1.0368
  312TMC3    C7 4752   3.770   0.359  13.108  0.2861 -0.7892  0.6884
  312TMC3    C8 4753   3.467   0.230  12.754  0.5265  0.0674 -0.4866
  312TMC3    O1 4754   3.682   0.319  13.184 -0.4370 -0.4672  0.4794
  312TMC3    O2 4755   3.446   0.132  12.824 -0.0584 -0.3623  0.5358
  313MPD2     C 4756   4.158   4.320  11.380  0.0357  0.0770 -0.6682
  313MPD2    C1 4757   4.034   4.325  11.312 -0.3630  0.2680 -0.2125
  313MPD2    C2 4758   4.011   4.240  11.205  0.4204 -0.1160  0.2726
  313MPD2    C3 4759   4.112   4.151  11.166  0.1565 -0.3506  0.7142
  313MPD2    C4 4760   4.230   4.143  11.237  0.0041 -0.5108 -0.3730
  313MPD2    C5 4761   4.258   4.242  11.337  0.8182 -0.7443  0.2243
  313MPD2     H 4762   3.909   4.233  11.167  0.9896  0.5678 -1.3563
  313MPD2    H1 4763   4.302   4.062  11.223 -1.7896 -2.2845  0.7996
  313MPD2    H2 4764   4.161   4.380  11.470  0.5890 -1.9316  0.6393
  313MPD2    H3 4765   4.348   4.237  11.398  1.4925 -0.1234 -0.7241
  313MPD2     N 4766   4.085   4.071  11.053  0.2921  0.2236  0.1146
  313MPD2    H5 4767   3.995   4.077  11.008 -0.3957 -1.2432  1.2844
  313MPD2    N1 4768   3.930   4.404  11.351 -0.3233 -0.1693  0.2348
  313MPD2    H7 4769   3.842   4.388  11.303  0.6699  0.6050 -1.8171
  314TMC3    C1 4770   3.805   4.571  11.453  0.5952 -0.1372  0.5411
  314TMC3    C2 4771   3.798   4.701  11.486 -0.1933  0.0795 -0.9999
  314TMC3    C3 4772   3.732   0.057  11.418 -0.3831  0.4137 -0.6726
  314TMC3    C4 4773   3.709   4.537  11.361 -0.1881 -0.1013  0.4960
  314TMC3    C5 4774   3.626   4.631  11.302 -0.5402  0.2092 -0.4415
  314TMC3    C6 4775   3.636   0.038  11.323  0.0521  0.4955  0.1387
  314TMC3     C 4776   3.931   4.503  11.444  0.2861 -0.3394 -0.7415
  314TMC3     O 4777   4.018   4.559  11.508 -0.1682 -0.0195  0.1405
  314TMC3     H 4778   3.881   4.732  11.549  0.1534 -3.0365  0.0996
  314TMC3    H1 4779   3.692   4.433  11.338  0.1121 -0.1712  0.6055
  314TMC3    H2 4780   3.567   0.115  11.290  0.0991  0.2015 -0.6548
  314TMC3    C7 4781   3.549   4.569  11.195 -0.5761 -0.7047  0.8561
  314TMC3    C8 4782   3.750   0.196  11.448 -0.4629  0.2983 -0.1414
  314TMC3    O1 4783   3.526   4.450  11.193 -0.1235  0.2569 -0.0577
  314TMC3    O2 4784   3.717   0.278  11.363  0.2102 -0.1490 -0.9988
  315MPD2     C 4785   3.850   3.663  17.299  0.0220  0.3696 -0.3894
  315MPD2    C1 4786   3.969   3.717  17.336 -0.4120  0.5583  0.0483
  315MPD2    C2 4787   3.989   3.849  17.317  0.9157 -0.4870 -0.5200
  315MPD2    C3 4788   3.900   3.925  17.247  0.3653  0.5793  0.0676
  315MPD2    C4 4789   3.784   3.864  17.205 -0.1436 -0.8772 -0.1538
  315MPD2    C5 4790   3.758   3.739  17.235 -0.1389  0.3451 -0.1049
  315MPD2     H 4791   4.088   3.890  17.336  2.0702 -2.9202 -1.3682
  315MPD2    H1 4792   3.717   3.921  17.141 -0.0659 -2.1304 -1.3630
  315MPD2    H2 4793   3.819   3.562  17.322 -0.3071 -0.5131 -4.7515
  315MPD2    H3 4794   3.670   3.680  17.211 -1.4256  2.0145  0.5097
  315MPD2     N 4795   3.933   4.057  17.215 -0.2893 -0.1065 -0.5110
  315MPD2    H5 4796   4.023   4.090  17.249 -0.5299 -0.7817  0.7584
  315MPD2    N1 4797   4.068   3.635  17.397 -0.3317  0.2775 -0.0087
  315MPD2    H7 4798   4.135   3.685  17.454 -0.1736 -1.0535  0.9628
  316TMC3    C1 4799   3.936   4.271  17.115  0.3989  0.6708  0.6806
  316TMC3    C2 4800   4.044   4.309  17.195  0.2301 -0.1943  0.2271
  316TMC3    C3 4801   4.092   4.437  17.176 -0.6989  0.6890  0.2170
  316TMC3    C4 4802   3.884   4.352  17.017 -0.1585  0.7538  0.5009
  316TMC3    C5 4803   3.946   4.470  16.989  0.0097 -1.1821  0.4541
  316TMC3    C6 4804   4.046   4.512  17.070 -0.6054  0.4511 -0.6326
  316TMC3     C 4805   3.868   4.141  17.125  0.5500 -0.7827 -0.1012
  316TMC3     O 4806   3.765   4.130  17.061 -0.7276  0.0741  0.0658
  316TMC3     H 4807   4.057   4.254  17.287  0.4182 -0.9630 -0.2614
  316TMC3    H1 4808   3.809   4.310  16.951  0.1969 -1.3863  1.4519
  316TMC3    H2 4809   4.080   4.614  17.060 -1.6953  0.7178 -1.6236
  316TMC3    C7 4810   3.849   4.569  16.987  0.2426  0.1590 -0.0003
  316TMC3    C8 4811   4.202   4.492  17.245  0.2736  0.4126 -0.6518
  316TMC3    O1 4812   3.863   4.663  17.070 -0.2149  0.0935  0.3204
  316TMC3    O2 4813   4.248   4.602  17.213 -0.3647  0.3539  0.5560
  317MPD2     C 4814   0.530   2.554  12.966 -0.1514 -0.3485 -0.7106
  317MPD2    C1 4815   0.614   2.458  12.909 -0.8520  0.8929 -0.2470
  317MPD2    C2 4816   0.673   2.364  12.996 -0.7444  0.0310 -0.3665
  317MPD2    C3 4817   0.678   2.379  13.134 -0.4830  0.3127  0.3110
  317MPD2    C4 4818   0.620   2.493  13.184 -0.4493  0.1449  0.7028
  317MPD2    C5 4819   0.541   2.563  13.103 -0.0350  0.8531  0.3218
  317MPD2     H 4820   0.709   2.268  12.963 -1.2727  0.9831 -3.6763
  317MPD2    H1 4821   0.626   2.525  13.287  0.2612 -1.7146  1.2367
  317MPD2    H2 4822   0.475   2.634  12.919  2.4591  0.7535 -1.9108
  317MPD2    H3 4823   0.490   2.648  13.146 -0.0130  0.3537  1.3293
  317MPD2     N 4824   0.750   2.288  13.216 -0.0163  0.4113  0.3802
  317MPD2    H5 4825   0.793   2.207  13.172  1.2062  0.5731  1.2693
  317MPD2    N1 4826   0.630   2.441  12.765  0.0637 -0.0743 -0.3049
  317MPD2    H7 4827   0.703   2.372  12.749 -1.2200 -1.9787  2.0853
  318TMC3    C1 4828   0.849   2.207  13.412  0.3408 -0.0370  0.0664
  318TMC3    C2 4829   0.847   2.079  13.368 -0.2797 -0.1699  0.0305
  318TMC3    C3 4830   0.921   1.988  13.439  0.3068  0.6481 -0.1357
  318TMC3    C4 4831   0.942   2.248  13.511 -0.7720 -0.6557 -1.4874
  318TMC3    C5 4832   1.033   2.154  13.555  0.2532 -0.0709 -0.0485
  318TMC3    C6 4833   1.017   2.021  13.531  0.3628  0.5235 -0.2135
  318TMC3     C 4834   0.790   2.314  13.347 -0.5131 -0.3015 -0.1764
  318TMC3     O 4835   0.781   2.409  13.418  0.1583  0.0458  0.4393
  318TMC3     H 4836   0.799   2.052  13.274  1.4174  0.1308 -0.9206
  318TMC3    H1 4837   0.955   2.353  13.534  0.8217 -1.0136 -0.7642
  318TMC3    H2 4838   1.070   1.932  13.564  0.9553  0.9497 -0.0115
  318TMC3    C7 4839   1.154   2.196  13.621  0.0786  0.3858  0.2680
  318TMC3    C8 4840   0.891   1.846  13.409 -0.3712 -0.5432 -0.0793
  318TMC3    O1 4841   1.159   2.318  13.647  0.7786 -0.0243  0.4411
  318TMC3    O2 4842   0.978   1.762  13.427 -0.3939 -0.1295  0.2990
  319MPD2     C 4843   1.938   3.526  17.124 -0.3819 -0.3577  0.4199
  319MPD2    C1 4844   1.937   3.386  17.133 -0.5195  1.1190 -0.2936
  319MPD2    C2 4845   1.838   3.308  17.067  0.5269  0.4490 -0.0142
  319MPD2    C3 4846   1.756   3.365  16.974  0.5836 -0.1063 -0.0912
  319MPD2    C4 4847   1.762   3.501  16.963 -0.1970 -0.4321 -0.1564
  319MPD2    C5 4848   1.846   3.580  17.038 -0.3436  0.3752 -0.0037
  319MPD2     H 4849   1.839   3.201  17.085 -1.0635 -0.1024 -3.1930
  319MPD2    H1 4850   1.690   3.556  16.904  1.0589  1.0484 -0.2949
  319MPD2    H2 4851   2.006   3.589  17.180 -0.1564 -0.1528 -0.0864
  319MPD2    H3 4852   1.848   3.688  17.029  3.0192  0.5980  3.2961
  319MPD2     N 4853   1.670   3.290  16.891  0.2549  0.0701 -0.4862
  319MPD2    H5 4854   1.605   3.343  16.835 -1.5744 -2.3195 -0.6268
  319MPD2    N1 4855   2.021   3.316  17.215  0.6064  0.5314 -0.0505
  319MPD2    H7 4856   2.014   3.215  17.222  0.9270  0.5571  0.7126
  320TMC3    C1 4857   1.567   3.099  16.786  0.0646  0.7341 -0.2008
  320TMC3    C2 4858   1.551   3.176  16.672 -0.1221  0.0058 -0.1046
  320TMC3    C3 4859   1.504   3.121  16.555  0.1866  0.0795  0.9233
  320TMC3    C4 4860   1.555   2.969  16.776  0.5962 -0.2851 -0.5850
  320TMC3    C5 4861   1.512   2.915  16.660 -0.5325 -0.2218 -0.3915
  320TMC3    C6 4862   1.482   2.987  16.545  0.1830 -0.2947  0.0579
  320TMC3     C 4863   1.661   3.153  16.888 -0.0251  0.2790 -0.1906
  320TMC3     O 4864   1.714   3.069  16.961 -1.0306  0.1630  0.4069
  320TMC3     H 4865   1.568   3.283  16.677  0.3487  0.0248 -2.0960
  320TMC3    H1 4866   1.553   2.914  16.870 -0.5768 -0.2647 -0.6044
  320TMC3    H2 4867   1.428   2.938  16.464 -0.0268 -0.1926  0.1366
  320TMC3    C7 4868   1.506   2.768  16.643  0.3393  0.3538  0.7118
  320TMC3    C8 4869   1.493   3.203  16.434 -0.1457  0.5230  0.5858
  320TMC3    O1 4870   1.458   2.727  16.538 -0.7879  0.3073 -0.7346
  320TMC3    O2 4871   1.522   3.322  16.441 -0.2399  0.2211 -0.3697
  321TMC3    C1 4872   2.195   3.272  17.360  1.0188 -0.4200 -0.3620
  321TMC3    C2 4873   2.227   3.158  17.291  0.5398  0.6376  0.0562
  321TMC3    C3 4874   2.294   3.057  17.362  1.0648 -0.5533  0.5913
  321TMC3    C4 4875   2.257   3.304  17.482  0.0590  0.0538  0.4172
  321TMC3    C5 4876   2.322   3.206  17.545  0.0081  0.0944 -0.1123
  321TMC3    C6 4877   2.337   3.086  17.489  0.5797  0.3136 -1.2478
  321TMC3     C 4878   2.119   3.374  17.294 -0.4584  0.2790 -0.3523
  321TMC3     O 4879   2.127   3.491  17.329  0.1714  0.2167  0.9989
  321TMC3     H 4880   2.216   3.160  17.184 -0.7413 -1.8861  0.1452
  321TMC3    H1 4881   2.231   3.389  17.545 -0.2703  0.6302 -0.4955
  321TMC3    H2 4882   2.404   3.024  17.549 -1.5384 -1.1331 -0.3844
  321TMC3    C7 4883   2.452   3.239  17.607 -0.1185  0.8113  0.8566
  321TMC3    C8 4884   2.382   2.974  17.281 -0.0756  1.0790 -0.4464
  321TMC3    O1 4885   2.483   3.176  17.706  0.4145 -0.0585  0.5160
  321TMC3    O2 4886   2.456   2.902  17.351 -0.8049  0.4034  0.0155
  322MPD2     C 4887   0.715   4.320  13.861 -0.5243  0.0355  0.1515
  322MPD2    C1 4888   0.796   4.337  13.973  0.6352 -0.0509 -0.4143
  322MPD2    C2 4889   0.852   4.222  14.044 -0.0377  0.3388 -0.6206
  322MPD2    C3 4890   0.826   4.097  13.999 -0.1420  0.7539  0.2588
  322MPD2    C4 4891   0.750   4.078  13.883  0.8906 -0.0476 -0.2484
  322MPD2    C5 4892   0.700   4.187  13.821  0.3402  0.2581  0.1683
  322MPD2     H 4893   0.906   4.238  14.136 -1.3595  1.3696 -0.0068
  322MPD2    H1 4894   0.718   3.984  13.840  1.8284 -0.1430 -0.7624
  322MPD2    H2 4895   0.657   4.391  13.804  0.2807 -0.5253 -1.3701
  322MPD2    H3 4896   0.637   4.171  13.734  0.3035  2.0609 -0.1435
  322MPD2     N 4897   0.879   3.986  14.074  0.3815  0.1881  0.2106
  322MPD2    H5 4898   0.948   4.016  14.143 -0.0914  0.0500  0.7474
  322MPD2    N1 4899   0.824   4.470  14.014  0.2292  0.0219  0.0710
  322MPD2    H7 4900   0.799   4.549  13.955 -0.5683 -1.1327 -1.1384
  323TMC3    C1 4901   0.885   4.648  14.152 -0.5927  0.5749 -0.2327
  323TMC3    C2 4902   0.950   4.702  14.046  0.6346 -0.8723  0.2037
  323TMC3    C3 4903   1.019   0.084  14.079 -0.1150  0.0394  0.3869
  323TMC3    C4 4904   0.887   4.698  14.278  0.5707  0.3154  0.3559
  323TMC3    C5 4905   0.965   0.070  14.303  0.4184  0.3245 -0.2089
  323TMC3    C6 4906   1.031   0.134  14.201 -0.0006 -0.4203 -0.3158
  323TMC3     C 4907   0.870   4.504  14.140  0.4632 -0.4458  0.2789
  323TMC3     O 4908   0.865   4.436  14.242 -0.0091 -0.4068 -0.2304
  323TMC3     H 4909   0.961   4.644  13.955 -2.8236 -0.3637 -0.5510
  323TMC3    H1 4910   0.847   4.636  14.357 -0.3192  0.2353 -0.1612
  323TMC3    H2 4911   1.086   0.228  14.207 -1.0230  0.2005 -0.6030
  323TMC3    C7 4912   1.035   0.058  14.428 -0.0768  0.0170  0.4358
  323TMC3    C8 4913   1.104   0.138  13.975  0.3186 -0.7577 -1.3050
  323TMC3    O1 4914   0.994   4.716  14.515  0.2604  0.1591 -0.5010
  323TMC3    O2 4915   1.203   0.196  14.019 -0.5666  0.2707 -0.7233
  324MPD2     C 4916   2.462   0.807  14.870 -0.5274 -0.0637  0.0767
  324MPD2    C1 4917   2.479   0.882  14.753 -0.5858 -0.4141 -0.7539
  324MPD2    C2 4918   2.369   0.884  14.664  0.4593  0.1029 -0.6679
  324MPD2    C3 4919   2.243   0.825  14.693  0.1967 -0.5554  0.6916
  324MPD2    C4 4920   2.236   0.760  14.810 -0.1262  0.4408  0.5203
  324MPD2    C5 4921   2.345   0.747  14.896  0.2365  0.4561  1.0537
  324MPD2     H 4922   2.383   0.949  14.579  0.1112  0.8142 -0.1834
  324MPD2    H1 4923   2.145   0.711  14.844  1.0990 -0.8465  1.9300
  324MPD2    H2 4924   2.544   0.789  14.938 -1.7033 -1.3892  1.1308
  324MPD2    H3 4925   2.329   0.687  14.985  1.5572 -1.8014 -0.2418
  324MPD2     N 4926   2.124   0.837  14.620 -0.1254  0.1557 -0.3710
  324MPD2    H5 4927   2.044   0.825  14.681  0.8989  0.2106  0.9986
  324MPD2    N1 4928   2.601   0.944  14.709 -0.1057 -0.4212  0.0046
  324MPD2    H7 4929   2.592   1.007  14.630  4.0480 -1.9897 -1.7446
  325TMC3    C1 4930   1.979   0.934  14.474  0.4297 -0.0753 -0.1280
  325TMC3    C2 4931   1.875   0.860  14.517  0.1317 -0.0763  0.2666
  325TMC3    C3 4932   1.755   0.922  14.517 -0.3669  0.7569  0.4666
  325TMC3    C4 4933   1.968   1.068  14.460  0.4859 -0.0249  0.1535
  325TMC3    C5 4934   1.850   1.128  14.479 -0.0882 -0.0835  0.3036
  325TMC3    C6 4935   1.735   1.056  14.499 -0.7822  0.3037  0.6104
  325TMC3     C 4936   2.113   0.896  14.498 -0.0107 -0.2496 -0.3124
  325TMC3     O 4937   2.199   0.933  14.422 -0.1840  0.1466 -0.0745
  325TMC3     H 4938   1.864   0.754  14.537  3.7243 -0.6189 -0.6235
  325TMC3    H1 4939   2.040   1.128  14.405 -0.3603  0.5374 -0.3352
  325TMC3    H2 4940   1.636   1.100  14.485 -0.3968  0.8755 -0.2941
  325TMC3    C7 4941   1.837   1.268  14.445  0.0261 -0.6952  0.2213
  325TMC3    C8 4942   1.639   0.842  14.504 -0.1022 -0.3724  0.7723
  325TMC3    O1 4943   1.912   1.338  14.386  0.3389  0.5038 -0.2962
  325TMC3    O2 4944   1.640   0.748  14.422 -0.0842 -0.5511  0.2669
  326MPD2     C 4945   3.469   1.995  11.220 -0.4540 -0.5498 -0.4123
  326MPD2    C1 4946   3.523   1.998  11.091 -0.4022 -0.2662  0.0800
  326MPD2    C2 4947   3.627   2.080  11.068  0.3455 -0.5828  0.1058
  326MPD2    C3 4948   3.685   2.152  11.170 -0.1095  1.0454  0.6269
  326MPD2    C4 4949   3.629   2.154  11.289 -0.7088 -0.8091 -0.3963
  326MPD2    C5 4950   3.522   2.074  11.313 -0.5572 -0.3286  0.5577
  326MPD2     H 4951   3.662   2.081  10.965  0.4031  2.9755  0.1432
  326MPD2    H1 4952   3.681   2.205  11.370 -1.2257 -2.2794  0.8637
  326MPD2    H2 4953   3.392   1.925  11.250 -1.1368  0.5776  0.4608
  326MPD2    H3 4954   3.472   2.075  11.409  0.6959  1.4130  1.1849
  326MPD2     N 4955   3.805   2.230  11.155  0.3449  0.0501  0.1373
  326MPD2    H5 4956   3.822   2.303  11.224 -0.4435  1.0591 -0.7408
  326MPD2    N1 4957   3.477   1.927  10.981 -0.1436 -0.4748  0.1599
  326MPD2    H7 4958   3.519   1.957  10.893  4.3530 -1.0952  2.1134
  327TMC3    C1 4959   3.399   1.757  10.857  0.3870 -0.9936  0.4770
  327TMC3    C2 4960   3.290   1.769  10.773 -0.3211  0.1729  0.0053
  327TMC3    C3 4961   3.315   1.762  10.640  0.4744 -0.5920 -0.4727
  327TMC3    C4 4962   3.526   1.751  10.811  0.0719  0.0555 -0.5559
  327TMC3    C5 4963   3.543   1.733  10.676 -0.0001  0.4232  0.2055
  327TMC3    C6 4964   3.437   1.734  10.591  0.2413 -0.0825  0.5639
  327TMC3     C 4965   3.381   1.831  10.977  0.1007 -0.0685  0.4878
  327TMC3     O 4966   3.330   1.768  11.065 -0.3945  0.6685  0.3427
  327TMC3     H 4967   3.193   1.769  10.820 -0.2471  2.4395  0.1932
  327TMC3    H1 4968   3.613   1.750  10.875 -0.0141 -3.4365 -0.4797
  327TMC3    H2 4969   3.459   1.721  10.485 -0.7586 -0.2222  0.3706
  327TMC3    C7 4970   3.676   1.755  10.615 -0.4223  0.1280 -0.0928
  327TMC3    C8 4971   3.255   1.861  10.561  0.1735 -0.0244  0.4788
  327TMC3    O1 4972   3.684   1.723  10.497  0.0543 -0.9176 -0.6391
  327TMC3    O2 4973   3.339   1.916  10.487 -0.2280 -0.4309 -0.0257
  328MPD2     C 4974   1.590   2.299  17.361 -0.5470  0.1429 -0.6386
  328MPD2    C1 4975   1.479   2.217  17.382 -0.2295 -0.5415 -0.8004
  328MPD2    C2 4976   1.361   2.236  17.308 -0.0606  0.0272  0.0111
  328MPD2    C3 4977   1.363   2.337  17.209  0.7424 -0.4387 -0.3639
  328MPD2    C4 4978   1.468   2.419  17.186 -0.5949 -0.3649 -0.3109
  328MPD2    C5 4979   1.584   2.400  17.263  0.4544  0.1343 -0.7392
  328MPD2     H 4980   1.263   2.196  17.330 -0.1820 -0.5437 -1.5515
  328MPD2    H1 4981   1.459   2.491  17.105 -2.2563  0.6369  0.7423
  328MPD2    H2 4982   1.680   2.285  17.419 -0.8239  3.2258  0.5280
  328MPD2    H3 4983   1.668   2.464  17.239  1.9773 -1.5615  0.0750
  328MPD2     N 4984   1.248   2.361  17.125  0.2695 -0.1092 -0.2150
  328MPD2    H5 4985   1.257   2.443  17.065 -0.8387  0.3740  0.2770
  328MPD2    N1 4986   1.480   2.123  17.484 -0.3148  0.4379 -0.0881
  328MPD2    H7 4987   1.557   2.141  17.548  1.4944  0.0688 -2.1314
  329TMC3    C1 4988   1.412   1.958  17.633 -0.0523  0.1851  0.5030
  329TMC3    C2 4989   1.486   2.027  17.729  0.2216 -0.1743  0.5475
  329TMC3    C3 4990   1.489   1.967   0.111 -0.4676  0.2987  0.0223
  329TMC3    C4 4991   1.344   1.843  17.653  0.9400  0.1935  0.0864
  329TMC3    C5 4992   1.365   1.786   0.034 -0.2837 -0.0375  0.4391
  329TMC3    C6 4993   1.445   1.840   0.132 -0.2044  0.6489  0.2730
  329TMC3     C 4994   1.377   2.039  17.519  0.2415 -0.0532  0.2698
  329TMC3     O 4995   1.271   2.007  17.469  0.0898  0.1486  0.4930
  329TMC3     H 4996   1.532   2.124  17.724 -2.2435  0.8547 -2.1581
  329TMC3    H1 4997   1.276   1.808  17.576 -0.1527 -0.8100  1.5052
  329TMC3    H2 4998   1.461   1.794   0.229 -0.9589  0.4445  0.2968
  329TMC3    C7 4999   1.315   1.649   0.035  0.1335  0.4715  0.1421
  329TMC3    C8 5000   1.573   2.026   0.220 -0.3305  0.7516  0.4596
  329TMC3    O1 5001   1.275   1.601  17.672 -0.0343  0.3174 -0.1132
  329TMC3    O2 5002   1.668   1.974   0.275 -0.0840 -0.1118 -0.0636
  330TMC3    C1 5003   4.374   1.419   9.337  0.0285  0.2557 -0.7978
  330TMC3    C2 5004   4.307   1.311   9.295 -0.6292  0.8665 -0.2532
  330TMC3    C3 5005   4.294   1.198   9.374 -0.3560 -0.5880 -0.8917
  330TMC3    C4 5006   4.414   1.417   9.470  0.4852  0.2204 -0.4103
  330TMC3    C5 5007   4.414   1.302   9.547  1.1198 -0.0691  0.3616
  330TMC3    C6 5008   4.357   1.184   9.497 -0.4082 -0.1403  0.6524
  330TMC3     C 5009   4.314   1.546   9.308  0.4976  0.1921 -0.0557
  330TMC3     O 5010   4.378   1.647   9.335  0.1269 -0.4987  0.1320
  330TMC3     H 5011   4.262   1.302   9.197 -1.5122  0.4057  0.1925
  330TMC3    H1 5012   4.465   1.504   9.509 -2.1828  0.9754  1.4102
  330TMC3    H2 5013   4.363   1.094   9.557 -0.3797  0.2110  1.1817
  330TMC3    C7 5014   4.501   1.311   9.658 -0.1758  0.1963 -0.3208
  330TMC3    C8 5015   4.211   1.088   9.327  0.0283 -0.5585  0.1005
  330TMC3    O1 5016   4.577   1.408   9.664  0.0828  0.1744  0.7621
  330TMC3    O2 5017   4.185   1.086   9.206  0.0530  0.5699 -0.5983
  331MPD2     C 5018   1.522   0.490  12.982  0.6293 -0.3807  0.0165
  331MPD2    C1 5019   1.601   0.489  12.864 -0.6016 -0.1035  0.5212
  331MPD2    C2 5020   1.609   0.364  12.800 -0.6947  0.0787  0.1697
  331MPD2    C3 5021   1.567   0.248  12.855  0.3073 -0.4408 -0.1461
  331MPD2    C4 5022   1.498   0.252  12.969  0.5663 -0.5288  0.1306
  331MPD2    C5 5023   1.473   0.370  13.027  0.0757 -0.9328  0.2906
  331MPD2     H 5024   1.662   0.366  12.706 -0.7204  3.4285  0.2422
  331MPD2    H1 5025   1.447   0.163  13.006  3.0407 -2.0376 -0.1270
  331MPD2    H2 5026   1.489   0.581  13.029 -1.4088 -0.0238 -2.1284
  331MPD2    H3 5027   1.405   0.358  13.111 -0.0016  1.2676  0.5359
  331MPD2     N 5028   1.599   0.131  12.786 -0.2519 -0.4075  0.6734
  331MPD2    H5 5029   1.631   0.137  12.690  0.7070 -2.3235  0.8616
  331MPD2    N1 5030   1.650   0.610  12.809 -0.3777  0.0518  0.1038
  331MPD2    H7 5031   1.618   0.697  12.850 -2.9842 -1.0310  0.3407
  332TMC3    C1 5032   1.687   4.644  12.769  0.4357  0.1456  0.0171
  332TMC3    C2 5033   1.754   4.688  12.655  0.2693  0.0541 -0.1259
  332TMC3    C3 5034   1.853   4.602  12.614  0.1387 -0.4053  0.8190
  332TMC3    C4 5035   1.749   4.560  12.862  0.2641  0.2867 -0.1105
  332TMC3    C5 5036   1.866   4.495  12.824  0.2849  0.0669  0.1200
  332TMC3    C6 5037   1.913   4.512  12.699  0.1472 -0.0745  0.7433
  332TMC3     C 5038   1.601   0.003  12.843  0.6275  0.2227 -0.4198
  332TMC3     O 5039   1.546   4.703  12.941  0.4069  0.3252 -0.3939
  332TMC3     H 5040   1.686   4.720  12.578  2.2701  1.6645 -1.1947
  332TMC3    H1 5041   1.704   4.533  12.957 -1.9294 -1.0504 -1.5104
  332TMC3    H2 5042   1.989   4.454  12.649  0.0437  0.4736 -0.0579
  332TMC3    C7 5043   1.931   4.402  12.913  0.8418 -0.5183 -1.0262
  332TMC3    C8 5044   1.821   4.551  12.482  0.2512 -0.6632 -0.1579
  332TMC3    O1 5045   1.871   4.352  13.004  0.3454 -0.4175 -0.1690
  332TMC3    O2 5046   1.833   4.431  12.465 -0.4367  0.1981 -0.4482
  333MPD2     C 5047   1.977   0.777  11.254  0.4982 -0.5222  0.3406
  333MPD2    C1 5048   2.041   0.708  11.152 -0.1272  0.4455 -0.3790
  333MPD2    C2 5049   2.029   0.571  11.147  0.8686  0.1918  0.1520
  333MPD2    C3 5050   1.958   0.502  11.253 -0.4436 -0.7158 -0.2763
  333MPD2    C4 5051   1.894   0.570  11.350  0.9697 -0.3678  0.1813
  333MPD2    C5 5052   1.901   0.705  11.347 -0.4640  0.0505 -0.5148
  333MPD2     H 5053   2.065   0.502  11.072 -0.6076 -0.4823  0.0569
  333MPD2    H1 5054   1.837   0.535  11.436 -0.1163 -1.2871 -0.9166
  333MPD2    H2 5055   1.984   0.883  11.272 -0.4642 -0.6905  1.7130
  333MPD2    H3 5056   1.843   0.764  11.418 -0.3888  1.1838 -1.4012
  333MPD2     N 5057   1.969   0.358  11.261 -0.4174  0.0156 -0.0335
  333MPD2    H5 5058   2.019   0.311  11.186 -1.1078 -2.7745  1.2339
  333MPD2    N1 5059   2.108   0.783  11.052  0.3891  0.0002  0.2453
  333MPD2    H7 5060   2.117   0.883  11.065 -1.7729  0.1029  0.8954
  334TMC3    C1 5061   2.236   0.818  10.856  0.0983 -0.0800 -0.0992
  334TMC3    C2 5062   2.335   0.777  10.772 -0.1592  0.5932  0.1392
  334TMC3    C3 5063   2.418   0.870  10.716 -0.3507 -0.3738 -0.1733
  334TMC3    C4 5064   2.217   0.952  10.876 -0.3364  0.8701  0.6331
  334TMC3    C5 5065   2.296   1.045  10.813 -0.4497  0.0309  0.5246
  334TMC3    C6 5066   2.405   1.004  10.739 -0.0708 -0.5796  0.6062
  334TMC3     C 5067   2.171   0.719  10.942 -1.0944  0.4040  0.1209
  334TMC3     O 5068   2.187   0.602  10.904 -0.7223 -0.4537  0.0544
  334TMC3     H 5069   2.338   0.675  10.736  1.0400  0.1625  1.4610
  334TMC3    H1 5070   2.150   0.989  10.953  0.9071  1.9509  1.2042
  334TMC3    H2 5071   2.471   1.079  10.697  0.4361 -0.7397  1.1232
  334TMC3    C7 5072   2.248   1.181  10.802 -0.2151 -1.2904  0.3275
  334TMC3    C8 5073   2.501   0.832  10.602 -0.8576  0.2561  0.5828
  334TMC3    O1 5074   2.338   1.267  10.790  0.4205  0.0990 -0.4948
  334TMC3    O2 5075   2.472   0.724  10.544 -0.1896 -0.1941 -0.1564
  335TMC3    C1 5076   2.257   2.063  17.518  0.8494 -0.0494 -0.5124
  335TMC3    C2 5077   2.188   2.010  17.412  0.0392 -0.0141 -0.1782
  335TMC3    C3 5078   2.263   1.960  17.305 -0.3492 -0.8693  0.0243
  335TMC3    C4 5079   2.393   2.085  17.515  0.0563 -0.2061  0.0232
  335TMC3    C5 5080   2.463   2.040  17.405 -0.0986 -0.1693 -0.1303
  335TMC3    C6 5081   2.403   1.967  17.307 -0.5902 -0.4092  0.6006
  335TMC3     C 5082   2.188   2.110  17.630 -0.2423 -1.2984 -0.1240
  335TMC3     O 5083   2.076   2.068  17.657  0.1558 -0.2642  0.3104
  335TMC3     H 5084   2.080   2.019  17.405 -0.0110 -0.8783 -0.5489
  335TMC3    H1 5085   2.450   2.115  17.602  0.4792  1.7177 -0.9380
  335TMC3    H2 5086   2.463   1.947  17.219  0.4035  0.2611  1.1376
  335TMC3    C7 5087   2.612   2.056  17.401  0.0260  0.0511  0.5590
  335TMC3    C8 5088   2.200   1.891  17.195 -0.4910 -0.0256  0.4029
  335TMC3    O1 5089   2.668   1.966  17.339 -0.1579  0.1378 -0.9118
  335TMC3    O2 5090   2.258   1.902  17.089  0.5596 -0.0861 -0.6514
  336MPD2     C 5091   1.942   0.202  16.609 -0.4609  0.5918  0.1302
  336MPD2    C1 5092   1.894   0.158  16.477 -0.1836 -0.7505  0.0745
  336MPD2    C2 5093   1.922   0.028  16.445 -0.4046 -0.9429  0.5441
  336MPD2    C3 5094   1.959   4.671  16.543 -0.0804  1.3098 -0.1772
  336MPD2    C4 5095   1.991   4.717  16.672 -0.2093  0.0112  0.6205
  336MPD2    C5 5096   1.988   0.115  16.702 -0.3179  0.1019 -0.4115
  336MPD2     H 5097   1.911   0.001  16.341  1.0540  1.2867 -0.2006
  336MPD2    H1 5098   2.001   4.645  16.752  1.6989 -2.0294 -1.4883
  336MPD2    H2 5099   1.933   0.308  16.633 -0.2033  0.5676  0.3283
  336MPD2    H3 5100   2.015   0.164  16.795 -2.2701 -0.8552  0.6463
  336MPD2     N 5101   1.982   4.539  16.532  0.1527 -0.2761 -0.2314
  336MPD2    H5 5102   2.022   4.483  16.606 -0.8253 -0.1316  0.3991
  336MPD2    N1 5103   1.831   0.244  16.388  0.6217 -0.4162 -0.5869
  336MPD2    H7 5104   1.801   0.207  16.298  1.9169  0.7057 -1.4832
  337TMC3    C1 5105   1.713   0.440  16.326 -0.1525  0.9324 -0.1860
  337TMC3    C2 5106   1.629   0.363  16.240  0.0466 -1.0425  0.0356
  337TMC3    C3 5107   1.517   0.421  16.183  0.4061  0.0376  0.1764
  337TMC3    C4 5108   1.699   0.577  16.331 -0.7772  0.5358 -0.1328
  337TMC3    C5 5109   1.594   0.634  16.253 -0.7725 -0.0810  0.1326
  337TMC3    C6 5110   1.500   0.556  16.189  0.5911  0.5303 -0.7108
  337TMC3     C 5111   1.821   0.381  16.406  0.4529  0.9228  1.1121
  337TMC3     O 5112   1.887   0.450  16.480 -0.5043 -0.2276 -0.6651
  337TMC3     H 5113   1.645   0.256  16.235  0.6480 -0.9228 -0.6430
  337TMC3    H1 5114   1.760   0.633  16.402 -1.1427 -0.3314  0.8752
  337TMC3    H2 5115   1.407   0.595  16.150  0.2581 -1.2462 -1.7117
  337TMC3    C7 5116   1.578   0.781  16.262 -0.2827 -0.1971  0.5807
  337TMC3    C8 5117   1.405   0.331  16.146  0.5598  0.2116  0.6940
  337TMC3    O1 5118   1.632   0.838  16.353 -0.0754  0.9571  0.9154
  337TMC3    O2 5119   1.423   0.211  16.164 -0.5177 -0.6170 -0.6381
  338MPD2     C 5120   2.541   3.659   0.865  0.0065 -0.3231  0.5544
  338MPD2    C1 5121   2.448   3.644   0.761  0.0137  0.0809  0.3755
  338MPD2    C2 5122   2.352   3.746   0.743  0.0987  0.0385  0.0614
  338MPD2    C3 5123   2.347   3.859   0.820  0.0569 -0.2624 -0.5009
  338MPD2    C4 5124   2.444   3.876   0.915 -0.0709 -0.4263 -0.2315
  338MPD2    C5 5125   2.542   3.781   0.920 -0.6054  0.3382  0.0910
  338MPD2     H 5126   2.285   3.736   0.658  0.0397 -0.9676  0.2222
  338MPD2    H1 5127   2.440   3.956   0.988 -0.9783 -0.6249 -0.0604
  338MPD2    H2 5128   2.617   3.590   0.900 -0.7521 -1.4434 -0.0304
  338MPD2    H3 5129   2.618   3.801   0.995 -0.3118  0.5377 -0.2597
  338MPD2     N 5130   2.234   3.947   0.794  0.5179  0.1484 -0.5002
  338MPD2    H5 5131   2.169   3.906   0.728  0.9005  0.4207 -1.0542
  338MPD2    N1 5132   2.460   3.532   0.665  0.3105 -0.0570  0.4717
  338MPD2    H7 5133   2.395   3.535   0.587 -0.1389  0.1573  0.8557
  339TMC3    C1 5134   2.085   4.116   0.821  0.1424  0.0570  0.1477
  339TMC3    C2 5135   2.056   4.238   0.875 -0.5981  0.3282 -0.6844
  339TMC3    C3 5136   1.930   4.284   0.845  0.2493  0.4195  0.2251
  339TMC3    C4 5137   2.002   4.056   0.727  0.3554  0.9339  0.5114
  339TMC3    C5 5138   1.885   4.120   0.691 -0.3940  0.0605  0.0062
  339TMC3    C6 5139   1.846   4.229   0.753 -0.0466  0.1837  0.1109
  339TMC3     C 5140   2.212   4.062   0.860 -0.0858 -1.5413  0.2610
  339TMC3     O 5141   2.285   4.114   0.948 -0.0777  0.2053 -0.2281
  339TMC3     H 5142   2.131   4.283   0.940 -1.5272 -1.6231  1.7418
  339TMC3    H1 5143   2.017   3.955   0.690  0.1672  0.4642  1.6994
  339TMC3    H2 5144   1.749   4.269   0.727  0.0314  0.3253  0.0317
  339TMC3    C7 5145   1.824   4.096   0.559 -0.1881 -0.1582  0.0364
  339TMC3    C8 5146   1.873   4.388   0.923 -0.2963 -0.0492 -0.5296
  339TMC3    O1 5147   1.742   4.179   0.517 -0.5375  0.4523  0.7458
  339TMC3    O2 5148   1.950   4.467   0.978  0.2830  0.1934  0.3737
  340MPD2     C 5149   2.156   1.708  10.513 -0.0470  0.4113  0.4393
  340MPD2    C1 5150   2.171   1.803  10.414  0.0768 -0.2619 -0.0316
  340MPD2    C2 5151   2.294   1.840  10.364 -0.4088 -0.5046 -0.0598
  340MPD2    C3 5152   2.406   1.789  10.423  0.1152  0.2834 -0.2265
  340MPD2    C4 5153   2.394   1.695  10.530 -0.1654 -0.0853 -0.2020
  340MPD2    C5 5154   2.268   1.654  10.571  0.6418 -0.0533 -0.0596
  340MPD2     H 5155   2.297   1.891  10.269 -1.5291  0.6085  0.5088
  340MPD2    H1 5156   2.477   1.638  10.572  0.3222  0.3265 -0.6077
  340MPD2    H2 5157   2.060   1.678  10.551 -0.2248  0.3877 -0.0206
  340MPD2    H3 5158   2.253   1.575  10.644  2.1090  0.3421  0.6697
  340MPD2     N 5159   2.539   1.812  10.379  0.6075 -0.4428  0.0331
  340MPD2    H5 5160   2.610   1.749  10.414  3.2209  2.1157 -0.6887
  340MPD2    N1 5161   2.055   1.830  10.340 -0.2441  0.4574  0.3626
  340MPD2    H7 5162   1.973   1.772  10.355  0.3437  0.0080  1.8435
  341TMC3    C1 5163   1.932   1.904  10.151  0.3505  0.4203 -0.1509
  341TMC3    C2 5164   1.853   1.793  10.184 -1.2503  0.0538 -0.6257
  341TMC3    C3 5165   1.802   1.726  10.080 -0.4183 -0.5945 -0.0010
  341TMC3    C4 5166   1.959   1.952  10.026 -0.5310 -0.3355  0.3170
  341TMC3    C5 5167   1.910   1.871   9.925 -0.8666  0.0902 -0.9041
  341TMC3    C6 5168   1.843   1.755   9.947 -0.3429 -0.2382 -0.3546
  341TMC3     C 5169   2.039   1.927  10.243 -0.3669  0.2755  0.1753
  341TMC3     O 5170   2.106   2.027  10.218 -0.3885  0.0662 -0.6213
  341TMC3     H 5171   1.824   1.780  10.287  0.7695 -0.3882 -0.1221
  341TMC3    H1 5172   2.021   2.040  10.015 -0.7734 -0.0055  1.6151
  341TMC3    H2 5173   1.836   1.676   9.873  1.4674  1.0852 -1.9511
  341TMC3    C7 5174   1.982   1.876   9.799 -0.4314 -0.1268  0.4596
  341TMC3    C8 5175   1.771   1.589  10.107  0.0884  0.7932  0.5469
  341TMC3    O1 5176   1.998   1.765   9.748 -0.0021  0.2394 -0.0832
  341TMC3    O2 5177   1.765   1.505  10.021  0.4231  0.1436  0.0719
  342MPD2     C 5178   0.086   0.361  17.538 -0.0641 -0.2823 -0.1638
  342MPD2    C1 5179   0.184   0.370  17.441  0.3521  0.2432 -0.2297
  342MPD2    C2 5180   0.257   0.488  17.436 -0.1990  0.0005 -0.1148
  342MPD2    C3 5181   0.234   0.588  17.525 -0.2483 -0.0512 -0.1576
  342MPD2    C4 5182   0.129   0.578  17.618  0.4374 -0.2262  0.0888
  342MPD2    C5 5183   0.060   0.460  17.632 -0.4496 -0.0046  0.0406
  342MPD2     H 5184   0.344   0.490  17.372  0.4332  3.7066  0.8295
  342MPD2    H1 5185   0.117   0.660  17.687 -0.6256 -2.4077  2.4969
  342MPD2    H2 5186   0.019   0.275  17.539  0.0961 -0.3874  1.8290
  342MPD2    H3 5187   4.714   0.443  17.700 -0.7745  2.7301  0.3395
  342MPD2     N 5188   0.312   0.714  17.532 -0.2573  0.6675  1.0838
  342MPD2    H5 5189   0.279   0.787  17.594  0.4897  0.2427  1.9801
  342MPD2    N1 5190   0.212   0.270  17.352  0.6270 -0.6974 -0.5543
  342MPD2    H7 5191   0.279   0.295  17.280  0.3772  0.0118 -0.5369
  343TMC3    C1 5192   0.209   0.040  17.268  0.3392  0.4297  0.3236
  343TMC3    C2 5193   0.306   0.071  17.174  0.7200 -0.0538  0.1970
  343TMC3    C3 5194   0.336   4.717  17.081 -0.0914 -0.0354  0.2047
  343TMC3    C4 5195   0.146   4.659  17.268  0.1081  0.1858  0.5849
  343TMC3    C5 5196   0.178   4.569  17.163 -0.9591 -1.0318  0.3206
  343TMC3    C6 5197   0.274   4.594  17.072 -0.5216  0.2292  0.0495
  343TMC3     C 5198   0.176   0.140  17.376 -0.9339 -0.1448 -0.0129
  343TMC3     O 5199   0.134   0.083  17.480 -0.1022  0.0861  0.1383
  343TMC3     H 5200   0.345   0.173  17.171  1.3081 -0.3159 -1.2077
  343TMC3    H1 5201   0.083   4.630  17.351 -0.7576 -1.4881 -0.6577
  343TMC3    H2 5202   0.298   4.515  17.002 -0.4541  1.2987 -1.1474
  343TMC3    C7 5203   0.120   4.433  17.159 -0.2569 -0.4336  0.2476
  343TMC3    C8 5204   0.457   0.007  17.001 -1.0187 -0.5999 -0.7047
  343TMC3    O1 5205   0.138   4.360  17.063 -0.5477 -0.1426 -0.6713
  343TMC3    O2 5206   0.517   0.108  17.021 -0.0802  0.4557 -0.1351
  344MPD2     C 5207   1.096   4.525  11.554 -0.1904 -0.0948 -0.0047
  344MPD2    C1 5208   1.067   4.471  11.433 -0.5131 -0.5805 -0.3728
  344MPD2    C2 5209   1.077   4.542  11.316  0.4952 -0.1310  0.2443
  344MPD2    C3 5210   1.126   4.664  11.311 -0.2020 -0.4291 -0.2541
  344MPD2    C4 5211   1.168   4.717  11.429  0.2367  0.4074  0.7447
  344MPD2    C5 5212   1.142   4.653  11.547 -0.0236 -0.0304  0.0876
  344MPD2     H 5213   1.047   4.493  11.224  1.3074  1.3403 -0.7957
  344MPD2    H1 5214   1.217   0.077  11.438  1.0858  0.0817 -0.4530
  344MPD2    H2 5215   1.095   4.466  11.645  1.9893  1.5350  1.0852
  344MPD2    H3 5216   1.173   4.696  11.641  0.0748 -0.4949  0.2714
  344MPD2     N 5217   1.142   4.727  11.181  1.3691  0.4000  0.4884
  344MPD2    H5 5218   1.190   0.081  11.181  0.4738  0.8897 -1.2290
  344MPD2    N1 5219   1.026   4.335  11.420  1.1318  0.0847  0.5528
  344MPD2    H7 5220   1.007   4.303  11.325 -0.7530 -1.3556  1.4148
  345TMC3    C1 5221   1.125   0.029  10.956 -0.1639  0.7212  0.1750
  345TMC3    C2 5222   1.262   0.047  10.936  0.6789 -0.5974 -0.2694
  345TMC3    C3 5223   1.304   0.092  10.809  0.4781  0.4570  0.2971
  345TMC3    C4 5224   1.029   0.058  10.858 -0.4735 -0.4305 -0.7994
  345TMC3    C5 5225   1.078   0.085  10.736  0.0582  0.0403 -0.7599
  345TMC3    C6 5226   1.208   0.104  10.712  0.2489 -0.0583  0.2509
  345TMC3     C 5227   1.071   4.700  11.069 -0.0321  0.2881 -0.1656
  345TMC3     O 5228   0.965   4.643  11.065 -0.2682 -0.0749  0.3413
  345TMC3     H 5229   1.338   0.039  11.013 -0.2108  0.7819  0.7457
  345TMC3    H1 5230   0.924   0.038  10.876 -0.1028 -0.5683  1.2982
  345TMC3    H2 5231   1.237   0.158  10.622 -0.3441 -0.6280 -0.2789
  345TMC3    C7 5232   0.992   0.170  10.661  0.3555  0.0641 -0.1588
  345TMC3    C8 5233   1.385   0.210  10.805 -0.1752  0.0610 -0.3372
  345TMC3    O1 5234   0.908   0.232  10.725  0.6888  0.1832  0.6139
  345TMC3    O2 5235   1.452   0.214  10.706  0.5243 -0.2855  0.3119
  346MPD2     C 5236   0.662   1.184  14.200  0.5526 -0.2361 -0.0707
  346MPD2    C1 5237   0.759   1.278  14.185  0.5347  0.9469  1.1350
  346MPD2    C2 5238   0.822   1.321  14.297 -0.6080 -0.5450 -0.3586
  346MPD2    C3 5239   0.777   1.303  14.421  0.0924 -0.2140 -0.0876
  346MPD2    C4 5240   0.671   1.214  14.437  0.3323  0.3249 -0.9110
  346MPD2    C5 5241   0.618   1.159  14.326  0.1808 -0.4576  0.3905
  346MPD2     H 5242   0.906   1.388  14.278 -2.1373  0.6139 -3.0307
  346MPD2    H1 5243   0.630   1.190  14.534  1.5251 -0.2826 -0.5608
  346MPD2    H2 5244   0.618   1.127  14.119 -0.9158 -1.4712  1.6025
  346MPD2    H3 5245   0.535   1.091  14.340  1.6346 -2.4529 -0.6312
  346MPD2     N 5246   0.857   1.345  14.528  0.6160 -0.0464 -0.2392
  346MPD2    H5 5247   0.926   1.413  14.500  2.0770 -1.4357 -0.0208
  346MPD2    N1 5248   0.807   1.328  14.061 -0.5986 -0.0249  0.1612
  346MPD2    H7 5249   0.888   1.388  14.060 -0.0402 -0.8131 -2.8478
  347TMC3    C1 5250   0.941   1.361  14.752 -0.4055 -0.2383 -1.0665
  347TMC3    C2 5251   1.047   1.426  14.698 -0.2348  0.4425  0.6111
  347TMC3    C3 5252   1.152   1.448  14.783  0.0152  0.0399 -0.1605
  347TMC3    C4 5253   0.927   1.334  14.889  0.1243 -0.0537 -0.0629
  347TMC3    C5 5254   1.039   1.358  14.968 -0.3764 -0.2121  0.1555
  347TMC3    C6 5255   1.151   1.412  14.916 -0.0647  0.5783 -0.0374
  347TMC3     C 5256   0.845   1.307  14.663 -0.8555  0.4876 -0.1760
  347TMC3     O 5257   0.767   1.228  14.710  0.4927 -0.5307  0.1594
  347TMC3     H 5258   1.055   1.451  14.593  1.5398  1.0725  0.8912
  347TMC3    H1 5259   0.830   1.311  14.930  0.6187  0.5129  1.4614
  347TMC3    H2 5260   1.228   1.449  14.981 -1.1980 -1.0936  2.2734
  347TMC3    C7 5261   1.010   1.379  15.108 -0.8139 -0.1391 -0.0127
  347TMC3    C8 5262   1.285   1.435  14.728  0.1759  0.4418  0.9928
  347TMC3    O1 5263   0.899   1.410  15.141 -0.5212 -0.0341  0.0890
  347TMC3    O2 5264   1.368   1.378  14.796 -0.1975 -0.1820  0.1495
  348MPD2     C 5265   4.715   1.086  12.002 -0.5911  0.0413 -0.2953
  348MPD2    C1 5266   4.601   1.030  11.942 -0.6901 -0.1567 -0.4583
  348MPD2    C2 5267   4.574   1.072  11.814 -0.0318  0.3226  1.2902
  348MPD2    C3 5268   4.647   1.168  11.744 -0.7663 -0.1013  0.0985
  348MPD2    C4 5269   0.028   1.219  11.808  0.3731  0.8320 -0.3715
  348MPD2    C5 5270   0.057   1.172  11.934 -0.3871  0.5474  0.1185
  348MPD2     H 5271   4.485   1.032  11.767 -1.2094  3.9135  0.4417
  348MPD2    H1 5272   0.090   1.300  11.772 -1.4709  1.8798 -1.2107
  348MPD2    H2 5273   0.013   1.069  12.104  1.8531  0.6338 -1.0094
  348MPD2    H3 5274   0.134   1.228  11.985  3.5543 -1.5696 -3.4530
  348MPD2     N 5275   4.596   1.217  11.620  0.3651 -0.3154  0.9232
  348MPD2    H5 5276   4.509   1.176  11.587 -0.1673 -0.4431  2.4343
  348MPD2    N1 5277   4.511   0.939  12.005 -0.0014 -0.2886  0.0472
  348MPD2    H7 5278   4.437   0.902  11.946 -0.5141  1.7785 -0.5968
  349TMC3    C1 5279   4.423   0.795  12.154 -0.3320  0.1255  0.3375
  349TMC3    C2 5280   4.454   0.694  12.239  0.0230 -0.0366  0.3459
  349TMC3    C3 5281   4.353   0.602  12.269  0.2305  0.1428  0.5758
  349TMC3    C4 5282   4.299   0.816  12.100 -0.0409 -0.7624  0.2211
  349TMC3    C5 5283   4.203   0.723  12.133  0.6389 -0.3121 -0.2433
  349TMC3    C6 5284   4.231   0.613  12.205  0.1937  0.4440 -0.7090
  349TMC3     C 5285   4.529   0.885  12.124 -0.5204  0.2143  0.3859
  349TMC3     O 5286   4.624   0.906  12.201  0.0801  0.1082 -0.0849
  349TMC3     H 5287   4.558   0.686  12.268 -0.0353  3.0123  1.4193
  349TMC3    H1 5288   4.266   0.895  12.034 -1.3121 -1.4404  0.0524
  349TMC3    H2 5289   4.161   0.532  12.221  0.9422 -0.1411 -0.3853
  349TMC3    C7 5290   4.070   0.750  12.092 -0.9682  0.6705  0.3973
  349TMC3    C8 5291   4.397   0.477  12.321  0.4118  0.1347  1.3914
  349TMC3    O1 5292   4.060   0.826  11.993  0.1152  0.1558 -0.4804
  349TMC3    O2 5293   4.519   0.476  12.346  0.6254  0.0671 -0.4670
  350MPD2     C 5294   4.630   3.388  10.480  0.1807 -0.1370  0.4309
  350MPD2    C1 5295   4.501   3.406  10.423 -0.2988  0.3462 -0.4727
  350MPD2    C2 5296   4.407   3.483  10.491 -0.2508  0.1563 -0.1197
  350MPD2    C3 5297   4.447   3.548  10.606 -0.0181 -0.6603 -0.4643
  350MPD2    C4 5298   4.568   3.523  10.665  0.2173 -0.2575  0.4302
  350MPD2    C5 5299   4.659   3.447  10.602 -0.0207 -0.6262  0.0851
  350MPD2     H 5300   4.310   3.491  10.444  1.1909  1.3406 -2.9739
  350MPD2    H1 5301   4.611   3.560  10.758 -1.6858 -0.0696  1.2336
  350MPD2    H2 5302   4.706   3.327  10.433  0.0323 -0.0365  0.0630
  350MPD2    H3 5303   0.021   3.436  10.646  0.9673  0.0651 -1.9449
  350MPD2     N 5304   4.351   3.634  10.674 -0.1384  0.0162 -0.1190
  350MPD2    H5 5305   4.385   3.671  10.762 -2.3940  0.0695  0.7294
  350MPD2    N1 5306   4.443   3.325  10.317 -0.1657 -0.1794 -0.0303
  350MPD2    H7 5307   4.346   3.335  10.288 -0.0886  1.1779  0.2189
  351TMC3    C1 5308   4.429   3.144  10.167 -0.5001 -0.1191  0.0764
  351TMC3    C2 5309   4.505   3.054  10.101 -0.0243 -0.5009 -0.2538
  351TMC3    C3 5310   4.440   2.944  10.048 -0.3163  0.3303  0.1212
  351TMC3    C4 5311   4.297   3.129  10.197 -0.6424  0.8189 -0.1813
  351TMC3    C5 5312   4.232   3.023  10.139  0.3905  0.7652 -0.1738
  351TMC3    C6 5313   4.300   2.931  10.062 -0.2362  0.2327 -0.2019
  351TMC3     C 5314   4.515   3.238  10.241  0.2419  0.0262 -0.8698
  351TMC3     O 5315   4.636   3.214  10.241 -0.2099  0.6711 -0.0370
  351TMC3     H 5316   4.610   3.074  10.079 -0.3274  0.8201 -0.5186
  351TMC3    H1 5317   4.261   3.174  10.289 -2.0915 -2.0456  0.6492
  351TMC3    H2 5318   4.246   2.852  10.012  0.3158  0.3598 -0.9890
  351TMC3    C7 5319   4.097   2.990  10.179  0.0224 -0.0940 -0.1549
  351TMC3    C8 5320   4.515   2.833   9.995  0.2380 -0.4875  0.1090
  351TMC3    O1 5321   4.062   2.874  10.159  0.7518  0.1915  0.0949
  351TMC3    O2 5322   4.462   2.745   9.929 -0.1007  0.5344 -0.4760
  352MPD2     C 5323   2.514   1.360   0.776 -0.2222 -0.6772  0.6409
  352MPD2    C1 5324   2.434   1.265   0.832  0.1246 -0.7419 -0.0382
  352MPD2    C2 5325   2.444   1.138   0.782  0.4191 -0.0742 -0.0176
  352MPD2    C3 5326   2.517   1.112   0.666 -0.4463  0.1994 -0.5967
  352MPD2    C4 5327   2.609   1.207   0.621  0.3064 -0.1847  0.1105
  352MPD2    C5 5328   2.600   1.333   0.676  0.1959 -0.5759 -0.2505
  352MPD2     H 5329   2.384   1.059   0.825  0.0977 -0.6308 -1.4811
  352MPD2    H1 5330   2.678   1.187   0.540 -0.0463 -2.3075  0.3337
  352MPD2    H2 5331   2.516   1.457   0.825 -0.6297 -0.1253 -0.4298
  352MPD2    H3 5332   2.665   1.413   0.643 -1.0118  0.1702 -0.8036
  352MPD2     N 5333   2.529   0.981   0.616 -0.0310  0.2323 -0.4234
  352MPD2    H5 5334   2.611   0.958   0.561  0.7806  1.2815  0.3458
  352MPD2    N1 5335   2.354   1.300   0.940  0.3502  0.5092 -0.2474
  352MPD2    H7 5336   2.325   1.398   0.943 -2.5290 -0.3429  0.3962
  353TMC3    C1 5337   2.479   0.776   0.547 -0.4576 -0.0759  0.9149
  353TMC3    C2 5338   2.611   0.754   0.537  0.7661 -0.9965 -0.2727
  353TMC3    C3 5339   2.641   0.637   0.473  0.6676 -0.1975 -0.8893
  353TMC3    C4 5340   2.386   0.693   0.500 -0.9610  0.1488  0.2302
  353TMC3    C5 5341   2.414   0.584   0.432 -0.6879  0.1684 -0.1661
  353TMC3    C6 5342   2.546   0.546   0.420  0.3573 -0.0612  0.1869
  353TMC3     C 5343   2.432   0.886   0.623 -0.3435 -0.6965 -0.2165
  353TMC3     O 5344   2.315   0.903   0.655  0.8810  0.1492 -0.0183
  353TMC3     H 5345   2.687   0.798   0.599 -0.8473  0.9234  0.3410
  353TMC3    H1 5346   2.281   0.720   0.504 -1.3418 -0.9213 -2.3565
  353TMC3    H2 5347   2.575   0.467   0.352  1.0012  1.2734 -1.0854
  353TMC3    C7 5348   2.309   0.513   0.352 -0.3696  0.2108 -0.3775
  353TMC3    C8 5349   2.761   0.576   0.522  0.3295  0.4250  0.4941
  353TMC3    O1 5350   2.202   0.511   0.406 -0.5252 -0.1207  0.4904
  353TMC3    O2 5351   2.861   0.641   0.548  0.1901  0.2717  0.3753
  354TMC3    C1 5352   3.546   2.233  13.491 -0.1799  0.0355  0.2240
  354TMC3    C2 5353   3.472   2.346  13.462 -0.1961  0.0710  0.0123
  354TMC3    C3 5354   3.448   2.374  13.329 -0.4555  0.8673  0.2781
  354TMC3    C4 5355   3.610   2.156  13.395 -0.5465  0.5917 -0.2063
  354TMC3    C5 5356   3.579   2.180  13.264  0.2882  0.1437 -0.0661
  354TMC3    C6 5357   3.503   2.292  13.226 -0.7529 -0.1358  0.4728
  354TMC3     C 5358   3.539   2.169  13.617  0.0939 -0.2387 -0.1582
  354TMC3     O 5359   3.525   2.049  13.626  0.5282  0.2373  0.2984
  354TMC3     H 5360   3.412   2.394  13.538 -0.5174  0.4216 -0.4657
  354TMC3    H1 5361   3.658   2.063  13.424 -4.6974 -2.2432 -2.5539
  354TMC3    H2 5362   3.484   2.311  13.122 -0.5541  2.6526  0.9472
  354TMC3    C7 5363   3.671   2.115  13.167 -0.6118 -0.3994 -0.0445
  354TMC3    C8 5364   3.456   2.516  13.285  0.4021 -0.1689 -0.6973
  354TMC3    O1 5365   3.632   2.070  13.064  0.3565 -0.1507 -0.9733
  354TMC3    O2 5366   3.479   2.534  13.164 -0.1111  0.3925  0.1228
  355MPD2     C 5367   3.634   2.985  11.975 -0.6490  1.0280 -1.3623
  355MPD2    C1 5368   3.688   3.021  11.857 -0.0598  0.0656 -0.4734
  355MPD2    C2 5369   3.825   3.054  11.858 -0.3946  0.0373 -0.3495
  355MPD2    C3 5370   3.907   3.051  11.966 -0.1386  0.1526 -0.1548
  355MPD2    C4 5371   3.846   3.022  12.086  0.6705 -0.2667 -0.4164
  355MPD2    C5 5372   3.711   2.995  12.092  0.2575  0.2321  0.1085
  355MPD2     H 5373   3.864   3.087  11.762  1.4920  1.5706  0.9444
  355MPD2    H1 5374   3.900   3.029  12.180 -0.2500  0.4115  0.0672
  355MPD2    H2 5375   3.536   2.939  11.978 -0.5787  0.8167 -2.2190
  355MPD2    H3 5376   3.661   2.993  12.188  1.0165 -1.0956  0.4848
  355MPD2     N 5377   4.045   3.083  11.961  0.7902  0.2762 -0.8417
  355MPD2    H5 5378   4.095   3.079  12.049 -0.0623 -2.4809 -0.4717
  355MPD2    N1 5379   3.588   3.033  11.756 -0.1105  0.4449  0.0157
  355MPD2    H7 5380   3.499   2.984  11.760 -0.1440  0.6807  2.3599
  356TMC3    C1 5381   4.242   3.188  11.885 -0.5886 -0.5469 -0.3489
  356TMC3    C2 5382   4.323   3.238  11.790  0.6152 -0.9254 -0.2770
  356TMC3    C3 5383   4.393   3.348  11.814  0.1277  0.3596 -0.8003
  356TMC3    C4 5384   4.237   3.253  12.010  0.8787  0.3331  0.0377
  356TMC3    C5 5385   4.314   3.358  12.034  0.3211 -0.5707  0.4371
  356TMC3    C6 5386   4.394   3.412  11.935  0.0591 -0.5634  0.2331
  356TMC3     C 5387   4.115   3.121  11.847  0.8080 -0.1686  1.1821
  356TMC3     O 5388   4.098   3.098  11.729  0.7697 -0.0865 -0.3959
  356TMC3     H 5389   4.333   3.187  11.695  1.6759 -2.0966  0.4642
  356TMC3    H1 5390   4.176   3.223  12.094  0.8302  1.9148  0.5621
  356TMC3    H2 5391   4.442   3.508  11.950 -1.9935  0.3440  1.0024
  356TMC3    C7 5392   4.295   3.429  12.162 -0.0911 -0.2578  0.4268
  356TMC3    C8 5393   4.484   3.399  11.708 -0.6039  0.5287 -0.0696
  356TMC3    O1 5394   4.198   3.397  12.228  0.0714  0.2422 -0.9027
  356TMC3    O2 5395   4.445   3.372  11.595  0.5790 -0.6568 -0.1492
  357MPD2     C 5396   3.727   1.919   1.195  0.0043  0.5188 -0.2304
  357MPD2    C1 5397   3.794   2.012   1.268 -0.3454  0.9035  0.2459
  357MPD2    C2 5398   3.730   2.095   1.351  0.2001 -0.3761  0.1227
  357MPD2    C3 5399   3.593   2.091   1.363  0.2147  0.3131 -0.2603
  357MPD2    C4 5400   3.523   1.992   1.298 -0.0991 -0.1145 -0.2111
  357MPD2    C5 5401   3.589   1.903   1.214  0.8607 -0.0428  0.3177
  357MPD2     H 5402   3.775   2.182   1.396 -0.7817 -1.0769  2.4937
  357MPD2    H1 5403   3.415   1.991   1.291 -0.2377 -1.5423  2.0491
  357MPD2    H2 5404   3.775   1.841   1.136 -0.0382 -1.9820  3.0137
  357MPD2    H3 5405   3.534   1.832   1.154  0.4272 -0.0027  0.6712
  357MPD2     N 5406   3.520   2.177   1.444 -0.0595 -0.6561  0.0100
  357MPD2    H5 5407   3.420   2.163   1.455 -0.0814  0.8163  1.7356
  357MPD2    N1 5408   3.936   2.023   1.238 -0.2275 -0.0022  0.0874
  357MPD2    H7 5409   3.980   1.966   1.167  0.6104  1.3610 -0.4962
  358TMC3    C1 5410   4.154   2.104   1.271  0.3876  0.4088  0.6865
  358TMC3    C2 5411   4.179   2.087   1.136  0.0826 -0.0661 -0.0363
  358TMC3    C3 5412   4.302   2.127   1.087  0.0905 -0.0970  0.8826
  358TMC3    C4 5413   4.244   2.159   1.359 -0.7365  0.5059 -0.3046
  358TMC3    C5 5414   4.364   2.201   1.314  0.6567 -0.4791 -0.4351
  358TMC3    C6 5415   4.393   2.172   1.182 -0.1190  0.0038 -0.0971
  358TMC3     C 5416   4.019   2.094   1.320 -0.4396  0.4943 -0.1579
  358TMC3     O 5417   3.997   2.129   1.435 -0.4251 -0.4939 -0.4697
  358TMC3     H 5418   4.100   2.068   1.064  0.3684 -1.0602 -0.0932
  358TMC3    H1 5419   4.219   2.169   1.464  2.1628 -0.8603  0.5096
  358TMC3    H2 5420   4.486   2.207   1.140 -0.1917  0.9956  0.5625
  358TMC3    C7 5421   4.449   2.285   1.392 -0.1569  0.7528 -0.4719
  358TMC3    C8 5422   4.304   2.178   0.958 -0.8414  0.2492 -0.3069
  358TMC3    O1 5423   4.563   2.293   1.356  0.0366 -0.2334 -0.8102
  358TMC3    O2 5424   4.370   2.278   0.939 -0.1038 -0.2311 -0.7224
  359MPD2     C 5425   3.639   1.660  12.514  0.6916  0.6199  0.5153
  359MPD2    C1 5426   3.662   1.648  12.373  0.2959  0.7332  0.1879
  359MPD2    C2 5427   3.578   1.565  12.302  0.7355  0.3323 -0.5840
  359MPD2    C3 5428   3.464   1.506  12.362 -0.6458 -0.3628  0.7554
  359MPD2    C4 5429   3.443   1.526  12.495  0.1359  0.2136  0.1732
  359MPD2    C5 5430   3.526   1.605  12.567  0.5206  0.0669 -0.0535
  359MPD2     H 5431   3.608   1.548  12.199 -2.1625 -2.3025 -1.0218
  359MPD2    H1 5432   3.365   1.470  12.545  0.3729  0.0086  0.3116
  359MPD2    H2 5433   3.700   1.721  12.580  1.0887 -1.0355  1.7001
  359MPD2    H3 5434   3.504   1.628  12.670  0.8952 -1.6658  0.4154
  359MPD2     N 5435   3.380   1.411  12.309  0.0673  0.1824  0.2777
  359MPD2    H5 5436   3.324   1.360  12.376 -0.9749  3.2977  1.7510
  359MPD2    N1 5437   3.774   1.710  12.310 -0.1134 -0.0630  0.4251
  359MPD2    H7 5438   3.783   1.688  12.211  0.2861  1.6871  0.0778
  360TMC3    C1 5439   3.977   1.848  12.283 -0.1903  0.9686 -0.0560
  360TMC3    C2 5440   4.094   1.880  12.347 -0.2490  1.4120  0.3004
  360TMC3    C3 5441   4.202   1.873  12.264 -0.5063  0.5354  0.4787
  360TMC3    C4 5442   3.963   1.860  12.149 -0.4787  0.3290 -0.3376
  360TMC3    C5 5443   4.071   1.876  12.066  0.7507  0.2949  0.0812
  360TMC3    C6 5444   4.194   1.878  12.122 -0.2178 -0.4612  0.3262
  360TMC3     C 5445   3.876   1.783  12.372  0.0894  1.0223  0.1772
  360TMC3     O 5446   3.882   1.811  12.490  0.3075  0.2424  0.2966
  360TMC3     H 5447   4.105   1.843  12.448  0.0737 -0.2910 -0.3581
  360TMC3    H1 5448   3.876   1.833  12.091  0.6592 -1.3346 -1.2755
  360TMC3    H2 5449   4.280   1.892  12.057  2.1548 -1.8693  3.1906
  360TMC3    C7 5450   4.067   1.851  11.921 -0.5086 -0.7111  0.1924
  360TMC3    C8 5451   4.332   1.886  12.323  0.1516  0.2504 -0.1304
  360TMC3    O1 5452   4.167   1.800  11.869 -0.1054 -0.0766 -0.0645
  360TMC3    O2 5453   4.347   1.945  12.428 -0.0798 -0.1236 -0.3445
  361MPD2     C 5454   1.330   0.461  16.469  0.3911  0.2038 -0.2725
  361MPD2    C1 5455   1.393   0.541  16.559 -0.4110 -0.7634  0.1521
  361MPD2    C2 5456   1.483   0.473  16.645  0.0323 -0.3393  0.1285
  361MPD2    C3 5457   1.498   0.335  16.651  1.1403 -0.7695 -0.0817
  361MPD2    C4 5458   1.430   0.263  16.552  0.1909 -0.0007  0.3755
  361MPD2    C5 5459   1.346   0.328  16.464 -0.4047 -0.0887  0.0926
  361MPD2     H 5460   1.539   0.527  16.721  0.6840 -0.1427 -0.5016
  361MPD2    H1 5461   1.430   0.155  16.558  0.5431  0.0895  1.8789
  361MPD2    H2 5462   1.267   0.499  16.389 -0.8616 -1.8017 -0.2438
  361MPD2    H3 5463   1.289   0.260  16.401  1.1958  0.7446 -2.2472
  361MPD2     N 5464   1.582   0.257  16.736 -0.7660  0.4733  0.4433
  361MPD2    H5 5465   1.585   0.158  16.713 -1.3258  0.9775 -1.8267
  361MPD2    N1 5466   1.369   0.680  16.572  0.2095 -0.2592  0.2046
  361MPD2    H7 5467   1.431   0.732  16.633 -0.1425  1.4672 -0.9108
  362TMC3    C1 5468   1.297   0.896  16.529 -0.3548  0.0724  0.0322
  362TMC3    C2 5469   1.291   0.916  16.666  0.2740  0.1295  0.2493
  362TMC3    C3 5470   1.234   1.031  16.712 -0.4957 -0.0222  0.2840
  362TMC3    C4 5471   1.239   0.982  16.439 -0.5012  0.6184 -0.1080
  362TMC3    C5 5472   1.186   1.099  16.488  0.0573  0.5220  0.6847
  362TMC3    C6 5473   1.176   1.121  16.622 -0.0378  0.3501 -0.4926
  362TMC3     C 5474   1.298   0.757  16.487  0.2641 -0.0871  0.3073
  362TMC3     O 5475   1.209   0.716  16.411  0.1463 -0.6018  0.2403
  362TMC3     H 5476   1.334   0.851  16.741 -1.9400 -0.7578  0.7469
  362TMC3    H1 5477   1.240   0.959  16.333  1.2497  2.8960 -0.6019
  362TMC3    H2 5478   1.129   1.214  16.651 -1.3827 -0.3769 -0.3661
  362TMC3    C7 5479   1.087   1.169  16.405 -0.0414 -0.2595  0.3107
  362TMC3    C8 5480   1.282   1.100  16.831 -0.9064  0.1727  0.0377
  362TMC3    O1 5481   1.002   1.232  16.463  0.2601  0.5443  0.0756
  362TMC3    O2 5482   1.403   1.098  16.844  0.3487  0.3346 -0.4539
  363TMC3    C1 5483   4.400   2.469   9.040 -0.0969  0.4133 -0.1762
  363TMC3    C2 5484   4.492   2.488   9.143 -0.2450  0.0996 -0.1519
  363TMC3    C3 5485   4.453   2.564   9.247 -0.8353 -0.1412  0.1973
  363TMC3    C4 5486   4.266   2.508   9.046  0.4364 -0.6994 -0.3683
  363TMC3    C5 5487   4.227   2.564   9.164  0.4717 -0.0736  0.6889
  363TMC3    C6 5488   4.318   2.597   9.261  0.0710 -0.2403 -0.4454
  363TMC3     C 5489   4.462   2.412   8.919 -0.9215 -0.3577 -1.1672
  363TMC3     O 5490   4.585   2.425   8.905 -0.1027  0.5521 -0.1160
  363TMC3     H 5491   4.596   2.457   9.139 -0.4177 -0.4681 -0.2441
  363TMC3    H1 5492   4.197   2.515   8.963 -0.5983 -0.7571  0.4849
  363TMC3    H2 5493   4.289   2.646   9.353  0.1972 -0.7685 -0.1234
  363TMC3    C7 5494   4.084   2.591   9.181 -0.0221  0.0015  0.5013
  363TMC3    C8 5495   4.547   2.632   9.329  0.9609 -0.0954 -0.2382
  363TMC3    O1 5496   4.052   2.681   9.255 -0.3513 -0.2768 -0.2959
  363TMC3    O2 5497   4.515   2.718   9.407  0.0719  1.3406 -0.0289
  364MPD2     C 5498   2.905   2.236  10.491 -0.4046 -0.2647  0.0359
  364MPD2    C1 5499   3.036   2.224  10.443  0.0923  0.2773  0.4912
  364MPD2    C2 5500   3.111   2.111  10.476 -0.0391  0.6304  0.1580
  364MPD2    C3 5501   3.051   2.005  10.545 -0.1795  0.6257 -0.2889
  364MPD2    C4 5502   2.912   2.013  10.571  0.5057 -0.7450 -0.2241
  364MPD2    C5 5503   2.844   2.127  10.543  0.0978 -0.7673 -0.3598
  364MPD2     H 5504   3.219   2.113  10.466  0.1114  0.5799  1.7572
  364MPD2    H1 5505   2.854   1.937  10.623  0.0181  0.5981  1.2155
  364MPD2    H2 5506   2.851   2.329  10.482 -3.2417 -1.7283  1.7766
  364MPD2    H3 5507   2.742   2.147  10.576  0.0859  1.4426 -1.8066
  364MPD2     N 5508   3.126   1.896  10.597  0.2543 -0.3386  0.4681
  364MPD2    H5 5509   3.080   1.840  10.667  0.9085 -0.7685  0.5570
  364MPD2    N1 5510   3.088   2.336  10.379  0.4925  0.0327  0.0731
  364MPD2    H7 5511   3.032   2.418  10.357 -0.6193 -1.2487 -1.9854
  365TMC3    C1 5512   3.249   2.467  10.257 -0.3574 -0.3614 -0.2561
  365TMC3    C2 5513   3.359   2.465  10.174  0.3047 -0.3749 -0.2896
  365TMC3    C3 5514   3.415   2.585  10.145 -0.1523  0.3703  0.0392
  365TMC3    C4 5515   3.195   2.585  10.312 -0.9484  0.1318 -0.3590
  365TMC3    C5 5516   3.269   2.701  10.287  0.1849 -0.4983  0.6270
  365TMC3    C6 5517   3.371   2.703  10.195  0.1567  0.3724  0.3224
  365TMC3     C 5518   3.207   2.334  10.308 -0.9269 -0.0942 -0.7157
  365TMC3     O 5519   3.283   2.237  10.286 -0.3524  0.1823  0.1951
  365TMC3     H 5520   3.387   2.369  10.130  2.1579  0.0192  0.0187
  365TMC3    H1 5521   3.102   2.590  10.366  0.4961  0.9990  2.0533
  365TMC3    H2 5522   3.424   2.795  10.180  0.0003  0.2653 -0.8932
  365TMC3    C7 5523   3.258   2.820  10.367  0.0086 -0.2318  0.5299
  365TMC3    C8 5524   3.550   2.588  10.087  0.4886 -0.3309 -0.1963
  365TMC3    O1 5525   3.325   2.915  10.334 -0.1891 -0.2340  0.0567
  365TMC3    O2 5526   3.617   2.689  10.104 -0.3155 -0.0674  0.2910
  366MPD2     C 5527   1.313   3.885  15.399 -0.3005  0.1193 -0.0013
  366MPD2    C1 5528   1.431   3.939  15.361 -0.1519  0.2024  0.1868
  366MPD2    C2 5529   1.549   3.860  15.339  0.4581  0.3818  1.0760
  366MPD2    C3 5530   1.555   3.731  15.382  0.1154  0.0121 -0.7176
  366MPD2    C4 5531   1.436   3.673  15.424  0.7515  0.3567  0.5435
  366MPD2    C5 5532   1.319   3.746  15.437 -0.0523  0.4025 -0.0465
  366MPD2     H 5533   1.643   3.911  15.319  0.8389 -0.9873 -0.6124
  366MPD2    H1 5534   1.436   3.567  15.448 -1.9635  0.5785  1.4910
  366MPD2    H2 5535   1.221   3.941  15.408  0.1353  0.5347  1.7148
  366MPD2    H3 5536   1.225   3.705  15.473 -1.5625  1.4023 -2.7962
  366MPD2     N 5537   1.686   3.670  15.388 -0.0328  0.3200 -0.7132
  366MPD2    H5 5538   1.762   3.732  15.363  0.4396  0.4337  0.9525
  366MPD2    N1 5539   1.444   4.080  15.343 -0.3162 -0.0687 -0.4757
  366MPD2    H7 5540   1.536   4.113  15.316 -0.9032  1.8520 -0.1148
  367TMC3    C1 5541   1.429   4.306  15.359  0.5230 -0.1591 -0.0240
  367TMC3    C2 5542   1.565   4.302  15.390 -0.0630 -0.1349 -0.3787
  367TMC3    C3 5543   1.633   4.419  15.404  0.4954 -0.1158  0.7443
  367TMC3    C4 5544   1.377   4.421  15.330 -0.2345 -0.4079  0.2557
  367TMC3    C5 5545   1.444   4.537  15.336  0.5029  0.4544  0.5345
  367TMC3    C6 5546   1.575   4.538  15.375  0.5800  0.3380  0.3429
  367TMC3     C 5547   1.357   4.181  15.365  0.1883 -0.7373  0.3843
  367TMC3     O 5548   1.236   4.189  15.392 -0.2929 -0.0406 -0.0938
  367TMC3     H 5549   1.608   4.211  15.432 -0.9912 -0.5870 -0.4190
  367TMC3    H1 5550   1.269   4.423  15.319 -0.3872  0.9729  1.9864
  367TMC3    H2 5551   1.638   4.626  15.388  0.1295  0.8599 -0.9840
  367TMC3    C7 5552   1.368   4.656  15.327  0.4573  0.0652  0.3491
  367TMC3    C8 5553   1.747   4.419  15.499  0.1694 -0.3832 -0.1564
  367TMC3    O1 5554   1.246   4.643  15.343  0.3811  0.4699  0.0323
  367TMC3    O2 5555   1.831   4.330  15.489  0.1529 -0.8356 -0.2528
  368MPD2     C 5556   2.036   1.118  13.381  0.1100  0.5581  0.5197
  368MPD2    C1 5557   2.008   1.209  13.282  0.3527  0.6063  0.1582
  368MPD2    C2 5558   2.073   1.205  13.159 -0.3333 -0.2457  0.0004
  368MPD2    C3 5559   2.174   1.111  13.134 -0.5600 -0.2855 -0.7726
  368MPD2    C4 5560   2.194   1.025  13.235  0.2121 -0.2041  0.8740
  368MPD2    C5 5561   2.135   1.027  13.357  0.4634  0.5559 -0.6501
  368MPD2     H 5562   2.049   1.278  13.082  0.8505  0.8853  0.6902
  368MPD2    H1 5563   2.268   0.951  13.207  0.0717 -0.1664  0.4065
  368MPD2    H2 5564   1.984   1.113  13.476 -0.0246  2.6045  0.5464
  368MPD2    H3 5565   2.148   0.943  13.424 -0.9832  1.0914  0.3167
  368MPD2     N 5566   2.244   1.099  13.012 -0.2525 -0.4381  0.0867
  368MPD2    H5 5567   2.316   1.028  13.006 -0.3299 -0.5491  0.4715
  368MPD2    N1 5568   1.904   1.303  13.316 -0.0768 -0.1357  0.1471
  368MPD2    H7 5569   1.860   1.298  13.407 -1.1435 -1.6707 -0.4616
  369TMC3    C1 5570   1.752   1.475  13.284  0.4013 -1.2688  0.0383
  369TMC3    C2 5571   1.737   1.584  13.201 -0.0695  0.5062 -0.5668
  369TMC3    C3 5572   1.613   1.602  13.148 -0.1343 -0.8122 -0.4953
  369TMC3    C4 5573   1.647   1.396  13.321  0.3596  0.2955  0.3668
  369TMC3    C5 5574   1.518   1.424  13.269 -0.1994 -0.3041 -0.3533
  369TMC3    C6 5575   1.497   1.530  13.179  0.0591 -0.4217 -0.2570
  369TMC3     C 5576   1.868   1.406  13.240  0.0238  0.1694 -0.5647
  369TMC3     O 5577   1.917   1.434  13.131 -0.2670  0.2011 -0.2368
  369TMC3     H 5578   1.828   1.637  13.178  0.7874  0.0527  1.7593
  369TMC3    H1 5579   1.661   1.303  13.375  2.7975 -0.0025 -0.8021
  369TMC3    H2 5580   1.404   1.551  13.127  0.3087 -1.7323 -1.2261
  369TMC3    C7 5581   1.414   1.324  13.309 -1.0019 -0.0180 -1.0092
  369TMC3    C8 5582   1.625   1.643  13.008 -0.7475  0.5530 -0.8747
  369TMC3    O1 5583   1.443   1.211  13.349  0.3863  0.8437  0.3909
  369TMC3    O2 5584   1.526   1.693  12.954  0.2062  0.3985  0.0957
  370TMC3    C1 5585   2.275   1.494  16.317  0.3093  0.0107  0.4155
  370TMC3    C2 5586   2.208   1.422  16.410  0.2434  0.0853 -1.0996
  370TMC3    C3 5587   2.204   1.287  16.392  0.6572 -0.1696 -0.3752
  370TMC3    C4 5588   2.332   1.432  16.209  0.0806  0.1408 -0.2691
  370TMC3    C5 5589   2.319   1.302  16.194  0.0203  0.0824  0.4521
  370TMC3    C6 5590   2.257   1.224  16.283  0.1364  0.1912  0.3984
  370TMC3     C 5591   2.358   1.590  16.371 -0.4336  1.0589 -0.0684
  370TMC3     O 5592   2.360   1.576  16.491 -0.2475  0.2625 -0.0344
  370TMC3     H 5593   2.161   1.476  16.491  3.3047 -1.1126  1.4556
  370TMC3    H1 5594   2.388   1.482  16.131  1.1782  1.5982  1.4510
  370TMC3    H2 5595   2.237   1.118  16.266  2.2049  0.1312 -1.7036
  370TMC3    C7 5596   2.341   1.236  16.071 -0.4147  0.9077 -0.5632
  370TMC3    C8 5597   2.203   1.206  16.511 -0.4928  0.3394  0.0443
  370TMC3    O1 5598   2.302   1.285  15.970  0.6137  0.1331  0.7519
  370TMC3    O2 5599   2.231   1.090  16.491 -0.9716 -0.4282  0.5267
  371TMC3    C1 5600   3.713   4.500  15.489  0.1790 -0.2199  0.7737
  371TMC3    C2 5601   3.661   4.505  15.618  0.5857  0.1549 -0.2733
  371TMC3    C3 5602   3.585   4.609  15.659 -0.0178  0.1930 -0.2006
  371TMC3    C4 5603   3.705   4.611  15.408  0.6133  0.2954  0.1126
  371TMC3    C5 5604   3.630   4.718  15.455 -1.5042 -0.2471  0.6764
  371TMC3    C6 5605   3.557   4.711  15.568 -0.0085  0.0982  0.4288
  371TMC3     C 5606   3.782   4.378  15.450  0.5708  0.4719 -0.2842
  371TMC3     O 5607   3.896   4.390  15.404  0.2493  0.1859 -0.7650
  371TMC3     H 5608   3.682   4.427  15.690  0.1220 -0.8767 -1.2579
  371TMC3    H1 5609   3.766   4.610  15.319  0.8976 -0.4187  0.3103
  371TMC3    H2 5610   3.480   0.052  15.573 -1.0989 -0.7679 -3.1765
  371TMC3    C7 5611   3.638   0.113  15.406 -0.1704  0.4000  0.4394
  371TMC3    C8 5612   3.513   4.607  15.788  0.5811  0.7368 -0.2684
  371TMC3    O1 5613   3.623   0.207  15.478  0.0626  0.3259 -0.3542
  371TMC3    O2 5614   3.517   4.497  15.841  0.7767 -0.2918  0.1440
  372MPD2     C 5615   2.530   1.347  13.108  0.5489  0.7012  0.6226
  372MPD2    C1 5616   2.648   1.296  13.162  0.5147  0.1852 -0.3932
  372MPD2    C2 5617   2.637   1.247  13.292 -0.5682  0.0938 -0.1871
  372MPD2    C3 5618   2.521   1.252  13.364 -0.7348 -0.1374  0.1985
  372MPD2    C4 5619   2.408   1.292  13.303 -0.3360  0.2039  0.1056
  372MPD2    C5 5620   2.415   1.348  13.179 -0.3274 -0.0384 -0.3358
  372MPD2     H 5621   2.723   1.193  13.331 -0.9116  0.9352  1.7131
  372MPD2    H1 5622   2.313   1.290  13.354 -1.1891 -0.9734 -1.5192
  372MPD2    H2 5623   2.523   1.407  13.018 -0.8768  1.0222  0.9355
  372MPD2    H3 5624   2.330   1.406  13.144 -0.8980 -0.7362 -0.0977
  372MPD2     N 5625   2.516   1.189  13.493 -0.4623 -0.1465  0.5419
  372MPD2    H5 5626   2.608   1.160  13.525  0.7910  1.6012 -1.4253
  372MPD2    N1 5627   2.766   1.282  13.085 -0.6040  0.1004  0.3482
  372MPD2    H7 5628   2.847   1.244  13.133 -1.2951 -3.2849 -1.1602
  373TMC3    C1 5629   2.445   1.076  13.684 -0.2563  0.1019 -0.1213
  373TMC3    C2 5630   2.349   1.058  13.785 -0.6067 -0.0769  0.5189
  373TMC3    C3 5631   2.379   0.974  13.889 -0.2330  1.6701  0.5646
  373TMC3    C4 5632   2.552   0.991  13.666 -0.2624 -0.5251  0.3940
  373TMC3    C5 5633   2.564   0.892  13.765 -0.5024  0.0538  0.3969
  373TMC3    C6 5634   2.482   0.883  13.875  0.6000  0.1579 -0.3576
  373TMC3     C 5635   2.408   1.166  13.579  0.2913 -0.0565  0.5755
  373TMC3     O 5636   2.292   1.203  13.574  0.0618 -0.5221 -0.2269
  373TMC3     H 5637   2.260   1.120  13.783 -0.4822  0.0384 -1.1287
  373TMC3    H1 5638   2.607   0.987  13.573 -1.6998 -1.2075 -0.4294
  373TMC3    H2 5639   2.498   0.812  13.955  0.8776 -1.3201 -1.7369
  373TMC3    C7 5640   2.690   0.816  13.780  0.1165 -0.1887  0.4277
  373TMC3    C8 5641   2.292   0.993  14.015  0.1919 -0.6607  0.7730
  373TMC3    O1 5642   2.721   0.763  13.890  0.1807  0.0468  0.6110
  373TMC3    O2 5643   2.177   1.035  14.008 -0.3851  0.2635  0.1473
  374TMC3    C1 5644   3.668   0.916   9.615  0.2936  0.0994  0.4324
  374TMC3    C2 5645   3.743   1.025   9.639 -0.2253  0.9688  0.1470
  374TMC3    C3 5646   3.808   1.083   9.529 -0.1525  0.4660 -0.0458
  374TMC3    C4 5647   3.640   0.873   9.489 -0.0697  0.4730  0.3547
  374TMC3    C5 5648   3.694   0.943   9.379 -0.4687 -1.6097 -0.1096
  374TMC3    C6 5649   3.773   1.054   9.405 -0.1714 -0.6909 -0.3127
  374TMC3     C 5650   3.595   0.855   9.725 -0.0992  0.5112  0.3412
  374TMC3     O 5651   3.490   0.797   9.695 -0.2636 -0.1199 -0.1198
  374TMC3     H 5652   3.744   1.063   9.741 -0.7520 -0.0103  0.5114
  374TMC3    H1 5653   3.592   0.777   9.473  4.0651 -1.3462 -1.1617
  374TMC3    H2 5654   3.789   1.128   9.327  2.2941  0.2173  1.0707
  374TMC3    C7 5655   3.699   0.879   9.250 -0.2923  0.1836  0.0863
  374TMC3    C8 5656   3.905   1.192   9.548 -0.3305 -0.6112  0.2727
  374TMC3    O1 5657   3.676   0.757   9.246  0.6024  0.4664 -0.5922
  374TMC3    O2 5658   3.948   1.243   9.447 -0.0938 -0.0801 -0.1109
  375MPD2     C 5659   3.892   1.751  17.253 -0.5278 -0.1864 -0.2087
  375MPD2    C1 5660   3.796   1.772  17.155 -0.4413  0.2201 -0.1517
  375MPD2    C2 5661   3.808   1.687  17.044 -0.2913 -0.2601  0.2761
  375MPD2    C3 5662   3.905   1.587  17.027  0.2775 -0.5775 -0.9273
  375MPD2    C4 5663   3.997   1.567  17.125 -0.5088 -0.0306  0.6332
  375MPD2    C5 5664   3.988   1.651  17.232 -0.3262 -0.7244  0.4002
  375MPD2     H 5665   3.733   1.706  16.967  1.2052  2.7441 -0.4254
  375MPD2    H1 5666   4.077   1.496  17.109 -1.1063 -0.3239 -1.1334
  375MPD2    H2 5667   3.917   1.802  17.345 -0.2575  1.7316 -1.3458
  375MPD2    H3 5668   4.059   1.632  17.312 -1.1268  0.4240  1.3860
  375MPD2     N 5669   3.914   1.505  16.917  0.2982  0.0423  0.5460
  375MPD2    H5 5670   3.998   1.451  16.900 -0.9187 -1.0491 -2.0346
  375MPD2    N1 5671   3.696   1.871  17.154 -0.3305 -0.6540 -0.5052
  375MPD2    H7 5672   3.649   1.886  17.065 -2.5491  0.7718  0.9193
  376TMC3    C1 5673   3.869   1.451  16.691 -0.3960  0.3357 -0.4560
  376TMC3    C2 5674   4.005   1.424  16.672 -0.0502  0.2887  0.6527
  376TMC3    C3 5675   4.046   1.420  16.540  0.3526  0.4044 -0.2473
  376TMC3    C4 5676   3.788   1.474  16.579  0.1587 -1.0528 -0.2033
  376TMC3    C5 5677   3.839   1.459  16.453 -0.2235  1.0691  0.4647
  376TMC3    C6 5678   3.970   1.428  16.426  0.2222  0.0580 -0.2074
  376TMC3     C 5679   3.816   1.493  16.818 -0.7303  0.7097  0.6776
  376TMC3     O 5680   3.697   1.522  16.830  0.5559 -0.3962  0.0650
  376TMC3     H 5681   4.083   1.428  16.747 -1.7114 -0.7444  2.4241
  376TMC3    H1 5682   3.682   1.479  16.602 -0.6402  1.1175 -4.3658
  376TMC3    H2 5683   4.019   1.429  16.329  0.1303 -0.1972 -0.2565
  376TMC3    C7 5684   3.771   1.498  16.334  0.1162 -0.2623 -0.0647
  376TMC3    C8 5685   4.186   1.438  16.521 -0.4543 -0.3083  0.7973
  376TMC3    O1 5686   3.839   1.506  16.231  0.0670  0.0564 -0.0008
  376TMC3    O2 5687   4.212   1.536  16.456 -0.2252  0.0839  0.1916
  377MPD2     C 5688   1.151   0.935  13.123  1.0810  0.1118 -0.4005
  377MPD2    C1 5689   1.259   0.881  13.055  0.2815 -0.6221 -0.1320
  377MPD2    C2 5690   1.240   0.751  12.998 -0.6110 -0.1924 -0.6162
  377MPD2    C3 5691   1.118   0.681  13.019 -0.4293 -0.0837  0.1770
  377MPD2    C4 5692   1.008   0.740  13.085 -0.2228 -0.3242  0.4452
  377MPD2    C5 5693   1.033   0.871  13.125  0.2974 -0.0425 -0.0133
  377MPD2     H 5694   1.316   0.715  12.930  1.3569  1.7348  0.5425
  377MPD2    H1 5695   0.913   0.692  13.101  0.1109 -0.6411  1.4253
  377MPD2    H2 5696   1.156   1.037  13.161  1.4181  0.3749 -1.1617
  377MPD2    H3 5697   0.947   0.917  13.173 -0.2302  0.3597 -1.3576
  377MPD2     N 5698   1.095   0.550  12.970  0.4851  0.0008 -0.1506
  377MPD2    H5 5699   1.002   0.512  12.987  1.0697 -1.0044  0.7874
  377MPD2    N1 5700   1.377   0.965  13.033 -0.0681  0.0029 -0.2237
  377MPD2    H7 5701   1.378   1.061  13.067 -0.0949 -0.5999  1.4956
  378TMC3    C1 5702   1.627   1.232  12.818 -0.5456 -0.2876  0.6484
  378TMC3    C2 5703   1.540   1.154  12.889  0.8400 -0.0872  0.0504
  378TMC3    C3 5704   1.589   1.036  12.941  0.5427 -0.3059 -0.5837
  378TMC3    C4 5705   1.755   1.195  12.796  0.1134  0.3522 -0.5187
  378TMC3    C5 5706   1.795   1.069  12.847 -0.8829  0.6187  0.4806
  378TMC3    C6 5707   1.713   0.987  12.923 -0.8102 -0.1757 -0.3734
  378TMC3     C 5708   1.576   1.351  12.754  0.2035 -0.5423 -0.2010
  378TMC3     O 5709   1.468   1.395  12.790  0.2754 -0.1678  0.0955
  378TMC3     H 5710   1.436   1.176  12.909  1.4276  0.4496  2.5171
  378TMC3    H1 5711   1.827   1.266  12.758  0.5258  0.4376  0.4102
  378TMC3    H2 5712   1.744   0.885  12.939  0.4448 -0.0235 -1.8505
  378TMC3    C7 5713   1.932   1.011  12.823  0.7382  0.2803  0.5478
  378TMC3    C8 5714   1.494   0.931  12.963  0.5795  0.3710  0.0860
  378TMC3    O1 5715   1.971   0.920  12.899  0.0961 -0.0416  0.1867
  378TMC3    O2 5716   1.524   0.821  12.916  0.1982  0.4938  0.0900
  379MPD2     C 5717   2.909   3.909  16.117 -0.7616 -0.3562 -0.2942
  379MPD2    C1 5718   2.797   3.974  16.169  0.9613 -0.5530 -0.2316
  379MPD2    C2 5719   2.788   3.980  16.312 -0.3853 -0.7901 -0.0244
  379MPD2    C3 5720   2.890   3.930  16.396  0.0416  0.2758  0.0827
  379MPD2    C4 5721   2.985   3.847  16.332 -0.1452 -0.0484 -0.9614
  379MPD2    C5 5722   2.990   3.832  16.194 -0.8146  0.1613  1.1317
  379MPD2     H 5723   2.696   4.016  16.357 -0.8911 -3.1371  0.7979
  379MPD2    H1 5724   3.045   3.780  16.392  0.4747  1.4173  0.0489
  379MPD2    H2 5725   2.901   3.897  16.010  0.9159 -2.3622 -0.1813
  379MPD2    H3 5726   3.050   3.750  16.156  0.6106  1.0676  1.4300
  379MPD2     N 5727   2.889   3.937  16.537  0.0217  0.4993  0.4695
  379MPD2    H5 5728   2.970   3.891  16.579  1.2773  2.0157 -0.2923
  379MPD2    N1 5729   2.707   4.029  16.073 -0.1983  0.0835  0.9527
  379MPD2    H7 5730   2.732   4.014  15.976 -1.6650  0.8903  0.4421
  380TMC3    C1 5731   2.516   4.157  15.992  0.7373  0.0803  0.5101
  380TMC3    C2 5732   2.551   4.130  15.864  0.1564  0.1246  0.3371
  380TMC3    C3 5733   2.466   4.160  15.760 -0.2758 -0.1581  0.0094
  380TMC3    C4 5734   2.402   4.229  16.023 -0.4609 -0.1602  0.3621
  380TMC3    C5 5735   2.327   4.270  15.920 -0.2975  0.1473  0.0485
  380TMC3    C6 5736   2.361   4.238  15.788 -0.7209  0.4145 -0.1597
  380TMC3     C 5737   2.597   4.111  16.106 -0.5735 -0.0020 -0.1814
  380TMC3     O 5738   2.552   4.127  16.216 -0.3820 -0.4460  0.2749
  380TMC3     H 5739   2.636   4.072  15.829  0.0454  0.2864 -0.1974
  380TMC3    H1 5740   2.365   4.237  16.124 -2.0095 -3.4489  0.0468
  380TMC3    H2 5741   2.301   4.270  15.703 -0.1880  2.1265  0.1055
  380TMC3    C7 5742   2.217   4.356  15.947  0.0199  0.2208  0.0686
  380TMC3    C8 5743   2.508   4.133  15.625 -0.2979  0.1017  0.6151
  380TMC3    O1 5744   2.214   4.401  16.059  0.2375  0.1812 -0.0244
  380TMC3    O2 5745   2.573   4.030  15.612  0.6556 -0.7943  0.0144
  381TMC3    C1 5746   2.259   0.566  16.318 -0.7402  0.0044 -0.5136
  381TMC3    C2 5747   2.347   0.668  16.305 -0.4345 -0.2475 -0.2311
  381TMC3    C3 5748   2.362   0.765  16.405 -0.4122 -0.8221  0.3094
  381TMC3    C4 5749   2.199   0.548  16.440  0.1586 -0.6619  0.0593
  381TMC3    C5 5750   2.215   0.644  16.536  0.2866 -1.2077  0.0388
  381TMC3    C6 5751   2.300   0.748  16.527 -0.4155  0.0449  0.2344
  381TMC3     C 5752   2.249   0.477  16.203 -0.1995 -0.1936  0.6901
  381TMC3     O 5753   2.277   0.517  16.093 -0.1643 -0.6264  0.6040
  381TMC3     H 5754   2.397   0.674  16.209 -0.0660  0.9206  0.0353
  381TMC3    H1 5755   2.132   0.468  16.472  0.7623 -2.1189 -2.3215
  381TMC3    H2 5756   2.301   0.822  16.606  1.4023 -0.9965  1.1936
  381TMC3    C7 5757   2.203   0.598  16.671 -0.1939  0.3023 -0.4950
  381TMC3    C8 5758   2.482   0.845  16.380  0.1874  0.2290  0.3531
  381TMC3    O1 5759   2.249   0.484  16.693  0.2933 -0.0244  0.1826
  381TMC3    O2 5760   2.551   0.811  16.287 -0.4883  0.6907  0.0737
  382MPD2     C 5761   1.183   3.485  16.788  0.5241  0.4280  0.0016
  382MPD2    C1 5762   1.233   3.494  16.920  0.6116 -0.0393 -0.1835
  382MPD2    C2 5763   1.271   3.378  16.983 -0.3094  0.2196  0.5998
  382MPD2    C3 5764   1.267   3.255  16.916  0.3861 -0.0664  0.0606
  382MPD2    C4 5765   1.212   3.254  16.787 -0.7882  0.0714  0.1409
  382MPD2    C5 5766   1.176   3.369  16.719  0.1218  0.2595 -0.0803
  382MPD2     H 5767   1.314   3.385  17.081 -1.1327  1.0921  0.8980
  382MPD2    H1 5768   1.205   3.154  16.745  3.3563 -0.8177  1.5284
  382MPD2    H2 5769   1.152   3.572  16.730 -1.3959 -0.8465 -0.8751
  382MPD2    H3 5770   1.130   3.366  16.621  0.6330  2.1620 -0.3810
  382MPD2     N 5771   1.300   3.134  16.978  0.0009  0.0211  0.1502
  382MPD2    H5 5772   1.287   3.043  16.935 -0.3084  0.4525 -0.6726
  382MPD2    N1 5773   1.253   3.629  16.976 -0.3685  0.2748 -0.4342
  382MPD2    H7 5774   1.310   3.635  17.060  0.8109  1.3044 -1.3056
  383TMC3    C1 5775   1.380   2.989  17.148  0.3988 -0.0663 -0.0290
  383TMC3    C2 5776   1.277   2.906  17.165 -0.5356 -0.0156  0.9539
  383TMC3    C3 5777   1.303   2.787  17.228  0.2930  0.7720 -0.0427
  383TMC3    C4 5778   1.503   2.974  17.198 -0.2982 -0.6390 -0.2143
  383TMC3    C5 5779   1.530   2.850  17.252 -0.1855  0.6349 -0.7822
  383TMC3    C6 5780   1.429   2.754  17.268 -0.2152 -1.3022  0.0244
  383TMC3     C 5781   1.359   3.125  17.100  0.3671  0.2979  0.1441
  383TMC3     O 5782   1.412   3.214  17.167 -0.1289  0.6988  0.0940
  383TMC3     H 5783   1.176   2.932  17.135 -0.9621 -1.0005  1.5485
  383TMC3    H1 5784   1.578   3.052  17.188  0.9754 -2.0708 -1.7942
  383TMC3    H2 5785   1.451   2.660  17.317  0.4886 -0.5007  1.2598
  383TMC3    C7 5786   1.673   2.814  17.276  0.0454  0.0533 -0.6074
  383TMC3    C8 5787   1.184   2.712  17.266  0.3359 -1.0948 -0.1257
  383TMC3    O1 5788   1.753   2.888  17.227  0.7217 -0.7169 -0.0559
  383TMC3    O2 5789   1.078   2.725  17.205 -0.5183  0.2667 -0.2459
  384MPD2     C 5790   3.199   3.919  12.098  0.6491 -0.6458  0.2865
  384MPD2    C1 5791   3.251   3.850  12.205 -0.2629 -0.0338  0.2773
  384MPD2    C2 5792   3.325   3.736  12.190  0.4730  0.1175  0.0901
  384MPD2    C3 5793   3.339   3.688  12.060  0.1786 -0.0371  0.6653
  384MPD2    C4 5794   3.279   3.748  11.953 -0.2830  0.8833 -1.0679
  384MPD2    C5 5795   3.227   3.871  11.968 -0.0131 -0.1546 -0.3104
  384MPD2     H 5796   3.360   3.670  12.269 -0.1085  0.3817  0.5606
  384MPD2    H1 5797   3.277   3.705  11.853  0.3175 -0.8641 -0.3271
  384MPD2    H2 5798   3.143   4.011  12.102 -0.3634 -1.1823 -1.6096
  384MPD2    H3 5799   3.188   3.916  11.878 -2.7098  2.8099  2.3403
  384MPD2     N 5800   3.397   3.558  12.057  0.3271 -0.1945 -0.3251
  384MPD2    H5 5801   3.424   3.512  12.143 -0.6715 -0.0370  0.0736
  384MPD2    N1 5802   3.226   3.894  12.340 -0.1385  0.0621  0.2931
  384MPD2    H7 5803   3.255   3.832  12.415 -0.1310 -0.5755 -0.2349
  385TMC3    C1 5804   3.457   3.355  11.979  0.7832 -0.5132 -0.2660
  385TMC3    C2 5805   3.362   3.265  11.937 -0.1488 -0.0185  0.1737
  385TMC3    C3 5806   3.314   3.176  12.027 -1.0461  0.2632 -0.1937
  385TMC3    C4 5807   3.528   3.348  12.096 -0.1551 -0.2637 -0.3649
  385TMC3    C5 5808   3.471   3.256  12.189  0.2982  0.0690 -0.5696
  385TMC3    C6 5809   3.367   3.173  12.154  0.1803 -0.4402  0.2306
  385TMC3     C 5810   3.417   3.486  11.941  0.5056 -0.4660 -0.0142
  385TMC3     O 5811   3.388   3.509  11.823  0.5481  0.1664  0.4372
  385TMC3     H 5812   3.301   3.293  11.852  0.5247 -1.3512 -0.7436
  385TMC3    H1 5813   3.603   3.421  12.122 -0.8582  0.0086  0.9243
  385TMC3    H2 5814   3.352   3.090  12.222  1.9662 -0.0536  1.0883
  385TMC3    C7 5815   3.440   3.321  12.313  0.6117 -0.9452  0.1774
  385TMC3    C8 5816   3.208   3.082  12.011  0.1252  0.2499  0.3955
  385TMC3    O1 5817   3.464   3.440  12.315 -0.2557  0.0968 -0.1536
  385TMC3    O2 5818   3.171   3.024  12.110  0.4519 -0.1377 -0.2874
  386TMC3    C1 5819   2.853   2.136  11.944  1.1428  0.2578 -0.0739
  386TMC3    C2 5820   2.846   2.124  11.806 -0.0189  0.2606  0.1228
  386TMC3    C3 5821   2.729   2.152  11.748  0.4773  0.1729 -0.9050
  386TMC3    C4 5822   2.747   2.151  12.032  0.3484 -0.2524 -0.5360
  386TMC3    C5 5823   2.628   2.168  11.964 -0.2733 -0.2285 -0.3520
  386TMC3    C6 5824   2.616   2.168  11.829 -0.2511  0.3200  0.0193
  386TMC3     C 5825   2.971   2.084  12.019  0.5038  0.8027 -0.3248
  386TMC3     O 5826   3.005   2.141  12.123 -0.6730 -0.0705 -0.3575
  386TMC3     H 5827   2.937   2.109  11.749  0.1193  1.7476 -0.0427
  386TMC3    H1 5828   2.756   2.139  12.139  3.0369 -0.6657 -0.7962
  386TMC3    H2 5829   2.524   2.176  11.772  0.1027 -2.5469 -0.9624
  386TMC3    C7 5830   2.515   2.238  12.033  0.1595  0.3953 -1.0304
  386TMC3    C8 5831   2.698   2.126  11.605  0.2604 -0.5975 -0.7108
  386TMC3    O1 5832   2.521   2.233  12.155 -0.6446  0.1798  0.0881
  386TMC3    O2 5833   2.605   2.191  11.554 -0.0685 -0.2480 -0.0546
  387MPD2     C 5834   1.115   1.703  10.314 -0.4394 -0.1964  0.2491
  387MPD2    C1 5835   1.136   1.654  10.438  0.0798 -0.3626  0.4667
  387MPD2    C2 5836   1.114   1.523  10.459  0.1635 -0.4642 -0.0459
  387MPD2    C3 5837   1.057   1.444  10.355 -0.0814 -0.5657 -0.2390
  387MPD2    C4 5838   1.037   1.493  10.233 -0.1232  0.1558  0.2968
  387MPD2    C5 5839   1.077   1.622  10.212  0.3151  0.1918 -0.0195
  387MPD2     H 5840   1.137   1.484  10.557  0.5058 -1.6917 -0.6135
  387MPD2    H1 5841   0.977   1.444  10.157  1.5166 -0.7936 -0.3856
  387MPD2    H2 5842   1.144   1.803  10.285  0.3974 -0.5708 -0.2034
  387MPD2    H3 5843   1.061   1.675  10.118 -0.6751 -0.0712  0.0020
  387MPD2     N 5844   1.036   1.306  10.389 -0.5360  0.9889  0.3401
  387MPD2    H5 5845   1.065   1.287  10.484 -1.8526 -1.3512  0.2866
  387MPD2    N1 5846   1.176   1.731  10.547 -0.0283 -0.1366  0.0191
  387MPD2    H7 5847   1.205   1.687  10.633 -1.9289 -2.2900 -0.4394
  388TMC3    C1 5848   1.264   1.913  10.667  0.2489 -0.3933  0.1280
  388TMC3    C2 5849   1.215   2.032  10.711 -0.0471  0.3198  0.3154
  388TMC3    C3 5850   1.203   2.045  10.845  0.1786 -0.5499  0.1936
  388TMC3    C4 5851   1.299   1.813  10.754 -0.2170  0.0489  0.0225
  388TMC3    C5 5852   1.275   1.830  10.886  0.3084  1.1183  0.2360
  388TMC3    C6 5853   1.233   1.946  10.936 -0.1179 -0.9503 -0.2533
  388TMC3     C 5854   1.194   1.867  10.549 -0.0095 -0.1486  0.2898
  388TMC3     O 5855   1.125   1.949  10.489 -0.5003  0.0406  0.5049
  388TMC3     H 5856   1.182   2.104  10.637 -2.0866 -0.1342  0.8071
  388TMC3    H1 5857   1.354   1.722  10.731  0.6864  0.5052  0.3856
  388TMC3    H2 5858   1.212   1.950  11.042 -2.5275 -3.7230 -0.6252
  388TMC3    C7 5859   1.281   1.712  10.960 -0.4638  0.3678 -0.0433
  388TMC3    C8 5860   1.214   2.173  10.902 -0.0970 -1.1818  0.3740
  388TMC3    O1 5861   1.329   1.711  11.075  0.2788  0.0560 -0.5779
  388TMC3    O2 5862   1.177   2.192  11.017 -0.6870 -0.7141  0.1782
  389MPD2     C 5863   0.006   4.546  11.425 -0.1592 -0.2310 -0.6621
  389MPD2    C1 5864   4.685   4.428  11.406 -0.4170  0.0674 -0.9368
  389MPD2    C2 5865   4.691   4.335  11.504 -0.3149  0.6524 -0.4057
  389MPD2    C3 5866   0.002   4.367  11.628  0.2924 -0.2944  0.2155
  389MPD2    C4 5867   0.040   4.495  11.656 -0.0793 -0.1223 -0.4478
  389MPD2    C5 5868   0.050   4.583  11.547 -0.0593 -0.1989 -0.1814
  389MPD2     H 5869   4.653   4.235  11.483 -2.6325  1.7181 -1.2829
  389MPD2    H1 5870   0.066   4.539  11.751  1.6877 -0.6440 -0.6892
  389MPD2    H2 5871   0.011   4.609  11.337  1.8947  0.2077 -0.2170
  389MPD2    H3 5872   0.080   4.687  11.549 -2.5049  0.4880  0.4171
  389MPD2     N 5873   0.000   4.269  11.737 -0.0902 -0.4696 -0.1836
  389MPD2    H5 5874   0.018   4.304  11.831 -0.6044  0.6920 -0.5205
  389MPD2    N1 5875   4.642   4.407  11.269 -0.0296 -0.1290 -0.2744
  389MPD2    H7 5876   4.649   4.487  11.207 -0.3975  0.7656  0.8205
  390TMC3    C1 5877   4.669   4.063  11.832 -0.1825  0.1405 -0.4150
  390TMC3    C2 5878   4.574   3.966  11.820 -0.3304 -0.1903 -0.0833
  390TMC3    C3 5879   4.516   3.917  11.939 -0.6698 -0.2491 -0.6838
  390TMC3    C4 5880   4.712   4.106  11.955 -0.2821  0.1509  0.1179
  390TMC3    C5 5881   4.663   4.046  12.066 -0.2467 -0.1412 -0.2137
  390TMC3    C6 5882   4.566   3.954  12.067  0.2976 -0.2163  0.3184
  390TMC3     C 5883   4.713   4.135  11.718 -0.2427 -0.2678 -0.0510
  390TMC3     O 5884   4.693   4.070  11.615 -0.1902  0.4421  0.0847
  390TMC3     H 5885   4.560   3.918  11.724  0.9787  0.9343 -0.8368
  390TMC3    H1 5886   0.055   4.179  11.963 -0.7038  0.3178  2.8003
  390TMC3    H2 5887   4.532   3.897  12.153  0.3385  0.2857  0.6722
  390TMC3    C7 5888   4.711   4.105  12.192  0.4552 -0.0339  0.3842
  390TMC3    C8 5889   4.413   3.819  11.924  0.2021  0.7978 -0.3129
  390TMC3    O1 5890   0.056   4.201  12.192 -0.0001 -0.1732  0.2990
  390TMC3    O2 5891   4.415   3.760  11.819 -0.7950  0.4919  0.3372
  391MPD2     C 5892   3.970   1.205  11.137  1.1113 -0.3433  0.3906
  391MPD2    C1 5893   4.098   1.252  11.114 -0.3974 -1.4488  0.0156
  391MPD2    C2 5894   4.162   1.250  10.990  0.2935  0.4174  0.5209
  391MPD2    C3 5895   4.082   1.211  10.877 -0.6745  0.4326  0.1035
  391MPD2    C4 5896   3.948   1.172  10.901 -0.1540  0.6546  0.0103
  391MPD2    C5 5897   3.894   1.170  11.027 -0.0403 -0.2207  0.4047
  391MPD2     H 5898   4.264   1.283  10.975  0.8494 -0.3801  2.6339
  391MPD2    H1 5899   3.890   1.138  10.816  0.1833 -1.1091  0.4992
  391MPD2    H2 5900   3.921   1.205  11.234 -2.0776 -1.6232 -1.2217
  391MPD2    H3 5901   3.795   1.128  11.040 -0.2469 -0.1058 -0.8275
  391MPD2     N 5902   4.149   1.198  10.751 -0.2712  0.3939  0.1237
  391MPD2    H5 5903   4.249   1.193  10.764 -0.4243 -2.4502  0.1018
  391MPD2    N1 5904   4.177   1.305  11.217  0.1759 -0.8212  0.0191
  391MPD2    H7 5905   4.130   1.325  11.305  0.1283  1.1579 -0.4641
  392TMC3    C1 5906   4.171   1.209  10.515  0.0353 -0.2874 -0.5599
  392TMC3    C2 5907   4.113   1.223  10.395  0.1516 -0.6083 -0.9111
  392TMC3    C3 5908   4.187   1.267  10.287  0.3210 -0.5264 -0.5077
  392TMC3    C4 5909   4.305   1.228  10.529 -0.0548  0.1486  0.3802
  392TMC3    C5 5910   4.378   1.261  10.419  0.4005  0.0578  0.0991
  392TMC3    C6 5911   4.319   1.291  10.303 -0.9556  0.5252  0.4109
  392TMC3     C 5912   4.081   1.205  10.631 -0.0570 -0.0693  0.1756
  392TMC3     O 5913   3.965   1.252  10.620 -0.3187  0.2799  0.5861
  392TMC3     H 5914   4.010   1.189  10.392 -0.3995  0.7796  1.4889
  392TMC3    H1 5915   4.354   1.224  10.626  0.7689  1.7803  0.0302
  392TMC3    H2 5916   4.373   1.335  10.220 -0.5094 -3.0652 -1.1941
  392TMC3    C7 5917   4.502   1.330  10.446  0.2011  0.3009 -0.0742
  392TMC3    C8 5918   4.122   1.291  10.158 -0.2261 -0.0647  0.1402
  392TMC3    O1 5919   4.514   1.441  10.395  0.1121  0.3246 -0.2608
  392TMC3    O2 5920   4.008   1.247  10.145  0.0259  0.4711  0.0507
  393TMC3    C1 5921   2.980   3.951  10.872 -0.0978  0.0378 -0.1113
  393TMC3    C2 5922   2.895   3.938  10.979  0.4212 -0.0357  0.4115
  393TMC3    C3 5923   2.875   3.815  11.042  0.5172  0.1176  0.2273
  393TMC3    C4 5924   3.066   3.850  10.840 -0.1219 -0.4188  0.8996
  393TMC3    C5 5925   3.038   3.732  10.901  0.0421  0.4113  0.5086
  393TMC3    C6 5926   2.955   3.711  11.004  0.3075 -0.2888  0.2709
  393TMC3     C 5927   2.986   4.079  10.796  0.5192 -0.1621 -0.0104
  393TMC3     O 5928   2.907   4.163  10.827 -0.0403  0.0396  0.2278
  393TMC3     H 5929   2.829   4.020  11.003 -0.3582 -0.2060 -1.1204
  393TMC3    H1 5930   3.141   3.852  10.761 -0.9489  0.0064  0.1168
  393TMC3    H2 5931   2.939   3.611  11.042 -0.7198  0.1342  0.9500
  393TMC3    C7 5932   3.131   3.626  10.878  0.8354 -1.4892  0.0120
  393TMC3    C8 5933   2.831   3.812  11.177 -1.4227 -0.0057  0.0891
  393TMC3    O1 5934   3.088   3.511  10.879 -0.5196 -0.0624 -0.2343
  393TMC3    O2 5935   2.910   3.747  11.241  0.5197 -0.1556  0.0865
  394TMC3    C1 5936   4.489   4.331  11.106 -0.1452  0.4154  0.0682
  394TMC3    C2 5937   4.453   4.231  11.021  0.7129 -0.3006 -0.6311
  394TMC3    C3 5938   4.390   4.264  10.896 -0.1761 -0.4345 -0.0752
  394TMC3    C4 5939   4.445   4.457  11.089  0.4224 -0.1558 -0.5758
  394TMC3    C5 5940   4.378   4.488  10.967  1.0358  0.1273 -0.1240
  394TMC3    C6 5941   4.360   4.389  10.870 -0.2129  0.3716  0.4400
  394TMC3     C 5942   4.563   4.295  11.226 -1.0461 -0.0137  0.5312
  394TMC3     O 5943   4.553   4.185  11.276 -0.2564 -0.6967  0.4956
  394TMC3     H 5944   4.480   4.130  11.050  0.7166 -0.1928 -0.2573
  394TMC3    H1 5945   4.471   4.534  11.161  2.8858 -0.8823 -0.6762
  394TMC3    H2 5946   4.326   4.422  10.772  1.8213  1.1586 -0.0011
  394TMC3    C7 5947   4.360   4.625  10.931 -0.4928 -0.5791 -0.0928
  394TMC3    C8 5948   4.413   4.180  10.785  0.2216 -0.8554 -0.4132
  394TMC3    O1 5949   4.359   4.659  10.811 -0.2401 -0.1598  0.2168
  394TMC3    O2 5950   4.362   4.218  10.677 -0.1415  0.0641 -0.3904
  395TMC3    C1 5951   0.294   1.708  14.969 -0.1658  0.9357 -0.2014
  395TMC3    C2 5952   0.245   1.701  14.842  0.2283 -0.1006  0.2310
  395TMC3    C3 5953   0.288   1.793  14.751 -0.1745  1.2400 -0.1888
  395TMC3    C4 5954   0.400   1.786  15.003  0.2383 -0.4668 -0.0752
  395TMC3    C5 5955   0.449   1.869  14.905 -1.4387 -1.1115 -0.0624
  395TMC3    C6 5956   0.399   1.871  14.778  1.1171 -0.6227  0.3063
  395TMC3     C 5957   0.255   1.620  15.078  0.3844 -0.0459  0.1329
  395TMC3     O 5958   0.315   1.615  15.183  0.0697 -0.2525  0.0102
  395TMC3     H 5959   0.149   1.656  14.820  0.7936 -1.8135  1.2835
  395TMC3    H1 5960   0.427   1.815  15.104 -2.3733 -3.0357  1.3399
  395TMC3    H2 5961   0.440   1.944  14.709 -0.3983 -2.5051 -2.5611
  395TMC3    C7 5962   0.546   1.974  14.939 -0.3207 -0.8469 -0.1110
  395TMC3    C8 5963   0.224   1.808  14.616 -0.7191  0.4965  0.5676
  395TMC3    O1 5964   0.557   2.008  15.053 -0.4618 -0.4041  0.5169
  395TMC3    O2 5965   0.241   1.907  14.547 -1.4537  0.3766  0.6003
  396MPD2     C 5966   4.294   2.283  17.135 -0.1709  0.4599 -0.4729
  396MPD2    C1 5967   4.372   2.342  17.233  0.3574  0.4936 -0.8129
  396MPD2    C2 5968   4.403   2.481  17.220  0.0229 -0.1273  0.1609
  396MPD2    C3 5969   4.364   2.548  17.100  0.2678  0.0261 -0.4232
  396MPD2    C4 5970   4.293   2.479  17.007  0.8864 -0.0683 -0.0718
  396MPD2    C5 5971   4.260   2.349  17.020  0.0437  0.4371 -0.6097
  396MPD2     H 5972   4.463   2.539  17.289  1.8645 -1.0840 -0.6515
  396MPD2    H1 5973   4.262   2.528  16.916 -1.9532 -1.6789  0.0227
  396MPD2    H2 5974   4.252   2.184  17.137 -3.3084  1.8077 -0.3264
  396MPD2    H3 5975   4.210   2.296  16.941  2.7386  1.0797 -2.7826
  396MPD2     N 5976   4.416   2.679  17.084 -0.2965 -0.0043  0.0505
  396MPD2    H5 5977   4.461   2.716  17.167 -0.4506  0.4473 -0.0677
  396MPD2    N1 5978   4.412   2.267  17.344 -0.0664 -0.1244  0.0544
  396MPD2    H7 5979   4.386   2.169  17.343 -1.0484  0.1203  2.1300
  397TMC3    C1 5980   4.525   2.198  17.540 -0.0219 -0.6429  0.2633
  397TMC3    C2 5981   4.664   2.198  17.524 -0.5220 -0.5138 -0.2041
  397TMC3    C3 5982   4.721   2.095  17.447 -0.2406 -0.3181 -0.3698
  397TMC3    C4 5983   4.458   2.083  17.517  0.0735 -0.2998 -0.1798
  397TMC3    C5 5984   4.516   1.968  17.465 -0.4940 -0.2830 -1.0239
  397TMC3    C6 5985   4.653   1.980  17.430 -0.4202 -0.2814 -0.1934
  397TMC3     C 5986   4.474   2.312  17.465  0.0866 -0.2942 -0.4055
  397TMC3     O 5987   4.521   2.420  17.493 -0.5865 -0.2846  0.1545
  397TMC3     H 5988   4.705   2.297  17.536 -0.4014 -0.5761 -0.1020
  397TMC3    H1 5989   4.353   2.080  17.545  0.3156  0.0478  0.7744
  397TMC3    H2 5990   4.699   1.887  17.396  0.3185  0.4624 -1.2200
  397TMC3    C7 5991   4.504   1.844  17.532  0.3210 -0.5615  0.5730
  397TMC3    C8 5992   0.070   2.142  17.337 -1.4214 -0.0057 -0.2533
  397TMC3    O1 5993   4.536   1.744  17.467 -0.0026  0.0870 -0.3762
  397TMC3    O2 5994   0.051   2.079  17.234 -0.0734  0.5883 -0.0666
  398MPD2     C 5995   2.694   3.654   0.414  0.5027  0.3569  0.1407
  398MPD2    C1 5996   2.781   3.556   0.442  0.1761 -0.3124 -0.5309
  398MPD2    C2 5997   2.854   3.564   0.558 -0.3807  0.6031 -0.3820
  398MPD2    C3 5998   2.838   3.676   0.645  0.7525  0.0323 -0.9578
  398MPD2    C4 5999   2.743   3.768   0.618 -0.2440 -0.4549  0.1167
  398MPD2    C5 6000   2.675   3.753   0.500  0.2511  0.1500  0.3132
  398MPD2     H 6001   2.930   3.490   0.580  0.2977  0.9677 -1.4975
  398MPD2    H1 6002   2.734   3.852   0.685 -1.1579 -0.1468 -0.3882
  398MPD2    H2 6003   2.629   3.658   0.326  0.7691 -0.3631 -0.0881
  398MPD2    H3 6004   2.604   3.828   0.467 -0.8197 -0.6297  0.8733
  398MPD2     N 6005   2.934   3.682   0.753 -0.5115 -0.6221 -0.3201
  398MPD2    H5 6006   3.007   3.612   0.749 -0.2840 -0.3182 -1.6391
  398MPD2    N1 6007   2.812   3.447   0.357  0.1630  0.3478  0.2993
  398MPD2    H7 6008   2.864   3.371   0.399  1.4071  0.7478 -0.5178
  399TMC3    C1 6009   2.793   3.298   0.187  0.0430 -0.4273  0.3388
  399TMC3    C2 6010   2.924   3.266   0.175 -0.3178  0.2257  0.2093
  399TMC3    C3 6011   2.960   3.138   0.136  0.4300 -0.1972 -0.2644
  399TMC3    C4 6012   2.696   3.198   0.190  0.2047  0.0560 -0.3256
  399TMC3    C5 6013   2.735   3.067   0.165 -0.1521 -0.6520 -0.5975
  399TMC3    C6 6014   2.864   3.038   0.138 -0.2126 -0.4962  0.3645
  399TMC3     C 6015   2.756   3.420   0.239  0.0419 -0.3995  0.0000
  399TMC3     O 6016   2.673   3.491   0.180  0.2768  0.6899 -0.6417
  399TMC3     H 6017   3.000   3.343   0.185 -2.4829  2.6098 -1.9113
  399TMC3    H1 6018   2.602   3.220   0.238  0.6733  1.0654  0.1374
  399TMC3    H2 6019   2.891   2.936   0.117 -1.1109 -0.9960  1.6374
  399TMC3    C7 6020   2.648   2.959   0.208 -0.5504  0.7067  0.6801
  399TMC3    C8 6021   3.095   3.108   0.114  0.5282  0.3265  0.8263
  399TMC3    O1 6022   2.689   2.870   0.273  0.5410 -0.6285  0.2002
  399TMC3    O2 6023   3.169   3.202   0.097  0.2268 -0.4580 -0.5143
  400TMC3    C1 6024   1.032   2.331  17.025 -0.5175  0.6342 -0.1910
  400TMC3    C2 6025   0.933   2.242  16.997 -1.1268  0.2614  0.0303
  400TMC3    C3 6026   0.814   2.286  16.935 -0.0066  0.5253 -0.2315
  400TMC3    C4 6027   1.006   2.469  17.004  0.2669 -0.5086 -0.0719
  400TMC3    C5 6028   0.882   2.507  16.963 -0.0140  0.3703  0.2984
  400TMC3    C6 6029   0.789   2.418  16.908  1.1243 -0.2115  0.2149
  400TMC3     C 6030   1.133   2.290  17.124 -0.2297  0.7248  0.6606
  400TMC3     O 6031   1.107   2.187  17.180 -0.3007 -0.1623  0.2791
  400TMC3     H 6032   0.953   2.138  17.018 -0.5945 -0.0794 -2.2007
  400TMC3    H1 6033   1.080   2.542  17.036 -0.3497 -0.0749  0.3497
  400TMC3    H2 6034   0.703   2.452  16.852  2.2614  2.4319  0.0876
  400TMC3    C7 6035   0.850   2.642  16.922  0.0501  0.4709 -0.1366
  400TMC3    C8 6036   0.726   2.194  16.866  0.5119  0.3962  0.6551
  400TMC3    O1 6037   0.786   2.656  16.820 -0.1603  0.0610  0.0344
  400TMC3    O2 6038   0.636   2.238  16.795 -0.2862 -0.4864  0.6160
  401MPD2     C 6039   4.484   1.150   1.151 -0.3100  0.0332 -0.5335
  401MPD2    C1 6040   4.547   1.179   1.271  0.1208 -0.4716  0.3103
  401MPD2    C2 6041   4.496   1.117   1.379 -0.5774  0.2815 -0.6651
  401MPD2    C3 6042   4.374   1.040   1.380  1.0118  0.6882  0.1065
  401MPD2    C4 6043   4.306   1.024   1.262  0.2995 -0.2548 -0.4473
  401MPD2    C5 6044   4.357   1.085   1.153 -0.4388 -0.0375 -0.2639
  401MPD2     H 6045   4.549   1.128   1.473  0.5216 -0.7204 -1.1542
  401MPD2    H1 6046   4.208   0.979   1.253 -0.1161  0.6502 -0.4319
  401MPD2    H2 6047   4.530   1.191   1.061 -1.5895  0.4212 -1.0040
  401MPD2    H3 6048   4.296   1.081   1.063  0.0193 -1.1769 -0.5209
  401MPD2     N 6049   4.336   0.990   1.502  0.2036  0.6519  0.2808
  401MPD2    H5 6050   4.395   1.012   1.582 -0.9817 -0.9047  1.5802
  401MPD2    N1 6051   4.675   1.237   1.284 -0.2403 -0.9597 -0.7059
  401MPD2    H7 6052   4.720   1.225   1.374 -0.9733 -0.1816 -0.2357
  402TMC3    C1 6053   4.269   0.827   1.656  0.3539  0.0865  0.1803
  402TMC3    C2 6054   4.229   0.697   1.662  0.1783 -0.1220 -0.0928
  402TMC3    C3 6055   4.294   0.613   1.748  0.4793 -0.0645 -0.0856
  402TMC3    C4 6056   4.373   0.873   1.731  0.5055 -0.7875 -0.0572
  402TMC3    C5 6057   4.435   0.776   1.811  0.0488  0.4914  0.6471
  402TMC3    C6 6058   4.400   0.650   1.825 -0.1509 -0.0057 -0.4234
  402TMC3     C 6059   4.240   0.892   1.528  0.7003 -0.4801 -0.1911
  402TMC3     O 6060   4.171   0.833   1.446 -0.0902 -0.1043 -0.2247
  402TMC3     H 6061   4.133   0.675   1.615  0.0096 -2.0644  1.1657
  402TMC3    H1 6062   4.400   0.978   1.731 -1.2264 -0.3479 -2.3314
  402TMC3    H2 6063   4.445   0.584   1.898 -0.2267 -1.0669 -1.3310
  402TMC3    C7 6064   4.578   0.779   1.810  0.2733 -0.0062  0.5942
  402TMC3    C8 6065   4.296   0.473   1.713  0.0274  0.5691 -0.1223
  402TMC3    O1 6066   4.634   0.728   1.911 -0.3260 -0.6899  0.3138
  402TMC3    O2 6067   4.391   0.417   1.763  0.1366  0.3471 -0.0665
  403MPD2     C 6068   2.596   3.702  13.333  0.3240 -0.5763  0.5773
  403MPD2    C1 6069   2.654   3.677  13.455  0.3626 -0.5024 -1.0447
  403MPD2    C2 6070   2.761   3.759  13.495  0.1807  0.1921 -0.0422
  403MPD2    C3 6071   2.786   3.878  13.425  0.7542 -0.4071 -1.1124
  403MPD2    C4 6072   2.734   3.896  13.297  0.4593 -0.2254 -0.0898
  403MPD2    C5 6073   2.640   3.807  13.256  0.7973  1.0287  0.1702
  403MPD2     H 6074   2.801   3.738  13.594  1.9505  0.9674 -0.5956
  403MPD2    H1 6075   2.754   3.977  13.228 -1.0748  0.3480  0.1473
  403MPD2    H2 6076   2.515   3.640  13.295 -0.0725 -0.3172  1.0007
  403MPD2    H3 6077   2.611   3.822  13.152 -1.3552 -2.4252  0.2828
  403MPD2     N 6078   2.879   3.967  13.490 -0.7142  0.3339 -0.4011
  403MPD2    H5 6079   2.934   3.924  13.563 -0.9924  3.0628  1.4235
  403MPD2    N1 6080   2.602   3.571  13.519  0.1137  1.2201  0.8837
  403MPD2    H7 6081   2.509   3.545  13.487  1.2759 -0.2897 -1.1937
  404TMC3    C1 6082   2.560   3.412  13.695 -0.6653  1.3116 -0.2775
  404TMC3    C2 6083   2.568   3.386  13.830  0.0868 -0.1820  0.5188
  404TMC3    C3 6084   2.501   3.272  13.878  0.4597 -0.5734  0.2038
  404TMC3    C4 6085   2.477   3.340  13.615 -0.6311 -0.7360  0.1787
  404TMC3    C5 6086   2.405   3.236  13.669 -0.7042  0.0719 -0.5796
  404TMC3    C6 6087   2.419   3.199  13.792 -0.0523 -0.2206  0.1619
  404TMC3     C 6088   2.642   3.519  13.641 -0.4593 -0.5636 -0.2608
  404TMC3     O 6089   2.720   3.573  13.721 -0.0208  0.5064 -0.1607
  404TMC3     H 6090   2.636   3.444  13.892  0.7183  0.9101 -1.2049
  404TMC3    H1 6091   2.474   3.360  13.509  1.4482 -2.3502 -0.1884
  404TMC3    H2 6092   2.367   3.111  13.827  1.1965 -1.3836 -0.9459
  404TMC3    C7 6093   2.358   3.137  13.584 -0.5149 -0.3959 -0.1835
  404TMC3    C8 6094   2.506   3.224  14.018  0.8591  0.2831 -0.2404
  404TMC3    O1 6095   2.382   3.024  13.622 -0.3730  0.0434  0.4632
  404TMC3    O2 6096   2.413   3.154  14.058  0.0694 -0.5405 -0.2523
  405MPD2     C 6097   3.063   4.481  14.584  0.3662 -0.4032  0.3690
  405MPD2    C1 6098   3.104   4.435  14.464  0.0486 -0.2326  0.2153
  405MPD2    C2 6099   3.070   4.516  14.352 -0.5411  0.0183 -0.0345
  405MPD2    C3 6100   2.984   4.620  14.359 -0.0284  0.0204 -0.5809
  405MPD2    C4 6101   2.930   4.653  14.487 -0.3459  0.2276  0.2191
  405MPD2    C5 6102   2.983   4.593  14.597 -0.4811 -0.0663 -0.2604
  405MPD2     H 6103   3.109   4.491  14.255  1.7797 -3.1094  1.7088
  405MPD2    H1 6104   2.864   0.002  14.493 -0.2135  0.4134 -1.0922
  405MPD2    H2 6105   3.083   4.425  14.675  0.4353 -3.0198 -1.2497
  405MPD2    H3 6106   2.955   4.619  14.699 -1.6112  1.3635 -0.9257
  405MPD2     N 6107   2.948   4.690  14.237 -0.0265 -0.1040  0.2480
  405MPD2    H5 6108   3.000   4.656  14.157 -1.5049 -1.6036 -0.0656
  405MPD2    N1 6109   3.161   4.310  14.451  0.2924 -0.1230  0.3042
  405MPD2    H7 6110   3.185   4.269  14.541 -0.0257 -0.1882  0.3599
  406TMC3    C1 6111   2.665   0.166  13.928 -0.3393  0.0640  0.2881
  406TMC3    C2 6112   2.676   0.057  13.848  0.3641 -0.0037 -0.0621
  406TMC3    C3 6113   2.749   4.682  13.894 -0.1609 -0.6799 -0.5086
  406TMC3    C4 6114   2.717   0.167  14.056 -0.3550 -0.4463  0.2447
  406TMC3    C5 6115   2.792   0.061  14.093  0.4771  0.2741  0.1722
  406TMC3    C6 6116   2.814   4.682  14.013  0.1040  0.4129  0.4663
  406TMC3     C 6117   2.531   0.233  13.908 -0.2067  0.3551 -0.2940
  406TMC3     O 6118   2.511   0.294  13.806  0.2905  0.0581 -0.1262
  406TMC3     H 6119   2.628   0.051  13.751 -0.5793 -0.5205  0.4328
  406TMC3    H1 6120   2.693   0.252  14.119  0.9779  0.6355 -0.7189
  406TMC3    H2 6121   2.845   4.591  14.062  0.4193  0.8312  1.0420
  406TMC3    C7 6122   2.847   0.057  14.228  0.8770 -0.0880 -0.1929
  406TMC3    C8 6123   2.736   4.560  13.817  0.1474  0.0403 -0.3142
  406TMC3    O1 6124   2.801   0.138  14.311 -0.5202 -0.8642  0.2215
  406TMC3    O2 6125   2.646   4.539  13.732  0.0930  0.3145 -0.3027
  407MPD2     C 6126   0.316   1.114  10.184 -0.2290  0.4870  0.5519
  407MPD2    C1 6127   0.454   1.123  10.153 -0.6049  0.2804  0.0817
  407MPD2    C2 6128   0.531   1.217  10.220 -0.3984 -0.3840 -1.3249
  407MPD2    C3 6129   0.467   1.304  10.304 -0.9556 -0.5490 -0.6085
  407MPD2    C4 6130   0.327   1.305  10.320 -0.1290 -0.1473  0.0301
  407MPD2    C5 6131   0.255   1.201  10.271  0.7581 -0.1599  0.5275
  407MPD2     H 6132   0.637   1.223  10.200 -0.3248 -0.8817 -1.0803
  407MPD2    H1 6133   0.291   1.377  10.392  1.8326  1.2759 -0.3931
  407MPD2    H2 6134   0.245   1.039  10.151  0.9607  0.0877 -1.1433
  407MPD2    H3 6135   0.146   1.200  10.271  0.7599 -0.9526 -0.2036
  407MPD2     N 6136   0.532   1.406  10.379  0.7605 -0.0105  0.4799
  407MPD2    H5 6137   0.488   1.491  10.413 -1.1957  0.7380 -3.9299
  407MPD2    N1 6138   0.511   1.046  10.052  0.5858  0.1793  0.2053
  407MPD2    H7 6139   0.605   1.068  10.021  0.4197  1.2008  0.4371
  408TMC3    C1 6140   0.512   0.933   9.854 -0.1745 -0.0236 -0.2601
  408TMC3    C2 6141   0.646   0.947   9.853  0.4971  0.2704 -0.1607
  408TMC3    C3 6142   0.707   0.970   9.736 -0.2162  0.3352 -0.4160
  408TMC3    C4 6143   0.448   0.925   9.737  0.1291  0.0341 -0.4816
  408TMC3    C5 6144   0.508   0.943   9.621 -0.4211 -0.8558 -0.2243
  408TMC3    C6 6145   0.643   0.973   9.615  0.0867 -0.1643  0.2259
  408TMC3     C 6146   0.437   0.955   9.983 -0.0509 -0.0473 -0.0179
  408TMC3     O 6147   0.327   0.901   9.996 -0.5403 -0.2034 -0.0537
  408TMC3     H 6148   0.700   0.940   9.947  1.3673  0.8611 -0.6198
  408TMC3    H1 6149   0.340   0.929   9.744  0.1765 -1.1492  1.0081
  408TMC3    H2 6150   0.694   1.011   9.527  0.6611  0.5882  0.8867
  408TMC3    C7 6151   0.430   0.947   9.495  0.4253 -0.1748 -0.3776
  408TMC3    C8 6152   0.847   0.938   9.728  0.0580  0.6262 -0.3910
  408TMC3    O1 6153   0.472   0.994   9.390  0.4321  0.1125 -0.4102
  408TMC3    O2 6154   0.882   0.875   9.630 -0.5229  0.7911 -0.3266
  409MPD2     C 6155   0.365   1.636  16.955 -0.5283 -0.9904 -0.0857
  409MPD2    C1 6156   0.388   1.668  17.088 -0.0957 -0.0539 -0.4556
  409MPD2    C2 6157   0.368   1.801  17.129 -0.7483 -0.1303  0.4591
  409MPD2    C3 6158   0.364   1.904  17.034  0.6237 -0.1703  0.6422
  409MPD2    C4 6159   0.334   1.868  16.903  0.0383 -0.1490  0.5447
  409MPD2    C5 6160   0.334   1.735  16.871 -0.0667 -0.2137 -1.0814
  409MPD2     H 6161   0.386   1.828  17.232  2.7790 -0.4864 -0.0778
  409MPD2    H1 6162   0.322   1.939  16.822 -2.3207 -0.6830  0.4227
  409MPD2    H2 6163   0.371   1.534  16.919  0.0849 -0.6726 -0.8865
  409MPD2    H3 6164   0.314   1.710  16.767 -0.0181 -0.0537 -1.1291
  409MPD2     N 6165   0.376   2.036  17.062 -0.3415  0.1447  0.1123
  409MPD2    H5 6166   0.354   2.104  16.990  0.0446  0.3290  0.1697
  409MPD2    N1 6167   0.434   1.562  17.167  1.0569 -0.1164  0.1028
  409MPD2    H7 6168   0.470   1.480  17.120 -0.2615  0.4785 -1.9790
  410TMC3    C1 6169   0.441   2.239  17.175 -0.3697 -0.1229  0.1965
  410TMC3    C2 6170   0.533   2.295  17.257 -0.2168 -0.6109  0.4017
  410TMC3    C3 6171   0.577   2.428  17.231 -0.2872 -0.2040  0.2376
  410TMC3    C4 6172   0.394   2.310  17.064 -0.5018  0.3928  0.5147
  410TMC3    C5 6173   0.428   2.441  17.055 -0.6766 -0.1095 -0.3947
  410TMC3    C6 6174   0.523   2.502  17.128  0.2318 -0.4000  0.0042
  410TMC3     C 6175   0.439   2.093  17.173 -0.5456  0.0560 -0.1123
  410TMC3     O 6176   0.501   2.041  17.258 -0.3549 -0.3076  0.6990
  410TMC3     H 6177   0.565   2.248  17.349 -1.2247 -0.3201  0.9060
  410TMC3    H1 6178   0.317   2.277  16.996 -0.1998  1.3258 -0.2856
  410TMC3    H2 6179   0.565   2.601  17.117  0.3320 -0.2762  1.4342
  410TMC3    C7 6180   0.398   2.494  16.923 -0.0480 -0.6413  0.5077
  410TMC3    C8 6181   0.719   2.456  17.266 -0.2179  0.3135 -0.3000
  410TMC3    O1 6182   0.334   2.423  16.847  0.4501  0.2877  0.5528
  410TMC3    O2 6183   0.763   2.559  17.209  0.3772 -0.2567  0.9778
  411MPD2     C 6184   0.771   2.520  15.089 -0.0474  0.1819  0.6631
  411MPD2    C1 6185   0.684   2.586  15.183 -0.6676 -0.1946 -0.3959
  411MPD2    C2 6186   0.581   2.510  15.236 -0.2447  0.0736  0.1395
  411MPD2    C3 6187   0.547   2.392  15.179  0.7084  0.0397  0.2188
  411MPD2    C4 6188   0.619   2.339  15.077  0.4148 -0.2083  0.5169
  411MPD2    C5 6189   0.734   2.398  15.044  0.5226  0.3721  0.6518
  411MPD2     H 6190   0.519   2.552  15.314  0.6496 -1.9347  1.9098
  411MPD2    H1 6191   0.603   2.236  15.047  0.4496 -0.6126  1.8797
  411MPD2    H2 6192   0.861   2.572  15.058 -1.8085  3.0045  0.3034
  411MPD2    H3 6193   0.798   2.344  14.976  0.3530 -0.1653  0.9155
  411MPD2     N 6194   0.441   2.312  15.216  0.1109 -0.3719  0.1299
  411MPD2    H5 6195   0.428   2.230  15.157 -0.4883 -1.0957  1.2707
  411MPD2    N1 6196   0.715   2.717  15.218  0.2724 -0.0796 -0.1024
  411MPD2    H7 6197   0.785   2.760  15.159 -0.4504 -0.6917 -1.4271
  412TMC3    C1 6198   0.237   2.238  15.278 -0.6764 -0.1499  0.1783
  412TMC3    C2 6199   0.109   2.277  15.309 -0.5772  0.2339  0.3247
  412TMC3    C3 6200   0.004   2.195  15.292 -0.5929  1.3988  0.1611
  412TMC3    C4 6201   0.264   2.112  15.230  0.2411 -0.7570 -0.7845
  412TMC3    C5 6202   0.152   2.032  15.214  0.3360  0.6560  0.0208
  412TMC3    C6 6203   0.024   2.069  15.264  0.0283  0.1853  0.0756
  412TMC3     C 6204   0.339   2.344  15.295  0.6640  1.2012  0.5689
  412TMC3     O 6205   0.313   2.434  15.376 -0.1099  0.1349  0.0672
  412TMC3     H 6206   0.087   2.383  15.321  1.4503  0.7211 -0.2550
  412TMC3    H1 6207   0.363   2.079  15.199  0.9624 -0.5298  1.2348
  412TMC3    H2 6208   4.673   2.007  15.245  0.5895 -1.2583  2.0955
  412TMC3    C7 6209   0.136   1.989  15.076 -0.3401  0.0368 -0.0895
  412TMC3    C8 6210   4.647   2.261  15.198  0.5819 -0.2207 -0.0738
  412TMC3    O1 6211   0.207   2.057  14.999  0.1274  0.4048  0.4175
  412TMC3    O2 6212   4.695   2.348  15.124 -0.4449 -0.2734 -0.3616
  413MPD2     C 6213   1.773   0.227  15.755  0.5706  0.2393 -0.2527
  413MPD2    C1 6214   1.791   0.329  15.659  0.2788  0.3277  0.5215
  413MPD2    C2 6215   1.916   0.331  15.586 -0.3146 -0.1616 -0.8730
  413MPD2    C3 6216   2.005   0.226  15.613 -0.0725  0.6914  0.1649
  413MPD2    C4 6217   1.980   0.128  15.708  0.2044  0.0913 -0.1306
  413MPD2    C5 6218   1.864   0.132  15.778 -0.2208  0.1241 -0.0954
  413MPD2     H 6219   1.937   0.411  15.515  3.6218  0.0606  0.5488
  413MPD2    H1 6220   2.027   0.031  15.705  3.2230  1.5463  0.9746
  413MPD2    H2 6221   1.680   0.213  15.810  1.9036 -1.6034  1.5360
  413MPD2    H3 6222   1.831   0.049  15.840  2.0798  0.2842  1.3188
  413MPD2     N 6223   2.113   0.216  15.521  0.0353 -0.6602 -0.2747
  413MPD2    H5 6224   2.128   0.289  15.453 -0.9225  2.2561  2.6333
  413MPD2    N1 6225   1.685   0.424  15.635 -0.2697  0.3693 -1.2764
  413MPD2    H7 6226   1.600   0.417  15.690  1.2667  0.0441  1.0602
  414TMC3    C1 6227   2.307   0.121  15.408 -0.0070  0.6161 -0.0400
  414TMC3    C2 6228   2.391   0.017  15.411 -0.1120 -0.5940  0.6615
  414TMC3    C3 6229   2.458   4.716  15.296  0.4426 -0.4889  0.5128
  414TMC3    C4 6230   2.267   0.180  15.288  0.7985 -0.1302 -0.1138
  414TMC3    C5 6231   2.347   0.154  15.177 -0.1257  0.4223  0.1319
  414TMC3    C6 6232   2.444   0.058  15.184  0.1376 -0.3392 -0.9575
  414TMC3     C 6233   2.208   0.118  15.521  0.6232  0.2027 -0.4453
  414TMC3     O 6234   2.220   0.019  15.588 -0.1010  0.0482 -0.4592
  414TMC3     H 6235   2.404   4.693  15.500  0.8471  1.2769  1.7610
  414TMC3    H1 6236   2.192   0.258  15.290  0.9416  0.0447 -2.3735
  414TMC3    H2 6237   2.514   0.047  15.103  1.2136 -1.8977  0.1638
  414TMC3    C7 6238   2.351   0.248  15.065  0.0585 -0.0658 -1.1818
  414TMC3    C8 6239   2.576   4.636  15.305  0.2497 -0.4508 -0.4740
  414TMC3    O1 6240   2.244   0.294  15.021  0.4475  0.1128  0.1120
  414TMC3    O2 6241   2.617   4.600  15.191 -0.3130 -0.0933 -0.6777
  415TMC3    C1 6242   2.846   3.136  10.876 -0.1619 -0.5257 -0.0979
  415TMC3    C2 6243   2.854   3.271  10.850  0.3355 -0.2177 -0.7511
  415TMC3    C3 6244   2.852   3.314  10.721  0.0563  0.1581  0.4827
  415TMC3    C4 6245   2.845   3.037  10.782  0.1043 -0.1873  0.1429
  415TMC3    C5 6246   2.870   3.087  10.653 -0.2206 -0.1369  0.4190
  415TMC3    C6 6247   2.866   3.219  10.622  0.6902  0.0597 -0.4201
  415TMC3     C 6248   2.814   3.082  11.004 -0.8245 -0.3191 -0.2734
  415TMC3     O 6249   2.776   2.965  10.997  0.0786  0.2080 -0.0034
  415TMC3     H 6250   2.845   3.348  10.926  0.4903  0.5289 -1.4925
  415TMC3    H1 6251   2.839   2.931  10.802  1.4371 -0.0767  1.1632
  415TMC3    H2 6252   2.866   3.254  10.520  0.6355 -2.4698 -1.2940
  415TMC3    C7 6253   2.861   2.998  10.535  0.5389 -0.7589  0.2090
  415TMC3    C8 6254   2.838   3.450  10.673  0.0610 -0.7545 -0.9856
  415TMC3    O1 6255   2.873   3.048  10.422  0.4111  0.4240  0.0878
  415TMC3    O2 6256   2.901   3.473  10.571  0.6085 -0.8274  0.5973
  416MPD2     C 6257   4.441   2.777  11.330 -0.0582 -0.1323 -0.6713
  416MPD2    C1 6258   4.367   2.692  11.415  0.9777 -0.5481 -0.2235
  416MPD2    C2 6259   4.345   2.564  11.375  0.0909 -0.3996 -0.3829
  416MPD2    C3 6260   4.396   2.514  11.261 -0.0739  0.6994 -0.2263
  416MPD2    C4 6261   4.465   2.596  11.176  0.8164  0.2652  0.0027
  416MPD2    C5 6262   4.499   2.722  11.216 -0.1322  0.7217 -0.4032
  416MPD2     H 6263   4.300   2.494  11.444 -0.6939 -0.6109 -1.1225
  416MPD2    H1 6264   4.520   2.568  11.087  1.9915 -0.1739  0.8655
  416MPD2    H2 6265   4.457   2.879  11.364 -1.1529  0.1793 -1.0965
  416MPD2    H3 6266   4.583   2.772  11.169 -0.5867  1.9468  0.0850
  416MPD2     N 6267   4.362   2.381  11.233  0.1768  0.0460 -0.4146
  416MPD2    H5 6268   4.304   2.336  11.303 -2.0243  0.5497 -1.9281
  416MPD2    N1 6269   4.305   2.747  11.529 -0.7194 -0.2951  0.1607
  416MPD2    H7 6270   4.287   2.847  11.529 -2.3166 -0.5700  0.9906
  417TMC3    C1 6271   4.168   2.739  11.711 -0.3311  0.8531 -0.4028
  417TMC3    C2 6272   4.184   2.698  11.845 -0.4452  0.5065 -0.4234
  417TMC3    C3 6273   4.065   2.689  11.913 -0.4372 -0.1971 -0.6602
  417TMC3    C4 6274   4.052   2.768  11.649 -0.0140 -0.3095  0.9556
  417TMC3    C5 6275   3.942   2.760  11.725 -0.8154  0.1340  0.0098
  417TMC3    C6 6276   3.945   2.715  11.856  0.2290  0.6836  0.3960
  417TMC3     C 6277   4.252   2.668  11.625 -0.1993 -0.6121  0.0199
  417TMC3     O 6278   4.293   2.558  11.661  0.2382 -0.3835 -0.3175
  417TMC3     H 6279   4.282   2.676  11.885 -1.8866 -1.1147  2.2962
  417TMC3    H1 6280   4.051   2.766  11.541  1.1140 -2.4142  0.9784
  417TMC3    H2 6281   3.848   2.711  11.905  0.1273 -1.0291  0.0497
  417TMC3    C7 6282   3.822   2.767  11.646  1.0489  0.2163  0.2677
  417TMC3    C8 6283   4.071   2.632  12.049 -0.6288 -0.0585 -0.1039
  417TMC3    O1 6284   3.832   2.840  11.545 -0.5111 -0.1614 -0.1933
  417TMC3    O2 6285   4.150   2.545  12.067  0.2595  0.2393 -0.3953
  418TMC3    C1 6286   3.276   3.708   0.782  0.4395  0.1413  0.1498
  418TMC3    C2 6287   3.163   3.782   0.783  0.4432 -0.1714  0.0165
  418TMC3    C3 6288   3.080   3.766   0.895 -0.3527  0.3117 -1.3558
  418TMC3    C4 6289   3.310   3.626   0.894 -0.3312  0.5600  0.0310
  418TMC3    C5 6290   3.231   3.624   1.009 -0.4507  0.0495 -0.2229
  418TMC3    C6 6291   3.107   3.692   1.007  0.9848  0.8017 -0.5023
  418TMC3     C 6292   3.347   3.701   0.662  0.7143 -0.1372  0.1190
  418TMC3     O 6293   3.334   3.800   0.594 -0.1229 -0.1388 -0.0775
  418TMC3     H 6294   3.127   3.835   0.696 -2.5101  2.2810  2.6989
  418TMC3    H1 6295   3.398   3.564   0.882  0.7712  2.0320  0.4635
  418TMC3    H2 6296   3.026   3.685   1.078  3.6389  0.7271  2.5298
  418TMC3    C7 6297   3.252   3.517   1.104 -1.0521  0.1768 -0.1866
  418TMC3    C8 6298   2.945   3.781   0.848 -0.5120  0.1200  0.2272
  418TMC3    O1 6299   3.303   3.419   1.048 -0.1784 -0.1945  0.2693
  418TMC3    O2 6300   2.878   3.878   0.876 -0.1262 -0.0536 -0.4479
  419MPD2     C 6301   1.260   2.663  12.357  0.0149  0.5811  0.1430
  419MPD2    C1 6302   1.165   2.758  12.401 -0.6337  0.3023 -0.5421
  419MPD2    C2 6303   1.105   2.742  12.528  0.3628 -0.7126  0.2003
  419MPD2    C3 6304   1.147   2.645  12.615 -1.1238 -0.0255  0.3178
  419MPD2    C4 6305   1.244   2.561  12.574  0.2673  0.2523  0.0814
  419MPD2    C5 6306   1.282   2.563  12.443  0.4887 -0.0403  0.2767
  419MPD2     H 6307   1.022   2.805  12.559  0.8857  1.0883 -2.0496
  419MPD2    H1 6308   1.266   2.470  12.628  1.7238 -0.7945 -2.2988
  419MPD2    H2 6309   1.296   2.654  12.255  1.7334  0.0134  0.7996
  419MPD2    H3 6310   1.347   2.486  12.403 -1.4061 -1.5883  0.1764
  419MPD2     N 6311   1.086   2.641  12.734 -0.3343  0.4825  0.5530
  419MPD2    H5 6312   1.016   2.710  12.759 -1.2801 -0.3424  0.1733
  419MPD2    N1 6313   1.107   2.859  12.318  0.2569 -0.6254  0.2548
  419MPD2    H7 6314   1.036   2.914  12.365  0.2640  0.9690 -1.6616
  420TMC3    C1 6315   0.984   2.563  12.922 -0.4148 -0.3240 -0.5027
  420TMC3    C2 6316   0.890   2.658  12.881  0.1003 -0.4793 -0.5017
  420TMC3    C3 6317   0.846   2.748  12.977 -0.6267  0.2577 -0.2139
  420TMC3    C4 6318   1.033   2.556  13.044  0.3888  0.2446 -0.3846
  420TMC3    C5 6319   0.989   2.643  13.140 -0.1633  0.0954  0.0901
  420TMC3    C6 6320   0.898   2.745  13.107  0.2579 -0.1412 -0.0001
  420TMC3     C 6321   1.083   2.538  12.819  0.4239 -0.1827  1.2528
  420TMC3     O 6322   1.130   2.426  12.820 -0.3099 -0.3570 -0.6900
  420TMC3     H 6323   0.844   2.659  12.783  0.0576  0.2693 -0.4744
  420TMC3    H1 6324   1.121   2.494  13.059 -1.8849 -2.5297  1.4813
  420TMC3    H2 6325   0.868   2.816  13.185  2.5092  0.9077 -0.0907
  420TMC3    C7 6326   1.067   2.652  13.259  0.2574 -0.4295 -0.0545
  420TMC3    C8 6327   0.771   2.858  12.919 -0.4151 -0.5453  0.5602
  420TMC3    O1 6328   1.132   2.548  13.281 -0.7727  0.6734  0.2528
  420TMC3    O2 6329   0.706   2.834  12.817 -0.8346 -0.2219  0.0214
  421TMC3    C1 6330   3.012   4.162  13.506  0.0948 -0.0103 -0.8089
  421TMC3    C2 6331   2.985   4.296  13.527 -0.4213 -1.0183  0.3045
  421TMC3    C3 6332   3.087   4.354  13.601 -0.1820 -0.0108  0.6392
  421TMC3    C4 6333   3.091   4.082  13.584  0.4808  0.2597  0.2344
  421TMC3    C5 6334   3.169   4.142  13.679  0.5658  0.7135 -0.7690
  421TMC3    C6 6335   3.179   4.278  13.674 -0.5332 -0.0898 -0.8082
  421TMC3     C 6336   2.899   4.096  13.445 -0.0222  1.2499 -0.8554
  421TMC3     O 6337   2.833   4.154  13.361  0.4809 -0.1571  0.3560
  421TMC3     H 6338   2.910   4.349  13.468  0.1484 -1.6281 -0.9588
  421TMC3    H1 6339   3.098   3.975  13.569  1.9355  0.4541 -0.5168
  421TMC3    H2 6340   3.255   4.335  13.725  0.0998 -0.7728 -0.9877
  421TMC3    C7 6341   3.262   4.076  13.761 -0.0981 -0.0734  0.0326
  421TMC3    C8 6342   3.089   4.500  13.620 -0.3346  0.0311 -0.7024
  421TMC3    O1 6343   3.339   4.150  13.818  0.5192 -0.6992  0.1021
  421TMC3    O2 6344   3.162   4.552  13.705 -0.2144  0.2541 -0.0801
  422TMC3    C1 6345   0.004   0.726  12.532  0.2818  0.3412  0.3108
  422TMC3    C2 6346   0.056   0.855  12.517 -0.1400  0.0770  0.4075
  422TMC3    C3 6347   4.702   0.956  12.504 -0.2679  0.4643 -0.7857
  422TMC3    C4 6348   4.607   0.704  12.565  0.2072  0.1167 -0.0721
  422TMC3    C5 6349   4.523   0.813  12.562  0.1001  0.1232  0.0040
  422TMC3    C6 6350   4.566   0.933  12.526 -0.5363  0.4801  0.6979
  422TMC3     C 6351   0.092   0.619  12.502  0.3661  0.2635 -0.3588
  422TMC3     O 6352   0.212   0.651  12.517  0.5142 -0.3653  0.0659
  422TMC3     H 6353   0.158   0.868  12.482 -0.2511 -0.7097 -0.2201
  422TMC3    H1 6354   4.575   0.603  12.590  1.5959 -0.3989 -0.4145
  422TMC3    H2 6355   4.508   1.023  12.537 -0.1079  0.7260  0.9312
  422TMC3    C7 6356   4.388   0.790  12.604  0.6226  0.3198 -0.9655
  422TMC3    C8 6357   0.006   1.091  12.510  0.2115 -0.2003 -0.4105
  422TMC3    O1 6358   4.370   0.703  12.689  0.5683  0.6647 -0.1226
  422TMC3    O2 6359   0.110   1.126  12.560 -0.1575  0.5854 -0.4763
  423MPD2     C 6360   1.968   0.809   0.718 -0.3224 -0.2617 -0.1373
  423MPD2    C1 6361   1.950   0.939   0.690 -0.3527 -0.7352 -0.2197
  423MPD2    C2 6362   1.926   0.984   0.563  0.3218 -0.5153 -0.6766
  423MPD2    C3 6363   1.932   0.900   0.452  0.1452  1.1878 -0.4813
  423MPD2    C4 6364   1.956   0.764   0.475 -0.1836  0.5358 -0.5599
  423MPD2    C5 6365   1.971   0.727   0.608  0.4391  0.0137 -0.7257
  423MPD2     H 6366   1.893   1.086   0.545 -2.5796 -1.3919 -0.3864
  423MPD2    H1 6367   1.970   0.690   0.397 -3.4538 -1.4532  0.6706
  423MPD2    H2 6368   1.959   0.768   0.817 -2.5176 -2.2079 -1.1527
  423MPD2    H3 6369   1.986   0.622   0.626  0.0377 -0.3892 -2.6731
  423MPD2     N 6370   1.913   0.937   0.322 -0.1561 -0.0625  0.6958
  423MPD2    H5 6371   1.917   0.864   0.251 -2.4920  1.9564 -1.5157
  423MPD2    N1 6372   1.941   1.034   0.789 -0.9420 -0.1031  0.5163
  423MPD2    H7 6373   1.942   1.130   0.755  0.7927  0.2277  1.4827
  424TMC3    C1 6374   1.983   1.123   1.001 -0.4479 -0.1422 -0.1850
  424TMC3    C2 6375   2.097   1.122   1.078  0.2909 -0.0717 -0.1973
  424TMC3    C3 6376   2.174   1.241   1.076 -0.6432 -0.2796  0.1597
  424TMC3    C4 6377   1.934   1.240   0.945 -0.1498 -0.1901  0.2167
  424TMC3    C5 6378   2.003   1.358   0.961 -0.2893  0.4835  0.4577
  424TMC3    C6 6379   2.125   1.357   1.030 -0.2354 -0.1414  0.3048
  424TMC3     C 6380   1.951   1.008   0.924  0.2349 -0.0089  0.0793
  424TMC3     O 6381   1.976   0.904   0.986 -0.2973  0.5030 -0.6847
  424TMC3     H 6382   2.149   1.031   1.107 -1.2451  0.1361  3.1752
  424TMC3    H1 6383   1.854   1.241   0.873 -1.0751 -0.2522  1.2547
  424TMC3    H2 6384   2.178   1.447   1.059  1.1151 -0.4545 -1.1699
  424TMC3    C7 6385   1.933   1.481   0.978 -0.0988 -0.2032 -0.1123
  424TMC3    C8 6386   2.312   1.212   1.035  0.2388 -0.8409  0.3814
  424TMC3    O1 6387   1.995   1.577   1.018  0.0547  0.3450 -0.2135
  424TMC3    O2 6388   2.357   1.100   1.056 -0.3202 -0.6137 -0.0258
  425MPD2     C 6389   1.228   0.984  17.304  0.2535 -0.8694 -0.6262
  425MPD2    C1 6390   1.133   0.902  17.240  0.7591 -0.6757 -0.4458
  425MPD2    C2 6391   1.001   0.931  17.245  0.7328  0.4102 -0.0515
  425MPD2    C3 6392   0.956   1.022  17.330  0.0355  0.0475  0.4643
  425MPD2    C4 6393   1.042   1.113  17.386 -0.0762 -0.1510  0.7226
  425MPD2    C5 6394   1.177   1.090  17.376 -0.3005  0.4115 -0.0606
  425MPD2     H 6395   0.931   0.869  17.190  1.0353 -0.9287  1.0713
  425MPD2    H1 6396   1.007   1.192  17.451 -1.8846 -0.2326 -0.1593
  425MPD2    H2 6397   1.336   0.972  17.301  0.6028  1.8182  2.0254
  425MPD2    H3 6398   1.250   1.149  17.430  0.5131 -0.5888 -0.0846
  425MPD2     N 6399   0.819   1.013  17.359  0.4309  0.0805  0.4545
  425MPD2    H5 6400   0.765   0.944  17.307 -2.5625  1.2465  2.0173
  425MPD2    N1 6401   1.193   0.801  17.162 -0.0611  0.3442 -0.2175
  425MPD2    H7 6402   1.294   0.792  17.171 -0.5340 -3.1051  1.6234
  426TMC3    C1 6403   1.206   0.614  17.021  0.1709 -0.0080  0.2098
  426TMC3    C2 6404   1.160   0.549  16.908 -0.1766  0.1413  0.0715
  426TMC3    C3 6405   1.219   0.428  16.885 -0.8906  0.4137  0.3585
  426TMC3    C4 6406   1.299   0.561  17.102 -1.0223 -0.9682  0.1783
  426TMC3    C5 6407   1.354   0.446  17.073  1.3000 -0.0637  0.3143
  426TMC3    C6 6408   1.312   0.380  16.965  0.2987 -0.7449  0.2275
  426TMC3     C 6409   1.124   0.714  17.086 -0.0163  0.3478 -0.6115
  426TMC3     O 6410   1.004   0.702  17.059  0.0527 -0.0680  0.6783
  426TMC3     H 6411   1.099   0.603  16.837 -1.0358 -1.0464 -0.0931
  426TMC3    H1 6412   1.335   0.615  17.189 -1.7903  1.9069 -1.2785
  426TMC3    H2 6413   1.362   0.287  16.939 -1.6858 -1.9831  0.8446
  426TMC3    C7 6414   1.370   0.351  17.183 -0.4852 -0.0145  0.4595
  426TMC3    C8 6415   1.161   0.334  16.786 -0.1240 -0.4823 -0.2798
  426TMC3    O1 6416   1.421   0.243  17.159  0.4612 -0.0193  0.4087
  426TMC3    O2 6417   1.202   0.222  16.777 -0.8598  0.6721  0.1613
  427MPD2     C 6418   4.324   2.569  15.247 -0.4899  0.3513 -0.7290
  427MPD2    C1 6419   4.313   2.625  15.370 -0.0638 -0.2825  0.0849
  427MPD2    C2 6420   4.221   2.729  15.387 -0.4788 -0.6894 -0.1064
  427MPD2    C3 6421   4.142   2.769  15.281 -0.2674  0.1910 -0.0666
  427MPD2    C4 6422   4.149   2.702  15.158  0.3717  0.5864  0.6807
  427MPD2    C5 6423   4.235   2.597  15.143 -0.6176  0.0667  0.5802
  427MPD2     H 6424   4.210   2.779  15.483  1.5971 -0.5509  0.0409
  427MPD2    H1 6425   4.085   2.735  15.078  0.8350  0.9512  0.4592
  427MPD2    H2 6426   4.392   2.486  15.233 -0.3872  0.1761  0.8863
  427MPD2    H3 6427   4.238   2.552  15.044  0.0680  2.2609 -0.3915
  427MPD2     N 6428   4.045   2.873  15.289  0.2932  0.0255  0.2954
  427MPD2    H5 6429   3.987   2.881  15.206 -0.2813  2.8761  0.9635
  427MPD2    N1 6430   4.401   2.590  15.480 -0.4601  0.3986 -0.3828
  427MPD2    H7 6431   4.408   2.649  15.562  1.1482 -2.3877  1.4715
  428TMC3    C1 6432   4.548   2.443  15.609 -0.2289 -0.9477  0.1038
  428TMC3    C2 6433   4.564   2.311  15.647 -0.6691  0.4565 -0.4426
  428TMC3    C3 6434   4.629   2.281  15.758  0.3843  0.3328 -0.3661
  428TMC3    C4 6435   4.603   2.549  15.676 -0.2528 -0.7883 -0.2357
  428TMC3    C5 6436   4.654   2.515  15.799 -0.1622 -0.4782 -0.3781
  428TMC3    C6 6437   4.677   2.388  15.837  0.3093 -0.2576 -0.8156
  428TMC3     C 6438   4.457   2.466  15.499  0.0724 -0.2290  0.2106
  428TMC3     O 6439   4.446   2.365  15.432 -0.4906  0.2528  0.2512
  428TMC3     H 6440   4.510   2.224  15.610  2.1839 -1.9726  1.0780
  428TMC3    H1 6441   4.592   2.650  15.638  0.3783 -0.7223 -0.2430
  428TMC3    H2 6442   0.005   2.371  15.923  0.0965  0.2798 -0.5525
  428TMC3    C7 6443   0.037   2.593  15.853  0.2959  0.4834  0.3615
  428TMC3    C8 6444   4.664   2.142  15.791  0.1048  0.1634  0.2262
  428TMC3    O1 6445   0.048   2.600  15.976 -0.3039 -0.5069  1.1623
  428TMC3    O2 6446   4.635   2.053  15.708  0.2561 -0.7080  0.0623
  429MPD2     C 6447   0.518   2.973   0.035 -0.5780  0.0440  0.0117
  429MPD2    C1 6448   0.631   2.943  17.714  0.1824  0.1386  0.8684
  429MPD2    C2 6449   0.703   3.034  17.641 -0.6924 -0.5018 -0.1607
  429MPD2    C3 6450   0.667   3.166  17.636 -0.5124  0.4409 -0.7339
  429MPD2    C4 6451   0.552   3.203  17.703 -0.4006  0.1379  0.4115
  429MPD2    C5 6452   0.482   3.107   0.029  0.0170 -0.3184  1.0503
  429MPD2     H 6453   0.801   3.000  17.608  1.2517  1.4873  3.5988
  429MPD2    H1 6454   0.528   3.309  17.707  0.7616  0.3882  0.6767
  429MPD2    H2 6455   0.464   2.900   0.095 -2.2054  0.0609 -1.4299
  429MPD2    H3 6456   0.387   3.138   0.071 -1.0707  0.3987 -1.9389
  429MPD2     N 6457   0.747   3.246  17.550  0.5301  0.2376 -0.1870
  429MPD2    H5 6458   0.823   3.193  17.507  0.2436 -2.6810  2.9184
  429MPD2    N1 6459   0.692   2.815  17.727 -0.2220 -0.4305 -0.0317
  429MPD2    H7 6460   0.783   2.805  17.683  0.2963 -0.0928  0.9558
  430TMC3    C1 6461   0.834   3.430  17.436 -0.0572  0.1063 -0.6643
  430TMC3    C2 6462   0.793   3.528  17.346 -0.0992  0.1160  0.0065
  430TMC3    C3 6463   0.868   3.528  17.230 -0.4091 -0.6117 -0.1961
  430TMC3    C4 6464   0.944   3.346  17.418  0.1856  0.2286 -0.0348
  430TMC3    C5 6465   0.998   3.341  17.290 -0.1980 -0.7867  0.2930
  430TMC3    C6 6466   0.970   3.436  17.203  0.5934 -0.3198 -0.1246
  430TMC3     C 6467   0.726   3.376  17.514  0.0526  0.6807  0.8744
  430TMC3     O 6468   0.631   3.447  17.546  0.0514  0.2676  0.3361
  430TMC3     H 6469   0.710   3.595  17.367 -0.2964 -0.6134  1.5630
  430TMC3    H1 6470   0.978   3.273  17.490  0.8771 -0.3096 -0.9058
  430TMC3    H2 6471   1.031   3.446  17.114 -1.2099 -1.1165 -1.4423
  430TMC3    C7 6472   1.001   3.206  17.229 -0.3441  0.2727 -0.1814
  430TMC3    C8 6473   0.797   3.548  17.109  0.5216  0.4672  0.2585
  430TMC3    O1 6474   1.037   3.106  17.286  0.6765 -0.2994  0.0392
  430TMC3    O2 6475   0.821   3.476  17.012  0.2506  0.0690  0.0923
  431MPD2     C 6476   1.179   3.203  12.880  0.5529  0.5190  0.5488
  431MPD2    C1 6477   1.267   3.196  12.772  0.4272 -0.2780 -0.0989
  431MPD2    C2 6478   1.216   3.223  12.642 -0.2717 -0.3925 -0.2577
  431MPD2    C3 6479   1.078   3.230  12.618 -0.5300 -0.6638 -0.8043
  431MPD2    C4 6480   0.993   3.218  12.721 -0.4639 -0.0041  0.2549
  431MPD2    C5 6481   1.044   3.216  12.854  0.4228 -0.1128  0.4253
  431MPD2     H 6482   1.285   3.231  12.559 -0.6076 -1.4961 -0.6363
  431MPD2    H1 6483   0.886   3.230  12.709 -0.6399 -1.5515  0.3665
  431MPD2    H2 6484   1.205   3.201  12.985  0.9760  0.5446  0.4442
  431MPD2    H3 6485   0.974   3.212  12.936  0.8416 -0.7423  0.7553
  431MPD2     N 6486   1.036   3.219  12.484  0.2955  0.5551 -0.4371
  431MPD2    H5 6487   0.935   3.206  12.476  0.5579 -2.4933  1.2499
  431MPD2    N1 6488   1.410   3.202  12.788  0.3392  0.0462 -0.1874
  431MPD2    H7 6489   1.457   3.230  12.702  0.4463  0.9082  0.1538
  432TMC3    C1 6490   1.043   3.223  12.245  0.2593  0.5220  0.6855
  432TMC3    C2 6491   1.116   3.281  12.142 -0.3840 -0.3227  0.3387
  432TMC3    C3 6492   1.163   3.200  12.043  0.3846  0.2698  0.0642
  432TMC3    C4 6493   1.009   3.092  12.243 -0.5287 -0.7342  0.0875
  432TMC3    C5 6494   1.073   3.014  12.149  0.1527  0.8146 -0.0684
  432TMC3    C6 6495   1.154   3.069  12.053 -0.0612  0.6313 -0.7245
  432TMC3     C 6496   1.111   3.258  12.372  0.2539 -0.1130  0.5547
  432TMC3     O 6497   1.225   3.302  12.362 -0.1780  0.5464 -0.2001
  432TMC3     H 6498   1.123   3.389  12.141  1.6599 -0.4592  0.5815
  432TMC3    H1 6499   0.943   3.047  12.317 -1.0924 -1.8965 -1.1128
  432TMC3    H2 6500   1.204   3.006  11.980 -1.2399  0.7283 -1.6151
  432TMC3    C7 6501   1.131   2.885  12.189 -0.1246 -0.0664  0.7164
  432TMC3    C8 6502   1.264   3.258  11.957  0.4068  0.6320  0.2804
  432TMC3    O1 6503   1.198   2.819  12.113  0.2757  1.0870  0.4866
  432TMC3    O2 6504   1.244   3.375  11.927  0.2109  0.6517  0.3159
  433MPD2     C 6505   0.113   1.468  11.005  0.0180 -0.2876 -0.3554
  433MPD2    C1 6506   0.173   1.369  11.069 -0.0396  0.3541  0.6410
  433MPD2    C2 6507   0.199   1.386  11.202  0.2246 -0.2589  0.6496
  433MPD2    C3 6508   0.170   1.511  11.264  0.2808  0.1608 -0.6308
  433MPD2    C4 6509   0.095   1.605  11.202  0.4851  0.3654  0.1708
  433MPD2    C5 6510   0.081   1.586  11.067  0.3793  0.0075 -0.0608
  433MPD2     H 6511   0.247   1.307  11.257  1.3362  0.3186  0.5097
  433MPD2    H1 6512   0.065   1.699  11.247  0.4369 -1.1746  3.2999
  433MPD2    H2 6513   0.092   1.454  10.900 -0.4586  0.4008 -0.3556
  433MPD2    H3 6514   0.044   1.675  11.018  1.0583  1.2028  1.6241
  433MPD2     N 6515   0.206   1.519  11.399 -0.1152 -0.2445  0.3759
  433MPD2    H5 6516   0.244   1.438  11.446 -1.3097 -0.0234  1.7044
  433MPD2    N1 6517   0.201   1.245  10.999  0.3175  0.6479 -0.3383
  433MPD2    H7 6518   0.180   1.245  10.899  1.9760 -1.3950 -0.6891
  434TMC3    C1 6519   0.232   1.011  10.960 -0.6981 -0.1172 -0.0522
  434TMC3    C2 6520   0.310   0.910  11.013  0.1549  0.1527 -0.1681
  434TMC3    C3 6521   0.259   0.782  11.019 -0.0531  0.2194 -0.3900
  434TMC3    C4 6522   0.117   0.987  10.892  0.2870 -0.4003 -0.4715
  434TMC3    C5 6523   0.063   0.862  10.917 -0.4498  0.0550  0.1043
  434TMC3    C6 6524   0.130   0.757  10.977 -0.7154  0.3723 -0.9384
  434TMC3     C 6525   0.221   1.121  11.060  0.1374  0.8534 -0.5746
  434TMC3     O 6526   0.246   1.087  11.177 -0.2159 -0.0798 -0.2765
  434TMC3     H 6527   0.407   0.934  11.055  0.1991 -0.6235  0.1732
  434TMC3    H1 6528   0.064   1.071  10.848  2.3564  0.3544 -1.5255
  434TMC3    H2 6529   0.069   0.670  10.995 -0.5256  0.0046 -2.0269
  434TMC3    C7 6530   4.665   0.839  10.870 -0.5504 -0.0988  0.1806
  434TMC3    C8 6531   0.294   0.703  11.135 -0.4657  0.0515  0.4152
  434TMC3    O1 6532   4.625   0.895  10.767 -0.1408  0.7509  0.2263
  434TMC3    O2 6533   0.398   0.731  11.197 -0.0547  0.0738  0.0286
  435MPD2     C 6534   2.366   1.401  15.489 -0.9002  0.0276  0.1092
  435MPD2    C1 6535   2.356   1.372  15.626  0.0457 -0.0193 -0.0553
  435MPD2    C2 6536   2.456   1.298  15.687  0.2321  0.2063  0.0980
  435MPD2    C3 6537   2.556   1.236  15.614 -0.5726 -0.6204 -0.1290
  435MPD2    C4 6538   2.558   1.254  15.471  0.1889 -0.4085  0.0107
  435MPD2    C5 6539   2.465   1.342  15.417 -1.1778 -0.3384  0.2407
  435MPD2     H 6540   2.472   1.307  15.794 -0.5243 -1.8715  0.3862
  435MPD2    H1 6541   2.633   1.219  15.400 -1.1931  0.3550 -1.8235
  435MPD2    H2 6542   2.287   1.451  15.435  2.0039  1.1331 -3.1616
  435MPD2    H3 6543   2.453   1.346  15.309  2.7747  0.3684 -0.1918
  435MPD2     N 6544   2.658   1.173  15.686  0.5951  0.2297  0.0847
  435MPD2    H5 6545   2.651   1.171  15.787 -1.9345 -0.3696 -0.0850
  435MPD2    N1 6546   2.256   1.420  15.721 -0.0288  0.0855  0.2679
  435MPD2    H7 6547   2.267   1.383  15.815 -2.0180  0.1648  0.5295
  436TMC3    C1 6548   1.938   1.658  15.964  0.3519  0.0384  0.2427
  436TMC3    C2 6549   2.031   1.652  15.864 -0.1269 -0.3109  0.2563
  436TMC3    C3 6550   2.072   1.529  15.814 -0.2726 -0.9090  0.1464
  436TMC3    C4 6551   1.896   1.538  16.014  0.6175  0.1628  0.0740
  436TMC3    C5 6552   1.942   1.420  15.967  0.3529 -0.9233  0.3016
  436TMC3    C6 6553   2.036   1.416  15.868  0.4158 -0.1689  0.0248
  436TMC3     C 6554   1.988   1.755  16.062 -0.7081 -1.3875 -0.0793
  436TMC3     O 6555   2.105   1.781  16.046  0.3158 -0.5069 -0.1271
  436TMC3     H 6556   2.065   1.745  15.821 -0.7553 -0.0913  0.2258
  436TMC3    H1 6557   1.826   1.525  16.095  0.9608  0.0871  0.3570
  436TMC3    H2 6558   2.068   1.321  15.827  0.8838  0.6976 -1.6485
  436TMC3    C7 6559   1.923   1.306  16.052 -0.3300 -0.5888  0.5542
  436TMC3    C8 6560   2.160   1.522  15.702 -0.3829 -0.3281 -0.2288
  436TMC3    O1 6561   1.867   1.317  16.160  0.5210 -0.2978  0.6635
  436TMC3    O2 6562   2.144   1.585  15.602 -0.3376 -0.4271  0.2128
  437TMC3    C1 6563   1.087   3.533  12.972  0.1958 -0.9796 -0.5320
  437TMC3    C2 6564   0.962   3.536  12.922  0.4724  0.0788  0.0676
  437TMC3    C3 6565   0.943   3.565  12.789 -0.4077 -0.0008 -0.4417
  437TMC3    C4 6566   1.192   3.551  12.885 -0.2250  0.0585  0.1911
  437TMC3    C5 6567   1.168   3.579  12.757 -0.5955 -0.0495  0.0661
  437TMC3    C6 6568   1.046   3.582  12.700  0.1986  0.4751  0.1102
  437TMC3     C 6569   1.115   3.481  13.103 -0.6036 -0.0334 -0.3847
  437TMC3     O 6570   1.227   3.443  13.136  0.1405 -0.4590  0.1232
  437TMC3     H 6571   0.877   3.504  12.980 -1.7041 -0.2953 -3.3196
  437TMC3    H1 6572   1.288   3.573  12.932 -0.2106 -1.8160  1.0666
  437TMC3    H2 6573   1.026   3.616  12.600  2.7212 -0.9690 -0.8963
  437TMC3    C7 6574   1.292   3.607  12.674  0.2709 -0.2583 -0.3726
  437TMC3    C8 6575   0.810   3.574  12.731 -0.5081  0.5871 -0.4198
  437TMC3    O1 6576   1.262   3.621  12.553 -0.5881  0.6071 -0.7888
  437TMC3    O2 6577   0.782   3.559  12.613  0.2481 -0.1730 -0.3337
  438MPD2     C 6578   3.427   4.440  16.981  0.0315  0.2831 -0.0640
  438MPD2    C1 6579   3.462   4.310  16.997 -0.3433  0.2540 -1.3511
  438MPD2    C2 6580   3.464   4.245  17.118 -0.1285 -0.1098  0.6972
  438MPD2    C3 6581   3.416   4.315  17.224  0.1163  0.8248  0.2265
  438MPD2    C4 6582   3.372   4.443  17.208 -0.2425  0.4289  0.3456
  438MPD2    C5 6583   3.382   4.507  17.087 -0.2171  0.1741  0.4012
  438MPD2     H 6584   3.511   4.148  17.129 -0.6601 -0.6486 -1.6674
  438MPD2    H1 6585   3.334   4.496  17.294  1.8782 -0.2986  1.7253
  438MPD2    H2 6586   3.439   4.486  16.884  0.7568  0.5564  0.1551
  438MPD2    H3 6587   3.336   4.605  17.076 -0.7954 -0.0955  0.3958
  438MPD2     N 6588   3.409   4.254  17.349 -0.9148  0.0217  0.6078
  438MPD2    H5 6589   3.390   4.315  17.428 -0.2153  0.3391  0.5299
  438MPD2    N1 6590   3.517   4.229  16.893  0.2725  0.2118 -0.2627
  438MPD2    H7 6591   3.569   4.146  16.920 -0.2091 -0.4604 -1.3850
  439TMC3    C1 6592   3.554   4.137  16.684  0.5382  0.0323  0.3666
  439TMC3    C2 6593   3.484   4.113  16.570  0.2050 -0.4658  0.0680
  439TMC3    C3 6594   3.531   4.011  16.492  0.1646 -0.6977 -0.6752
  439TMC3    C4 6595   3.663   4.070  16.727  0.4721  0.9193 -0.3066
  439TMC3    C5 6596   3.698   3.962  16.649 -0.3907  0.3814  0.2784
  439TMC3    C6 6597   3.623   3.920  16.540 -0.5795 -0.4812  0.2387
  439TMC3     C 6598   3.493   4.246  16.762 -0.1799  0.3499  0.0207
  439TMC3     O 6599   3.424   4.317  16.694  0.2522  0.1722  0.3665
  439TMC3     H 6600   3.407   4.171  16.520 -1.3632 -2.6615 -0.0743
  439TMC3    H1 6601   3.714   4.102  16.817  0.9440  0.9146 -0.5763
  439TMC3    H2 6602   3.658   3.836  16.482 -2.4226 -0.8874 -0.2839
  439TMC3    C7 6603   3.839   3.925  16.639 -0.4235  0.0270 -0.3687
  439TMC3    C8 6604   3.538   4.046  16.350  0.0296  0.3587 -0.3094
  439TMC3    O1 6605   3.884   3.901  16.753  0.1760  0.1739 -0.2802
  439TMC3    O2 6606   3.523   4.162  16.317  0.6703  0.2310 -0.5293
  440MPD2     C 6607   2.684   4.370  14.443 -0.2202 -0.0084 -0.8987
  440MPD2    C1 6608   2.669   4.415  14.574 -0.4545 -1.0215 -0.0760
  440MPD2    C2 6609   2.730   4.348  14.677 -0.5730  0.1743 -0.2421
  440MPD2    C3 6610   2.819   4.251  14.657 -0.1832  0.7613  0.0819
  440MPD2    C4 6611   2.845   4.212  14.523  0.4133  0.9236 -0.4992
  440MPD2    C5 6612   2.778   4.272  14.413  0.1426  0.1972  0.5075
  440MPD2     H 6613   2.717   4.378  14.780  0.1240  2.7937 -0.9226
  440MPD2    H1 6614   2.919   4.134  14.515 -0.0677  0.4895 -0.6638
  440MPD2    H2 6615   2.629   4.420  14.364 -0.6544  0.8242 -0.0701
  440MPD2    H3 6616   2.788   4.231  14.314 -2.0633 -1.8893  1.1459
  440MPD2     N 6617   2.885   4.168  14.749 -0.0138 -0.3535  0.1253
  440MPD2    H5 6618   2.935   4.088  14.709  0.5721  0.0519  0.0432
  440MPD2    N1 6619   2.580   4.521  14.609 -0.4567 -0.0654  0.0189
  440MPD2    H7 6620   2.589   4.549  14.706 -1.5414 -2.9207  0.9163
  441TMC3    C1 6621   2.961   4.099  14.958 -0.9796  0.3350 -1.0703
  441TMC3    C2 6622   3.022   4.144  15.073  0.4130 -0.1610 -0.4679
  441TMC3    C3 6623   3.010   4.073  15.184  0.3858  0.0203  0.1569
  441TMC3    C4 6624   2.866   4.003  14.957  0.5444 -0.0160 -0.3070
  441TMC3    C5 6625   2.845   3.941  15.081 -0.3717  0.2882  0.0792
  441TMC3    C6 6626   2.918   3.969  15.193  0.2127 -0.4808 -0.6981
  441TMC3     C 6627   2.909   4.207  14.880 -0.8965  0.2818 -0.7486
  441TMC3     O 6628   2.896   4.317  14.937  0.0152  0.1373 -0.0014
  441TMC3     H 6629   3.085   4.231  15.065  0.4158 -0.0317  0.9596
  441TMC3    H1 6630   2.800   3.997  14.871  0.3255  2.3189 -0.3061
  441TMC3    H2 6631   2.898   3.919  15.287 -0.2185  0.5786 -0.2310
  441TMC3    C7 6632   2.712   3.947  15.140  0.3944  0.2381 -0.0653
  441TMC3    C8 6633   3.007   4.144  15.309  1.1092 -0.4670 -0.4687
  441TMC3    O1 6634   2.691   3.884  15.240  0.1413 -0.3236 -0.3980
  441TMC3    O2 6635   3.027   4.083  15.412 -0.4211 -0.1388  0.7627
  442MPD2     C 6636   0.539   0.278  16.152 -0.2270  0.1258 -0.7993
  442MPD2    C1 6637   0.480   0.200  16.251  0.0953  0.2027  0.8020
  442MPD2    C2 6638   0.463   0.064  16.228  0.2166 -0.5193  0.5877
  442MPD2    C3 6639   0.498   0.009  16.105 -0.4161 -0.7428 -0.2007
  442MPD2    C4 6640   0.554   0.090  16.007  0.0518  0.0817  0.0375
  442MPD2    C5 6641   0.577   0.223  16.033  0.3204 -0.0048  0.0431
  442MPD2     H 6642   0.432   4.735  16.309 -1.6889 -1.3461 -0.8119
  442MPD2    H1 6643   0.588   0.046  15.914 -1.0554 -0.5084 -0.0879
  442MPD2    H2 6644   0.568   0.378  16.181  1.7838 -0.5610 -0.4476
  442MPD2    H3 6645   0.620   0.276  15.949 -1.3663  1.2372 -0.0269
  442MPD2     N 6646   0.504   4.607  16.081  0.9011 -1.2446 -0.0529
  442MPD2    H5 6647   0.560   4.571  16.004  0.2963 -2.1223 -0.0790
  442MPD2    N1 6648   0.435   0.254  16.370 -0.1136  0.0978  0.1522
  442MPD2    H7 6649   0.415   0.194  16.450 -0.3414  2.8380  2.1576
  443TMC3    C1 6650   0.355   0.421  16.524  0.3883  0.4784 -0.0944
  443TMC3    C2 6651   0.297   0.544  16.529 -0.4799 -0.4933 -0.0556
  443TMC3    C3 6652   0.199   0.568  16.624 -0.0264  0.1182 -0.2418
  443TMC3    C4 6653   0.316   0.321  16.604  0.5660  0.0572  0.4389
  443TMC3    C5 6654   0.232   0.350  16.711  0.3042  0.0732 -0.5979
  443TMC3    C6 6655   0.163   0.470  16.711  0.1856 -0.4458  1.3223
  443TMC3     C 6656   0.410   0.388  16.393 -0.1917  0.3374  0.9780
  443TMC3     O 6657   0.426   0.481  16.316  0.5003  0.1577 -0.2044
  443TMC3     H 6658   0.346   0.622  16.471  0.8658  0.1704  1.9554
  443TMC3    H1 6659   0.359   0.222  16.598 -0.6568 -0.4583  0.2804
  443TMC3    H2 6660   0.072   0.495  16.763 -1.2489 -0.5389 -1.1293
  443TMC3    C7 6661   0.157   0.235  16.773  0.2713 -0.0371  0.3596
  443TMC3    C8 6662   0.134   0.694  16.641  0.2678  0.1398  0.3972
  443TMC3    O1 6663   0.155   0.130  16.714 -0.0211 -0.1649 -0.2675
  443TMC3    O2 6664   0.123   0.727  16.761  0.8474 -0.7253  0.2133
  444MPD2     C 6665   0.711   4.735  16.853 -0.9818 -0.5444  0.5195
  444MPD2    C1 6666   0.626   4.626  16.858 -0.6059 -0.6253  0.2007
  444MPD2    C2 6667   0.664   4.508  16.801 -0.7100  0.2377  0.0700
  444MPD2    C3 6668   0.791   4.493  16.745  0.1375  0.1411  0.6611
  444MPD2    C4 6669   0.880   4.599  16.744 -0.4602  0.0723 -0.2404
  444MPD2    C5 6670   0.837   4.724  16.794  0.5738  0.1979 -0.1199
  444MPD2     H 6671   0.596   4.425  16.810 -0.5161  0.0797  0.0942
  444MPD2    H1 6672   0.977   4.592  16.697 -0.9982  0.5150 -1.4214
  444MPD2    H2 6673   0.674   0.101  16.864 -1.0059 -0.1439 -3.3485
  444MPD2    H3 6674   0.894   0.081  16.784 -2.0067  1.8427  0.3587
  444MPD2     N 6675   0.825   4.362  16.692 -0.0863  0.2463 -0.3788
  444MPD2    H5 6676   0.749   4.295  16.688 -0.4782  0.5166  2.7912
  444MPD2    N1 6677   0.503   4.631  16.927 -0.4945  0.1561  0.4539
  444MPD2    H7 6678   0.451   4.544  16.917 -0.2301  0.2312 -1.5766
  445TMC3    C1 6679   0.948   4.198  16.574 -0.4902  0.3115 -0.2936
  445TMC3    C2 6680   0.839   4.124  16.532 -0.1603  0.7585 -1.0399
  445TMC3    C3 6681   0.867   4.005  16.476 -0.5635  0.5388 -0.1003
  445TMC3    C4 6682   1.075   4.147  16.563  0.4899  0.5759  0.5438
  445TMC3    C5 6683   1.097   4.025  16.498  0.3759  0.1679 -0.1855
  445TMC3    C6 6684   0.990   3.948  16.460 -0.0544  0.2763  0.5836
  445TMC3     C 6685   0.937   4.335  16.620 -0.3130 -0.1844 -0.2994
  445TMC3     O 6686   1.030   4.404  16.586  0.1495 -0.1761 -0.3147
  445TMC3     H 6687   0.739   4.166  16.534 -0.8206 -0.7960 -1.4616
  445TMC3    H1 6688   1.154   4.201  16.614  0.2669  0.3486  1.1362
  445TMC3    H2 6689   1.004   3.847  16.423 -2.2241  0.6772 -1.3699
  445TMC3    C7 6690   1.215   3.951  16.528 -0.1984 -0.0443  0.2811
  445TMC3    C8 6691   0.757   3.948  16.397  0.1193 -0.5549 -0.1531
  445TMC3    O1 6692   1.208   3.829  16.526  0.1774  0.6658  0.1097
  445TMC3    O2 6693   0.669   4.025  16.363 -0.0202 -0.5738 -0.3673
  446MPD2     C 6694   4.640   0.831  11.566 -0.1525 -0.7069  0.2997
  446MPD2    C1 6695   4.635   0.892  11.442  0.0673  0.5969  0.6132
  446MPD2    C2 6696   0.027   0.936  11.406  0.1656 -0.0617  0.2925
  446MPD2    C3 6697   0.146   0.909  11.474  0.7705 -0.2723  0.0698
  446MPD2    C4 6698   0.137   0.849  11.598 -0.0892  0.3547  0.4725
  446MPD2    C5 6699   0.015   0.817  11.640 -0.6189  0.0125 -0.1976
  446MPD2     H 6700   0.043   0.989  11.312 -2.0087  2.3289  1.2570
  446MPD2    H1 6701   0.224   0.815  11.652 -0.0389  1.4020  1.0550
  446MPD2    H2 6702   4.553   0.786  11.612 -0.7687  1.3840  1.1862
  446MPD2    H3 6703   0.001   0.767  11.735  1.0581  0.6345  0.3700
  446MPD2     N 6704   0.269   0.949  11.419 -0.2696 -0.4008 -0.0434
  446MPD2    H5 6705   0.269   0.996  11.329  1.9201  1.7720  1.0985
  446MPD2    N1 6706   4.514   0.924  11.368 -0.1204 -0.1039 -0.4905
  446MPD2    H7 6707   4.532   0.950  11.271  0.4743 -1.7398 -0.8153
  447TMC3    C1 6708   0.510   0.968  11.397  0.2629 -0.3852  0.0448
  447TMC3    C2 6709   0.505   1.097  11.358 -0.6659 -0.3532 -0.4558
  447TMC3    C3 6710   0.624   1.171  11.371 -0.2601 -0.0309  0.5200
  447TMC3    C4 6711   0.630   0.904  11.420  0.0580 -0.0635  0.6797
  447TMC3    C5 6712   0.743   0.982  11.416  0.1442 -1.1019  0.1084
  447TMC3    C6 6713   0.742   1.115  11.402 -0.3314  0.0267  0.3612
  447TMC3     C 6714   0.393   0.920  11.469 -0.2696 -1.1687  0.0919
  447TMC3     O 6715   0.420   0.835  11.549 -0.0567 -0.6084  0.8613
  447TMC3     H 6716   0.412   1.151  11.343 -0.1462  0.5051 -0.5361
  447TMC3    H1 6717   0.635   0.805  11.464 -1.6470 -0.1456  0.7092
  447TMC3    H2 6718   0.839   1.162  11.387 -0.2070 -0.2899  0.1940
  447TMC3    C7 6719   0.875   0.921  11.435 -0.3607  0.6416 -0.5474
  447TMC3    C8 6720   0.629   1.283  11.273  0.1052  0.1935  0.9848
  447TMC3    O1 6721   0.963   1.001  11.469 -0.1501 -0.0906 -0.0202
  447TMC3    O2 6722   0.579   1.273  11.159  0.6508 -0.1381 -0.3595
  448TMC3    C1 6723   3.441   1.061  17.000  0.2961  0.6170 -0.3637
  448TMC3    C2 6724   3.393   0.978  16.898 -0.0600 -1.3499  0.0834
  448TMC3    C3 6725   3.491   0.898  16.841 -0.3834 -0.5316  0.2900
  448TMC3    C4 6726   3.572   1.073  17.033 -0.5295 -0.1262  0.3167
  448TMC3    C5 6727   3.657   0.986  16.980  0.1297  0.5583 -0.7537
  448TMC3    C6 6728   3.618   0.894  16.890 -0.2057  0.7014 -0.4397
  448TMC3     C 6729   3.359   1.127  17.097  0.5946  0.0721 -0.0922
  448TMC3     O 6730   3.384   1.241  17.129 -0.4196 -0.0150 -0.5335
  448TMC3     H 6731   3.292   0.986  16.861  0.3890  0.5381 -0.7251
  448TMC3    H1 6732   3.607   1.125  17.121  0.3889 -2.0033  1.0718
  448TMC3    H2 6733   3.693   0.826  16.851 -1.1958  0.0914 -1.2760
  448TMC3    C7 6734   3.786   0.972  17.049 -0.5046  0.1594  0.2610
  448TMC3    C8 6735   3.464   0.816  16.718 -0.5599  0.7174  0.2254
  448TMC3    O1 6736   3.863   1.066  17.066  0.7258 -0.5292  0.2058
  448TMC3    O2 6737   3.527   0.710  16.703 -0.3082 -0.0860  0.6115
  449MPD2     C 6738   4.354   4.089  13.828 -0.2791  0.1420  0.4921
  449MPD2    C1 6739   4.422   4.016  13.737 -0.2952 -0.2549  0.3353
  449MPD2    C2 6740   4.436   3.880  13.754 -0.8914  0.2305 -0.1109
  449MPD2    C3 6741   4.373   3.817  13.854  0.0794  0.9815  0.2553
  449MPD2    C4 6742   4.308   3.889  13.954 -0.2229  0.2327  0.5735
  449MPD2    C5 6743   4.300   4.019  13.935 -0.0568  0.2846  0.1153
  449MPD2     H 6744   4.492   3.824  13.680  0.7458  1.4965  0.1879
  449MPD2    H1 6745   4.259   3.843  14.038 -0.5842  1.2553  0.9262
  449MPD2    H2 6746   4.343   4.197  13.823  0.1603  0.2293  1.3048
  449MPD2    H3 6747   4.244   4.077  14.007  0.2525 -0.3408  0.8512
  449MPD2     N 6748   4.381   3.670  13.858 -0.3542  0.3108 -0.2442
  449MPD2    H5 6749   4.423   3.625  13.778 -0.0389  0.4139 -0.1381
  449MPD2    N1 6750   4.487   4.072  13.618  0.3573 -0.6663  0.6254
  449MPD2    H7 6751   4.544   4.005  13.567  0.3911 -1.1820  1.3508
  450TMC3    C1 6752   4.553   4.225  13.468 -0.1715 -0.6049  1.0251
  450TMC3    C2 6753   4.676   4.279  13.470  0.0395 -0.5333 -0.1952
  450TMC3    C3 6754   0.039   4.214  13.406 -0.0607  0.0780 -0.3403
  450TMC3    C4 6755   4.523   4.115  13.391 -0.0812 -0.5246 -0.3861
  450TMC3    C5 6756   4.633   4.050  13.333 -0.0666 -0.3701  0.3338
  450TMC3    C6 6757   0.024   4.098  13.341 -0.6316  0.5990 -0.6736
  450TMC3     C 6758   4.496   4.209  13.595 -0.0020 -0.2413  0.1575
  450TMC3     O 6759   4.484   4.308  13.664 -0.3628  0.3655  0.4412
  450TMC3     H 6760   4.706   4.357  13.540  0.8986 -1.3700  0.3618
  450TMC3    H1 6761   4.417   4.094  13.384 -0.5058  1.3848  0.3167
  450TMC3    H2 6762   0.106   4.040  13.298  1.2094  1.5224  1.5629
  450TMC3    C7 6763   4.615   3.906  13.331 -1.0197 -0.0337  0.6189
  450TMC3    C8 6764   0.165   4.286  13.419  0.2512  0.0125  0.3538
  450TMC3    O1 6765   4.690   3.844  13.405 -0.2796  0.2463 -0.0721
  450TMC3    O2 6766   0.157   4.407  13.400  0.0245 -0.0387 -0.0012
  451MPD2     C 6767   0.837   2.768   0.865 -0.0549  0.0311 -0.0429
  451MPD2    C1 6768   0.972   2.778   0.887  0.3027  0.0694  0.2252
  451MPD2    C2 6769   1.049   2.674   0.839  0.1278  0.1416 -0.1122
  451MPD2    C3 6770   1.000   2.556   0.780 -0.5003  0.3319 -0.3301
  451MPD2    C4 6771   0.867   2.550   0.761  0.4390  0.0511 -0.2100
  451MPD2    C5 6772   0.786   2.646   0.810 -0.0349  0.0828 -0.0043
  451MPD2     H 6773   1.157   2.673   0.850  0.1745  0.5815 -0.5403
  451MPD2    H1 6774   0.830   2.456   0.720  0.5297 -0.4158  0.7741
  451MPD2    H2 6775   0.766   2.845   0.891 -2.0668 -2.1565  0.8643
  451MPD2    H3 6776   0.679   2.629   0.803  0.3974 -1.2660 -3.0769
  451MPD2     N 6777   1.090   2.452   0.752  0.4389 -0.1033 -0.1541
  451MPD2    H5 6778   1.057   2.369   0.704 -0.8334 -0.5431  1.5210
  451MPD2    N1 6779   1.014   2.895   0.938 -0.2375 -0.2085 -0.4801
  451MPD2    H7 6780   0.947   2.965   0.968  0.5399  0.6840 -0.8252
  452TMC3    C1 6781   1.283   2.311   0.746  0.2873 -0.0942 -0.4174
  452TMC3    C2 6782   1.238   2.238   0.638 -0.1617  0.8819 -0.8833
  452TMC3    C3 6783   1.291   2.117   0.628 -0.3840  0.8207 -0.3198
  452TMC3    C4 6784   1.382   2.268   0.823 -0.3861  0.4075 -0.5871
  452TMC3    C5 6785   1.443   2.149   0.797 -0.0680 -0.1879  0.1867
  452TMC3    C6 6786   1.394   2.067   0.697  0.4109  0.4207 -0.1986
  452TMC3     C 6787   1.223   2.441   0.780  0.7523  0.4255  0.3497
  452TMC3     O 6788   1.300   2.522   0.838  0.0433  0.3103 -0.0151
  452TMC3     H 6789   1.155   2.270   0.577 -1.0198 -2.2625 -1.3644
  452TMC3    H1 6790   1.419   2.331   0.903  0.8818 -0.2563 -0.6492
  452TMC3    H2 6791   1.434   1.967   0.682  1.7667  0.8839  0.2441
  452TMC3    C7 6792   1.586   2.136   0.837 -0.0456 -0.2036  0.1911
  452TMC3    C8 6793   1.230   2.018   0.546  1.0674  0.4683  0.1001
  452TMC3    O1 6794   1.642   2.234   0.889  0.0333  0.3606 -0.3077
  452TMC3    O2 6795   1.232   1.905   0.594 -0.7496  0.3824 -0.2341
  453TMC3    C1 6796   2.714   4.720  12.116  0.0591  0.2574 -0.9102
  453TMC3    C2 6797   2.607   4.638  12.142  0.0481 -0.4169 -0.2984
  453TMC3    C3 6798   2.489   4.673  12.084 -0.2524 -0.4200  0.0327
  453TMC3    C4 6799   2.715   0.097  12.036  0.4643 -0.1389  0.0939
  453TMC3    C5 6800   2.591   0.127  11.985 -0.0525  0.1014  0.1857
  453TMC3    C6 6801   2.480   0.057  12.016 -0.3888  0.2774  0.5876
  453TMC3     C 6802   2.855   4.697  12.177 -0.3122  0.6939 -0.5877
  453TMC3     O 6803   2.934   0.053  12.159  0.3036 -0.3619 -0.5082
  453TMC3     H 6804   2.619   4.554  12.208 -1.3470  1.1382  1.9344
  453TMC3    H1 6805   2.799   0.157  12.005 -0.1178  0.5374 -0.1724
  453TMC3    H2 6806   2.381   0.084  11.982 -0.2979 -0.1313  0.0024
  453TMC3    C7 6807   2.567   0.254  11.916  1.1125 -0.1092 -0.5830
  453TMC3    C8 6808   2.371   4.604  12.124 -0.2282 -0.8179 -0.0324
  453TMC3    O1 6809   2.652   0.286  11.833 -0.0381  0.1644 -0.1880
  453TMC3    O2 6810   2.271   4.667  12.090  0.1844 -0.0132 -0.1932
  454MPD2     C 6811   1.618   4.130  16.168  0.5563 -0.1878  1.0381
  454MPD2    C1 6812   1.557   4.168  16.050  0.1188  0.1424 -0.3977
  454MPD2    C2 6813   1.515   4.293  16.033 -0.4936 -0.5443  0.1673
  454MPD2    C3 6814   1.516   4.382  16.139 -0.5270 -0.0055  0.1119
  454MPD2    C4 6815   1.567   4.341  16.263 -0.2041 -0.0062  0.5041
  454MPD2    C5 6816   1.621   4.213  16.275  0.1588 -0.6928 -0.0685
  454MPD2     H 6817   1.485   4.310  15.930  0.1369  0.6682  0.1937
  454MPD2    H1 6818   1.575   4.416  16.340  4.3245  0.8363 -0.7731
  454MPD2    H2 6819   1.673   4.038  16.171 -2.5750 -2.0772  1.0422
  454MPD2    H3 6820   1.661   4.184  16.372  0.4371 -3.2691 -0.9548
  454MPD2     N 6821   1.461   4.511  16.143 -0.3715  0.8731  0.2686
  454MPD2    H5 6822   1.431   4.557  16.229 -2.5507  0.6166 -0.3554
  454MPD2    N1 6823   1.519   4.084  15.946  0.8162 -0.4454 -0.2470
  454MPD2    H7 6824   1.465   4.126  15.871  0.0262  1.2563  1.2812
  455TMC3    C1 6825   1.261   4.591  16.078 -0.3885 -0.1117 -0.4312
  455TMC3    C2 6826   1.243   4.657  16.198 -0.3547  0.3505  0.3583
  455TMC3    C3 6827   1.123   4.646  16.265 -0.6672 -1.0604 -0.2307
  455TMC3    C4 6828   1.169   4.499  16.044 -0.0755 -0.3375  0.5153
  455TMC3    C5 6829   1.047   4.492  16.106  0.3206  0.6223  0.0535
  455TMC3    C6 6830   1.022   4.564  16.223 -0.6957  0.0257  0.1140
  455TMC3     C 6831   1.392   4.551  16.030 -0.2570 -0.4085 -0.3823
  455TMC3     O 6832   1.395   4.508  15.917  0.4557  0.1412 -0.4751
  455TMC3     H 6833   1.312   0.001  16.223 -1.8558  1.3343  1.3340
  455TMC3    H1 6834   1.193   4.426  15.969 -1.9180 -0.5296  0.1165
  455TMC3    H2 6835   0.945   4.526  16.289 -1.6794 -0.4262 -1.3094
  455TMC3    C7 6836   1.004   4.357  16.118 -0.1581  0.2896  0.2940
  455TMC3    C8 6837   1.106   4.718  16.390 -0.0564  0.3095  0.1708
  455TMC3    O1 6838   0.884   4.335  16.137 -0.0661  0.1832 -0.5419
  455TMC3    O2 6839   1.206   0.016  16.456 -0.1602 -0.8042 -0.3371
  456MPD2     C 6840   3.958   0.028  15.655  0.3582  0.2813 -0.0722
  456MPD2    C1 6841   3.934   4.658  15.746 -0.8276 -0.3319  0.8134
  456MPD2    C2 6842   3.849   4.674  15.852 -0.0747  0.2126  0.2916
  456MPD2    C3 6843   3.794   0.063  15.875 -0.0610  0.0485  0.6203
  456MPD2    C4 6844   3.833   0.172  15.794  0.6763  0.3406 -0.3194
  456MPD2    C5 6845   3.902   0.153  15.676  0.1566 -0.0346 -0.7516
  456MPD2     H 6846   3.829   4.593  15.921  0.7998  0.3873  0.7604
  456MPD2    H1 6847   3.801   0.274  15.815 -0.1102 -0.0075  0.1924
  456MPD2    H2 6848   4.025   0.025  15.569  0.7061 -1.0417  0.2522
  456MPD2    H3 6849   3.918   0.240  15.613  0.7900  0.2077 -0.2651
  456MPD2     N 6850   3.712   0.077  15.992  0.9803 -0.2177  0.6389
  456MPD2    H5 6851   3.720   0.006  16.064 -0.6639 -0.3990  0.6333
  456MPD2    N1 6852   4.005   4.532  15.715 -0.6398  0.1401 -0.6954
  456MPD2    H7 6853   4.063   4.538  15.632 -1.4465  0.2423 -1.2586
  457TMC3    C1 6854   3.528   0.167  16.134 -0.2479 -0.5655  0.2432
  457TMC3    C2 6855   3.486   0.288  16.188 -0.0636  0.4646  0.1940
  457TMC3    C3 6856   3.397   0.282  16.289 -0.7111  0.3102 -0.2973
  457TMC3    C4 6857   3.522   0.058  16.210 -0.7487 -0.1348  0.2284
  457TMC3    C5 6858   3.450   0.066  16.325 -0.3192 -0.3045 -0.2146
  457TMC3    C6 6859   3.378   0.176  16.370 -0.2522  0.2777  0.5547
  457TMC3     C 6860   3.624   0.180  16.021  0.3639 -0.5932  0.3894
  457TMC3     O 6861   3.606   0.281  15.955 -0.0679 -0.2120  0.3621
  457TMC3     H 6862   3.512   0.383  16.141 -0.7850  0.5852  0.0492
  457TMC3    H1 6863   3.564   4.699  16.178  0.9118  1.7104 -3.0057
  457TMC3    H2 6864   3.304   0.169  16.449 -2.1778  2.3315 -1.0535
  457TMC3    C7 6865   3.508   4.732  16.443 -0.5918  0.1753 -0.4189
  457TMC3    C8 6866   3.371   0.407  16.364 -0.0763 -0.2603  0.6010
  457TMC3    O1 6867   3.577   4.629  16.418 -0.1351 -0.2269  0.2927
  457TMC3    O2 6868   3.372   0.393  16.487  0.0202  0.4171 -0.5410
  458MPD2     C 6869   1.793   3.689  12.576  0.3221 -0.2686 -0.4152
  458MPD2    C1 6870   1.778   3.654  12.709 -0.1411 -0.3401 -1.0557
  458MPD2    C2 6871   1.654   3.613  12.755  0.0639 -0.2788 -0.2906
  458MPD2    C3 6872   1.543   3.625  12.675  0.5073  0.1109 -0.1672
  458MPD2    C4 6873   1.558   3.673  12.545  0.2639  0.3687 -0.6787
  458MPD2    C5 6874   1.680   3.694  12.500  0.1401 -0.2079 -0.7568
  458MPD2     H 6875   1.642   3.575  12.855  1.8008 -0.3325 -0.0993
  458MPD2    H1 6876   1.487   3.692  12.465 -0.7106 -0.3432  0.0218
  458MPD2    H2 6877   1.893   3.710  12.540 -0.1834 -1.4892 -2.5533
  458MPD2    H3 6878   1.701   3.720  12.396  0.7934  0.0771 -0.5515
  458MPD2     N 6879   1.414   3.591  12.735  0.1702  0.6001  0.2431
  458MPD2    H5 6880   1.415   3.543  12.824 -1.1547 -0.0138 -0.0765
  458MPD2    N1 6881   1.895   3.672  12.786  0.3247  0.4815 -0.3926
  458MPD2    H7 6882   1.973   3.721  12.743  2.3893 -0.1784  2.6457
  459TMC3    C1 6883   2.019   3.703  12.990  0.8967  0.2007  0.7958
  459TMC3    C2 6884   2.119   3.762  12.925 -0.1215  0.0466  0.3694
  459TMC3    C3 6885   2.229   3.797  12.998  0.3446 -0.9408 -0.0807
  459TMC3    C4 6886   2.032   3.661  13.123  0.7653  0.7158 -0.1854
  459TMC3    C5 6887   2.143   3.701  13.194  0.1735 -0.3052  0.4946
  459TMC3    C6 6888   2.246   3.765  13.133 -0.2269  0.3077  0.0782
  459TMC3     C 6889   1.903   3.642  12.917 -0.2318 -0.0690  0.5550
  459TMC3     O 6890   1.833   3.568  12.983 -1.1283 -0.8889 -0.0442
  459TMC3     H 6891   2.104   3.793  12.822 -1.1544 -0.5480  0.3402
  459TMC3    H1 6892   1.950   3.611  13.174  0.7029  0.2650 -0.7242
  459TMC3    H2 6893   2.348   3.776  13.170  0.7755 -0.9255 -2.3784
  459TMC3    C7 6894   2.154   3.646  13.326 -0.0842  0.3204  0.3592
  459TMC3    C8 6895   2.338   3.856  12.932 -0.0584 -0.3239  0.4352
  459TMC3    O1 6896   2.085   3.544  13.343  0.1767 -0.6222 -0.3338
  459TMC3    O2 6897   2.453   3.844  12.980  0.2450 -0.3668 -0.2984
  460MPD2     C 6898   0.867   1.555  11.289  0.1356 -0.2288 -0.8942
  460MPD2    C1 6899   0.781   1.472  11.225  0.2371 -0.4837  0.3231
  460MPD2    C2 6900   0.764   1.485  11.090  0.3832 -0.1528  0.0347
  460MPD2    C3 6901   0.828   1.579  11.017 -0.2639 -0.2455  0.3422
  460MPD2    C4 6902   0.914   1.662  11.083  0.0475 -0.6750  0.3555
  460MPD2    C5 6903   0.940   1.645  11.217 -0.5829  0.2685  0.3570
  460MPD2     H 6904   0.704   1.411  11.038 -0.9655  0.8055  0.2071
  460MPD2    H1 6905   0.963   1.748  11.036 -0.4329 -0.0375  1.0291
  460MPD2    H2 6906   0.884   1.556  11.396 -0.1784 -1.3715 -0.8423
  460MPD2    H3 6907   0.995   1.723  11.269  0.5178 -0.6376  0.5372
  460MPD2     N 6908   0.809   1.579  10.877  0.7068 -0.6018 -0.0731
  460MPD2    H5 6909   0.736   1.516  10.844  0.0562 -0.2200  0.6257
  460MPD2    N1 6910   0.727   1.369  11.311  0.3500  0.7159  0.6645
  460MPD2    H7 6911   0.752   1.378  11.409  1.3873  3.8606  0.1215
  461TMC3    C1 6912   0.831   1.641  10.646  0.0711 -0.9793 -0.2231
  461TMC3    C2 6913   0.761   1.521  10.615 -0.0587 -0.3140 -0.7208
  461TMC3    C3 6914   0.693   1.521  10.491 -0.4185 -0.0057  0.2887
  461TMC3    C4 6915   0.848   1.739  10.558 -0.4795 -0.4263  0.2711
  461TMC3    C5 6916   0.767   1.736  10.450  0.8077  0.5624  0.1528
  461TMC3    C6 6917   0.692   1.633  10.410 -0.5911  0.6037  0.2358
  461TMC3     C 6918   0.874   1.667  10.787 -0.1422 -0.1524 -0.3326
  461TMC3     O 6919   0.972   1.740  10.804  0.5356 -0.6293  0.2866
  461TMC3     H 6920   0.748   1.438  10.684 -0.8243  0.6040  0.2217
  461TMC3    H1 6921   0.905   1.827  10.585  2.1741 -1.9365 -0.4618
  461TMC3    H2 6922   0.627   1.638  10.323 -1.3323 -3.6135  0.5617
  461TMC3    C7 6923   0.800   1.821  10.334  0.1711  0.1142  0.8128
  461TMC3    C8 6924   0.654   1.397  10.434 -0.2441 -0.1799  0.0622
  461TMC3    O1 6925   0.756   1.788  10.224 -0.0432  0.6482  0.0211
  461TMC3    O2 6926   0.728   1.305  10.459  0.7393  0.5166 -0.0352
  462TMC3    C1 6927   1.193   2.935   0.541 -0.1123  0.2036  0.3245
  462TMC3    C2 6928   1.308   2.870   0.577  0.3662  0.7164 -0.3510
  462TMC3    C3 6929   1.307   2.735   0.552 -0.7266 -0.6153 -0.3311
  462TMC3    C4 6930   1.072   2.878   0.493  0.0589  0.0987 -0.7394
  462TMC3    C5 6931   1.083   2.743   0.466 -0.0471  0.0887  0.6648
  462TMC3    C6 6932   1.196   2.673   0.491 -0.4328  0.5258 -0.4479
  462TMC3     C 6933   1.179   3.070   0.592 -0.4821 -0.8641  0.0343
  462TMC3     O 6934   1.286   3.127   0.616 -0.1712  0.3043  0.1390
  462TMC3     H 6935   1.397   2.919   0.617  0.6859 -0.4636  0.3786
  462TMC3    H1 6936   0.976   2.923   0.470  0.0077  1.0432  1.3768
  462TMC3    H2 6937   1.187   2.570   0.522 -2.0956  0.7386 -0.2217
  462TMC3    C7 6938   0.977   2.656   0.414 -0.7995 -0.4388 -0.5780
  462TMC3    C8 6939   1.436   2.662   0.561  0.0961  0.2456 -0.0625
  462TMC3    O1 6940   1.014   2.543   0.384  0.1746  0.2092 -0.6138
  462TMC3    O2 6941   1.528   2.702   0.627  0.1447 -0.6107 -0.3416
  463MPD2     C 6942   1.825   0.227   1.445  0.1029  0.0412  0.2602
  463MPD2    C1 6943   1.846   0.358   1.417  0.1925  0.2913  0.0546
  463MPD2    C2 6944   1.897   0.391   1.295 -0.3003 -0.1073  0.5541
  463MPD2    C3 6945   1.929   0.286   1.203  0.1473 -0.0276 -0.1190
  463MPD2    C4 6946   1.908   0.153   1.234  0.0184  0.1245  0.6665
  463MPD2    C5 6947   1.860   0.130   1.357  0.8268  0.4177 -0.0809
  463MPD2     H 6948   1.922   0.494   1.273  0.9582 -0.6644 -0.6409
  463MPD2    H1 6949   1.924   0.081   1.154 -1.4669  1.3719 -0.7407
  463MPD2    H2 6950   1.788   0.194   1.541  1.2951 -1.1950  0.2873
  463MPD2    H3 6951   1.841   0.026   1.382 -0.7706  0.5901 -0.5371
  463MPD2     N 6952   1.985   0.311   1.076  0.0201  0.2076  0.0280
  463MPD2    H5 6953   1.999   0.228   1.019 -0.1826  0.4435 -0.3594
  463MPD2    N1 6954   1.822   0.454   1.516  0.0132  0.2584 -0.2690
  463MPD2    H7 6955   1.851   0.550   1.497  0.5266  0.4490  1.5598
  464TMC3    C1 6956   1.719   0.557   1.705 -0.1099  0.2269  0.0024
  464TMC3    C2 6957   1.806   0.668   1.700  0.1630 -0.0933  0.4679
  464TMC3    C3 6958   1.794   0.767   1.795 -0.2412  0.1126  0.5319
  464TMC3    C4 6959   1.633   0.538   1.810  0.0859  0.7872 -0.2352
  464TMC3    C5 6960   1.629   0.643   1.898  0.3763 -0.3570 -0.9504
  464TMC3    C6 6961   1.693   0.765   1.888 -0.0518  0.1955 -0.2846
  464TMC3     C 6962   1.750   0.440   1.628 -0.0054 -0.7749 -0.2349
  464TMC3     O 6963   1.697   0.336   1.676  0.3153  0.0611  0.1958
  464TMC3     H 6964   1.895   0.657   1.639 -1.8120 -0.3390 -2.3731
  464TMC3    H1 6965   1.557   0.462   1.796  0.7547  0.0634  0.0351
  464TMC3    H2 6966   1.690   0.837   1.968  1.5376 -0.8972  0.7552
  464TMC3    C7 6967   1.536   0.624   2.007  0.6349  0.7647  0.1122
  464TMC3    C8 6968   1.884   0.880   1.777  0.4619  0.1327 -0.4973
  464TMC3    O1 6969   1.481   0.723   2.059 -0.1686 -0.4162  0.0784
  464TMC3    O2 6970   1.928   0.884   1.660 -0.0292  0.6298  0.9336
  465MPD2     C 6971   3.129   4.187  16.529 -0.0234 -0.1411 -0.2724
  465MPD2    C1 6972   3.051   4.275  16.601  0.5357  0.1805 -0.0795
  465MPD2    C2 6973   2.960   4.343  16.526 -0.4231  0.0124  0.3329
  465MPD2    C3 6974   2.950   4.336  16.389 -0.5730  0.0013 -0.1176
  465MPD2    C4 6975   3.040   4.267  16.323  0.5394  0.1865 -0.2387
  465MPD2    C5 6976   3.127   4.188  16.390 -0.1245  0.1416  0.4068
  465MPD2     H 6977   2.882   4.396  16.581 -1.4893 -0.9080 -0.2855
  465MPD2    H1 6978   3.031   4.251  16.216  0.6549 -1.2482 -0.0414
  465MPD2    H2 6979   3.202   4.119  16.572  0.8578  1.1490  0.2615
  465MPD2    H3 6980   3.188   4.119  16.333 -0.5690 -0.4317  0.6306
  465MPD2     N 6981   2.843   4.407  16.329  0.4350  0.2041  0.8711
  465MPD2    H5 6982   2.779   4.461  16.388 -0.6322 -0.7845  0.6107
  465MPD2    N1 6983   3.060   4.305  16.739  0.5845  0.2948 -0.0468
  465MPD2    H7 6984   3.015   4.391  16.771 -1.1463 -1.7089  2.9218
  466TMC3    C1 6985   2.480   4.478  16.285 -0.2860 -0.1768  0.3615
  466TMC3    C2 6986   2.462   4.610  16.239 -0.1232  0.0214  0.6314
  466TMC3    C3 6987   2.562   4.662  16.165 -0.2314  0.1112  0.0748
  466TMC3    C4 6988   2.595   4.405  16.252 -0.6453 -0.4124 -0.7316
  466TMC3    C5 6989   2.686   4.463  16.168  0.6589 -0.1790 -0.8254
  466TMC3    C6 6990   2.677   4.593  16.130 -0.1642  0.1799 -1.0367
  466TMC3     C 6991   2.401   4.433  16.401 -0.1599 -0.2969  0.3316
  466TMC3     O 6992   2.341   4.515  16.467  0.6187 -0.2201 -0.5665
  466TMC3     H 6993   2.381   4.673  16.275 -4.2561 -2.5003 -4.1909
  466TMC3    H1 6994   2.630   4.313  16.297 -1.6137 -0.0322  0.8321
  466TMC3    H2 6995   2.765   4.644  16.092  1.0804 -0.9250  0.3549
  466TMC3    C7 6996   2.816   4.406  16.190 -0.3121  0.9749 -0.2580
  466TMC3    C8 6997   2.583   0.071  16.165 -0.1649 -0.2608 -0.4353
  466TMC3    O1 6998   2.883   4.366  16.101 -0.4738  0.2849 -0.0575
  466TMC3    O2 6999   2.663   0.108  16.074  0.0599  0.0212 -0.3711
  467TMC3    C1 7000   3.883   3.436  14.137  0.2995  0.2332  0.1340
  467TMC3    C2 7001   3.924   3.549  14.076 -0.2050  0.2833  0.3353
  467TMC3    C3 7002   3.853   3.595  13.966 -0.0272  0.3978  1.1839
  467TMC3    C4 7003   3.794   3.352  14.084 -0.9772 -0.5909 -0.1936
  467TMC3    C5 7004   3.732   3.398  13.968 -0.7806 -0.1320 -0.1840
  467TMC3    C6 7005   3.753   3.521  13.901 -0.4656  0.2083 -0.3140
  467TMC3     C 7006   3.952   3.417  14.266  0.7300  0.6443  0.0662
  467TMC3     O 7007   4.011   3.512  14.321 -0.0898 -1.2263  0.5413
  467TMC3     H 7008   4.001   3.607  14.126  0.0643  0.6975 -0.5705
  467TMC3    H1 7009   3.770   3.258  14.134 -0.2682 -2.0935 -2.6914
  467TMC3    H2 7010   3.703   3.546  13.808 -3.3514 -1.2671  0.8465
  467TMC3    C7 7011   3.629   3.317  13.906 -0.2856 -0.0950 -0.0783
  467TMC3    C8 7012   3.909   3.710  13.902  0.1780  0.0961  0.0182
  467TMC3    O1 7013   3.622   3.322  13.787 -0.3932  0.4308 -0.3109
  467TMC3    O2 7014   3.887   3.816  13.962 -0.4653 -0.1162 -0.3316
  468MPD2     C 7015   1.882   1.530  10.869  0.3923  0.0710  0.3239
  468MPD2    C1 7016   2.014   1.543  10.859  1.1401  0.7570  0.3187
  468MPD2    C2 7017   2.101   1.433  10.846 -0.1135 -0.0605  0.0893
  468MPD2    C3 7018   2.043   1.307  10.830  0.1943  0.3827 -0.6011
  468MPD2    C4 7019   1.906   1.291  10.840  0.3071 -0.4388  0.5966
  468MPD2    C5 7020   1.832   1.405  10.864  0.2801  0.0347  0.0258
  468MPD2     H 7021   2.208   1.439  10.833  0.0091  1.8330  2.0437
  468MPD2    H1 7022   1.853   1.197  10.837 -0.0714 -0.1742 -1.0174
  468MPD2    H2 7023   1.809   1.609  10.876  1.3799  0.8789  1.5286
  468MPD2    H3 7024   1.724   1.403  10.851  0.2624  2.1476 -0.1369
  468MPD2     N 7025   2.116   1.189  10.819  0.4346  0.4881 -0.0213
  468MPD2    H5 7026   2.061   1.104  10.821  0.5105  0.4801  1.4809
  468MPD2    N1 7027   2.081   1.666  10.881 -0.5739 -0.1270 -0.1016
  468MPD2    H7 7028   2.176   1.656  10.917 -1.5480  1.7062  2.9357
  469TMC3    C1 7029   2.114   1.897  10.895 -0.1082  0.1047 -0.7085
  469TMC3    C2 7030   2.244   1.860  10.926 -0.2587  0.1719 -0.2088
  469TMC3    C3 7031   2.307   1.948  11.010 -0.5115  0.2712  0.4929
  469TMC3    C4 7032   2.059   2.017  10.938  0.4019 -0.2994 -0.2677
  469TMC3    C5 7033   2.129   2.099  11.026  1.0023 -0.0326  0.7990
  469TMC3    C6 7034   2.251   2.062  11.072  0.2992  0.1171 -0.0030
  469TMC3     C 7035   2.026   1.788  10.851  0.3027  0.4093 -0.5905
  469TMC3     O 7036   1.920   1.816  10.800  0.2706  0.8007  0.4993
  469TMC3     H 7037   2.292   1.772  10.885 -1.3242 -1.0244  1.1588
  469TMC3    H1 7038   1.955   2.040  10.920  0.4654 -0.1834 -0.4942
  469TMC3    H2 7039   2.316   2.127  11.129 -0.6640 -0.3831  1.6534
  469TMC3    C7 7040   2.067   2.223  11.066  0.5051 -1.1298 -0.1705
  469TMC3    C8 7041   2.441   1.904  11.049  0.8848  0.2123 -0.9746
  469TMC3    O1 7042   1.977   2.249  10.983  0.3215  0.2363 -0.2603
  469TMC3    O2 7043   2.491   1.822  10.974 -0.3831 -0.0045  0.0126
  470TMC3    C1 7044   0.257   2.318   0.543 -0.2188  0.3696 -0.2345
  470TMC3    C2 7045   0.222   2.448   0.551  0.0228  0.1972  1.0345
  470TMC3    C3 7046   0.289   2.514   0.649 -0.0582 -0.3465 -0.2758
  470TMC3    C4 7047   0.358   2.251   0.613  1.0068 -0.4271  0.2627
  470TMC3    C5 7048   0.410   2.325   0.714  0.0320 -0.1189 -0.1024
  470TMC3    C6 7049   0.381   2.457   0.735  0.5409 -0.1380 -0.0236
  470TMC3     C 7050   0.190   2.242   0.446 -0.2842 -0.2014 -0.3613
  470TMC3     O 7051   0.133   2.307   0.360 -0.8350  0.3495  0.1822
  470TMC3     H 7052   0.147   2.491   0.485 -1.3029  0.1773  2.5244
  470TMC3    H1 7053   0.390   2.151   0.588  0.5885 -0.3701 -0.5047
  470TMC3    H2 7054   0.422   2.510   0.821  1.1208 -0.0928 -0.3313
  470TMC3    C7 7055   0.522   2.264   0.783  0.5009  0.7274 -0.3928
  470TMC3    C8 7056   0.276   2.661   0.663  1.1147 -0.0514  0.2752
  470TMC3    O1 7057   0.601   2.195   0.722  0.3898 -0.0556 -0.0325
  470TMC3    O2 7058   0.344   2.709   0.754  0.4624 -0.1894  0.3807
  471MPD2     C 7059   0.405   3.734  16.825  0.7652 -0.4269  0.3622
  471MPD2    C1 7060   0.503   3.635  16.797  0.3344  0.1851 -0.4081
  471MPD2    C2 7061   0.595   3.605  16.895 -0.6112 -0.2791 -0.0085
  471MPD2    C3 7062   0.597   3.666  17.018  0.2539  0.6870 -0.4595
  471MPD2    C4 7063   0.494   3.754  17.048  0.4092  0.0765 -0.0534
  471MPD2    C5 7064   0.407   3.789  16.949  0.5257 -0.1327 -0.5208
  471MPD2     H 7065   0.669   3.528  16.877  0.4992  0.9591 -0.7191
  471MPD2    H1 7066   0.476   3.813  17.137  0.8946 -2.8491  2.0047
  471MPD2    H2 7067   0.326   3.763  16.757  0.8162  0.5861  0.7236
  471MPD2    H3 7068   0.339   3.872  16.962 -1.1803 -1.4137 -1.1386
  471MPD2     N 7069   0.689   3.632  17.118 -0.4519  0.6854 -0.2471
  471MPD2    H5 7070   0.689   3.685  17.204  0.4306  2.2504 -1.2081
  471MPD2    N1 7071   0.507   3.552  16.681 -0.0384  0.2077 -0.6850
  471MPD2    H7 7072   0.565   3.470  16.690 -1.7579 -0.9152  0.1600
  472TMC3    C1 7073   0.400   3.427  16.507  0.5867 -0.1173  0.4378
  472TMC3    C2 7074   0.287   3.410  16.428  0.1560 -0.0826  0.2236
  472TMC3    C3 7075   0.238   3.284  16.406  0.0983 -0.2872 -0.2040
  472TMC3    C4 7076   0.442   3.308  16.569  0.0342  0.6818 -0.1872
  472TMC3    C5 7077   0.403   3.183  16.523  0.1854 -0.3911 -0.3543
  472TMC3    C6 7078   0.300   3.173  16.438  0.2872 -0.2606  0.1746
  472TMC3     C 7079   0.430   3.555  16.572  0.3541  0.0789 -0.1161
  472TMC3     O 7080   0.353   3.646  16.538  0.2305  0.3680 -0.1534
  472TMC3     H 7081   0.232   3.500  16.403 -0.7366 -0.6557  0.1254
  472TMC3    H1 7082   0.527   3.303  16.637  0.8849  2.1981 -1.1410
  472TMC3    H2 7083   0.271   3.073  16.405  1.0405 -0.5965  0.5274
  472TMC3    C7 7084   0.460   3.064  16.585 -0.1904 -0.3375 -0.0874
  472TMC3    C8 7085   0.094   3.268  16.376  0.6515  0.3781 -0.6350
  472TMC3    O1 7086   0.529   3.080  16.684 -0.2809 -0.2844  0.1939
  472TMC3    O2 7087   0.056   3.334  16.276 -0.0966 -0.1903  0.2634
  473MPD2     C 7088   0.164   0.872  13.896  0.0030 -0.4079  0.8932
  473MPD2    C1 7089   0.175   0.963  13.791 -0.1638  0.3261 -0.2827
  473MPD2    C2 7090   0.202   1.090  13.825 -0.2410 -0.0242 -0.1958
  473MPD2    C3 7091   0.234   1.119  13.955  0.1657  0.2345 -0.7398
  473MPD2    C4 7092   0.231   1.028  14.049 -0.4612  0.2508  0.4935
  473MPD2    C5 7093   0.202   0.904  14.019  0.0315  0.2207 -0.1556
  473MPD2     H 7094   0.192   1.158  13.740  1.7526 -0.2877 -0.6401
  473MPD2    H1 7095   0.256   1.047  14.153 -1.3499 -0.7194  0.8752
  473MPD2    H2 7096   0.122   0.774  13.883  1.5028 -0.9477  0.0338
  473MPD2    H3 7097   0.203   0.830  14.099  1.1823 -0.7091 -1.0178
  473MPD2     N 7098   0.290   1.239  13.990 -0.0864 -0.3851 -0.1526
  473MPD2    H5 7099   0.318   1.238  14.088 -0.9124  1.1777  0.0891
  473MPD2    N1 7100   0.148   0.920  13.656 -0.0264  0.1724  0.6132
  473MPD2    H7 7101   0.143   0.990  13.582 -3.0005 -1.0378 -0.3387
  474TMC3    C1 7102   0.359   1.461  14.001 -0.5034 -0.4332 -0.2670
  474TMC3    C2 7103   0.305   1.585  13.974  0.4772 -0.7337  0.4617
  474TMC3    C3 7104   0.295   1.667  14.082 -0.4655 -0.1645 -0.0697
  474TMC3    C4 7105   0.415   1.434  14.117 -0.1787 -0.4992  0.1523
  474TMC3    C5 7106   0.405   1.524  14.228  0.1236 -0.1961  0.7518
  474TMC3    C6 7107   0.343   1.640  14.207 -0.2164 -0.9578 -0.0321
  474TMC3     C 7108   0.299   1.354  13.924 -0.2220  0.3565  0.0024
  474TMC3     O 7109   0.242   1.381  13.820 -0.0722 -0.2646 -0.5714
  474TMC3     H 7110   0.263   1.610  13.877 -0.7696 -0.9063  0.9529
  474TMC3    H1 7111   0.460   1.339  14.142 -2.3963 -1.2979  1.1456
  474TMC3    H2 7112   0.329   1.705  14.292  3.4795  0.1738 -0.2614
  474TMC3    C7 7113   0.369   1.455  14.351 -0.2618  0.3614  0.0146
  474TMC3    C8 7114   0.196   1.779  14.071 -0.0912  0.1124 -0.2790
  474TMC3    O1 7115   0.317   1.345  14.339 -0.4160 -0.3010  0.3832
  474TMC3    O2 7116   0.144   1.789  13.959  0.5224 -0.7953 -0.7210
  475MPD2     C 7117   3.601   3.428  10.788  0.4625  0.2071  0.3705
  475MPD2    C1 7118   3.615   3.567  10.809  0.2481  0.0874 -0.7313
  475MPD2    C2 7119   3.503   3.648  10.822  0.5619 -0.1566 -0.2596
  475MPD2    C3 7120   3.376   3.585  10.831 -0.2786 -0.1072 -0.0667
  475MPD2    C4 7121   3.366   3.454  10.795  0.6851 -0.7592 -0.0381
  475MPD2    C5 7122   3.474   3.378  10.763  0.3403 -0.1298  0.2298
  475MPD2     H 7123   3.513   3.756  10.829 -0.3100 -0.1505  0.9989
  475MPD2    H1 7124   3.267   3.410  10.788  0.2441  0.4063 -1.2565
  475MPD2    H2 7125   3.681   3.364  10.753  0.3203 -0.1339  0.6712
  475MPD2    H3 7126   3.466   3.274  10.734  2.7368 -0.0112 -0.8905
  475MPD2     N 7127   3.261   3.673  10.857 -0.4551 -0.4764  0.8539
  475MPD2    H5 7128   3.285   3.771  10.865 -1.0011 -0.5244  2.9956
  475MPD2    N1 7129   3.747   3.620  10.805 -0.1630 -0.2878 -0.0340
  475MPD2    H7 7130   3.824   3.555  10.807  0.6429  0.7161  1.4012
  476TMC3    C1 7131   3.927   3.767  10.823 -0.1491  0.1409  0.5954
  476TMC3    C2 7132   4.008   3.706  10.728 -0.2295  0.2057 -0.3358
  476TMC3    C3 7133   4.144   3.729  10.734 -0.2205  0.1592  0.5713
  476TMC3    C4 7134   3.983   3.854  10.909  0.5507 -0.7431  0.2585
  476TMC3    C5 7135   4.116   3.881  10.910 -0.8307  0.1400 -0.7947
  476TMC3    C6 7136   4.202   3.820  10.819  0.6372  0.3546  0.8345
  476TMC3     C 7137   3.778   3.750  10.825 -0.3352 -0.5813 -0.1423
  476TMC3     O 7138   3.718   3.854  10.847  0.2938  0.5327  0.5890
  476TMC3     H 7139   3.965   3.630  10.664  4.8927 -0.8106 -2.5500
  476TMC3    H1 7140   3.913   3.899  10.978 -1.3142 -0.5648 -1.7277
  476TMC3    H2 7141   4.308   3.839  10.807  0.4106  0.0245 -1.7146
  476TMC3    C7 7142   4.175   3.975  11.000  0.5931  0.0476 -0.0282
  476TMC3    C8 7143   4.224   3.653  10.636  0.3003 -0.0229 -0.7219
  476TMC3    O1 7144   4.292   3.954  11.026 -0.8984  0.2438  0.7908
  476TMC3    O2 7145   4.156   3.598  10.548  0.1676  0.0250  0.0417
  477MPD2     C 7146   0.552   0.066  12.230 -0.3019  0.1028 -0.0251
  477MPD2    C1 7147   0.650   0.149  12.182 -0.4974 -0.1607 -0.8799
  477MPD2    C2 7148   0.780   0.114  12.209 -0.0926  0.4429  0.9698
  477MPD2    C3 7149   0.812   0.008  12.285 -0.1247 -0.1043 -0.7564
  477MPD2    C4 7150   0.712   4.652  12.320 -0.5654  0.6863  0.4251
  477MPD2    C5 7151   0.584   4.683  12.293  0.1361 -0.5973  0.8338
  477MPD2     H 7152   0.849   0.190  12.174  1.6127 -1.0804  0.9924
  477MPD2    H1 7153   0.742   4.557  12.364 -1.0302 -0.7660 -2.3444
  477MPD2    H2 7154   0.451   0.092  12.201 -0.2064  1.0022  0.4359
  477MPD2    H3 7155   0.512   4.605  12.312  0.7020 -1.1557  0.6502
  477MPD2     N 7156   0.947   4.712  12.296  0.7487  0.1076 -0.8839
  477MPD2    H5 7157   0.999   0.020  12.220  0.9888 -1.3386 -1.5428
  477MPD2    N1 7158   0.610   0.260  12.110 -0.3262 -1.2503  0.0364
  477MPD2    H7 7159   0.513   0.290  12.118  0.0867  0.1290 -0.1553
  478TMC3    C1 7160   0.623   0.457  11.965 -0.3177 -0.0845  0.2316
  478TMC3    C2 7161   0.690   0.577  11.953  0.0220  0.1901 -0.5906
  478TMC3    C3 7162   0.627   0.666  11.866  0.1787 -0.1144  0.4075
  478TMC3    C4 7163   0.504   0.436  11.913 -0.1371 -0.5498 -0.2211
  478TMC3    C5 7164   0.443   0.533  11.835  0.5172  0.4645 -0.1124
  478TMC3    C6 7165   0.502   0.654  11.813 -0.0051 -0.1434 -0.1627
  478TMC3     C 7166   0.686   0.356  12.050 -0.1530 -0.2941  0.4132
  478TMC3     O 7167   0.808   0.359  12.029  0.4949 -0.2045  0.4099
  478TMC3     H 7168   0.793   0.590  11.984 -0.8622  1.7730  1.7175
  478TMC3    H1 7169   0.446   0.347  11.932 -1.6173  0.6553  0.8195
  478TMC3    H2 7170   0.459   0.737  11.759  3.3591  2.7345  1.5341
  478TMC3    C7 7171   0.337   0.482  11.742 -0.1758 -0.0570 -0.3446
  478TMC3    C8 7172   0.703   0.782  11.834  0.0014  0.0790  0.2332
  478TMC3    O1 7173   0.296   0.370  11.774  0.2073  0.5075  0.7773
  478TMC3    O2 7174   0.823   0.771  11.852 -0.0478 -0.2160 -0.1615
  479MPD2     C 7175   0.298   2.758  15.667 -0.0633 -0.3474 -0.2485
  479MPD2    C1 7176   0.234   2.718  15.781  0.0758 -0.2598 -0.1097
  479MPD2    C2 7177   0.276   2.754  15.904  0.2279  0.2057  0.0381
  479MPD2    C3 7178   0.372   2.852  15.902 -0.4092  0.6079 -0.6650
  479MPD2    C4 7179   0.452   2.871  15.796  0.3273  0.1912  0.3531
  479MPD2    C5 7180   0.422   2.817  15.681 -0.3009  0.1805 -0.5551
  479MPD2     H 7181   0.224   2.733  15.996 -1.2433 -2.4537 -1.4096
  479MPD2    H1 7182   0.542   2.931  15.797  0.4132  0.0610  0.2669
  479MPD2    H2 7183   0.269   2.728  15.567 -2.1326  2.0605 -0.3724
  479MPD2    H3 7184   0.491   2.839  15.601 -0.1035  0.0018 -0.4322
  479MPD2     N 7185   0.414   2.930  16.014  0.1468 -0.1761  0.0412
  479MPD2    H5 7186   0.505   2.972  15.997 -2.0609  4.5516 -0.0071
  479MPD2    N1 7187   0.117   2.637  15.753 -0.0989 -0.6616 -0.7120
  479MPD2    H7 7188   0.106   2.609  15.656  0.4346  0.6506 -1.1457
  480TMC3    C1 7189   0.048   2.796  16.205  0.0888 -0.3072 -0.6016
  480TMC3    C2 7190   4.698   2.849  16.114 -0.2949 -0.0639  0.1681
  480TMC3    C3 7191   0.007   2.947  16.034 -0.5018 -0.0286 -0.0511
  480TMC3    C4 7192   0.169   2.849  16.233  0.0097  0.4273  0.6566
  480TMC3    C5 7193   0.207   2.940  16.143  0.1014  0.2835  0.4979
  480TMC3    C6 7194   0.134   2.992  16.044 -0.5562  0.2014  0.7241
  480TMC3     C 7195   0.019   2.679  16.283  0.3239  0.1499 -0.4227
  480TMC3     O 7196   0.070   2.664  16.394 -0.4694 -0.0926  0.5738
  480TMC3     H 7197   4.594   2.819  16.102 -0.4325  0.2847  0.4871
  480TMC3    H1 7198   0.245   2.801  16.294  0.0481  0.6767  0.8087
  480TMC3    H2 7199   0.171   3.064  15.972  4.7694 -2.2128  0.9901
  480TMC3    C7 7200   0.352   2.935  16.137 -0.8093  0.0311 -0.5758
  480TMC3    C8 7201   4.681   2.944  15.906 -0.0225  0.6272  0.4371
  480TMC3    O1 7202   0.405   2.955  16.243 -0.5433  0.2578  0.1024
  480TMC3    O2 7203   4.582   2.872  15.895 -0.2006 -0.3605  0.2133
  481MPD2     C 7204   1.760   2.308  14.155  0.9665  0.3006 -0.1060
  481MPD2    C1 7205   1.647   2.272  14.232 -0.1526  0.2457  0.5759
  481MPD2    C2 7206   1.657   2.182  14.332  0.2152 -0.3680  0.3271
  481MPD2    C3 7207   1.777   2.122  14.361  0.4319 -0.3236  0.1494
  481MPD2    C4 7208   1.892   2.154  14.279  0.1139 -0.8213  0.0884
  481MPD2    C5 7209   1.874   2.239  14.178  1.2078 -0.9936  0.9809
  481MPD2     H 7210   1.571   2.159  14.394  0.1428 -1.5244 -0.2132
  481MPD2    H1 7211   1.993   2.116  14.290  1.1009  1.4114 -1.2373
  481MPD2    H2 7212   1.767   2.379  14.073 -0.0423  0.1278 -0.3459
  481MPD2    H3 7213   1.956   2.247  14.108 -0.3310  1.3765 -0.5386
  481MPD2     N 7214   1.778   2.018  14.463  0.1932  0.2065 -0.0462
  481MPD2    H5 7215   1.694   1.992  14.514 -1.3222  2.3025 -1.5124
  481MPD2    N1 7216   1.515   2.317  14.192  0.2226 -0.6836  0.4167
  481MPD2    H7 7217   1.508   2.392  14.124  2.4543  1.7807  2.8942
  482TMC3    C1 7218   1.287   2.302  14.135  0.4123 -0.1384 -0.1210
  482TMC3    C2 7219   1.194   2.210  14.090  0.2281  0.0699  0.2166
  482TMC3    C3 7220   1.095   2.249  14.002  0.1185 -0.3873 -0.2578
  482TMC3    C4 7221   1.301   2.423  14.066 -1.2302 -0.4564  0.1750
  482TMC3    C5 7222   1.205   2.450  13.972  0.1482 -0.3504 -0.4599
  482TMC3    C6 7223   1.101   2.373  13.939 -0.3953 -0.3337  0.1854
  482TMC3     C 7224   1.395   2.249  14.212  0.8730  0.0391  0.0244
  482TMC3     O 7225   1.384   2.132  14.245 -0.3315  0.3896  0.2088
  482TMC3     H 7226   1.186   2.114  14.139 -1.0063  0.0160 -0.0886
  482TMC3    H1 7227   1.360   2.509  14.098  0.3733 -1.6958  0.5525
  482TMC3    H2 7228   1.025   2.402  13.867 -1.4711 -0.2376  1.3771
  482TMC3    C7 7229   1.213   2.570  13.895  0.2803 -0.2990  0.1336
  482TMC3    C8 7230   0.996   2.152  13.956  0.7915  1.0841 -0.8425
  482TMC3    O1 7231   1.267   2.660  13.956 -0.7056 -0.2702 -0.4702
  482TMC3    O2 7232   1.032   2.039  13.975 -0.0219  0.4477 -0.3530
  483TMC3    C1 7233   0.143   1.316   1.233  0.6213 -0.3799  0.4466
  483TMC3    C2 7234   0.210   1.397   1.143  0.5825 -0.1445 -0.3454
  483TMC3    C3 7235   0.333   1.440   1.174  0.0281 -0.3089  0.2977
  483TMC3    C4 7236   0.183   1.293   1.360  0.5542  0.4393 -0.0585
  483TMC3    C5 7237   0.313   1.342   1.381 -0.0112 -0.7512  0.4077
  483TMC3    C6 7238   0.391   1.416   1.295 -0.8188 -0.6755 -0.1795
  483TMC3     C 7239   0.015   1.265   1.181 -0.4680  0.0560 -0.3886
  483TMC3     O 7240   4.725   1.291   1.060  0.1208  0.3092 -0.0055
  483TMC3     H 7241   0.175   1.428   1.045 -0.6193  1.7344  0.6820
  483TMC3    H1 7242   0.136   1.226   1.431 -0.5835  0.2947 -0.9498
  483TMC3    H2 7243   0.494   1.446   1.311 -0.2300 -2.8677  0.1412
  483TMC3    C7 7244   0.373   1.295   1.502  0.5294  0.4627 -0.5938
  483TMC3    C8 7245   0.387   1.529   1.069 -0.2451  0.0977  0.1440
  483TMC3    O1 7246   0.296   1.277   1.599 -0.5063  0.5001  0.2124
  483TMC3    O2 7247   0.364   1.485   0.958  0.0996  0.3443  0.0810
  484MPD2     C 7248   2.327   4.095  12.651 -0.3380 -0.2734 -0.0879
  484MPD2    C1 7249   2.384   3.996  12.728  0.1894 -0.9030  0.4651
  484MPD2    C2 7250   2.513   3.967  12.710 -0.3617 -0.1707 -0.0736
  484MPD2    C3 7251   2.592   4.034  12.616 -0.3453 -0.0426  0.0832
  484MPD2    C4 7252   2.526   4.122  12.531 -0.2258  0.7099  0.1000
  484MPD2    C5 7253   2.395   4.155  12.553  0.1185  0.3282 -0.6513
  484MPD2     H 7254   2.562   3.907  12.786 -3.3325 -1.5661  0.7513
  484MPD2    H1 7255   2.578   4.180  12.455  1.3176  0.5322  1.0203
  484MPD2    H2 7256   2.223   4.125  12.655 -0.4198 -0.7775  1.7120
  484MPD2    H3 7257   2.340   4.230  12.499  1.2440  2.4934  1.2028
  484MPD2     N 7258   2.732   4.014  12.610 -0.0477  0.8165 -0.5069
  484MPD2    H5 7259   2.792   4.079  12.558 -0.0517  1.4464  0.2812
  484MPD2    N1 7260   2.303   3.935  12.826  0.3084  0.3501  0.5364
  484MPD2    H7 7261   2.205   3.958  12.810  0.7466  1.4160 -0.5927
  485TMC3    C1 7262   2.941   3.913  12.629  0.5716  0.2393  0.3328
  485TMC3    C2 7263   3.025   3.823  12.691 -0.1508 -0.1224 -0.0046
  485TMC3    C3 7264   3.162   3.827  12.672 -0.0588  0.2279 -0.0350
  485TMC3    C4 7265   2.993   4.002  12.538  0.2914 -0.3737  0.1435
  485TMC3    C5 7266   3.124   4.000  12.517 -0.0696  0.4152 -0.0403
  485TMC3    C6 7267   3.206   3.925  12.593  0.0318 -0.5818  0.1235
  485TMC3     C 7268   2.797   3.907  12.664  0.5569  0.0071 -0.3956
  485TMC3     O 7269   2.756   3.804  12.715 -0.1971  0.1056  0.5403
  485TMC3     H 7270   2.974   3.756  12.759 -0.6416  1.8252  1.5527
  485TMC3    H1 7271   2.929   4.065  12.477  1.7615 -0.2486 -1.2547
  485TMC3    H2 7272   3.312   3.927  12.569  0.2744 -0.2078  1.2464
  485TMC3    C7 7273   3.159   4.006  12.376 -0.4855  0.4063 -0.2569
  485TMC3    C8 7274   3.198   3.693  12.609  0.3616  0.3409  0.3614
  485TMC3    O1 7275   3.114   4.096  12.304 -0.1685  0.1766  0.8584
  485TMC3    O2 7276   3.279   3.698  12.518 -0.5044  0.0660  0.3782
  486MPD2     C 7277   4.589   2.848  13.510  0.3784  0.8067 -0.4517
  486MPD2    C1 7278   4.527   2.775  13.418 -0.0284 -0.4125  0.1460
  486MPD2    C2 7279   4.429   2.824  13.339 -0.3898 -0.5171 -0.5015
  486MPD2    C3 7280   4.393   2.958  13.354  0.0232  1.7393 -0.4092
  486MPD2    C4 7281   4.458   3.038  13.445  0.0576  0.0539 -0.3103
  486MPD2    C5 7282   4.556   2.982  13.520 -0.0733 -0.1709 -0.1242
  486MPD2     H 7283   4.377   2.759  13.270 -1.4364  0.0981 -0.2800
  486MPD2    H1 7284   4.442   3.145  13.453  0.1879  0.2264 -2.4146
  486MPD2    H2 7285   4.647   2.805  13.592 -0.3379 -0.0221 -0.3779
  486MPD2    H3 7286   4.593   3.047  13.599 -0.8692  1.1512 -0.8498
  486MPD2     N 7287   4.279   3.003  13.275 -0.1416 -0.7899 -0.2084
  486MPD2    H5 7288   4.241   2.937  13.208 -1.0400  1.2210 -1.6710
  486MPD2    N1 7289   4.560   2.638  13.419  0.1215  0.3549 -0.1783
  486MPD2    H7 7290   4.642   2.612  13.472 -0.8307  0.0832  1.1395
  487TMC3    C1 7291   4.553   2.402  13.383 -0.1178  0.3684 -0.2304
  487TMC3    C2 7292   4.489   2.306  13.300 -0.7804  0.4868 -0.5486
  487TMC3    C3 7293   4.444   2.185  13.351  0.1001  0.3612 -0.2051
  487TMC3    C4 7294   4.567   2.373  13.516  0.6893 -0.8523  0.3585
  487TMC3    C5 7295   4.528   2.255  13.558 -0.0155  1.0584  0.8314
  487TMC3    C6 7296   4.476   2.158  13.482 -0.4231 -0.4288 -0.0519
  487TMC3     C 7297   4.503   2.534  13.346  0.0072  0.4267  0.1851
  487TMC3     O 7298   4.398   2.544  13.284 -0.1501  0.2519 -0.0097
  487TMC3     H 7299   4.452   2.338  13.203  3.4653 -1.0234 -2.6979
  487TMC3    H1 7300   4.618   2.438  13.586  1.4058  1.1212 -1.9942
  487TMC3    H2 7301   4.426   2.072  13.524  0.0966 -0.5613  0.2857
  487TMC3    C7 7302   4.492   2.244  13.701 -0.0514  0.0038 -0.0638
  487TMC3    C8 7303   4.306   2.167  13.325 -0.7865  0.0769 -0.3098
  487TMC3    O1 7304   4.579   2.289  13.777 -0.0074  0.6396 -0.4580
  487TMC3    O2 7305   4.232   2.169  13.424  0.3524 -0.7005  0.2655
  488MPD2     C 7306   4.540   4.456  16.096 -0.6477  0.8416 -0.8388
  488MPD2    C1 7307   4.635   4.498  16.185  0.0889  0.0166 -1.1033
  488MPD2    C2 7308   4.612   4.462  16.315  0.3742  0.1071 -0.2776
  488MPD2    C3 7309   4.514   4.382  16.357  0.6766  0.0106  0.0562
  488MPD2    C4 7310   4.420   4.335  16.265  0.7422  0.4758  0.8785
  488MPD2    C5 7311   4.441   4.368  16.131 -0.1669 -0.0609 -0.5454
  488MPD2     H 7312   4.675   4.506  16.392  0.6327  0.9606 -0.9750
  488MPD2    H1 7313   4.341   4.265  16.288 -0.0828  0.8292 -0.8763
  488MPD2    H2 7314   4.553   4.480  15.991  1.0625 -1.2840 -1.1160
  488MPD2    H3 7315   4.373   4.327  16.057  1.6003 -0.7913 -1.7649
  488MPD2     N 7316   4.527   4.333  16.486  1.0814  0.4972 -0.3592
  488MPD2    H5 7317   4.611   4.355  16.538  1.9613  1.3936 -2.1728
  488MPD2    N1 7318   0.002   4.584  16.158  0.7082 -0.5066  0.0953
  488MPD2    H7 7319   0.057   4.619  16.234  0.3003  1.8324 -0.6953
  489TMC3    C1 7320   4.456   4.290  16.711 -0.0804  0.2504 -0.3115
  489TMC3    C2 7321   4.546   4.381  16.756  0.3116 -0.9019 -0.1918
  489TMC3    C3 7322   4.534   4.416  16.889  0.6481 -0.0180  0.0299
  489TMC3    C4 7323   4.360   4.234  16.793 -0.3756  0.0718 -0.7140
  489TMC3    C5 7324   4.353   4.275  16.924 -0.0712  0.5459  0.1070
  489TMC3    C6 7325   4.435   4.373  16.972  0.1082 -0.2930 -0.0345
  489TMC3     C 7326   4.427   4.280  16.566  0.1412  0.7772 -0.3351
  489TMC3     O 7327   4.311   4.263  16.533 -0.0210 -0.5728 -0.2459
  489TMC3     H 7328   4.627   4.428  16.701 -0.4174 -0.7875 -1.1750
  489TMC3    H1 7329   4.284   4.170  16.749  0.3812 -0.2890 -1.5104
  489TMC3    H2 7330   4.427   4.400  17.076 -1.0997  0.3498 -0.2909
  489TMC3    C7 7331   4.311   4.176  17.023 -1.0347 -0.2463 -0.6320
  489TMC3    C8 7332   4.626   4.525  16.926  0.2333  0.3088  0.1139
  489TMC3    O1 7333   4.350   4.188  17.138  0.1362  0.0360  0.1006
  489TMC3    O2 7334   4.728   4.543  16.867  0.2535  0.6599  0.2530
  490MPD2     C 7335   0.558   4.291  17.140  0.7886 -0.3176 -0.0703
  490MPD2    C1 7336   0.479   4.309  17.252  0.0804 -0.1079 -0.4226
  490MPD2    C2 7337   0.506   4.419  17.329  0.2920 -0.9412  0.2792
  490MPD2    C3 7338   0.615   4.497  17.311 -0.6944 -0.3000 -0.5244
  490MPD2    C4 7339   0.700   4.464  17.205 -0.6772 -0.0704  0.2396
  490MPD2    C5 7340   0.670   4.363  17.117  0.2218  0.4416 -0.3239
  490MPD2     H 7341   0.440   4.435  17.414 -1.3975 -0.2228 -1.1830
  490MPD2    H1 7342   0.794   4.518  17.197 -1.5738  1.8446  2.5008
  490MPD2    H2 7343   0.536   4.209  17.074  1.9429  1.1026 -2.2309
  490MPD2    H3 7344   0.733   4.342  17.031  0.2088 -0.1236 -0.1983
  490MPD2     N 7345   0.644   4.612  17.392  0.4021 -0.1123 -0.0580
  490MPD2    H5 7346   0.729   4.656  17.358  1.5680 -1.6078  0.9474
  490MPD2    N1 7347   0.371   4.224  17.289 -0.2600  0.7151 -0.0315
  490MPD2    H7 7348   0.311   4.246  17.367 -0.0569 -1.7141  0.8068
  491TMC3    C1 7349   0.255   4.031  17.324  0.0580 -0.6855 -0.0704
  491TMC3    C2 7350   0.264   4.052  17.463 -0.8814 -0.0144 -0.1828
  491TMC3    C3 7351   0.245   3.942  17.544  0.5877  0.2829 -0.5209
  491TMC3    C4 7352   0.224   3.907  17.272  0.7764 -0.6225 -0.0960
  491TMC3    C5 7353   0.207   3.807  17.357 -0.7610  0.1401 -0.5078
  491TMC3    C6 7354   0.219   3.811  17.492  0.7219 -0.4619  0.2933
  491TMC3     C 7355   0.352   4.104  17.241  0.0765 -0.6916  0.7695
  491TMC3     O 7356   0.399   4.047  17.140 -0.0230 -0.2328  0.0968
  491TMC3     H 7357   0.281   4.153  17.498  1.6926 -0.3407 -0.4903
  491TMC3    H1 7358   0.224   3.897  17.164  2.5914  3.2847 -0.4723
  491TMC3    H2 7359   0.202   3.723  17.554  1.0564  0.5083  1.7756
  491TMC3    C7 7360   0.227   3.678  17.286  0.5209  0.4779 -0.1264
  491TMC3    C8 7361   0.251   3.958  17.688  1.2439 -0.5486  0.0822
  491TMC3    O1 7362   0.172   3.678  17.176  0.6364  0.4010  0.1538
  491TMC3    O2 7363   0.258   4.072  17.734 -0.3723 -0.5245  0.4867
  492MPD2     C 7364   0.695   3.843  11.951 -0.4911  0.0981  0.2208
  492MPD2    C1 7365   0.692   3.799  11.823  0.0489 -0.1665 -0.4701
  492MPD2    C2 7366   0.617   3.685  11.793 -0.0732 -0.2055 -0.1503
  492MPD2    C3 7367   0.545   3.623  11.900  0.7435  0.2846  0.3066
  492MPD2    C4 7368   0.543   3.684  12.023  0.2277  0.2467 -0.2754
  492MPD2    C5 7369   0.624   3.786  12.050  0.1574  0.0776 -0.7580
  492MPD2     H 7370   0.623   3.633  11.698 -0.6899  0.0208 -0.3172
  492MPD2    H1 7371   0.483   3.637  12.101 -1.3707  1.2636 -0.9044
  492MPD2    H2 7372   0.745   3.937  11.971  0.5909 -0.4239 -0.0279
  492MPD2    H3 7373   0.617   3.834  12.147  2.2836  0.9455 -1.0222
  492MPD2     N 7374   0.448   3.519  11.882 -0.3324 -0.2774 -0.0258
  492MPD2    H5 7375   0.384   3.492  11.956 -1.2061 -1.9486 -1.3800
  492MPD2    N1 7376   0.769   3.862  11.724 -0.0307 -0.1580 -0.0999
  492MPD2    H7 7377   0.835   3.931  11.758 -0.7930 -0.7232  2.5482
  493TMC3    C1 7378   0.870   3.914  11.514  0.9683  0.1348  0.1181
  493TMC3    C2 7379   0.895   4.042  11.562  0.0065 -0.0896  0.2992
  493TMC3    C3 7380   0.988   4.110  11.495  0.0797 -0.2030 -0.0357
  493TMC3    C4 7381   0.947   3.860  11.417  0.4010  0.0597  0.0522
  493TMC3    C5 7382   1.054   3.931  11.362 -0.2877  0.1415 -0.3026
  493TMC3    C6 7383   1.076   4.056  11.409 -0.2511 -0.1311 -0.6387
  493TMC3     C 7384   0.767   3.839  11.585  0.8896  0.0626 -0.5496
  493TMC3     O 7385   0.709   3.764  11.514 -0.4684  0.0636 -0.3131
  493TMC3     H 7386   0.834   4.108  11.624 -1.1096 -0.0932 -0.8095
  493TMC3    H1 7387   0.917   3.759  11.389  0.3269  0.1816 -0.3125
  493TMC3    H2 7388   1.160   4.106  11.364  0.4017 -0.8136 -0.1741
  493TMC3    C7 7389   1.063   3.922  11.219 -0.1276 -0.0732 -0.1409
  493TMC3    C8 7390   0.994   4.252  11.527 -0.0953  0.6853  0.1114
  493TMC3    O1 7391   1.120   4.014  11.166 -0.1412 -0.0839 -0.1769
  493TMC3    O2 7392   0.978   4.275  11.642 -0.1808  0.2517 -0.0059
  494TMC3    C1 7393   1.588   0.983   0.736 -0.3164  0.4013 -0.2124
  494TMC3    C2 7394   1.586   0.842   0.749  1.0146 -0.1166 -0.1745
  494TMC3    C3 7395   1.596   0.774   0.630  0.7005 -1.2284 -0.4968
  494TMC3    C4 7396   1.607   1.046   0.619  1.0017  1.0161 -0.1865
  494TMC3    C5 7397   1.596   0.969   0.505  0.0592  0.0183  0.3925
  494TMC3    C6 7398   1.589   0.832   0.507 -0.1342 -0.2332  0.3949
  494TMC3     C 7399   1.585   1.070   0.856  0.0412  0.0839 -0.0817
  494TMC3     O 7400   1.637   1.179   0.854 -0.2768 -0.2533 -0.0100
  494TMC3     H 7401   1.620   0.796   0.841  0.0840 -0.8479 -0.1954
  494TMC3    H1 7402   1.593   1.152   0.604 -0.3622  0.7716 -0.6347
  494TMC3    H2 7403   1.587   0.770   0.418  2.0035  0.0862  0.1163
  494TMC3    C7 7404   1.598   1.034   0.374 -0.5100 -0.2099 -0.2129
  494TMC3    C8 7405   1.627   0.632   0.631  0.1189  0.1348 -0.0626
  494TMC3    O1 7406   1.607   0.960   0.277  0.4272  0.2588 -0.2034
  494TMC3    O2 7407   1.666   0.587   0.523 -0.2292 -0.4921 -0.4730
  495TMC3    C1 7408   0.641   2.927  15.288 -0.1607 -0.4639 -0.5967
  495TMC3    C2 7409   0.593   2.947  15.162  0.1321 -0.1654 -0.0177
  495TMC3    C3 7410   0.477   3.015  15.140  0.3844  0.3774  0.4829
  495TMC3    C4 7411   0.582   2.995  15.393 -0.0458 -0.0774 -0.0710
  495TMC3    C5 7412   0.481   3.083  15.359  0.2209 -0.7038  0.3011
  495TMC3    C6 7413   0.420   3.095  15.240 -0.3481 -0.0901  0.2525
  495TMC3     C 7414   0.652   2.785  15.315  0.2513  0.2692 -0.5957
  495TMC3     O 7415   0.610   2.743  15.424 -0.2974  0.3389  0.1689
  495TMC3     H 7416   0.634   2.909  15.070 -0.2417 -0.9102  0.1135
  495TMC3    H1 7417   0.605   2.980  15.497  1.8536 -2.4059 -0.8066
  495TMC3    H2 7418   0.340   3.166  15.219 -1.9232 -2.6694 -2.5199
  495TMC3    C7 7419   0.376   3.097  15.459 -0.5519 -0.0541 -0.2374
  495TMC3    C8 7420   0.369   2.950  15.069 -0.0189  0.1627 -0.1739
  495TMC3    O1 7421   0.394   3.128  15.577  0.2804  0.2236  0.4882
  495TMC3    O2 7422   0.264   2.998  15.114 -0.0219 -0.0687 -0.2256
  496MPD2     C 7423   2.336   3.289  15.695  0.5059  0.0991 -0.1645
  496MPD2    C1 7424   2.278   3.166  15.665  0.2506 -0.3213  0.2309
  496MPD2    C2 7425   2.155   3.137  15.720  1.0820  0.6384  0.5306
  496MPD2    C3 7426   2.086   3.242  15.775  0.5687  0.6135 -0.1192
  496MPD2    C4 7427   2.146   3.356  15.809  0.1210  0.5651 -0.3851
  496MPD2    C5 7428   2.271   3.380  15.767 -0.3423 -0.5597 -0.5380
  496MPD2     H 7429   2.109   3.043  15.692  1.0060  0.5944  0.8014
  496MPD2    H1 7430   2.088   3.436  15.854 -0.1683  0.8269 -1.2333
  496MPD2    H2 7431   2.436   3.308  15.660  0.7250 -0.5215  0.1185
  496MPD2    H3 7432   2.323   3.472  15.789 -0.7247 -0.0774 -1.6172
  496MPD2     N 7433   1.949   3.226  15.821 -0.4015  0.2654 -0.0477
  496MPD2    H5 7434   1.909   3.299  15.879 -0.4650  0.6768 -0.6116
  496MPD2    N1 7435   2.342   3.070  15.577  0.1363  0.1521 -1.0074
  496MPD2    H7 7436   2.415   3.100  15.513  1.7763 -1.4001  0.1372
  497TMC3    C1 7437   1.750   3.109  15.882  0.2379  0.2627 -0.1087
  497TMC3    C2 7438   1.662   3.014  15.826  0.7201 -0.1465 -0.2395
  497TMC3    C3 7439   1.597   2.921  15.903 -0.3185 -0.5731 -0.0340
  497TMC3    C4 7440   1.765   3.115  16.018  0.4694  0.1081  0.2551
  497TMC3    C5 7441   1.684   3.025  16.093  0.4438 -0.2616  0.2533
  497TMC3    C6 7442   1.615   2.925  16.038  0.6173  0.4359 -0.1249
  497TMC3     C 7443   1.870   3.117  15.801  0.0298  0.4291 -0.0352
  497TMC3     O 7444   1.887   3.015  15.742  0.3256  0.7902 -0.2669
  497TMC3     H 7445   1.660   3.008  15.718 -0.1577 -1.1286 -0.1680
  497TMC3    H1 7446   1.840   3.176  16.065  0.5572  0.1146  0.1066
  497TMC3    H2 7447   1.549   2.856  16.089  0.1534  1.8537  1.1766
  497TMC3    C7 7448   1.735   2.988  16.223 -0.3240  0.1420 -0.1881
  497TMC3    C8 7449   1.632   2.790  15.854 -0.5143  0.1684  0.4743
  497TMC3    O1 7450   1.715   2.869  16.240  0.1001  0.1120  0.1990
  497TMC3    O2 7451   1.626   2.778  15.729 -0.1425 -0.5368  0.0949
  498MPD2     C 7452   2.659   3.927  10.722  0.1717 -0.6008  0.5894
  498MPD2    C1 7453   2.749   3.873  10.628  0.2537  0.1665  0.0516
  498MPD2    C2 7454   2.781   3.742  10.633 -0.0173  0.3101 -0.7257
  498MPD2    C3 7455   2.733   3.662  10.734  0.1934  0.2925  0.3737
  498MPD2    C4 7456   2.638   3.713  10.814 -0.2285  0.0339  0.4287
  498MPD2    C5 7457   2.603   3.841  10.806 -0.6347 -0.2499 -0.2154
  498MPD2     H 7458   2.865   3.711  10.572 -0.5812 -1.2211 -0.7029
  498MPD2    H1 7459   2.592   3.637  10.877 -1.2419  0.5040  0.2572
  498MPD2    H2 7460   2.629   4.031  10.725 -0.8998 -0.9131  0.5874
  498MPD2    H3 7461   2.527   3.875  10.876  0.0557  1.1272 -0.1319
  498MPD2     N 7462   2.761   3.527  10.757  0.7971 -0.5856 -0.1671
  498MPD2    H5 7463   2.714   3.482  10.835  2.8355  0.4614  1.6899
  498MPD2    N1 7464   2.818   3.950  10.528 -0.4126 -0.1607  1.0060
  498MPD2    H7 7465   2.891   3.908  10.471 -1.1989 -0.0082 -0.1184
  499TMC3    C1 7466   2.882   4.141  10.400 -0.3597  0.1316 -0.2074
  499TMC3    C2 7467   3.001   4.079  10.373  0.2514  0.1729  0.3969
  499TMC3    C3 7468   3.078   4.129  10.276  0.2286  0.1396 -0.4459
  499TMC3    C4 7469   2.847   4.257  10.333 -0.3897 -0.0227 -0.0644
  499TMC3    C5 7470   2.927   4.307  10.231 -0.5366  0.9655 -0.4028
  499TMC3    C6 7471   3.044   4.240  10.201  0.1907  0.1589  0.6246
  499TMC3     C 7472   2.799   4.086  10.503  0.0750  0.7544 -0.8433
  499TMC3     O 7473   2.717   4.161  10.549  0.0308 -0.1297  0.0855
  499TMC3     H 7474   3.040   4.006  10.443 -0.4922  0.8130  1.4875
  499TMC3    H1 7475   2.761   4.314  10.367  1.7200  3.6905 -0.8790
  499TMC3    H2 7476   3.115   4.287  10.135 -0.5615 -1.2233 -1.1867
  499TMC3    C7 7477   2.883   4.416  10.147  0.1717  0.5511 -0.3114
  499TMC3    C8 7478   3.201   4.050  10.246  0.0981 -0.2344  0.1630
  499TMC3    O1 7479   2.975   4.465  10.083 -0.1775 -0.4637 -0.7212
  499TMC3    O2 7480   3.239   3.973  10.335 -0.4074  0.1133 -0.1765
  500MPD2     C 7481   4.002   4.562  10.920  0.6627  0.1384 -0.0481
  500MPD2    C1 7482   3.951   4.690  10.924 -0.4112 -0.0636 -0.0602
  500MPD2    C2 7483   3.884   4.734  10.810  0.2526 -0.3004  0.0608
  500MPD2    C3 7484   3.868   4.656  10.696  0.6110 -0.0864  0.1570
  500MPD2    C4 7485   3.912   4.530  10.698  0.2384 -0.6892 -0.1875
  500MPD2    C5 7486   3.980   4.481  10.811  0.4625  0.1088 -0.1271
  500MPD2     H 7487   3.851   0.101  10.815 -0.4786 -0.5547  0.2975
  500MPD2    H1 7488   3.884   4.466  10.615 -1.4139  1.8991 -1.6220
  500MPD2    H2 7489   4.064   4.513  10.994  2.0418  0.7952 -0.7617
  500MPD2    H3 7490   4.018   4.380  10.807  0.1202 -0.0531  0.7563
  500MPD2     N 7491   3.807   4.705  10.579  1.0134 -0.9251  0.0880
  500MPD2    H5 7492   3.777   4.638  10.509 -0.0091 -1.5600  1.1349
  500MPD2    N1 7493   3.971   0.052  11.022  0.2668 -0.4876  0.1272
  500MPD2    H7 7494   3.929   0.142  11.002  1.8832  0.3587  0.5082
  501TMC3    C1 7495   4.049   0.138  11.229 -0.0815  1.0203 -0.2351
  501TMC3    C2 7496   4.089   0.256  11.174  0.2910 -0.8755 -0.0052
  501TMC3    C3 7497   4.140   0.355  11.260 -0.0859 -0.2341  0.2812
  501TMC3    C4 7498   4.088   0.107  11.358 -0.0553 -0.0540 -0.1286
  501TMC3    C5 7499   4.141   0.204  11.434  0.3392  0.2339  0.1355
  501TMC3    C6 7500   4.170   0.328  11.386 -0.4341  0.0956 -0.0744
  501TMC3     C 7501   4.033   0.021  11.142 -0.6425  0.6933 -0.3305
  501TMC3     O 7502   4.079   4.651  11.177  0.2238  0.5719 -0.1380
  501TMC3     H 7503   4.094   0.267  11.066  1.3051 -0.5049  0.0886
  501TMC3    H1 7504   4.085   0.009  11.403 -3.6684  0.4737  0.8357
  501TMC3    H2 7505   4.213   0.405  11.448 -0.2830 -1.0060  1.1779
  501TMC3    C7 7506   4.173   0.183  11.571  0.0533  0.0694 -0.3436
  501TMC3    C8 7507   4.227   0.462  11.209  0.2256  0.6364 -0.1895
  501TMC3    O1 7508   4.245   0.276  11.611 -0.4753  0.6323  0.0056
  501TMC3    O2 7509   4.291   0.530  11.287  0.2372  0.5372  0.4938
  502TMC3    C1 7510   4.656   3.884  15.273 -0.0321  0.3758  0.2265
  502TMC3    C2 7511   0.006   3.993  15.244  0.3825  1.0205  0.0252
  502TMC3    C3 7512   4.720   4.070  15.131  0.1046  0.4548  0.1777
  502TMC3    C4 7513   4.567   3.842  15.176  0.6859 -0.2973 -0.4431
  502TMC3    C5 7514   4.561   3.913  15.062  0.5076  0.7193  0.4914
  502TMC3    C6 7515   4.633   4.026  15.036 -0.3032  0.3089  0.2740
  502TMC3     C 7516   4.665   3.815  15.399 -0.4674  0.0111  0.3393
  502TMC3     O 7517   4.567   3.747  15.429 -0.3655 -0.1422 -1.2415
  502TMC3     H 7518   0.078   4.026  15.318  1.0244 -1.0679  0.3593
  502TMC3    H1 7519   4.517   3.746  15.184 -1.2209  0.9122  2.0279
  502TMC3    H2 7520   4.633   4.069  14.936 -2.4396 -0.3838 -0.0089
  502TMC3    C7 7521   4.441   3.898  14.978  0.7476 -0.2980 -0.0242
  502TMC3    C8 7522   0.037   4.201  15.127 -0.4705  0.1297 -0.2704
  502TMC3    O1 7523   4.451   3.934  14.860  0.0141 -0.3419  0.2530
  502TMC3    O2 7524   0.138   4.227  15.192  0.0304  0.3355 -0.4035
  503MPD2     C 7525   1.586   4.294  16.966  0.2609  0.0566  0.2186
  503MPD2    C1 7526   1.679   4.347  17.048 -0.3236  0.4136 -0.7264
  503MPD2    C2 7527   1.747   4.256  17.129  0.2706 -0.3155  0.0256
  503MPD2    C3 7528   1.701   4.127  17.143 -0.2199  0.2021  0.7356
  503MPD2    C4 7529   1.593   4.083  17.067  0.1935  0.2429  0.7918
  503MPD2    C5 7530   1.543   4.167  16.974 -0.7016 -0.7321  0.0361
  503MPD2     H 7531   1.827   4.290  17.194  1.2067  0.1859 -1.3827
  503MPD2    H1 7532   1.553   3.985  17.091  0.3861  0.2942  1.3355
  503MPD2    H2 7533   1.535   4.352  16.890  0.8650 -0.3996 -0.5422
  503MPD2    H3 7534   1.475   4.135  16.895  0.1637  0.0598 -1.0316
  503MPD2     N 7535   1.770   4.045  17.242 -0.0507 -0.7733 -0.8185
  503MPD2    H5 7536   1.849   4.093  17.284 -2.6071  2.6881 -0.0439
  503MPD2    N1 7537   1.717   4.488  17.046  0.3846  0.0128  1.4181
  503MPD2    H7 7538   1.764   4.525  17.128 -0.0633  0.1862  1.5972
  504TMC3    C1 7539   1.835   3.845  17.356 -0.7008  0.2451  0.5113
  504TMC3    C2 7540   1.799   3.741  17.435 -0.3899  0.7388  0.3666
  504TMC3    C3 7541   1.901   3.675  17.500  0.8833  0.3720 -0.0852
  504TMC3    C4 7542   1.967   3.888  17.341  0.6314  0.3634  0.7329
  504TMC3    C5 7543   2.063   3.821  17.409 -0.0852 -0.6542 -0.0832
  504TMC3    C6 7544   2.040   3.711  17.483 -0.5116  0.1413  0.0587
  504TMC3     C 7545   1.730   3.922  17.286  0.0965 -0.0632  0.8021
  504TMC3     O 7546   1.623   3.873  17.262  0.1517  0.3627 -0.4904
  504TMC3     H 7547   1.697   3.704  17.438 -0.8312  1.9868  0.8845
  504TMC3    H1 7548   2.002   3.964  17.272 -0.5385  1.2722  1.1464
  504TMC3    H2 7549   2.117   3.654  17.533 -2.2192 -0.5139  1.9199
  504TMC3    C7 7550   2.197   3.865  17.375 -0.2116  0.0058  0.9099
  504TMC3    C8 7551   1.863   3.560  17.574  0.5198 -0.3173 -0.4223
  504TMC3    O1 7552   2.218   3.929  17.273  0.3376  0.0008  0.9592
  504TMC3    O2 7553   1.748   3.510  17.553 -0.9395  0.1394 -0.0615
  505MPD2     C 7554   2.224   2.801  10.851  0.5347 -0.1861  0.0214
  505MPD2    C1 7555   2.235   2.665  10.865 -0.2891 -0.1274  0.3729
  505MPD2    C2 7556   2.240   2.614  10.994  0.0924 -0.4272  0.3090
  505MPD2    C3 7557   2.243   2.698  11.100 -0.0167  0.3817 -0.5661
  505MPD2    C4 7558   2.229   2.838  11.082 -0.5240  0.6148 -0.1594
  505MPD2    C5 7559   2.225   2.885  10.958  0.3557  0.0128  0.0337
  505MPD2     H 7560   2.246   2.512  11.028  1.5792 -1.1606 -2.2005
  505MPD2    H1 7561   2.242   2.910  11.161 -0.9656  0.2382  0.2572
  505MPD2    H2 7562   2.205   2.850  10.756  2.7434  0.9839  0.1742
  505MPD2    H3 7563   2.212   2.992  10.947 -0.8814 -0.1130  0.3245
  505MPD2     N 7564   2.268   2.643  11.227  0.4434  0.0529 -0.3151
  505MPD2    H5 7565   2.295   2.546  11.234  0.4463  0.0316 -0.6371
  505MPD2    N1 7566   2.234   2.578  10.750 -0.8084  0.2460 -0.1918
  505MPD2    H7 7567   2.220   2.622  10.660 -0.8582 -1.3140 -0.9492
  506TMC3    C1 7568   2.257   2.363  10.646 -0.1621 -0.6630 -0.0290
  506TMC3    C2 7569   2.342   2.418  10.550 -0.6158 -0.3683  0.1419
  506TMC3    C3 7570   2.414   2.330  10.471 -0.2851  0.4858  0.0251
  506TMC3    C4 7571   2.270   2.230  10.677  0.8147  0.5950 -0.0820
  506TMC3    C5 7572   2.360   2.153  10.611  0.0443  0.6416 -0.4290
  506TMC3    C6 7573   2.422   2.200  10.497 -0.3148 -0.1685 -0.9759
  506TMC3     C 7574   2.233   2.441  10.763 -0.4985 -0.5630  0.3088
  506TMC3     O 7575   2.252   2.371  10.864 -0.1196  0.0213  0.0283
  506TMC3     H 7576   2.335   2.524  10.528  1.4326 -0.3341 -0.3517
  506TMC3    H1 7577   2.228   2.183  10.765  2.6830 -0.4000  0.2763
  506TMC3    H2 7578   2.504   2.149  10.447 -0.0593 -2.2831  1.5891
  506TMC3    C7 7579   2.464   2.087  10.695 -0.1004 -1.0618 -0.7433
  506TMC3    C8 7580   2.523   2.383  10.396 -0.1977 -0.0270 -0.0908
  506TMC3    O1 7581   2.541   1.995  10.662  0.0059  0.0011 -0.2097
  506TMC3    O2 7582   2.557   2.328  10.294 -1.0153 -0.1051 -0.4158
  507TMC3    C1 7583   3.066   3.927  14.421 -0.2198  0.1700  0.1602
  507TMC3    C2 7584   3.054   3.873  14.292 -0.0520 -0.0121  0.9019
  507TMC3    C3 7585   3.115   3.938  14.191 -0.0782  0.7153  0.3010
  507TMC3    C4 7586   3.135   4.036  14.440  0.1394 -0.2368  0.0473
  507TMC3    C5 7587   3.196   4.103  14.339  0.2880  0.1762 -0.3503
  507TMC3    C6 7588   3.197   4.046  14.211 -0.1331  0.5087 -0.1405
  507TMC3     C 7589   2.994   3.876  14.533  0.2138 -0.4661 -0.1658
  507TMC3     O 7590   3.033   3.906  14.644 -0.6761  0.5335 -0.6542
  507TMC3     H 7591   2.995   3.785  14.271 -1.6356  1.1149  0.5837
  507TMC3    H1 7592   3.135   4.074  14.541  0.5858 -2.5873  0.9291
  507TMC3    H2 7593   3.251   4.096  14.131  0.3306  1.2167  0.6067
  507TMC3    C7 7594   3.173   4.243  14.332 -0.9129 -0.2617 -0.2753
  507TMC3    C8 7595   3.030   3.954  14.075  0.1910  0.0936  0.3357
  507TMC3    O1 7596   3.151   4.282  14.217 -0.1936 -0.1681 -0.4891
  507TMC3    O2 7597   2.969   3.863  14.028 -0.4267 -0.0153 -0.0396
  508MPD2     C 7598   3.418   1.603  16.319  0.1778 -0.4193  0.3135
  508MPD2    C1 7599   3.541   1.591  16.269  0.1537 -0.8434 -0.2614
  508MPD2    C2 7600   3.578   1.614  16.141 -0.6395 -0.0951  0.3913
  508MPD2    C3 7601   3.481   1.668  16.053  0.2933  0.1346  0.8068
  508MPD2    C4 7602   3.346   1.676  16.102  0.0473  0.2777  0.1891
  508MPD2    C5 7603   3.322   1.646  16.236  0.4439 -0.1355  0.0012
  508MPD2     H 7604   3.676   1.598  16.097  0.7205  1.8878  2.6668
  508MPD2    H1 7605   3.257   1.683  16.041 -0.6868 -0.3980  1.1813
  508MPD2    H2 7606   3.395   1.573  16.421 -1.4828 -2.4540 -0.6666
  508MPD2    H3 7607   3.217   1.645  16.262 -0.1984 -1.1316 -2.6291
  508MPD2     N 7608   3.517   1.723  15.926 -0.0189  0.3515 -0.0496
  508MPD2    H5 7609   3.613   1.704  15.899 -0.0138  1.5102 -0.8349
  508MPD2    N1 7610   3.643   1.539  16.365 -0.4240 -0.6049  0.2276
  508MPD2    H7 7611   3.619   1.525  16.462 -2.6926 -0.4783 -0.3115
  509TMC3    C1 7612   3.515   2.043  15.576  0.7749 -0.1837 -0.5956
  509TMC3    C2 7613   3.650   2.066  15.581  0.0356 -0.2205  0.9009
  509TMC3    C3 7614   3.724   1.979  15.660  0.2170 -0.2427 -0.3837
  509TMC3    C4 7615   3.447   1.948  15.648 -0.7459 -0.1045 -0.1917
  509TMC3    C5 7616   3.519   1.874  15.737 -0.3752  0.9376  0.3924
  509TMC3    C6 7617   3.657   1.884  15.736 -0.2315  0.3597 -0.7199
  509TMC3     C 7618   3.424   2.143  15.522  0.0595 -0.3455  0.1433
  509TMC3     O 7619   3.307   2.108  15.507  0.2277  0.0497  0.3190
  509TMC3     H 7620   3.708   2.125  15.510 -1.7975 -0.0804 -0.4917
  509TMC3    H1 7621   3.339   1.942  15.652 -0.7132 -2.1952 -2.6029
  509TMC3    H2 7622   3.712   1.815  15.800  0.4476  1.5481 -0.0262
  509TMC3    C7 7623   3.445   1.797  15.843  0.4772 -0.2920 -0.8366
  509TMC3    C8 7624   3.856   2.019  15.704  0.3938  0.0962  0.4719
  509TMC3    O1 7625   3.334   1.846  15.869  0.0265  0.2702  0.2279
  509TMC3    O2 7626   3.907   1.942  15.787 -0.3098  0.2924 -0.2669
  510MPD2     C 7627   1.756   3.465  15.051 -0.1536 -0.0128 -0.1872
  510MPD2    C1 7628   1.789   3.351  15.126  0.5160  0.4444  0.3385
  510MPD2    C2 7629   1.906   3.284  15.097 -1.0564  0.5377  0.4132
  510MPD2    C3 7630   1.990   3.329  14.998  0.2441  0.3075 -0.2625
  510MPD2    C4 7631   1.955   3.445  14.928  0.4186 -0.3087  0.2029
  510MPD2    C5 7632   1.843   3.516  14.957  0.1726 -0.5106 -1.2367
  510MPD2     H 7633   1.933   3.189  15.141 -2.5038 -1.0874 -2.1698
  510MPD2    H1 7634   2.010   3.483  14.842  0.7845  0.7493  0.8973
  510MPD2    H2 7635   1.670   3.522  15.085 -0.0841 -1.0770  1.8461
  510MPD2    H3 7636   1.805   3.602  14.901  0.5368  0.6452  0.2966
  510MPD2     N 7637   2.098   3.244  14.973  0.0109 -0.1617  0.2989
  510MPD2    H5 7638   2.087   3.151  15.013 -0.1178 -0.4313 -0.3595
  510MPD2    N1 7639   1.704   3.297  15.227  0.0097 -0.3410  0.0242
  510MPD2    H7 7640   1.604   3.312  15.214  0.1321 -0.5232 -1.1581
  511TMC3    C1 7641   1.645   3.134  15.392  0.6987  0.1882  0.4808
  511TMC3    C2 7642   1.522   3.183  15.427 -0.3671 -0.1709  0.5214
  511TMC3    C3 7643   1.435   3.084  15.475 -0.5567  0.3515 -0.4909
  511TMC3    C4 7644   1.688   3.005  15.411  0.7668 -0.3787  0.1678
  511TMC3    C5 7645   1.599   2.910  15.443  0.1362 -0.2591  0.0313
  511TMC3    C6 7646   1.467   2.952  15.471  0.5527 -0.4995  0.3154
  511TMC3     C 7647   1.746   3.218  15.324  0.6403 -0.5379  0.8397
  511TMC3     O 7648   1.859   3.193  15.361  0.3799  0.0256  0.4277
  511TMC3     H 7649   1.497   3.287  15.410 -0.1652 -0.4255 -1.3229
  511TMC3    H1 7650   1.786   2.981  15.372  0.3865  0.6107 -1.4426
  511TMC3    H2 7651   1.392   2.880  15.500  0.1904 -0.0709  0.4426
  511TMC3    C7 7652   1.624   2.784  15.396 -0.2186  0.8230  0.7686
  511TMC3    C8 7653   1.307   3.127  15.531 -0.2060  0.0939 -1.0952
  511TMC3    O1 7654   1.687   2.781  15.293  0.0273 -0.2354 -0.3346
  511TMC3    O2 7655   1.288   3.245  15.535  0.2259  0.3266  0.1820
  512TMC3    C1 7656   0.136   2.445  13.914  0.6555  0.9975 -0.4431
  512TMC3    C2 7657   0.235   2.455  14.010 -0.2868  0.3439  0.0675
  512TMC3    C3 7658   0.342   2.369  13.998  0.4402  0.3113 -0.6991
  512TMC3    C4 7659   0.143   2.369  13.805  0.2059  0.1880  0.3834
  512TMC3    C5 7660   0.254   2.289  13.790  0.9180  0.0107 -0.0820
  512TMC3    C6 7661   0.354   2.294  13.886 -0.1448  0.0619  0.1753
  512TMC3     C 7662   0.054   2.563  13.901  0.2969  0.0580  0.7484
  512TMC3     O 7663   0.095   2.652  13.968 -0.2132 -0.3625  0.3066
  512TMC3     H 7664   0.219   2.510  14.103  0.1221  0.5030  0.0434
  512TMC3    H1 7665   0.076   2.375  13.721  1.1656 -1.9052 -0.5375
  512TMC3    H2 7666   0.438   2.228  13.868  0.8468  1.3303  0.1727
  512TMC3    C7 7667   0.301   2.287  13.659 -0.0419 -0.4436  0.5180
  512TMC3    C8 7668   0.445   2.400  14.096  0.9998  0.2143 -0.1678
  512TMC3    O1 7669   0.396   2.360  13.637 -0.4796  0.1425 -0.1478
  512TMC3    O2 7670   0.431   2.507  14.154 -0.4665  0.2872 -0.2370
  513MPD2     C 7671   1.463   2.584  13.558 -0.1020 -0.4151 -0.0218
  513MPD2    C1 7672   1.525   2.605  13.432 -0.0425  0.1460  0.2485
  513MPD2    C2 7673   1.651   2.646  13.435  0.2421  0.0377  0.2445
  513MPD2    C3 7674   1.715   2.681  13.553 -0.4300  0.3880  0.0925
  513MPD2    C4 7675   1.650   2.665  13.671  0.4599  0.5823 -0.2944
  513MPD2    C5 7676   1.521   2.626  13.679  0.8440  0.2766  0.7792
  513MPD2     H 7677   1.714   2.656  13.347 -0.9748  1.5102 -0.4507
  513MPD2    H1 7678   1.691   2.685  13.769 -0.1984  0.9031 -0.0838
  513MPD2    H2 7679   1.363   2.544  13.551 -0.6978  1.3150 -1.5719
  513MPD2    H3 7680   1.471   2.635  13.775  0.3681 -0.7580  0.6286
  513MPD2     N 7681   1.848   2.727  13.533  0.3073 -0.4380 -0.2404
  513MPD2    H5 7682   1.875   2.743  13.436  1.9337  1.9881  0.6126
  513MPD2    N1 7683   1.451   2.584  13.310 -0.1306  0.2538 -0.1430
  513MPD2    H7 7684   1.355   2.551  13.319 -0.3696  1.4261  1.7277
  514TMC3    C1 7685   1.421   2.530  13.080  0.4006 -0.0318  0.2888
  514TMC3    C2 7686   1.379   2.632  12.996  0.2077  0.8807  0.0137
  514TMC3    C3 7687   1.424   2.630  12.866  0.1552 -0.1028 -0.5519
  514TMC3    C4 7688   1.479   2.417  13.031  0.3321  0.8021  0.3036
  514TMC3    C5 7689   1.514   2.419  12.896 -0.4792  0.0723  0.0698
  514TMC3    C6 7690   1.490   2.524  12.815 -0.3947  1.2525 -0.2031
  514TMC3     C 7691   1.504   2.584  13.187  0.2050 -0.9981 -0.0066
  514TMC3     O 7692   1.619   2.609  13.149  0.9334 -0.8688  0.3130
  514TMC3     H 7693   1.353   2.728  13.040 -1.1836  0.5142 -0.0053
  514TMC3    H1 7694   1.510   2.334  13.092 -2.8884 -0.0112  0.8465
  514TMC3    H2 7695   1.507   2.523  12.708  0.0156  0.7683 -0.1348
  514TMC3    C7 7696   1.645   2.358  12.885  0.4099 -0.1494 -0.4291
  514TMC3    C8 7697   1.431   2.753  12.790 -0.4314 -0.0578 -0.4407
  514TMC3    O1 7698   1.670   2.285  12.791 -0.3347  0.3700 -0.2549
  514TMC3    O2 7699   1.342   2.835  12.827 -0.2523 -0.1223  0.6858
  515MPD2     C 7700   0.475   4.400  15.263  0.3403  1.0825  0.8989
  515MPD2    C1 7701   0.498   4.483  15.154  0.2419 -0.1649 -0.3741
  515MPD2    C2 7702   0.564   4.607  15.172  0.3248  0.0145  0.2527
  515MPD2    C3 7703   0.595   4.646  15.305  1.4102  0.0742  0.0038
  515MPD2    C4 7704   0.569   4.558  15.407 -0.7384  0.1917  0.0950
  515MPD2    C5 7705   0.513   4.440  15.388 -0.1192  0.1790 -0.0811
  515MPD2     H 7706   0.587   4.673  15.089 -1.3137 -0.1444 -0.3188
  515MPD2    H1 7707   0.597   4.579  15.510 -0.4864  1.4843 -0.2399
  515MPD2    H2 7708   0.455   4.294  15.250  0.6393  1.2534 -1.0877
  515MPD2    H3 7709   0.490   4.371  15.469 -0.2947  1.5359  1.0239
  515MPD2     N 7710   0.657   0.027  15.350  0.0834  0.1891 -0.3202
  515MPD2    H5 7711   0.664   0.038  15.451 -1.0741  0.0275 -0.2274
  515MPD2    N1 7712   0.473   4.435  15.022 -0.4253  0.0391 -0.4309
  515MPD2    H7 7713   0.442   4.339  15.018  2.9786 -0.9763 -2.4998
  516TMC3    C1 7714   0.426   4.422  14.791 -0.1847 -0.3898 -0.5111
  516TMC3    C2 7715   0.334   4.490  14.713 -0.4945  0.2483  0.0471
  516TMC3    C3 7716   0.236   4.424  14.646  0.1464  0.2406 -0.1927
  516TMC3    C4 7717   0.407   4.291  14.813  0.2070 -0.6884 -0.5643
  516TMC3    C5 7718   0.301   4.228  14.765  0.3771 -0.4337  0.5044
  516TMC3    C6 7719   0.219   4.295  14.680  0.3973 -0.0817 -0.4542
  516TMC3     C 7720   0.474   4.507  14.901 -0.2330 -0.7523 -0.4754
  516TMC3     O 7721   0.489   4.628  14.899 -0.4555 -0.2123  0.7953
  516TMC3     H 7722   0.336   4.598  14.698  0.3385  0.3385  0.7997
  516TMC3    H1 7723   0.484   4.237  14.866  2.5592 -0.0766 -3.3358
  516TMC3    H2 7724   0.134   4.243  14.636 -0.1195  0.2381  0.1633
  516TMC3    C7 7725   0.265   4.107  14.833  0.8009 -0.2246 -0.0637
  516TMC3    C8 7726   0.137   4.494  14.568  0.0272 -0.2668  0.1987
  516TMC3    O1 7727   0.336   4.074  14.927  0.3281 -0.1416 -0.1112
  516TMC3    O2 7728   0.058   4.425  14.511  0.3058 -0.4720 -0.1637
  517MPD2     C 7729   0.178   1.472  17.648  0.0989  0.1490 -0.1890
  517MPD2    C1 7730   0.301   1.440  17.704 -0.1264 -0.0039 -0.7703
  517MPD2    C2 7731   0.362   1.533   0.040  0.1458  0.2448 -0.2711
  517MPD2    C3 7732   0.309   1.654   0.073  0.2443 -0.3026 -0.0434
  517MPD2    C4 7733   0.194   1.688   0.015  0.0557  0.0296  0.5687
  517MPD2    C5 7734   0.131   1.597  17.680  0.5398  0.6809  0.1072
  517MPD2     H 7735   0.458   1.506   0.081  1.1525 -0.9183 -3.3507
  517MPD2    H1 7736   0.153   1.788   0.015 -2.2683 -0.9144  0.7441
  517MPD2    H2 7737   0.118   1.410  17.583  2.0494 -0.7590 -1.1308
  517MPD2    H3 7738   0.037   1.621  17.631 -0.2074 -0.3746  1.0063
  517MPD2     N 7739   0.382   1.753   0.152  0.1272 -0.5354 -0.1762
  517MPD2    H5 7740   0.341   1.846   0.150 -1.2045 -1.1119  0.9119
  517MPD2    N1 7741   0.365   1.316  17.662  0.0171 -0.9955 -0.2393
  517MPD2    H7 7742   0.459   1.299  17.696  0.4777  0.8330 -0.5835
  518TMC3    C1 7743   0.408   1.103  17.563  0.1078 -0.5659 -0.1506
  518TMC3    C2 7744   0.355   0.978  17.536 -0.0986 -0.3468  0.3143
  518TMC3    C3 7745   0.447   0.890  17.480 -0.4609 -0.3357  0.2813
  518TMC3    C4 7746   0.537   1.139  17.540 -0.4915 -0.0632 -0.6258
  518TMC3    C5 7747   0.614   1.051  17.467  0.2066 -0.3414 -0.6586
  518TMC3    C6 7748   0.574   0.921  17.443 -0.0305 -0.0038 -0.4960
  518TMC3     C 7749   0.311   1.206  17.589  0.4795 -0.1646  0.1299
  518TMC3     O 7750   0.194   1.181  17.570 -0.1666  0.4293  0.6419
  518TMC3     H 7751   0.256   0.945  17.567 -0.9973  2.0780  0.0318
  518TMC3    H1 7752   0.574   1.240  17.526  0.0330 -0.1982 -0.2410
  518TMC3    H2 7753   0.630   0.845  17.389 -1.1503  0.2769 -2.0334
  518TMC3    C7 7754   0.752   1.101  17.438 -0.1344 -0.3540 -0.8870
  518TMC3    C8 7755   0.417   0.750  17.452  0.4352 -0.1489 -0.5209
  518TMC3    O1 7756   0.777   1.202  17.501 -0.1318 -0.0723  0.1443
  518TMC3    O2 7757   0.483   0.678  17.376 -0.1954  0.1250 -0.0620
  519MPD2     C 7758   1.939   4.595  14.037  0.6010  0.3399  0.1389
  519MPD2    C1 7759   1.863   4.515  14.119  0.2602  0.1081  0.0854
  519MPD2    C2 7760   1.904   4.388  14.139 -0.0658  0.1721 -0.6377
  519MPD2    C3 7761   2.011   4.334  14.069  0.4528 -0.4287  0.6732
  519MPD2    C4 7762   2.083   4.412  13.982 -0.5115  0.3234 -0.2361
  519MPD2    C5 7763   2.042   4.538  13.971  0.7687 -0.0559 -0.1504
  519MPD2     H 7764   1.863   4.333  14.224 -0.5186  0.2903 -0.7794
  519MPD2    H1 7765   2.155   4.367  13.914 -0.6478 -0.4198  0.1145
  519MPD2    H2 7766   1.906   4.696  14.016 -0.8846 -0.2278 -0.2536
  519MPD2    H3 7767   2.098   4.596  13.898 -2.6706 -0.9192 -3.4700
  519MPD2     N 7768   2.058   4.199  14.076 -0.2194  0.0586  0.5484
  519MPD2    H5 7769   2.130   4.170  14.011 -0.7174  1.6020 -0.6802
  519MPD2    N1 7770   1.742   4.570  14.166  0.2949 -0.0680 -0.6168
  519MPD2    H7 7771   1.722   4.666  14.139  0.6729 -0.2184 -1.4534
  520TMC3    C1 7772   2.052   3.973  14.129  0.5674 -0.2573  0.3219
  520TMC3    C2 7773   1.957   3.878  14.122 -0.5703  0.0157  0.0107
  520TMC3    C3 7774   2.011   3.755  14.123  0.3902 -0.3330 -0.8370
  520TMC3    C4 7775   2.193   3.961  14.139  0.0560 -0.5653  0.1997
  520TMC3    C5 7776   2.230   3.833  14.136 -0.4653 -0.2938 -1.3356
  520TMC3    C6 7777   2.150   3.725  14.120  0.2216  0.0127  0.2658
  520TMC3     C 7778   1.997   4.106  14.158  0.5668 -0.4993 -0.0138
  520TMC3     O 7779   1.914   4.113  14.249  0.5489  0.1448 -0.3813
  520TMC3     H 7780   1.852   3.906  14.121 -0.0207  2.1877  1.4727
  520TMC3    H1 7781   2.266   4.040  14.127  0.6230 -1.2559 -0.8724
  520TMC3    H2 7782   2.178   3.620  14.120  0.7343  0.1364  2.3020
  520TMC3    C7 7783   2.375   3.811  14.109  0.0490  1.3095  0.0550
  520TMC3    C8 7784   1.927   3.637  14.138  0.6899  0.2002  0.1777
  520TMC3    O1 7785   2.436   3.887  14.030  0.6732 -0.0148 -0.2135
  520TMC3    O2 7786   1.978   3.525  14.141  0.3338 -0.6477 -0.4994
  521MPD2     C 7787   2.815   2.307  17.583  0.6981 -0.3444  0.1674
  521MPD2    C1 7788   2.788   2.203  17.498 -0.1701 -0.0510 -0.7576
  521MPD2    C2 7789   2.899   2.149  17.427 -0.2576  0.0107  0.4528
  521MPD2    C3 7790   3.031   2.190  17.447 -0.2326  0.3469 -0.2835
  521MPD2    C4 7791   3.053   2.289  17.543  0.8794 -0.6727  0.3592
  521MPD2    C5 7792   2.942   2.352  17.599 -0.0178 -0.9633  0.0628
  521MPD2     H 7793   2.883   2.066  17.359 -1.1857  0.0455  0.6269
  521MPD2    H1 7794   3.151   2.326  17.574  0.1997  0.9767  0.5838
  521MPD2    H2 7795   2.737   2.347  17.647 -1.1520  0.3429 -2.5226
  521MPD2    H3 7796   2.954   2.431  17.672 -0.7728 -0.7678 -0.0150
  521MPD2     N 7797   3.129   2.146  17.362 -0.8817 -0.0451  0.4692
  521MPD2    H5 7798   3.103   2.096  17.278 -1.1656  1.0376 -0.0864
  521MPD2    N1 7799   2.656   2.156  17.488  0.0152  0.4084  0.4588
  521MPD2    H7 7800   2.583   2.195  17.546  0.8467 -0.2128  1.9376
  522TMC3    C1 7801   3.347   2.086  17.293  0.0099  0.6066 -0.1796
  522TMC3    C2 7802   3.475   2.053  17.328  0.6731 -0.0375 -0.1583
  522TMC3    C3 7803   3.565   2.046  17.232 -0.5037  0.1086 -0.0205
  522TMC3    C4 7804   3.310   2.111  17.166 -0.6196  0.0760 -0.3481
  522TMC3    C5 7805   3.406   2.097  17.071  0.4828  0.2512  0.0427
  522TMC3    C6 7806   3.537   2.059  17.098 -0.4110 -0.0001 -0.5424
  522TMC3     C 7807   3.264   2.142  17.393 -0.1399 -0.2408  0.2701
  522TMC3     O 7808   3.315   2.147  17.505  0.4204 -0.1709  0.3462
  522TMC3     H 7809   3.500   2.016  17.427 -0.6662 -1.3308 -0.2965
  522TMC3    H1 7810   3.207   2.127  17.138 -0.3333 -0.3087 -1.6177
  522TMC3    H2 7811   3.620   2.071  17.030 -1.7731 -1.1145 -2.3762
  522TMC3    C7 7812   3.383   2.137  16.934 -0.1068  0.1820  0.2090
  522TMC3    C8 7813   3.673   1.950  17.266  0.6766 -0.6158  0.2375
  522TMC3    O1 7814   3.485   2.138  16.863 -0.0856  0.6500 -0.4134
  522TMC3    O2 7815   3.709   1.936  17.382  0.3756 -0.4303  0.0608
  523MPD2     C 7816   0.970   2.145  10.281 -0.5203 -0.5476  1.0302
  523MPD2    C1 7817   0.873   2.051  10.270 -0.8912 -0.0475 -1.0829
  523MPD2    C2 7818   0.798   2.055  10.152  0.2866  0.2303 -0.8935
  523MPD2    C3 7819   0.818   2.148  10.053  0.1315  0.8213  0.3410
  523MPD2    C4 7820   0.918   2.244  10.070  0.0548  0.0830  0.1388
  523MPD2    C5 7821   0.988   2.246  10.188 -0.3110 -0.4789  0.0605
  523MPD2     H 7822   0.715   1.986  10.142  0.4185 -0.1420  0.5881
  523MPD2    H1 7823   0.954   2.308   9.991  2.2644 -0.7967  0.4411
  523MPD2    H2 7824   1.043   2.131  10.359  0.8450  1.7842  0.1867
  523MPD2    H3 7825   1.083   2.296  10.204 -0.5748  0.5101 -1.4560
  523MPD2     N 7826   0.751   2.142   9.925 -0.6215 -0.1548  0.5928
  523MPD2    H5 7827   0.769   2.211   9.854  0.3673  0.3374  1.3214
  523MPD2    N1 7828   0.863   1.940  10.362 -0.1188 -0.4444  0.3685
  523MPD2    H7 7829   0.921   1.944  10.446  0.0399  3.2888  0.0691
  524TMC3    C1 7830   0.602   2.075   9.750 -0.5147 -0.5110 -0.2118
  524TMC3    C2 7831   0.550   1.980   9.673  0.2165  0.0141 -0.4640
  524TMC3    C3 7832   0.476   2.009   9.563  0.8955 -0.2248  0.1837
  524TMC3    C4 7833   0.593   2.206   9.716 -0.6438  0.7304 -0.5717
  524TMC3    C5 7834   0.514   2.233   9.611  0.0346  0.1405 -0.3270
  524TMC3    C6 7835   0.451   2.135   9.533  0.0154 -0.4092 -0.3126
  524TMC3     C 7836   0.672   2.040   9.871 -0.0210 -0.0758 -0.1425
  524TMC3     O 7837   0.649   1.927   9.917 -0.3926 -0.1398  0.3821
  524TMC3     H 7838   0.534   1.884   9.722 -0.3122  1.5703  2.3827
  524TMC3    H1 7839   0.638   2.287   9.772  0.0542  0.8175 -1.2635
  524TMC3    H2 7840   0.381   2.163   9.455 -0.4843  0.0778  0.3163
  524TMC3    C7 7841   0.433   2.365   9.621  0.2653  0.4115  0.4917
  524TMC3    C8 7842   0.409   1.906   9.485  0.5531  0.1104 -0.1360
  524TMC3    O1 7843   0.450   2.437   9.718 -1.0051  0.0648  0.2776
  524TMC3    O2 7844   0.332   1.945   9.397 -0.0254  0.2441 -0.4544
  525MPD2     C 7845   3.382   3.693  14.581  0.0441  0.6318  0.4901
  525MPD2    C1 7846   3.479   3.749  14.662  0.6952 -0.5449  0.6079
  525MPD2    C2 7847   3.547   3.860  14.609 -0.5789  0.5470  0.2873
  525MPD2    C3 7848   3.511   3.914  14.490  0.4325  0.3141 -0.1424
  525MPD2    C4 7849   3.416   3.850  14.413 -0.0446  0.3621 -0.5253
  525MPD2    C5 7850   3.337   3.743  14.462 -0.9295  0.0912 -0.1796
  525MPD2     H 7851   3.629   3.904  14.665  1.1039 -0.2938 -1.5549
  525MPD2    H1 7852   3.401   3.869  14.307 -2.6096  1.5695  0.0594
  525MPD2    H2 7853   3.320   3.609  14.611  1.6344 -0.7862 -0.2011
  525MPD2    H3 7854   3.267   3.684  14.403 -0.3668  0.3897 -1.1595
  525MPD2     N 7855   3.557   4.039  14.438  0.0033  0.6242  0.2075
  525MPD2    H5 7856   3.520   4.072  14.349 -0.2620 -1.1156 -0.3326
  525MPD2    N1 7857   3.519   3.684  14.780  1.0257 -0.3345  0.1632
  525MPD2    H7 7858   3.613   3.704  14.813  0.6017  2.3466 -0.2760
  526TMC3    C1 7859   3.498   3.538  14.969 -0.1497  0.9461 -0.1363
  526TMC3    C2 7860   3.419   3.516  15.082 -0.4542  0.1517  0.1958
  526TMC3    C3 7861   3.484   3.472  15.190  0.4930  0.6915 -0.5087
  526TMC3    C4 7862   3.633   3.519  14.969 -0.6750 -0.1130 -0.4143
  526TMC3    C5 7863   3.687   3.483  15.083  0.2024 -0.0164 -0.2366
  526TMC3    C6 7864   3.625   3.461  15.197 -0.2845 -0.4689 -0.9682
  526TMC3     C 7865   3.437   3.602  14.858 -0.0074  0.5759  0.1636
  526TMC3     O 7866   3.314   3.595  14.846 -0.2988 -0.4438 -0.2215
  526TMC3     H 7867   3.312   3.528  15.088 -0.3710  1.5483 -1.1583
  526TMC3    H1 7868   3.681   3.508  14.872  0.2773  0.7026 -0.0291
  526TMC3    H2 7869   3.668   3.433  15.292  1.2001  2.6090 -0.7336
  526TMC3    C7 7870   3.816   3.416  15.071 -0.2157  0.9351  0.0425
  526TMC3    C8 7871   3.424   3.488  15.321 -0.0044 -0.1803  1.0087
  526TMC3    O1 7872   3.855   3.328  15.146  0.8901  0.6259 -0.1074
  526TMC3    O2 7873   3.492   3.535  15.414 -0.5959 -0.5422 -0.0164
  527MPD2     C 7874   1.504   1.713   1.146 -0.1745  0.1084  0.1230
  527MPD2    C1 7875   1.473   1.582   1.116 -0.1936 -0.4909 -0.2691
  527MPD2    C2 7876   1.566   1.507   1.048 -0.0647 -0.1567  0.3438
  527MPD2    C3 7877   1.700   1.547   1.037  0.5529 -0.2404  0.6648
  527MPD2    C4 7878   1.732   1.674   1.073  0.0733  0.2784  0.2202
  527MPD2    C5 7879   1.635   1.758   1.118  0.0905 -0.3595 -0.2734
  527MPD2     H 7880   1.533   1.408   1.019 -2.9928  1.0751 -0.5116
  527MPD2    H1 7881   1.828   1.720   1.049 -0.1275  0.6489  0.1267
  527MPD2    H2 7882   1.443   1.787   1.197  0.7268 -0.0862  1.4838
  527MPD2    H3 7883   1.652   1.865   1.117 -0.3125 -0.2950  0.2256
  527MPD2     N 7884   1.797   1.461   0.988  0.0445  0.2214  0.4099
  527MPD2    H5 7885   1.756   1.369   0.974 -4.5931  2.1431  1.0378
  527MPD2    N1 7886   1.348   1.518   1.144  0.2818 -0.3384 -0.1110
  527MPD2    H7 7887   1.331   1.428   1.101  0.0710 -0.8286  1.0097
  528TMC3    C1 7888   1.133   1.497   1.245  0.2854  0.6179 -0.1370
  528TMC3    C2 7889   1.137   1.362   1.218 -0.2203 -0.9805 -0.3459
  528TMC3    C3 7890   1.060   1.272   1.291  0.1590  0.3803  0.1155
  528TMC3    C4 7891   1.044   1.549   1.337  0.6253 -0.4039 -0.0200
  528TMC3    C5 7892   0.962   1.454   1.397 -0.6870  0.2834  0.0178
  528TMC3    C6 7893   0.974   1.318   1.386 -0.5420 -0.3810  0.6963
  528TMC3     C 7894   1.252   1.576   1.212  0.0312 -0.0838  0.4522
  528TMC3     O 7895   1.234   1.685   1.259 -0.5007 -0.2656 -0.1668
  528TMC3     H 7896   1.204   1.326   1.141  0.6468  0.3201 -0.1951
  528TMC3    H1 7897   1.046   1.651   1.374  4.3396 -0.0148 -1.3065
  528TMC3    H2 7898   0.901   1.248   1.425 -0.3088 -0.1548  1.5479
  528TMC3    C7 7899   0.837   1.505   1.445 -0.2871  0.5050 -0.4265
  528TMC3    C8 7900   1.011   1.160   1.212 -0.3652  0.4197  0.0280
  528TMC3    O1 7901   0.798   1.609   1.391 -0.1323  0.2404  0.5766
  528TMC3    O2 7902   0.954   1.067   1.267  0.1951  0.1823  0.0877
  529MPD2     C 7903   3.814   4.156  17.600 -0.8140 -0.5392  0.2224
  529MPD2    C1 7904   3.883   4.245  17.677  0.2038  0.3587 -0.1598
  529MPD2    C2 7905   3.913   4.372  17.622  0.6794 -0.2097  0.5101
  529MPD2    C3 7906   3.879   4.406  17.492  1.4593  0.8564  0.0526
  529MPD2    C4 7907   3.791   4.315  17.425 -0.1507 -0.0123 -0.1144
  529MPD2    C5 7908   3.778   4.181  17.471  0.7956  0.2177  0.3550
  529MPD2     H 7909   3.987   4.424  17.680 -1.6985  1.8685  1.6603
  529MPD2    H1 7910   3.756   4.335  17.325  0.4270 -0.6583 -0.4460
  529MPD2    H2 7911   3.792   4.054  17.628  1.1847 -0.7911  0.8582
  529MPD2    H3 7912   3.727   4.107  17.411  0.6466 -0.4445  1.2968
  529MPD2     N 7913   3.908   4.533  17.443  0.2267  0.4723  0.1776
  529MPD2    H5 7914   3.845   4.572  17.374  1.1804 -0.1799 -1.0835
  529MPD2    N1 7915   3.902   4.222   0.074  0.0915 -0.0294 -0.6382
  529MPD2    H7 7916   3.947   4.296   0.127 -1.7147 -0.3745  1.3563
  530TMC3    C1 7917   3.858   4.129   0.288 -0.1526  0.1418  0.4549
  530TMC3    C2 7918   3.868   4.254   0.345  0.6220 -0.8967 -0.5326
  530TMC3    C3 7919   3.851   4.271   0.479 -0.2019 -0.1150  0.0816
  530TMC3    C4 7920   3.815   4.023   0.363  0.5241  0.5633  0.0322
  530TMC3    C5 7921   3.788   4.043   0.498  0.2381 -0.2225 -0.1595
  530TMC3    C6 7922   3.807   4.165   0.558 -0.0995  0.1842 -0.3645
  530TMC3     C 7923   3.859   4.108   0.145 -0.0387  0.2002 -0.0634
  530TMC3     O 7924   3.806   4.003   0.107  0.0902 -0.6888  0.5479
  530TMC3     H 7925   3.894   4.343   0.288  2.0599 -0.5171  0.7007
  530TMC3    H1 7926   3.818   3.921   0.327 -1.3457  0.6657 -0.4029
  530TMC3    H2 7927   3.797   4.190   0.663  2.2196  1.5780 -0.4688
  530TMC3    C7 7928   3.757   3.916   0.566 -0.4536 -0.6119  0.5210
  530TMC3    C8 7929   3.918   4.380   0.539 -0.0513  0.2405  1.1833
  530TMC3    O1 7930   3.791   3.811   0.509  0.1730 -0.4949 -0.2015
  530TMC3    O2 7931   3.915   4.486   0.473  0.2134  0.3248  0.3075
  531MPD2     C 7932   2.134   2.494  12.956  0.8710 -1.0929 -0.0874
  531MPD2    C1 7933   2.059   2.540  13.054 -0.0386 -0.8238  0.6359
  531MPD2    C2 7934   1.925   2.507  13.068  0.5562  0.1727  0.6459
  531MPD2    C3 7935   1.862   2.440  12.972 -0.5882  0.5024 -0.4871
  531MPD2    C4 7936   1.939   2.393  12.871  0.5668 -0.6335  0.4078
  531MPD2    C5 7937   2.073   2.421  12.856  0.9542 -0.0439  0.6549
  531MPD2     H 7938   1.865   2.539  13.153  1.5584  0.4885  1.2302
  531MPD2    H1 7939   1.901   2.342  12.783  0.6169  0.8997 -0.5073
  531MPD2    H2 7940   2.234   2.528  12.931 -0.2526 -0.0023 -3.1314
  531MPD2    H3 7941   2.138   2.373  12.784 -0.4924  0.9213 -1.2844
  531MPD2     N 7942   1.719   2.423  12.977  0.3351 -0.0227  0.1056
  531MPD2    H5 7943   1.676   2.475  13.053  0.4262 -0.8796  0.7485
  531MPD2    N1 7944   2.129   2.626  13.142 -0.0632  0.1909  0.0655
  531MPD2    H7 7945   2.230   2.627  13.135 -0.0318  1.5104  0.8322
  532TMC3    C1 7946   2.137   2.743  13.350  0.3984 -0.0269 -0.2202
  532TMC3    C2 7947   2.055   2.806  13.432  0.3559 -0.3404  0.2583
  532TMC3    C3 7948   2.065   2.786  13.564 -0.4553  0.4141 -0.1037
  532TMC3    C4 7949   2.243   2.670  13.385 -0.3331 -0.4949 -0.6045
  532TMC3    C5 7950   2.264   2.651  13.516  0.0344  0.5044  0.2279
  532TMC3    C6 7951   2.178   2.712  13.602  0.1093  0.9627 -0.3328
  532TMC3     C 7952   2.062   2.698  13.240  0.9327 -0.1408  0.5064
  532TMC3     O 7953   1.945   2.717  13.265  0.2264 -0.0442  0.1939
  532TMC3     H 7954   1.991   2.882  13.389  2.2532  0.9811 -0.2529
  532TMC3    H1 7955   2.321   2.658  13.312  3.7084  0.5954  3.5528
  532TMC3    H2 7956   2.181   2.688  13.707  2.3622  1.7986 -0.2043
  532TMC3    C7 7957   2.382   2.593  13.571  0.3416  0.1646  0.3710
  532TMC3    C8 7958   1.941   2.753  13.631 -0.3352  0.1310  0.1803
  532TMC3    O1 7959   2.427   2.629  13.681 -0.7514  0.0951 -0.0834
  532TMC3    O2 7960   1.938   2.710  13.747  0.1488  0.0936  0.6206
  533TMC3    C1 7961   3.658   4.250  14.449  0.0609 -0.1686 -0.2189
  533TMC3    C2 7962   3.773   4.312  14.412 -0.5901 -0.1890 -0.0976
  533TMC3    C3 7963   3.769   4.448  14.393  0.1645 -0.0660  0.5046
  533TMC3    C4 7964   3.543   4.324  14.467  0.3202  0.7829  0.2202
  533TMC3    C5 7965   3.543   4.459  14.456 -0.2995 -0.0551 -0.1220
  533TMC3    C6 7966   3.656   4.524  14.412 -0.8631 -0.1589 -0.0170
  533TMC3     C 7967   3.656   4.116  14.494  0.3945  0.4830 -0.0251
  533TMC3     O 7968   3.751   4.079  14.560 -0.0504 -0.9855  0.1500
  533TMC3     H 7969   3.858   4.247  14.397  1.6021  2.4434  0.9658
  533TMC3    H1 7970   3.454   4.280  14.509  1.5653 -1.4807  0.4950
  533TMC3    H2 7971   3.661   4.632  14.401 -2.0464 -0.2030 -1.0518
  533TMC3    C7 7972   3.452   4.533  14.543 -0.4012  0.1318 -0.1032
  533TMC3    C8 7973   3.898   4.515  14.393 -0.2957 -0.9037 -0.0589
  533TMC3    O1 7974   3.355   4.601  14.507 -0.3793 -0.2458 -0.6971
  533TMC3    O2 7975   3.994   4.447  14.431 -0.1627  0.1950  0.3969
  534MPD2     C 7976   1.302   0.511   2.157  0.2150 -0.4320 -0.1311
  534MPD2    C1 7977   1.383   0.438   2.076 -1.0670  0.2428  0.2318
  534MPD2    C2 7978   1.338   0.317   2.034 -0.4805 -0.5383 -0.1621
  534MPD2    C3 7979   1.219   0.261   2.077 -0.7349 -0.4574 -0.0303
  534MPD2    C4 7980   1.141   0.336   2.160 -0.7225  0.1577  0.1409
  534MPD2    C5 7981   1.177   0.465   2.198 -0.0226 -0.2497  0.4412
  534MPD2     H 7982   1.397   0.257   1.965  0.3279 -0.3092  0.3439
  534MPD2    H1 7983   1.041   0.301   2.181 -1.5018  1.1478 -1.8856
  534MPD2    H2 7984   1.328   0.610   2.193 -1.8059 -0.1672  0.6149
  534MPD2    H3 7985   1.107   0.528   2.252 -0.3124 -1.5296  1.5568
  534MPD2     N 7986   1.168   0.148   2.012 -0.3457 -0.1671 -0.1902
  534MPD2    H5 7987   1.074   0.121   2.037 -1.1240  1.0372 -1.8729
  534MPD2    N1 7988   1.501   0.493   2.021  0.2141  0.6161 -0.6192
  534MPD2    H7 7989   1.569   0.423   1.992 -0.1311 -0.2234  0.5970
  535TMC3    C1 7990   1.155   4.725   1.834  0.0382  0.2420  0.8358
  535TMC3    C2 7991   1.021   4.717   1.854  0.0539 -0.4810 -0.2456
  535TMC3    C3 7992   0.943   4.663   1.763 -0.3025  0.1561  0.2658
  535TMC3    C4 7993   1.212   4.709   1.711 -0.1616 -0.7510  0.4659
  535TMC3    C5 7994   1.126   4.677   1.608 -0.1688  0.4122  0.3670
  535TMC3    C6 7995   0.993   4.650   1.630 -0.3999  0.5936  0.2704
  535TMC3     C 7996   1.232   0.067   1.927 -0.0379  0.4740  0.3068
  535TMC3     O 7997   1.353   0.049   1.912 -0.3229  0.1346 -0.1100
  535TMC3     H 7998   0.978   0.002   1.952  0.9266  0.1810  0.0006
  535TMC3    H1 7999   1.318   4.728   1.704 -0.7468  2.2354 -0.3212
  535TMC3    H2 8000   0.934   4.627   1.543  0.0395 -0.2030  0.1890
  535TMC3    C7 8001   1.164   4.728   1.470 -0.4189  0.0661 -0.2548
  535TMC3    C8 8002   0.806   4.713   1.774  0.5839  0.3244 -1.0261
  535TMC3    O1 8003   1.077   4.713   1.383  0.0461 -0.1308 -0.0165
  535TMC3    O2 8004   0.767   0.017   1.668 -0.4503 -0.1303 -0.1265
  536MPD2     C 8005   0.023   3.456  16.681 -0.5299  0.3491  0.4006
  536MPD2    C1 8006   4.641   3.387  16.666 -0.4910  0.1282 -0.2219
  536MPD2    C2 8007   4.559   3.418  16.563  0.1847  0.1698  0.2191
  536MPD2    C3 8008   4.587   3.526  16.483 -0.0238  0.0729 -0.1790
  536MPD2    C4 8009   4.696   3.606  16.517  0.4811 -0.0535 -0.2031
  536MPD2    C5 8010   0.043   3.573  16.620 -0.1407  0.9781 -0.1038
  536MPD2     H 8011   4.476   3.350  16.547 -0.1703  1.2196 -2.4690
  536MPD2    H1 8012   4.710   3.706  16.476  0.8826 -0.5421 -1.2517
  536MPD2    H2 8013   0.092   3.431  16.761 -0.3326 -1.3118 -0.2794
  536MPD2    H3 8014   0.122   3.637  16.656  1.1522 -0.3769 -0.5339
  536MPD2     N 8015   4.512   3.555  16.370 -0.6512  0.2451 -0.3205
  536MPD2    H5 8016   4.536   3.636  16.314 -2.3528  0.8660 -0.1603
  536MPD2    N1 8017   4.635   3.272  16.757 -0.4135  0.3415  0.4981
  536MPD2    H7 8018   4.712   3.260  16.823 -1.0806 -0.6656  1.0900
  537TMC3    C1 8019   4.549   3.079  16.868  0.7316  0.4999  0.5179
  537TMC3    C2 8020   4.658   3.095  16.952  0.6072 -0.1883 -0.4298
  537TMC3    C3 8021   4.672   3.006  17.055 -0.0842  0.7351  0.5749
  537TMC3    C4 8022   4.471   2.970  16.872  0.1663 -0.0907  0.0084
  537TMC3    C5 8023   4.498   2.874  16.970  0.1354  0.3150 -0.1981
  537TMC3    C6 8024   4.591   2.893  17.074  0.9838  0.2834  0.4747
  537TMC3     C 8025   4.535   3.175  16.754 -0.3027  0.6437  0.5069
  537TMC3     O 8026   4.432   3.180  16.693  0.1109  0.8619 -0.1635
  537TMC3     H 8027   4.729   3.177  16.947  1.6866 -1.1034 -0.2060
  537TMC3    H1 8028   4.396   2.958  16.795  1.5296 -0.3964 -1.2659
  537TMC3    H2 8029   4.622   2.818  17.147  1.5547 -0.1060 -0.1663
  537TMC3    C7 8030   4.409   2.763  16.974 -0.5168 -0.2952  0.0896
  537TMC3    C8 8031   0.022   3.040  17.169  0.2920  0.3169 -0.1819
  537TMC3    O1 8032   4.345   2.742  16.873  0.5543 -0.4739 -0.0390
  537TMC3    O2 8033   0.058   2.948  17.241  0.0726 -0.1307 -0.2774
  538TMC3    C1 8034   0.894   1.976  11.499 -1.0214  0.0681 -1.1541
  538TMC3    C2 8035   1.016   2.041  11.512 -0.0331  0.7130 -0.3867
  538TMC3    C3 8036   1.071   2.100  11.404 -0.4836 -0.4461  0.7192
  538TMC3    C4 8037   0.832   1.980  11.379 -0.0807 -0.8085 -0.0668
  538TMC3    C5 8038   0.893   2.035  11.272 -0.1350 -0.9816  0.3453
  538TMC3    C6 8039   1.015   2.098  11.279  0.6366 -0.2496  0.6640
  538TMC3     C 8040   0.830   1.893  11.598  0.5829  0.6816  0.7914
  538TMC3     O 8041   0.755   1.806  11.559 -0.3843  1.0394 -0.4148
  538TMC3     H 8042   1.066   2.049  11.608  1.0347 -2.1727 -0.6740
  538TMC3    H1 8043   0.737   1.930  11.360 -0.9419  0.9887 -0.4854
  538TMC3    H2 8044   1.050   2.170  11.206  1.5600 -0.9769  0.3920
  538TMC3    C7 8045   0.826   2.030  11.143  0.0417 -0.1727  0.6030
  538TMC3    C8 8046   1.203   2.155  11.420  0.1985 -0.1827  0.1580
  538TMC3    O1 8047   0.707   1.995  11.140  0.1739  0.0577  0.1732
  538TMC3    O2 8048   1.224   2.212  11.523  0.0845  0.5038  0.1597
  539MPD2     C 8049   0.808   1.044  11.753 -0.3835 -0.0581 -0.2832
  539MPD2    C1 8050   0.673   1.023  11.791 -0.4855 -0.2979  0.3043
  539MPD2    C2 8051   0.582   1.128  11.784  0.6875  0.1723 -0.5206
  539MPD2    C3 8052   0.618   1.253  11.745 -0.0218  0.6132  0.3010
  539MPD2    C4 8053   0.746   1.277  11.701  0.6360 -0.4293 -0.8420
  539MPD2    C5 8054   0.842   1.173  11.702  0.3706 -1.2051  0.2339
  539MPD2     H 8055   0.481   1.104  11.815 -0.2352  2.7670 -1.5587
  539MPD2    H1 8056   0.769   1.370  11.651 -0.8353 -0.1338 -0.9684
  539MPD2    H2 8057   0.891   0.975  11.761 -0.1371  0.3339  0.5408
  539MPD2    H3 8058   0.945   1.195  11.680 -0.4054  0.1853 -1.9561
  539MPD2     N 8059   0.526   1.356  11.736 -0.3000 -0.0933 -0.2743
  539MPD2    H5 8060   0.541   1.423  11.661  0.3735  0.9134  0.7553
  539MPD2    N1 8061   0.628   0.898  11.825 -0.0058  0.0930  0.1559
  539MPD2    H7 8062   0.527   0.893  11.834  0.1168 -1.2653  0.7843
  540TMC3    C1 8063   0.341   1.484  11.780  0.4224 -0.2710 -0.4441
  540TMC3    C2 8064   0.319   1.502  11.647 -0.1126  0.2331 -0.5502
  540TMC3    C3 8065   0.215   1.592  11.618 -0.2320  0.0640  0.3704
  540TMC3    C4 8066   0.274   1.546  11.885  0.7620 -0.1135 -0.2646
  540TMC3    C5 8067   0.185   1.640  11.846 -0.2696  0.0211  0.1582
  540TMC3    C6 8068   0.157   1.663  11.717 -0.4835 -0.0299 -0.3116
  540TMC3     C 8069   0.415   1.365  11.816  0.2675  0.6259  0.3022
  540TMC3     O 8070   0.399   1.308  11.921  0.0784  0.6283  0.0672
  540TMC3     H 8071   0.361   1.435  11.573 -2.6380 -1.0415 -0.8224
  540TMC3    H1 8072   0.300   1.525  11.988  2.1119 -2.3852 -1.0568
  540TMC3    H2 8073   0.090   1.744  11.691  1.3968  1.5278 -0.3897
  540TMC3    C7 8074   0.077   1.673  11.938  0.7964 -0.4204  0.4717
  540TMC3    C8 8075   0.180   1.624  11.482 -0.6393  0.1592  0.0906
  540TMC3    O1 8076   4.700   1.630  11.912  0.2218 -0.3664  0.6179
  540TMC3    O2 8077   0.121   1.732  11.459 -0.4881 -0.2572  0.7125
  541MPD2     C 8078   3.458   2.851  13.452  0.3939 -0.1505  0.2330
  541MPD2    C1 8079   3.466   2.755  13.350  0.1882  0.0297  0.0752
  541MPD2    C2 8080   3.508   2.814  13.229 -0.1000 -0.0114 -0.1867
  541MPD2    C3 8081   3.529   2.953  13.211 -0.1921  0.1442  0.1476
  541MPD2    C4 8082   3.521   3.035  13.323  0.4228  0.4965  0.5556
  541MPD2    C5 8083   3.486   2.982  13.438  0.0111 -0.0213 -0.6705
  541MPD2     H 8084   3.521   2.749  13.143  0.1034 -0.7186  0.3768
  541MPD2    H1 8085   3.553   3.139  13.323  1.0315  0.3079 -1.0986
  541MPD2    H2 8086   3.428   2.819  13.552 -1.6739 -1.0872 -0.6859
  541MPD2    H3 8087   3.472   3.038  13.529 -1.2424  0.2219 -1.0060
  541MPD2     N 8088   3.552   3.019  13.092 -0.3107 -0.2335  0.4445
  541MPD2    H5 8089   3.545   3.120  13.103 -1.6826 -0.2685 -0.1289
  541MPD2    N1 8090   3.457   2.615  13.379  0.1320 -0.1746 -0.2078
  541MPD2    H7 8091   3.435   2.593  13.476 -1.6315 -1.5549 -0.9022
  542TMC3    C1 8092   3.614   3.047  12.860 -1.0900 -0.4300 -0.1356
  542TMC3    C2 8093   3.678   2.981  12.762 -0.2974  0.0526  0.2820
  542TMC3    C3 8094   3.706   3.045  12.646  0.1902  0.2181 -0.3478
  542TMC3    C4 8095   3.565   3.173  12.844 -0.3881 -0.2565 -0.4933
  542TMC3    C5 8096   3.585   3.232  12.722  0.5854 -0.6360 -0.6552
  542TMC3    C6 8097   3.653   3.169  12.620  0.5592  0.1070  0.2704
  542TMC3     C 8098   3.569   2.956  12.974 -0.1666 -0.4538  0.2673
  542TMC3     O 8099   3.575   2.836  12.949 -0.1767 -0.1746 -0.6370
  542TMC3     H 8100   3.712   2.881  12.786 -0.1395  0.5661  2.2307
  542TMC3    H1 8101   3.497   3.217  12.917  0.5682 -1.9424  1.4230
  542TMC3    H2 8102   3.695   3.220  12.533  1.4382  0.0546  0.6677
  542TMC3    C7 8103   3.571   3.383  12.731 -0.5884 -0.3821 -1.3644
  542TMC3    C8 8104   3.768   2.973  12.533  0.7719  0.1506  0.6758
  542TMC3    O1 8105   3.555   3.430  12.843 -0.3561 -0.5532 -0.1766
  542TMC3    O2 8106   3.789   3.033  12.432 -0.1861 -0.4225 -0.1090
  543TMC3    C1 8107   3.435   4.078  17.517  0.1769  0.7540  0.2244
  543TMC3    C2 8108   3.485   3.954  17.527 -0.3835  0.4177  0.4194
  543TMC3    C3 8109   3.522   3.902  17.645  0.1111  0.7188  0.1319
  543TMC3    C4 8110   3.443   4.167  17.616 -0.4715  0.8257  0.3741
  543TMC3    C5 8111   3.507   4.121  17.726  0.1613  0.3692  0.2487
  543TMC3    C6 8112   3.539   3.993   0.007  0.3447  0.1164 -0.7030
  543TMC3     C 8113   3.418   4.119  17.375  0.3415 -0.0606 -0.0253
  543TMC3     O 8114   3.404   4.032  17.288  0.2803 -0.2922  0.4179
  543TMC3     H 8115   3.486   3.884  17.444 -1.4371 -0.4112  1.1190
  543TMC3    H1 8116   3.383   4.257  17.607  0.3683  1.5323  1.7995
  543TMC3    H2 8117   3.574   3.953   0.102 -0.0351  1.1023 -0.1449
  543TMC3    C7 8118   3.510   4.205   0.100  0.1069 -0.5945 -0.5452
  543TMC3    C8 8119   3.582   3.774  17.642 -0.0109 -0.0711  0.1780
  543TMC3    O1 8120   3.522   4.154   0.209 -0.8106 -0.4532  0.2401
  543TMC3    O2 8121   3.518   3.696  17.571 -0.4235 -0.4101  0.3045
  544MPD2     C 8122   3.942   3.447   0.010 -0.0411  0.6495  0.3357
  544MPD2    C1 8123   3.859   3.461  17.644  0.9309 -0.5727  0.5868
  544MPD2    C2 8124   3.782   3.572  17.636  0.0571  0.6095 -0.9862
  544MPD2    C3 8125   3.777   3.669  17.735 -0.9451 -0.3640  0.2779
  544MPD2    C4 8126   3.865   3.662   0.100  0.2189  0.1812  0.7202
  544MPD2    C5 8127   3.940   3.547   0.105  0.8618 -0.7012 -0.9950
  544MPD2     H 8128   3.732   3.600  17.544 -2.4594  0.9519  0.4869
  544MPD2    H1 8129   3.877   3.729   0.184  1.4250 -1.3853  1.7883
  544MPD2    H2 8130   4.022   3.375   0.019  0.2565  0.7443 -1.5866
  544MPD2    H3 8131   4.010   3.537   0.188  0.0980 -0.5275 -0.3322
  544MPD2     N 8132   3.697   3.779  17.714  0.3798  0.7140 -0.0818
  544MPD2    H5 8133   3.733   3.863   0.017  0.5630  0.2503  0.6437
  544MPD2    N1 8134   3.857   3.356  17.552  0.0381 -0.0667  0.4103
  544MPD2    H7 8135   3.934   3.291  17.555  0.4861  0.4433  0.0729
  545TMC3    C1 8136   3.784   3.232  17.359  0.1644 -0.6337 -0.6478
  545TMC3    C2 8137   3.739   3.263  17.230 -0.0960  0.4070 -0.1406
  545TMC3    C3 8138   3.776   3.187  17.125 -0.3240  0.5362 -0.7946
  545TMC3    C4 8139   3.882   3.137  17.377  0.3175  0.1590  0.5064
  545TMC3    C5 8140   3.911   3.054  17.272 -0.1184 -0.1557 -0.2803
  545TMC3    C6 8141   3.859   3.077  17.143  0.1787  0.0988 -0.0460
  545TMC3     C 8142   3.761   3.335  17.452  0.2434 -0.0293  0.7309
  545TMC3     O 8143   3.655   3.394  17.445 -0.7417 -0.0052 -0.1343
  545TMC3     H 8144   3.655   3.328  17.210 -2.6207 -3.0208 -0.7773
  545TMC3    H1 8145   3.919   3.120  17.477  1.1535 -0.3206  0.1218
  545TMC3    H2 8146   3.874   3.006  17.063 -0.8239  0.0221 -0.1581
  545TMC3    C7 8147   3.984   2.927  17.292 -0.3203 -0.7386 -0.3972
  545TMC3    C8 8148   3.716   3.217  16.998 -0.2461 -0.6475  0.4740
  545TMC3    O1 8149   3.968   2.837  17.210 -0.4421 -0.2462  0.1005
  545TMC3    O2 8150   3.625   3.298  16.998  0.1656  0.6859 -0.4643
  546MPD2     C 8151   4.629   4.031  17.374  0.1781  0.4100 -0.3879
  546MPD2    C1 8152   4.660   4.060  17.243  0.0420  0.0725  0.8355
  546MPD2    C2 8153   4.704   4.184  17.211  0.2812 -0.1917  0.6624
  546MPD2    C3 8154   4.724   4.277  17.310  0.5521  1.2877 -0.3807
  546MPD2    C4 8155   4.707   4.244  17.450  0.0442  0.0480  0.8448
  546MPD2    C5 8156   4.667   4.116  17.475  1.0420 -0.3141  0.3052
  546MPD2     H 8157   4.731   4.206  17.108  0.1627  2.7190  1.2570
  546MPD2    H1 8158   0.003   4.307  17.532  1.4681 -0.5727  0.7723
  546MPD2    H2 8159   4.606   3.930  17.407 -1.2551  1.1813  0.9319
  546MPD2    H3 8160   4.660   4.088  17.580  1.8839  0.3911  0.5510
  546MPD2     N 8161   0.062   4.398  17.275  0.4654  0.4276  0.9878
  546MPD2    H5 8162   0.093   4.450  17.357  3.3680  2.5140 -1.4314
  546MPD2    N1 8163   4.635   3.953  17.154  0.7004 -0.2053 -0.3507
  546MPD2    H7 8164   4.601   3.868  17.198 -0.4887  0.9265  0.9251
  547TMC3    C1 8165   4.591   3.834  16.949 -1.0714  0.1970 -0.5165
  547TMC3    C2 8166   4.535   3.851  16.825 -0.5395  0.2839  0.0798
  547TMC3    C3 8167   4.468   3.744  16.774  0.5454 -0.2163  0.4404
  547TMC3    C4 8168   4.595   3.713  17.017 -0.6298  0.6389  0.1521
  547TMC3    C5 8169   4.527   3.610  16.968  0.6596 -0.3212  0.2164
  547TMC3    C6 8170   4.460   3.625  16.847  0.2822 -0.5869 -0.0420
  547TMC3     C 8171   4.648   3.953  17.014  0.0321  0.2727  0.5133
  547TMC3     O 8172   4.678   4.043  16.936  0.6033  0.1199 -0.0897
  547TMC3     H 8173   4.542   3.946  16.773 -3.2677 -0.0966 -0.9671
  547TMC3    H1 8174   4.658   3.702  17.104 -0.6087 -2.2172 -0.2266
  547TMC3    H2 8175   4.415   3.542  16.793  0.6770 -0.9530  0.1867
  547TMC3    C7 8176   4.517   3.493  17.053 -0.1736 -0.9568  0.1104
  547TMC3    C8 8177   4.351   3.768  16.693  0.0921 -0.3336  0.0441
  547TMC3    O1 8178   4.605   3.474  17.133 -0.3151 -0.1474 -0.2098
  547TMC3    O2 8179   4.261   3.686  16.695 -0.2831 -0.0324 -0.0761
  548MPD2     C 8180   4.708   4.350  13.103 -0.2872 -0.9548  0.3296
  548MPD2    C1 8181   4.625   4.254  13.046  0.7033 -0.3475 -0.2496
  548MPD2    C2 8182   4.678   4.164  12.957 -0.0076 -0.2036 -0.5335
  548MPD2    C3 8183   0.074   4.168  12.921 -0.2384 -0.2276  0.0828
  548MPD2    C4 8184   0.160   4.258  12.978 -0.8195 -0.0833  1.0000
  548MPD2    C5 8185   0.106   4.348  13.068  0.6603  0.5340 -0.6371
  548MPD2     H 8186   4.619   4.081  12.921  0.0475  0.2958 -1.7626
  548MPD2    H1 8187   0.268   4.266  12.966 -0.4867 -2.2981  2.4834
  548MPD2    H2 8188   4.669   4.427  13.168  0.5620  2.0678 -2.7415
  548MPD2    H3 8189   0.174   4.417  13.117 -0.3865  1.2505 -0.1798
  548MPD2     N 8190   0.124   4.071  12.829 -0.4254 -0.6032  0.3320
  548MPD2    H5 8191   0.058   3.998  12.807 -1.1443  0.5513 -1.2743
  548MPD2    N1 8192   4.491   4.260  13.083 -0.5676 -0.9794  0.2762
  548MPD2    H7 8193   4.462   4.344  13.133 -2.0437 -0.2625 -1.7989
  549TMC3    C1 8194   4.266   4.196  13.109  0.1199  0.3100 -0.0655
  549TMC3    C2 8195   4.234   4.323  13.081 -0.1062  0.6973  0.0762
  549TMC3    C3 8196   4.105   4.358  13.084  0.0353  0.4953 -0.2269
  549TMC3    C4 8197   4.179   4.101  13.160 -0.7499 -0.3392  0.2523
  549TMC3    C5 8198   4.049   4.139  13.167  0.1513 -0.0394 -0.0485
  549TMC3    C6 8199   4.013   4.267  13.122 -0.1765 -0.1770 -0.4529
  549TMC3     C 8200   4.401   4.154  13.069  0.2675 -0.5515  0.8660
  549TMC3     O 8201   4.412   4.036  13.035 -0.1281  0.1237 -0.2623
  549TMC3     H 8202   4.305   4.402  13.062  0.5515 -0.2116 -1.3037
  549TMC3    H1 8203   4.220   4.004  13.184  1.6218  0.3929 -0.8671
  549TMC3    H2 8204   3.911   4.303  13.131 -0.8515 -2.4217  0.7739
  549TMC3    C7 8205   3.950   4.055  13.238 -0.4287  0.7223  0.6956
  549TMC3    C8 8206   4.063   4.447  12.977 -0.1099 -0.0102 -0.0155
  549TMC3    O1 8207   3.854   4.116  13.287 -0.5983 -0.1060  0.1495
  549TMC3    O2 8208   3.966   4.412  12.912  0.0191  0.1198 -0.0074
  550TMC3    C1 8209   3.060   2.877  12.682  0.1013  0.3630 -0.5150
  550TMC3    C2 8210   3.033   2.939  12.808 -0.2457 -0.2757  1.0829
  550TMC3    C3 8211   2.900   2.945  12.841  0.5475 -0.4114 -0.1799
  550TMC3    C4 8212   2.958   2.831  12.601 -0.5442 -0.4206 -0.5978
  550TMC3    C5 8213   2.826   2.838  12.642 -0.1530 -0.3882 -0.2167
  550TMC3    C6 8214   2.796   2.887  12.764  0.0183 -0.7071  0.3521
  550TMC3     C 8215   3.195   2.821  12.669 -1.0026 -0.5092 -0.0177
  550TMC3     O 8216   3.283   2.881  12.732  0.0968 -0.1819 -0.2050
  550TMC3     H 8217   3.115   2.952  12.878  1.0035 -2.0147 -0.0405
  550TMC3    H1 8218   2.986   2.781  12.509  2.2888  1.2056 -0.6259
  550TMC3    H2 8219   2.696   2.873  12.805 -0.5593  1.4355 -0.2990
  550TMC3    C7 8220   2.712   2.805  12.554  0.0595  0.1101 -0.1193
  550TMC3    C8 8221   2.877   2.959  12.983 -0.5456  0.1538  0.2521
  550TMC3    O1 8222   2.605   2.853  12.587  0.4045  0.2611 -0.1399
  550TMC3    O2 8223   2.963   3.024  13.045  0.8319 -0.3393  0.1924
  551TMC3    C1 8224   0.512   0.213  13.637  1.1746  0.1446  0.0950
  551TMC3    C2 8225   0.570   0.094  13.629 -0.2092  0.3132  0.0664
  551TMC3    C3 8226   0.670   0.061  13.717 -0.0030  0.2412 -0.4858
  551TMC3    C4 8227   0.568   0.311  13.717  0.3688 -0.0369  0.4996
  551TMC3    C5 8228   0.680   0.289  13.800 -0.2096 -1.2411  0.6037
  551TMC3    C6 8229   0.719   0.157  13.799  0.2011  0.1469 -0.1063
  551TMC3     C 8230   0.443   0.247  13.514 -0.0218  0.0566  0.7213
  551TMC3     O 8231   0.378   0.154  13.471  0.1372 -0.4596  0.0335
  551TMC3     H 8232   0.521   0.018  13.570 -0.8037  1.6910 -1.2089
  551TMC3    H1 8233   0.517   0.407  13.717 -2.4000 -1.4973 -0.3400
  551TMC3    H2 8234   0.808   0.123  13.849 -0.6640 -0.3380  1.0983
  551TMC3    C7 8235   0.737   0.377  13.897 -0.4177  0.1865  0.7144
  551TMC3    C8 8236   0.760   4.693  13.676 -0.0159  0.2266 -0.0123
  551TMC3    O1 8237   0.839   0.342  13.950  0.3975  0.3227  0.0948
  551TMC3    O2 8238   0.822   4.626  13.761  0.1983 -0.1629  0.1975
  552MPD2     C 8239   2.787   2.445  14.036  0.0826 -0.4753 -0.3082
  552MPD2    C1 8240   2.840   2.320  14.024  0.1936  0.0656  0.3109
  552MPD2    C2 8241   2.962   2.304  14.069  0.1893  0.3792  0.3324
  552MPD2    C3 8242   3.032   2.405  14.132  0.0169 -0.4841  0.9450
  552MPD2    C4 8243   2.981   2.530  14.143  0.7997  0.0191  0.3529
  552MPD2    C5 8244   2.857   2.547  14.089  0.0094 -0.5891  0.6427
  552MPD2     H 8245   3.005   2.204  14.060  0.3102  0.4410  0.2195
  552MPD2    H1 8246   3.033   2.608  14.198  0.2879  1.2764 -0.9445
  552MPD2    H2 8247   2.686   2.462  14.000  0.7244  1.0875 -1.3467
  552MPD2    H3 8248   2.805   2.640  14.109 -0.8525 -0.9468  0.0385
  552MPD2     N 8249   3.145   2.377  14.215  0.6279  0.6052 -0.8749
  552MPD2    H5 8250   3.180   2.461  14.259  1.3085 -1.3911  2.4206
  552MPD2    N1 8251   2.774   2.210  13.967  0.4763 -0.5645  0.0360
  552MPD2    H7 8252   2.829   2.128  13.944  0.1447 -0.3700 -1.3956
  553TMC3    C1 8253   2.594   2.087  13.891  0.2672 -0.0343  0.6953
  553TMC3    C2 8254   2.497   2.081  13.786 -0.6374 -0.2974  0.6205
  553TMC3    C3 8255   2.434   1.961  13.766 -0.2113 -0.3648 -0.3457
  553TMC3    C4 8256   2.620   1.982  13.974  0.6292  0.1929 -0.6068
  553TMC3    C5 8257   2.551   1.866  13.944  0.4821 -0.4211 -0.2969
  553TMC3    C6 8258   2.463   1.848  13.836 -0.1947 -0.1914 -0.0845
  553TMC3     C 8259   2.645   2.213  13.925 -0.4484  0.0381  0.3769
  553TMC3     O 8260   2.564   2.306  13.935 -0.3637 -0.2928  0.7534
  553TMC3     H 8261   2.468   2.159  13.717  0.3175 -0.4628  0.0400
  553TMC3    H1 8262   2.683   1.995  14.061 -1.4365 -2.5157  1.3087
  553TMC3    H2 8263   2.419   1.749  13.833  0.8653 -0.7611  2.7326
  553TMC3    C7 8264   2.610   1.738  13.993  0.1441  0.3389  0.3526
  553TMC3    C8 8265   2.366   1.936  13.636  0.4377  0.2419 -0.8390
  553TMC3    O1 8266   2.536   1.643  14.010  0.0501 -0.0984 -0.6135
  553TMC3    O2 8267   2.401   2.014  13.546  0.1725  0.3952  0.1449
  554TMC3    C1 8268   4.551   1.393  11.465  0.8952 -0.4534  0.3660
  554TMC3    C2 8269   4.454   1.316  11.410 -0.0149  0.5501  0.0780
  554TMC3    C3 8270   4.352   1.377  11.341  0.0993 -0.3127 -0.1886
  554TMC3    C4 8271   4.563   1.528  11.442 -0.1954  0.4280  0.2988
  554TMC3    C5 8272   4.464   1.588  11.364  0.9444  0.2979 -0.5592
  554TMC3    C6 8273   4.370   1.508  11.306 -0.3929 -0.0517 -0.0733
  554TMC3     C 8274   4.640   1.334  11.566 -0.2549  0.6591  0.6922
  554TMC3     O 8275   0.002   1.396  11.604  0.4957 -0.6352  0.4598
  554TMC3     H 8276   4.435   1.211  11.428  0.3120  0.2787 -1.1351
  554TMC3    H1 8277   4.647   1.578  11.489  1.0601 -1.7558  0.3926
  554TMC3    H2 8278   4.284   1.568  11.277 -1.3901 -2.4937 -2.1353
  554TMC3    C7 8279   4.500   1.694  11.278  0.3712  0.2751  0.1525
  554TMC3    C8 8280   4.311   1.294  11.229  0.4132 -0.2765  0.4220
  554TMC3    O1 8281   4.456   1.680  11.165 -0.0670 -0.1742  0.6140
  554TMC3    O2 8282   4.399   1.257  11.149  0.4852 -0.4709 -0.4490
  555TMC3    C1 8283   3.784   0.995  15.222  0.1052 -0.0162  0.5675
  555TMC3    C2 8284   3.824   1.061  15.332  0.7284  0.1987 -0.7806
  555TMC3    C3 8285   3.804   0.995  15.448 -0.2833  0.2213  0.0255
  555TMC3    C4 8286   3.723   0.872  15.226 -0.4066 -0.0366  0.3705
  555TMC3    C5 8287   3.725   0.800  15.337 -0.2295 -0.6443 -0.3843
  555TMC3    C6 8288   3.753   0.862  15.455  0.7554  0.0832  0.3276
  555TMC3     C 8289   3.777   1.065  15.095 -0.1040  0.2742 -0.8703
  555TMC3     O 8290   3.874   1.126  15.057  0.1602  0.6293 -0.7025
  555TMC3     H 8291   3.874   1.157  15.325 -1.0715  1.3011  1.3153
  555TMC3    H1 8292   3.682   0.829  15.135  1.8240 -0.3970 -0.4607
  555TMC3    H2 8293   3.742   0.819  15.554 -1.5906 -0.1731 -0.0347
  555TMC3    C7 8294   3.698   0.658  15.335  0.1915 -0.3613 -0.0973
  555TMC3    C8 8295   3.791   1.078  15.570 -0.1104 -0.2880 -0.5406
  555TMC3    O1 8296   3.662   0.604  15.440 -0.1982 -0.2535  0.1941
  555TMC3    O2 8297   3.785   1.198  15.552  0.1481  0.2703 -0.6458
  556MPD2     C 8298   1.953   2.893  10.723 -0.1782 -1.1745  0.2071
  556MPD2    C1 8299   1.884   2.835  10.828 -0.2023  0.8138 -0.4272
  556MPD2    C2 8300   1.868   2.692  10.831  0.7477 -0.9163  1.3170
  556MPD2    C3 8301   1.907   2.621  10.726 -0.1264  0.1620 -0.1549
  556MPD2    C4 8302   1.948   2.683  10.613  0.0152 -0.2489 -0.2211
  556MPD2    C5 8303   1.966   2.816  10.610 -0.0515  0.8060 -0.2927
  556MPD2     H 8304   1.827   2.639  10.916  0.8671 -0.7964  1.4515
  556MPD2    H1 8305   1.961   2.623  10.523 -1.4048 -1.6445  0.4880
  556MPD2    H2 8306   1.974   2.998  10.708 -1.3995 -0.5060  3.0955
  556MPD2    H3 8307   2.026   2.864  10.534 -0.3753  0.2464 -0.9029
  556MPD2     N 8308   1.872   2.485  10.731 -0.1153 -0.6553 -0.2346
  556MPD2    H5 8309   1.812   2.464  10.811  0.6004 -0.9255  0.2296
  556MPD2    N1 8310   1.840   2.908  10.944  0.7232  0.1607  0.3757
  556MPD2    H7 8311   1.793   2.853  11.015 -0.1054  1.6251  0.9725
  557TMC3    C1 8312   1.824   2.271  10.667 -0.1712  0.1194 -0.1155
  557TMC3    C2 8313   1.790   2.191  10.558  0.3768  0.6722  0.1733
  557TMC3    C3 8314   1.704   2.089  10.574 -1.4464  0.4787 -0.0622
  557TMC3    C4 8315   1.766   2.247  10.791  0.7613 -0.5885  0.3086
  557TMC3    C5 8316   1.693   2.134  10.806 -0.0119  0.6177  0.4853
  557TMC3    C6 8317   1.653   2.055  10.695  0.2168 -0.5200  0.3462
  557TMC3     C 8318   1.895   2.389  10.635  0.4122  0.1620 -0.0722
  557TMC3     O 8319   1.963   2.397  10.535 -0.3845  0.1242 -0.1435
  557TMC3     H 8320   1.813   2.223  10.457 -0.7001 -1.3421 -0.7146
  557TMC3    H1 8321   1.786   2.319  10.870 -0.5737 -1.6514  1.6056
  557TMC3    H2 8322   1.579   1.976  10.707 -0.4423 -0.1747 -1.4559
  557TMC3    C7 8323   1.638   2.095  10.936  0.6255  0.8701 -0.3796
  557TMC3    C8 8324   1.656   2.030  10.447 -0.6831  0.1663 -0.3909
  557TMC3    O1 8325   1.560   1.999  10.935  0.1816 -0.2010  0.1486
  557TMC3    O2 8326   1.703   2.074  10.341  0.4253  0.4209 -0.1002
  558TMC3    C1 8327   3.671   0.101  10.449  0.3850  0.0676 -0.8714
  558TMC3    C2 8328   3.558   0.159  10.483 -0.3739  0.5811 -0.4012
  558TMC3    C3 8329   3.441   0.111  10.425 -0.1766  0.0134  1.0118
  558TMC3    C4 8330   3.677   0.015  10.339  0.3108 -0.7213 -0.1087
  558TMC3    C5 8331   3.558   4.722  10.272 -0.4272  0.3821  0.4114
  558TMC3    C6 8332   3.437   0.026  10.318  0.6423  0.2483 -0.3012
  558TMC3     C 8333   3.763   0.098  10.553  0.3700  0.0571 -0.2640
  558TMC3     O 8334   3.782   0.209  10.610 -0.0219 -0.6236 -0.0388
  558TMC3     H 8335   3.552   0.237  10.558  1.8603 -1.3098  1.7585
  558TMC3    H1 8336   3.774   4.726  10.296  1.6815  2.4100  1.2765
  558TMC3    H2 8337   3.350   4.729  10.263  2.2953 -1.4799 -1.8884
  558TMC3    C7 8338   3.578   4.704  10.133 -0.2710 -0.1767  1.0909
  558TMC3    C8 8339   3.351   0.069  10.522 -0.8678  0.5521  1.0350
  558TMC3    O1 8340   3.687   4.672  10.092 -0.2777 -0.1834 -0.8175
  558TMC3    O2 8341   3.251   0.010  10.488  0.4070  0.4801 -0.2465
  559MPD2     C 8342   4.018   0.901  10.497  0.0543 -0.6650 -0.5788
  559MPD2    C1 8343   3.920   0.869  10.584  0.1431 -0.1532 -0.2637
  559MPD2    C2 8344   3.944   0.843  10.719  0.0345  0.0936  0.3194
  559MPD2    C3 8345   4.069   0.842  10.766 -0.2234  0.4041 -0.4912
  559MPD2    C4 8346   4.168   0.864  10.675 -0.0201  0.7112  0.2019
  559MPD2    C5 8347   4.148   0.888  10.542 -0.3649  0.5685  0.5743
  559MPD2     H 8348   3.866   0.839  10.795  1.6283  1.0579  1.9990
  559MPD2    H1 8349   4.268   0.881  10.715  0.7782 -0.8450 -1.1544
  559MPD2    H2 8350   3.987   0.933  10.398  0.6960  0.5144 -0.4047
  559MPD2    H3 8351   4.238   0.907  10.484  0.2412  0.5652  1.5184
  559MPD2     N 8352   4.087   0.826  10.905  0.2389 -0.0353 -0.0053
  559MPD2    H5 8353   4.010   0.780  10.953  1.3694 -1.4788  0.4191
  559MPD2    N1 8354   3.791   0.875  10.535 -0.0980 -0.1543 -0.2077
  559MPD2    H7 8355   3.781   0.903  10.438  1.5809  1.0684 -0.0317
  560TMC3    C1 8356   4.190   0.847  11.116 -0.4064 -0.0021 -0.0631
  560TMC3    C2 8357   4.069   0.816  11.182  0.3274 -0.0397  1.0175
  560TMC3    C3 8358   4.071   0.809  11.316 -0.0375 -0.8308 -0.0353
  560TMC3    C4 8359   4.296   0.889  11.188  0.0786 -0.6613 -1.1220
  560TMC3    C5 8360   4.282   0.895  11.321  0.1940 -0.0954 -0.0105
  560TMC3    C6 8361   4.168   0.858  11.386  0.2939  0.8187 -0.5479
  560TMC3     C 8362   4.201   0.866  10.974 -0.2652  0.0032 -0.6135
  560TMC3     O 8363   4.293   0.935  10.941  0.3162  0.0761  0.3672
  560TMC3     H 8364   3.989   0.777  11.121 -1.4811  3.1208  1.3912
  560TMC3    H1 8365   4.384   0.933  11.143 -0.9012  3.8849  1.4000
  560TMC3    H2 8366   4.158   0.862  11.494 -0.6241 -0.3504 -0.5985
  560TMC3    C7 8367   4.392   0.895  11.420 -0.2560 -0.3521 -0.5204
  560TMC3    C8 8368   4.000   0.689  11.374  0.0542 -0.9804  0.0994
  560TMC3    O1 8369   4.364   0.874  11.539 -0.4749 -0.5085  0.2821
  560TMC3    O2 8370   3.920   0.634  11.300  0.2401  0.4336 -0.4645
  561TMC3    C1 8371   2.021   4.700  11.210  0.5269  0.2262 -0.2047
  561TMC3    C2 8372   1.941   4.613  11.281 -0.0293  0.1335 -0.1423
  561TMC3    C3 8373   1.853   4.666  11.379 -0.0286 -0.4697  0.3322
  561TMC3    C4 8374   2.022   0.095  11.247  0.3917  0.7139  0.2045
  561TMC3    C5 8375   1.926   0.148  11.330  0.3851  0.0431 -0.8274
  561TMC3    C6 8376   1.844   0.066  11.402 -0.8476  0.4098 -0.1139
  561TMC3     C 8377   2.112   4.659  11.109  0.1172 -0.8527  0.3512
  561TMC3     O 8378   2.122   4.535  11.095  0.4455  0.4363 -0.2954
  561TMC3     H 8379   1.944   4.506  11.263  1.4596  0.1889 -0.2054
  561TMC3    H1 8380   2.095   0.165  11.208  0.2541  1.3333  1.0669
  561TMC3    H2 8381   1.761   0.102  11.463 -0.5062 -2.3298  1.9743
  561TMC3    C7 8382   1.914   0.281  11.358 -0.8133  0.3019  0.0329
  561TMC3    C8 8383   1.751   4.574  11.426 -0.4065 -0.0746 -0.4891
  561TMC3    O1 8384   1.839   0.314  11.448  0.2032  0.6730  0.5234
  561TMC3    O2 8385   1.756   4.462  11.385 -0.2554  0.1093  0.1300
  562TMC3    C1 8386   3.241   1.308  16.185  0.1398  0.4436 -1.0010
  562TMC3    C2 8387   3.142   1.376  16.125  0.0684 -0.6450  0.0148
  562TMC3    C3 8388   3.133   1.383  15.992 -0.0450 -0.0605  0.5575
  562TMC3    C4 8389   3.332   1.250  16.106  0.1019  0.0819 -0.4005
  562TMC3    C5 8390   3.318   1.247  15.971  0.1724  0.6416  0.0993
  562TMC3    C6 8391   3.220   1.308  15.916  0.2477 -0.0120 -0.7483
  562TMC3     C 8392   3.255   1.316  16.333  0.4774 -0.2248  0.3184
  562TMC3     O 8393   3.173   1.383  16.393 -0.2772 -0.2726 -0.7441
  562TMC3     H 8394   3.078   1.446  16.177 -1.2584 -2.1803  0.4557
  562TMC3    H1 8395   3.417   1.201  16.154  0.2082  1.1981  0.5539
  562TMC3    H2 8396   3.199   1.294  15.810  1.9451  0.0744 -1.0888
  562TMC3    C7 8397   3.368   1.131  15.899 -0.1048  0.3358  0.1103
  562TMC3    C8 8398   3.011   1.427  15.946 -0.3940 -0.1342  0.2782
  562TMC3    O1 8399   3.317   1.102  15.792 -0.1624  0.3097 -0.8621
  562TMC3    O2 8400   2.920   1.419  16.029  0.5314  0.3379 -0.9075
  563MPD2     C 8401   1.179   2.790  15.902 -0.1555 -0.1626  0.4969
  563MPD2    C1 8402   1.227   2.777  16.031  0.2071 -0.5885  0.5805
  563MPD2    C2 8403   1.323   2.689  16.071  0.5008 -0.6196  0.3300
  563MPD2    C3 8404   1.369   2.603  15.980 -0.1832 -0.3348  0.4570
  563MPD2    C4 8405   1.326   2.610  15.846 -0.4383  0.4006  0.2466
  563MPD2    C5 8406   1.238   2.710  15.806 -0.3480  1.0129  0.2182
  563MPD2     H 8407   1.350   2.672  16.175  5.0171 -0.8716 -0.8985
  563MPD2    H1 8408   1.343   2.526  15.780  0.2184 -0.2300  1.2263
  563MPD2    H2 8409   1.101   2.859  15.873  0.9165  1.1413  0.7113
  563MPD2    H3 8410   1.206   2.719  15.703 -1.4707 -0.0403  0.4760
  563MPD2     N 8411   1.458   2.503  16.030 -0.3671 -0.8103 -0.5409
  563MPD2    H5 8412   1.492   2.514  16.125 -0.2042  0.1134 -0.6991
  563MPD2    N1 8413   1.141   2.842  16.127  0.4543  0.3890  0.1081
  563MPD2    H7 8414   1.049   2.867  16.091  0.4909 -0.2819 -0.4642
  564TMC3    C1 8415   1.070   2.813  16.359 -0.2679  0.1664  0.2481
  564TMC3    C2 8416   0.952   2.766  16.307  0.8272 -0.4183 -0.2622
  564TMC3    C3 8417   0.860   2.710  16.386 -0.0164  0.3795  0.0699
  564TMC3    C4 8418   1.105   2.783  16.482  0.3397 -0.7618 -0.2021
  564TMC3    C5 8419   1.012   2.737  16.565  0.3709  0.3526 -0.2032
  564TMC3    C6 8420   0.884   2.717  16.519  0.4828  0.4955 -0.0661
  564TMC3     C 8421   1.177   2.836  16.265  0.0203 -0.9771  0.2574
  564TMC3     O 8422   1.287   2.843  16.311  0.0080 -0.3691 -0.1570
  564TMC3     H 8423   0.926   2.755  16.202 -1.6679 -1.0489  0.4223
  564TMC3    H1 8424   1.208   2.794  16.515  0.5320 -2.2417 -0.2879
  564TMC3    H2 8425   0.800   2.708  16.587  1.8610  2.8965  1.9505
  564TMC3    C7 8426   1.062   2.632  16.654 -0.0961 -0.3447 -0.6055
  564TMC3    C8 8427   0.779   2.606  16.341 -0.2717 -0.2203 -0.1587
  564TMC3    O1 8428   1.178   2.647  16.702 -0.7149 -0.0119  0.2214
  564TMC3    O2 8429   0.772   2.513  16.419  0.3755  0.2222  0.2977
  565TMC3    C1 8430   2.149   4.048  10.246 -0.6113  0.2775  0.2049
  565TMC3    C2 8431   2.154   3.946  10.340  0.0730 -0.5408 -0.0727
  565TMC3    C3 8432   2.201   3.824  10.296  0.1515  0.6162  0.6310
  565TMC3    C4 8433   2.205   4.033  10.116  0.3324  0.2438  0.5948
  565TMC3    C5 8434   2.274   3.915  10.094 -0.1019 -0.3864  0.4096
  565TMC3    C6 8435   2.275   3.806  10.179  0.1850 -0.2305 -0.2398
  565TMC3     C 8436   2.113   4.189  10.290  0.8005  0.2632  0.8971
  565TMC3     O 8437   2.113   4.272  10.199 -0.6372  0.4013  0.0063
  565TMC3     H 8438   2.107   3.962  10.436 -0.6815  1.1013 -0.7183
  565TMC3    H1 8439   2.220   4.117  10.049 -0.8702 -0.9348 -1.1561
  565TMC3    H2 8440   2.290   3.711  10.128  0.9728  0.9395 -2.1896
  565TMC3    C7 8441   2.366   3.902   9.984  0.1089 -0.1157  0.2554
  565TMC3    C8 8442   2.135   3.704  10.359  0.7221  0.5575  0.0175
  565TMC3    O1 8443   2.462   3.829   9.991  0.1345  0.1140  0.0549
  565TMC3    O2 8444   2.041   3.710  10.441  0.3414 -0.2014 -0.5157
  566MPD2     C 8445   2.721   0.885  14.291  0.1895  0.3613 -0.1963
  566MPD2    C1 8446   2.715   0.973  14.187 -0.3852  0.8649 -0.0554
  566MPD2    C2 8447   2.588   1.003  14.137 -0.5194  0.2263 -0.1029
  566MPD2    C3 8448   2.479   0.948  14.191  0.3673  0.1305 -0.3449
  566MPD2    C4 8449   2.485   0.876  14.311  0.2397  0.1754 -0.1884
  566MPD2    C5 8450   2.610   0.834  14.357 -0.2673 -0.3921  0.9457
  566MPD2     H 8451   2.568   1.073  14.058  0.8760 -0.1589 -0.7897
  566MPD2    H1 8452   2.400   0.825  14.354 -0.7571  2.1499  0.1638
  566MPD2    H2 8453   2.817   0.837  14.311  0.4692  0.2181 -1.8170
  566MPD2    H3 8454   2.613   0.752  14.427 -2.1802 -1.6193 -0.4235
  566MPD2     N 8455   2.348   0.958  14.137 -0.3860 -0.2820  0.0034
  566MPD2    H5 8456   2.279   0.920  14.202 -2.1275  1.5862 -0.7618
  566MPD2    N1 8457   2.839   1.005  14.129  0.1945  0.0820 -0.0627
  566MPD2    H7 8458   2.924   0.958  14.158 -0.8912 -2.5358 -1.1485
  567TMC3    C1 8459   2.995   1.097  13.978 -0.3836  0.2239  0.2835
  567TMC3    C2 8460   3.013   1.123  13.848  0.4664  0.4785  0.1114
  567TMC3    C3 8461   3.142   1.097  13.803 -0.3439 -0.1897 -0.1799
  567TMC3    C4 8462   3.092   1.067  14.066 -0.5824  0.3002 -0.2715
  567TMC3    C5 8463   3.221   1.066  14.021 -0.4850 -0.3019 -0.8907
  567TMC3    C6 8464   3.247   1.066  13.887  0.0390  0.4064 -0.2588
  567TMC3     C 8465   2.856   1.076  14.016  0.2324  0.6156 -0.3729
  567TMC3     O 8466   2.765   1.120  13.944  0.2752  0.6237 -0.6427
  567TMC3     H 8467   2.933   1.142  13.777  1.4791  0.7884 -0.9473
  567TMC3    H1 8468   3.070   1.049  14.170 -0.8262 -0.0574 -0.3835
  567TMC3    H2 8469   3.348   1.071  13.847 -0.4008  0.1757 -1.4034
  567TMC3    C7 8470   3.336   1.064  14.116 -0.2869  0.1166  0.5949
  567TMC3    C8 8471   3.163   1.119  13.659 -0.3391  0.3341 -0.9741
  567TMC3    O1 8472   3.447   1.097  14.075  0.2009  0.1642  0.0382
  567TMC3    O2 8473   3.069   1.172  13.600  0.0751  0.1517  0.2168
  568MPD2     C 8474   1.121   1.238  16.044  0.5496  0.5099 -0.6646
  568MPD2    C1 8475   1.061   1.244  16.169  0.5924  0.2695 -0.4504
  568MPD2    C2 8476   0.954   1.335  16.190  0.1645 -0.8842 -0.1597
  568MPD2    C3 8477   0.901   1.403  16.079  0.2396 -0.4204  0.6436
  568MPD2    C4 8478   0.949   1.382  15.951 -0.1477 -0.0241  0.1974
  568MPD2    C5 8479   1.062   1.300  15.936  0.3789  0.2011 -0.1798
  568MPD2     H 8480   0.902   1.340  16.285  1.5369 -1.5821  0.6245
  568MPD2    H1 8481   0.895   1.401  15.859 -0.1409  0.6726  0.3394
  568MPD2    H2 8482   1.198   1.166  16.020  0.7774  0.7204 -0.5563
  568MPD2    H3 8483   1.092   1.272  15.835  1.7161  0.4260  0.1604
  568MPD2     N 8484   0.798   1.499  16.102  0.0262  0.5086  0.1098
  568MPD2    H5 8485   0.773   1.530  16.195  2.3303 -0.9758  1.2145
  568MPD2    N1 8486   1.116   1.166  16.274 -0.3190  0.2372  0.3939
  568MPD2    H7 8487   1.190   1.104  16.242 -0.3461 -0.7824  2.2651
  569TMC3    C1 8488   0.688   1.706  16.071 -0.0838 -0.5165  0.0623
  569TMC3    C2 8489   0.645   1.681  16.196  0.1129 -0.8292 -0.0708
  569TMC3    C3 8490   0.621   1.789  16.270 -0.1581 -0.4889 -0.2309
  569TMC3    C4 8491   0.695   1.829  16.007 -0.7342  0.1578  0.3666
  569TMC3    C5 8492   0.673   1.933  16.088 -0.1614  0.6793 -1.1263
  569TMC3    C6 8493   0.644   1.918  16.221  0.1588  0.6417 -0.2512
  569TMC3     C 8494   0.753   1.588  16.008 -0.8170  0.5322 -0.8428
  569TMC3     O 8495   0.776   1.599  15.888  0.1682  0.3518  0.2676
  569TMC3     H 8496   0.625   1.585  16.242  1.0793 -1.6894 -1.4654
  569TMC3    H1 8497   0.719   1.842  15.902  0.1785 -1.3803  0.3888
  569TMC3    H2 8498   0.589   1.998  16.269 -0.2364 -0.5435  1.2478
  569TMC3    C7 8499   0.639   2.055  16.018  0.7140  0.0171 -0.2777
  569TMC3    C8 8500   0.586   1.765  16.412  0.4701 -0.8453 -0.2641
  569TMC3    O1 8501   0.622   2.042  15.899  0.0510 -0.1357 -0.2232
  569TMC3    O2 8502   0.545   1.657  16.445 -0.4123  0.8769 -0.2225
  570TMC3    C1 8503   0.128   0.006  16.051  0.5871  0.1165  0.3239
  570TMC3    C2 8504   0.189   0.038  15.932  0.4713 -0.2421 -0.2636
  570TMC3    C3 8505   0.222   0.167  15.911  0.2335  0.3174  0.0013
  570TMC3    C4 8506   0.104   0.105  16.146  0.4337  0.0750  0.0054
  570TMC3    C5 8507   0.140   0.230  16.112 -0.0175 -0.3396 -1.2250
  570TMC3    C6 8508   0.211   0.264  16.002 -0.0556  0.9033  0.8969
  570TMC3     C 8509   0.033   4.631  16.041 -0.0205  0.0689 -0.1360
  570TMC3     O 8510   0.003   4.582  15.935 -0.4853  0.1520 -0.3267
  570TMC3     H 8511   0.184   4.692  15.861  0.5646 -1.1812  0.7904
  570TMC3    H1 8512   0.029   0.091  16.222 -0.8711  2.3848 -0.8478
  570TMC3    H2 8513   0.242   0.368  16.002  0.0342  0.8630 -1.1352
  570TMC3    C7 8514   0.105   0.334  16.213 -0.2585  0.0760 -0.1713
  570TMC3    C8 8515   0.284   0.215  15.792  0.5241 -0.1309 -0.4669
  570TMC3    O1 8516   0.112   0.312  16.334 -0.2947 -0.2525 -0.1994
  570TMC3    O2 8517   0.342   0.322  15.801  0.7624  0.1202  0.3154
  571MPD2     C 8518   2.211   1.993   0.493 -0.2861  0.2703  0.4440
  571MPD2    C1 8519   2.312   1.899   0.502  0.2055 -0.6547 -0.1075
  571MPD2    C2 8520   2.445   1.938   0.496 -0.0532 -0.3304  0.7937
  571MPD2    C3 8521   2.479   2.066   0.471  0.1846 -0.0892  0.0345
  571MPD2    C4 8522   2.378   2.154   0.448 -0.1394 -0.4313 -0.0322
  571MPD2    C5 8523   2.245   2.122   0.461 -0.6450 -0.1079 -0.9406
  571MPD2     H 8524   2.524   1.866   0.512 -1.1547 -1.8289 -0.5317
  571MPD2    H1 8525   2.388   2.259   0.423 -0.3726 -0.5620 -0.6609
  571MPD2    H2 8526   2.106   1.968   0.484  0.0341 -0.6883 -0.6682
  571MPD2    H3 8527   2.165   2.195   0.462  0.2643  0.8755 -0.2937
  571MPD2     N 8528   2.617   2.095   0.462 -0.0279  0.3262  0.1902
  571MPD2    H5 8529   2.685   2.036   0.507 -0.9354  0.8964  2.2916
  571MPD2    N1 8530   2.264   1.765   0.524  0.6259 -0.6673 -0.2219
  571MPD2    H7 8531   2.166   1.745   0.505  0.7349 -0.4331 -1.0291
  572TMC3    C1 8532   2.807   2.236   0.409 -0.0291 -0.3279  1.4435
  572TMC3    C2 8533   2.880   2.160   0.498 -0.8305 -0.3345 -0.4985
  572TMC3    C3 8534   3.012   2.189   0.498 -0.9367  0.2767  0.2663
  572TMC3    C4 8535   2.872   2.300   0.303  0.9807  0.8708  0.0811
  572TMC3    C5 8536   3.007   2.305   0.296  0.7328 -0.1657  0.4757
  572TMC3    C6 8537   3.081   2.259   0.399 -0.0143 -0.6005  0.5868
  572TMC3     C 8538   2.662   2.216   0.404 -0.1657  0.0980 -0.0843
  572TMC3     O 8539   2.599   2.279   0.321  0.6673  0.1659 -0.1900
  572TMC3     H 8540   2.828   2.130   0.589 -0.5191  1.2244  0.1983
  572TMC3    H1 8541   2.816   2.352   0.226 -1.2304 -0.5462  0.7524
  572TMC3    H2 8542   3.189   2.266   0.402 -0.1057  0.7245  0.4886
  572TMC3    C7 8543   3.073   2.389   0.196 -0.6621  0.1061  0.3764
  572TMC3    C8 8544   3.089   2.128   0.608 -0.1585  0.4819 -0.4491
  572TMC3    O1 8545   3.003   2.475   0.145  0.0415 -0.0602 -0.0648
  572TMC3    O2 8546   3.200   2.176   0.632 -0.5156 -0.2991  0.1233
  573MPD2     C 8547   4.196   2.005   0.647 -0.9951  0.3377  0.3149
  573MPD2    C1 8548   4.240   2.114   0.733  0.6560  0.2557  0.2106
  573MPD2    C2 8549   4.261   2.239   0.675  0.3714  0.2865  0.0567
  573MPD2    C3 8550   4.246   2.253   0.535  0.0296  0.5319  0.5394
  573MPD2    C4 8551   4.215   2.142   0.456  0.4710 -0.1264 -0.4800
  573MPD2    C5 8552   4.189   2.026   0.510 -0.0339 -0.4509 -0.4385
  573MPD2     H 8553   4.297   2.328   0.726  0.6783  1.0151 -1.4255
  573MPD2    H1 8554   4.187   2.157   0.352  1.8100  1.7870 -0.5605
  573MPD2    H2 8555   4.175   1.906   0.688 -2.1492  1.0168  1.3724
  573MPD2    H3 8556   4.157   1.943   0.447 -1.6667 -1.1823  1.3204
  573MPD2     N 8557   4.267   2.372   0.467 -0.6799  0.0489 -0.1727
  573MPD2    H5 8558   4.261   2.370   0.366 -0.6124  1.8696 -0.2121
  573MPD2    N1 8559   4.237   2.094   0.870 -0.5525 -0.2999  0.7014
  573MPD2    H7 8560   4.200   2.010   0.914  0.4716 -2.1293 -1.9458
  574TMC3    C1 8561   4.333   2.599   0.435 -0.2668  1.0882  0.5884
  574TMC3    C2 8562   4.403   2.569   0.317  0.0315  0.1212 -0.6383
  574TMC3    C3 8563   4.417   2.670   0.227 -0.1810 -0.1169 -0.3756
  574TMC3    C4 8564   4.310   2.729   0.468  0.6938  0.0306 -0.5494
  574TMC3    C5 8565   4.355   2.826   0.385  0.0230 -0.2624  0.3119
  574TMC3    C6 8566   4.385   2.804   0.258 -1.0025  0.3794 -0.4004
  574TMC3     C 8567   4.290   2.496   0.526  0.0411 -0.1651  0.8005
  574TMC3     O 8568   4.273   2.528   0.644  0.0628  0.3045  0.3337
  574TMC3     H 8569   4.434   2.466   0.305  1.3397  0.6476 -1.8079
  574TMC3    H1 8570   4.265   2.756   0.563  3.0240 -2.0956  1.1593
  574TMC3    H2 8571   4.446   2.875   0.204 -1.0914 -0.2709 -1.3660
  574TMC3    C7 8572   4.338   2.973   0.414 -0.6923  0.2756  0.5039
  574TMC3    C8 8573   4.381   2.634   0.092  0.1275  0.3638 -0.4931
  574TMC3    O1 8574   4.320   3.038   0.316 -0.8609  0.0814 -0.1225
  574TMC3    O2 8575   4.423   2.525   0.056 -0.0180  0.4653 -0.4724
  575TMC3    C1 8576   1.554   3.133  10.772  0.6981 -0.6985 -0.2400
  575TMC3    C2 8577   1.506   3.031  10.696 -0.1501 -0.1221 -0.4832
  575TMC3    C3 8578   1.569   3.002  10.579 -0.0745 -0.3385 -0.5984
  575TMC3    C4 8579   1.664   3.205  10.738 -0.0008  0.4572  0.1744
  575TMC3    C5 8580   1.715   3.186  10.608  0.0068  0.2467 -0.3717
  575TMC3    C6 8581   1.667   3.086  10.530  0.4407 -0.3422 -0.3373
  575TMC3     C 8582   1.522   3.127  10.911  0.0438  0.4429 -0.0598
  575TMC3     O 8583   1.493   3.020  10.962  0.1725  0.0333  0.1435
  575TMC3     H 8584   1.419   2.980  10.737  0.0868  1.2067  1.6681
  575TMC3    H1 8585   1.697   3.292  10.794  0.3549 -0.1951  0.9780
  575TMC3    H2 8586   1.684   3.083  10.423 -0.4327 -0.4809 -0.4722
  575TMC3    C7 8587   1.828   3.275  10.561  0.0934  0.4150  0.0591
  575TMC3    C8 8588   1.555   2.866  10.522 -0.0308  0.0761  0.3141
  575TMC3    O1 8589   1.845   3.380  10.623  0.7564 -0.3746 -0.1078
  575TMC3    O2 8590   1.462   2.800  10.561  0.1041 -0.2621  0.0741
  576MPD2     C 8591   1.603   4.286  12.594 -0.3179 -0.1481 -0.5206
  576MPD2    C1 8592   1.505   4.372  12.637  0.8445 -0.6285  0.1048
  576MPD2    C2 8593   1.469   4.360  12.768 -0.6858 -0.3153 -0.8383
  576MPD2    C3 8594   1.529   4.270  12.859  0.1241 -0.1765 -0.4430
  576MPD2    C4 8595   1.636   4.203  12.816 -0.0601 -0.0340 -0.6746
  576MPD2    C5 8596   1.676   4.212  12.682 -0.0202  0.5674 -0.3204
  576MPD2     H 8597   1.390   4.428  12.798  0.5035  0.5884  0.2497
  576MPD2    H1 8598   1.696   4.130  12.870 -0.8579 -1.0765 -1.1988
  576MPD2    H2 8599   1.638   4.282  12.491  1.4488 -1.5601  0.1155
  576MPD2    H3 8600   1.756   4.146  12.653  0.7620  2.2397 -1.9960
  576MPD2     N 8601   1.478   4.261  12.989 -0.6720 -1.0823 -0.4274
  576MPD2    H5 8602   1.396   4.317  13.006  0.3665 -0.1910  1.6888
  576MPD2    N1 8603   1.433   4.463  12.558  0.2597 -0.0184  0.3213
  576MPD2    H7 8604   1.372   4.527  12.607  2.9578  0.4884  3.0171
  577TMC3    C1 8605   1.357   4.557  12.352  0.2756  0.2737  0.0788
  577TMC3    C2 8606   1.383   4.567  12.222 -0.3515 -0.2206 -0.0594
  577TMC3    C3 8607   1.275   4.583  12.138  0.3222  0.2072  0.5423
  577TMC3    C4 8608   1.231   4.570  12.409  0.2615  0.5704 -0.0589
  577TMC3    C5 8609   1.131   4.584  12.327  0.3403 -0.1425 -0.2427
  577TMC3    C6 8610   1.149   4.595  12.191 -0.2480  0.1981  0.3679
  577TMC3     C 8611   1.448   4.467  12.424 -0.6808 -0.5877 -0.2991
  577TMC3     O 8612   1.507   4.391  12.348 -0.1599  0.5661 -0.4724
  577TMC3     H 8613   1.488   4.572  12.195 -0.4582 -0.7499 -0.5750
  577TMC3    H1 8614   1.209   4.557  12.514 -0.2533 -0.2245 -0.2627
  577TMC3    H2 8615   1.070   4.599  12.116  0.0355  1.9840  0.1765
  577TMC3    C7 8616   1.000   4.622  12.379  1.4053 -0.4648  0.2499
  577TMC3    C8 8617   1.272   4.562  11.990 -0.1212 -0.3958  0.1606
  577TMC3    O1 8618   0.964   4.564  12.480  0.4605 -0.5850 -0.1259
  577TMC3    O2 8619   1.170   4.530  11.937 -0.6684  0.2564 -0.2510
  578MPD2     C 8620   4.128   0.278   1.448 -0.3844  0.2610 -0.5755
  578MPD2    C1 8621   4.217   0.307   1.546  0.7775  0.0941 -0.6190
  578MPD2    C2 8622   4.334   0.226   1.549 -0.3669  0.2356  0.2229
  578MPD2    C3 8623   4.354   0.126   1.457  0.7168  0.3366  0.5446
  578MPD2    C4 8624   4.253   0.094   1.362 -0.4107 -0.0222 -0.1362
  578MPD2    C5 8625   4.141   0.177   1.359 -0.1288  0.9305  0.1792
  578MPD2     H 8626   4.407   0.236   1.629  1.0301 -1.9592 -0.7852
  578MPD2    H1 8627   4.254   0.007   1.297 -2.8469  1.1310 -1.7378
  578MPD2    H2 8628   4.032   0.330   1.441 -0.9149 -0.6242  0.1358
  578MPD2    H3 8629   4.063   0.162   1.286 -1.4941  3.6784  1.0628
  578MPD2     N 8630   4.476   0.054   1.485  0.0597 -0.0044  0.0261
  578MPD2    H5 8631   4.537   0.096   1.554 -1.2653  0.4993  0.9089
  578MPD2    N1 8632   4.208   0.423   1.622  0.4219  0.4479  0.5225
  578MPD2    H7 8633   4.123   0.477   1.609 -0.4309 -1.0274 -0.0190
  579TMC3    C1 8634   4.631   4.609   1.468 -0.3971  0.3361 -0.1360
  579TMC3    C2 8635   4.688   4.645   1.585 -0.4903  0.0099 -0.0277
  579TMC3    C3 8636   0.085   4.613   1.601  0.5430  0.1653 -0.0740
  579TMC3    C4 8637   4.697   4.526   1.377 -0.0888  0.1072  0.0261
  579TMC3    C5 8638   0.086   4.491   1.408  1.1798 -0.4076  0.3320
  579TMC3    C6 8639   0.153   4.534   1.517 -0.4999  0.0516  0.2523
  579TMC3     C 8640   4.514   4.679   1.416 -0.2023 -0.1388 -0.2883
  579TMC3     O 8641   4.458   4.629   1.323 -0.3900  0.5924  0.0114
  579TMC3     H 8642   4.627   4.704   1.653 -1.9171 -0.0100 -1.2771
  579TMC3    H1 8643   4.657   4.478   1.289  1.1127  0.9306 -0.9654
  579TMC3    H2 8644   0.256   4.505   1.531 -0.6870 -0.5775  0.3196
  579TMC3    C7 8645   0.158   4.395   1.319 -0.1065  0.0930 -0.7917
  579TMC3    C8 8646   0.156   4.646   1.725  0.1343 -0.4338  0.0400
  579TMC3    O1 8647   0.250   4.326   1.359 -0.2615 -0.1841  0.1793
  579TMC3    O2 8648   0.077   4.658   1.819 -0.1951  1.2457 -0.0397
  580TMC3    C1 8649   3.955   4.167  12.674  0.6059 -0.0584  0.1810
  580TMC3    C2 8650   4.070   4.238  12.700  0.8781 -1.0998 -0.1230
  580TMC3    C3 8651   4.159   4.177  12.778 -0.3828  0.2724 -0.3904
  580TMC3    C4 8652   3.931   4.040  12.726  0.6487 -0.1678 -0.2921
  580TMC3    C5 8653   4.031   3.987  12.799 -0.1612 -0.7913  0.1095
  580TMC3    C6 8654   4.149   4.049  12.817  0.0596 -0.4201  0.5867
  580TMC3     C 8655   3.865   4.218  12.574 -0.5085  0.0137 -0.5632
  580TMC3     O 8656   3.922   4.268  12.482  0.6157 -0.0622 -1.3496
  580TMC3     H 8657   4.079   4.340  12.664 -1.9532 -0.4292  1.0867
  580TMC3    H1 8658   3.838   3.988  12.705 -0.0271 -0.0747  2.4513
  580TMC3    H2 8659   4.224   3.993  12.872 -2.2079 -1.8178  2.2800
  580TMC3    C7 8660   4.028   3.843  12.825  0.2032  0.2317  0.5909
  580TMC3    C8 8661   4.299   4.224  12.752 -0.6461 -0.4273  1.0230
  580TMC3    O1 8662   4.077   3.802  12.930  0.3108 -0.1605 -0.0822
  580TMC3    O2 8663   4.327   4.338  12.789  0.1603 -0.4468 -0.9543
  581MPD2     C 8664   2.159   4.114  15.130  0.1270 -0.8123  0.1560
  581MPD2    C1 8665   2.052   4.043  15.165 -0.1961  0.1419 -0.0312
  581MPD2    C2 8666   1.928   4.093  15.122  0.6087 -0.1592  0.1272
  581MPD2    C3 8667   1.914   4.212  15.049  0.4090  0.6597  0.1606
  581MPD2    C4 8668   2.024   4.288  15.021 -0.2704 -0.6576 -0.1135
  581MPD2    C5 8669   2.142   4.231  15.055 -1.1627 -0.1565 -0.4405
  581MPD2     H 8670   1.841   4.030  15.134  0.7999 -0.4462  0.0159
  581MPD2    H1 8671   2.018   4.378  14.962 -0.7081  0.2445  1.3083
  581MPD2    H2 8672   2.258   4.081  15.160  0.1308  0.1919  1.2690
  581MPD2    H3 8673   2.238   4.275  15.028 -0.4924 -0.9652  0.6259
  581MPD2     N 8674   1.792   4.260  15.010 -0.0737  0.3155  0.1813
  581MPD2    H5 8675   1.777   4.332  14.940 -2.4458  0.7849  1.1705
  581MPD2    N1 8676   2.074   3.926  15.243  0.2866  0.3739  0.2988
  581MPD2    H7 8677   2.170   3.899  15.264 -0.0418 -2.3503 -1.7440
  582TMC3    C1 8678   2.017   3.719  15.356  0.4253  0.0368  0.3297
  582TMC3    C2 8679   2.064   3.760  15.480 -0.0220  0.4169  0.3943
  582TMC3    C3 8680   2.010   3.703  15.590  0.2814 -0.7453  0.2321
  582TMC3    C4 8681   1.916   3.620  15.352  0.4209 -0.0133  0.4058
  582TMC3    C5 8682   1.866   3.560  15.467 -0.3150  0.2310  0.6530
  582TMC3    C6 8683   1.909   3.607  15.587  0.1409 -0.7467  0.1510
  582TMC3     C 8684   1.976   3.834  15.276  0.5185  0.5330 -0.3610
  582TMC3     O 8685   1.855   3.841  15.255 -0.0970 -0.5575  0.0410
  582TMC3     H 8686   2.117   3.853  15.495 -1.1541  1.2022 -0.4582
  582TMC3    H1 8687   1.891   3.591  15.250  2.6194  2.2910 -0.8015
  582TMC3    H2 8688   1.865   3.578  15.682 -0.3401 -1.2606 -0.2324
  582TMC3    C7 8689   1.723   3.561  15.463 -0.1298  0.0613 -0.3221
  582TMC3    C8 8690   2.029   3.764  15.719  0.5175  0.5101 -0.7549
  582TMC3    O1 8691   1.658   3.473  15.520  0.0056  0.2047 -0.4956
  582TMC3    O2 8692   1.937   3.762  15.795  0.2221 -0.8442  0.1840
  583MPD2     C 8693   2.110   0.560  16.946 -0.5775  0.0861  0.3964
  583MPD2    C1 8694   2.078   0.666  16.871  0.2540  0.0677 -0.3818
  583MPD2    C2 8695   1.993   0.761  16.925  0.1426  0.0994  0.2366
  583MPD2    C3 8696   1.945   0.744  17.058  0.0308  1.0395 -0.0825
  583MPD2    C4 8697   1.975   0.636  17.135 -0.6847 -0.1903  0.2972
  583MPD2    C5 8698   2.057   0.541  17.074 -0.0435  0.3514 -0.1953
  583MPD2     H 8699   1.960   0.844  16.864  1.4659  0.9318  0.6503
  583MPD2    H1 8700   1.957   0.609  17.239  3.5072 -2.5722  0.3924
  583MPD2    H2 8701   2.165   0.478  16.902  1.4001  0.8418  1.4617
  583MPD2    H3 8702   2.078   0.447  17.122 -1.9911  0.1588  0.2690
  583MPD2     N 8703   1.860   0.853  17.105  0.6265 -0.2588 -0.3118
  583MPD2    H5 8704   1.843   0.922  17.033 -1.1965 -1.7411 -1.3056
  583MPD2    N1 8705   2.128   0.687  16.742 -0.4354 -0.4039 -0.1812
  583MPD2    H7 8706   2.103   0.772  16.692  1.6692 -0.0229 -0.5730
  584TMC3    C1 8707   1.745   0.981  17.261  0.1369 -0.2079  0.2127
  584TMC3    C2 8708   1.749   1.086  17.176  0.6595  0.0556  0.1317
  584TMC3    C3 8709   1.726   1.216  17.225 -0.2658  0.1201 -0.1344
  584TMC3    C4 8710   1.705   0.998  17.390 -0.0676  0.1938 -0.2358
  584TMC3    C5 8711   1.679   1.126  17.441  0.4060  0.3001  0.2882
  584TMC3    C6 8712   1.687   1.240  17.355 -0.0376 -0.2170  0.7763
  584TMC3     C 8713   1.816   0.858  17.232  0.3515 -0.0709  0.4316
  584TMC3     O 8714   1.845   0.794  17.331 -0.6271  0.2331 -0.3645
  584TMC3     H 8715   1.789   1.071  17.076 -0.5040 -0.4636 -0.2548
  584TMC3    H1 8716   1.702   0.917  17.462  0.6807 -0.4736 -0.9671
  584TMC3    H2 8717   1.654   1.339  17.383  3.3943  0.8313  1.0900
  584TMC3    C7 8718   1.617   1.136  17.574 -0.9129 -0.3813 -0.0844
  584TMC3    C8 8719   1.747   1.331  17.125 -0.0877  0.4315 -0.4601
  584TMC3    O1 8720   1.578   1.027  17.623 -1.0625 -0.3799  0.2421
  584TMC3    O2 8721   1.714   1.320  17.008 -0.5881  0.4524  0.4538
  585MPD2     C 8722   0.668   0.044   0.679 -0.2757  0.2622 -0.0573
  585MPD2    C1 8723   0.785   0.002   0.619 -0.1296 -0.4313 -0.0929
  585MPD2    C2 8724   0.782   4.704   0.483  0.4672  0.4674 -0.1139
  585MPD2    C3 8725   0.669   4.710   0.405  0.7073  0.2529 -0.7244
  585MPD2    C4 8726   0.551   0.019   0.466  0.2029 -0.2503 -0.3758
  585MPD2    C5 8727   0.550   0.045   0.602 -0.4674 -0.4480 -0.0128
  585MPD2     H 8728   0.882   4.685   0.445 -0.1421 -1.9381 -0.5235
  585MPD2    H1 8729   0.455   0.022   0.415  0.5518 -0.5053 -1.0370
  585MPD2    H2 8730   0.652   0.068   0.784 -2.1045  1.7965 -0.6864
  585MPD2    H3 8731   0.457   0.059   0.657 -1.0061 -1.1550 -0.7382
  585MPD2     N 8732   0.674   4.692   0.263 -0.4731  0.4690 -0.3951
  585MPD2    H5 8733   0.591   4.715   0.209 -0.0700  1.2959 -0.6605
  585MPD2    N1 8734   0.902   0.010   0.706  0.2143 -1.1701  0.2353
  585MPD2    H7 8735   0.900   0.064   0.791  2.1088  1.8294 -1.6350
  586TMC3    C1 8736   0.771   4.647   0.050  0.0061  0.4957 -0.3534
  586TMC3    C2 8737   0.888   4.652  17.736 -0.0180 -0.0652  0.1271
  586TMC3    C3 8738   0.900   4.709  17.608 -0.1306 -0.4103  0.1612
  586TMC3    C4 8739   0.657   4.682  17.723  0.1481 -0.0607  0.1481
  586TMC3    C5 8740   0.665   4.730  17.596  0.0779 -0.5638  0.0472
  586TMC3    C6 8741   0.790   0.020  17.548  0.3404 -0.2143  0.3973
  586TMC3     C 8742   0.781   4.644   0.195 -0.1980 -0.0621 -0.1408
  586TMC3     O 8743   0.883   4.596   0.243 -0.0465  0.3216  0.0540
  586TMC3     H 8744   0.984   4.620   0.035 -0.8714  0.9585  2.8827
  586TMC3    H1 8745   0.559   4.658   0.020 -0.5023  1.9113 -0.2558
  586TMC3    H2 8746   0.795   0.065  17.449 -1.1368 -0.7644  0.0659
  586TMC3    C7 8747   0.580   4.652  17.506  0.0077  0.3968 -0.7455
  586TMC3    C8 8748   1.000   4.638  17.535  0.0712  0.4513  0.0624
  586TMC3    O1 8749   0.479   4.607  17.559 -0.1189 -0.1819 -0.3332
  586TMC3    O2 8750   1.067   4.544  17.579 -0.5638  1.0921  0.0173
  587TMC3    C1 8751   3.295   3.011  16.839  0.6881  0.2536 -0.5164
  587TMC3    C2 8752   3.283   3.111  16.935  0.2360 -0.4557  0.6172
  587TMC3    C3 8753   3.354   3.111  17.052  0.2159  0.1864  0.6114
  587TMC3    C4 8754   3.387   2.907  16.853 -0.3247 -0.0377  0.0518
  587TMC3    C5 8755   3.470   2.930  16.962  0.3070 -0.3991 -0.1876
  587TMC3    C6 8756   3.446   3.010  17.071 -0.2022  0.1119 -0.6728
  587TMC3     C 8757   3.205   2.999  16.729 -0.0213  0.0102  0.1090
  587TMC3     O 8758   3.232   2.915  16.644  0.4509  0.0040 -0.1300
  587TMC3     H 8759   3.210   3.189  16.919  1.1950  0.1492 -0.8296
  587TMC3    H1 8760   3.401   2.834  16.774 -0.0176  1.3368 -1.1753
  587TMC3    H2 8761   3.503   2.992  17.161 -0.6078  2.1316 -0.0174
  587TMC3    C7 8762   3.595   2.854  16.959 -0.2550  0.4241  0.0310
  587TMC3    C8 8763   3.345   3.213  17.143  0.2733  0.2421 -0.8845
  587TMC3    O1 8764   3.632   2.821  17.068 -0.4732  0.5911 -0.1624
  587TMC3    O2 8765   3.388   3.192  17.256 -0.6350  0.7116  0.1805
  588TMC3    C1 8766   0.931   1.108  10.411  0.2736  0.1412 -0.2760
  588TMC3    C2 8767   0.937   0.988  10.353 -0.7150 -0.0515 -0.3651
  588TMC3    C3 8768   0.973   0.880  10.426 -0.5066 -0.3758  0.5335
  588TMC3    C4 8769   0.954   1.122  10.543 -0.2262  0.1388  0.5557
  588TMC3    C5 8770   1.005   1.016  10.618 -0.1650  0.3979  0.6191
  588TMC3    C6 8771   1.024   0.900  10.554  0.1403  0.7836  0.1076
  588TMC3     C 8772   0.964   1.216  10.319  0.2240 -1.1635  0.3863
  588TMC3     O 8773   0.939   1.211  10.201  0.1230  0.1084 -0.0790
  588TMC3     H 8774   0.915   0.981  10.247  1.9668  3.4803 -1.1567
  588TMC3    H1 8775   0.914   1.212  10.589  2.1470  1.5825 -0.1957
  588TMC3    H2 8776   1.048   0.821  10.624 -3.1400  0.6322  1.0355
  588TMC3    C7 8777   1.097   1.044  10.725 -0.7191 -1.0819  0.3592
  588TMC3    C8 8778   0.985   0.751  10.356  0.3466 -0.0283  0.3032
  588TMC3    O1 8779   1.188   0.964  10.743 -0.0097  0.1826 -0.1159
  588TMC3    O2 8780   1.009   0.755  10.237 -0.3577 -0.0131 -0.0433
  589TMC3    C1 8781   0.032   3.371   1.179  0.5798 -0.5656 -0.3375
  589TMC3    C2 8782   0.130   3.377   1.277  0.9902  0.4320 -0.1889
  589TMC3    C3 8783   0.240   3.283   1.278 -0.1738  0.6091  0.1993
  589TMC3    C4 8784   0.044   3.277   1.079 -0.0082 -0.5771  0.1309
  589TMC3    C5 8785   0.154   3.195   1.081 -0.1119 -0.2677  0.0015
  589TMC3    C6 8786   0.248   3.194   1.177  0.1845  0.4594 -0.0573
  589TMC3     C 8787   4.664   3.465   1.161 -0.3395 -0.1531 -0.5318
  589TMC3     O 8788   4.612   3.458   1.048  0.3672  0.0281  0.5728
  589TMC3     H 8789   0.137   3.466   1.338  1.4204 -0.0370  0.4440
  589TMC3    H1 8790   4.707   3.261   1.000  0.6286  0.8777 -0.7523
  589TMC3    H2 8791   0.333   3.128   1.172  0.7732  1.3871 -2.2503
  589TMC3    C7 8792   0.172   3.100   0.979 -1.1677  0.1788 -0.2833
  589TMC3    C8 8793   0.355   3.343   1.339 -0.0065 -0.2949  0.0873
  589TMC3    O1 8794   0.251   3.009   1.003  0.7209 -0.1346 -0.0456
  589TMC3    O2 8795   0.340   3.429   1.424  0.7585 -0.1231 -0.3557
  590MPD2     C 8796   4.474   1.272  16.693  0.6358 -0.4329  0.6042
  590MPD2    C1 8797   4.405   1.368  16.619  0.2353 -0.4439 -0.3412
  590MPD2    C2 8798   4.473   1.484  16.584  0.2135 -0.3795 -0.5100
  590MPD2    C3 8799   4.609   1.499  16.622  0.1940  0.2767  0.6416
  590MPD2    C4 8800   4.675   1.403  16.700 -0.0411  0.8758 -0.2535
  590MPD2    C5 8801   4.602   1.290  16.733  0.9493  0.0269 -0.4585
  590MPD2     H 8802   4.431   1.564  16.523  0.3649  0.9499  1.1320
  590MPD2    H1 8803   0.041   1.416  16.733 -0.4317 -0.9906  1.6688
  590MPD2    H2 8804   4.426   1.178  16.718  0.5600  0.2998  3.1536
  590MPD2    H3 8805   4.659   1.213  16.783  2.2548  0.3707 -1.4211
  590MPD2     N 8806   4.666   1.629  16.594 -0.0393 -0.3705 -0.1688
  590MPD2    H5 8807   4.604   1.700  16.556  0.9730  1.6565  1.9806
  590MPD2    N1 8808   4.266   1.352  16.592  0.2785 -0.2584 -0.1562
  590MPD2    H7 8809   4.217   1.275  16.636  0.4368  0.0005  0.4724
  591TMC3    C1 8810   0.091   1.802  16.588 -0.2297 -0.4498  0.0928
  591TMC3    C2 8811   0.215   1.844  16.551  0.3752 -0.1777  0.2217
  591TMC3    C3 8812   0.242   1.977  16.547  0.2318  0.4601 -0.3505
  591TMC3    C4 8813   4.723   1.880  16.620  0.7237  0.0704  0.3329
  591TMC3    C5 8814   0.022   2.010  16.626 -0.1786 -0.0922  0.5542
  591TMC3    C6 8815   0.143   2.060  16.586 -0.2564 -0.0167 -0.0076
  591TMC3     C 8816   0.066   1.658  16.617 -0.5941  0.6566  0.1676
  591TMC3     O 8817   0.159   1.583  16.644 -0.2175  0.8459 -0.1080
  591TMC3     H 8818   0.285   1.768  16.520 -0.0879  0.0951 -1.4828
  591TMC3    H1 8819   4.626   1.844  16.653  0.5243  1.4649  1.3080
  591TMC3    H2 8820   0.155   2.167  16.604  1.4651 -0.1762 -0.2295
  591TMC3    C7 8821   4.640   2.089  16.584  0.0558  0.2001 -0.0774
  591TMC3    C8 8822   0.300   2.012  16.423 -0.0656 -0.3563  0.2964
  591TMC3    O1 8823   4.534   2.029  16.560 -0.5471  0.6729 -0.0899
  591TMC3    O2 8824   0.331   1.919  16.349  0.0762  0.6700  0.3154
  592MPD2     C 8825   0.123   3.704  11.518  0.1602  0.5654  0.5235
  592MPD2    C1 8826   0.107   3.727  11.659  0.2497 -0.2881 -0.4140
  592MPD2    C2 8827   0.006   3.658  11.728  0.1285 -0.5981 -0.0905
  592MPD2    C3 8828   4.673   3.562  11.661 -0.0992  0.0552 -0.0168
  592MPD2    C4 8829   4.699   3.532  11.529  0.0400  0.5233 -0.4950
  592MPD2    C5 8830   0.050   3.610  11.452 -0.5876 -0.2100  0.2899
  592MPD2     H 8831   4.718   3.672  11.833  3.2821 -2.0571  0.7871
  592MPD2    H1 8832   4.652   3.446  11.483  0.8971 -0.2558  0.1149
  592MPD2    H2 8833   0.182   3.760  11.447 -0.6648  1.2135  0.3511
  592MPD2    H3 8834   0.061   3.588  11.347 -1.3667  2.8235 -0.4315
  592MPD2     N 8835   4.577   3.487  11.743 -0.6097  0.6256  0.2985
  592MPD2    H5 8836   4.565   3.521  11.838 -0.4592  0.6481  0.3088
  592MPD2    N1 8837   0.192   3.830  11.715 -0.0469 -0.5664 -0.4989
  592MPD2    H7 8838   0.249   3.890  11.657 -1.1207  0.1868 -0.7800
  593TMC3    C1 8839   0.281   3.972  11.892  0.0029 -0.5047  0.1681
  593TMC3    C2 8840   0.304   3.988  12.029 -0.5959  0.5980  0.4676
  593TMC3    C3 8841   0.412   4.071  12.059 -0.1613 -1.0849  1.1790
  593TMC3    C4 8842   0.326   4.061  11.800 -0.1566  0.6797 -0.2854
  593TMC3    C5 8843   0.404   4.156  11.846  0.2277  0.3820 -0.3728
  593TMC3    C6 8844   0.466   4.156  11.968  0.7928 -0.1503 -0.1741
  593TMC3     C 8845   0.196   3.856  11.851  0.2358  0.2950 -0.0231
  593TMC3     O 8846   0.145   3.790  11.938  0.3053  0.0080  0.4199
  593TMC3     H 8847   0.262   3.936  12.114 -0.5681 -2.9536 -1.7084
  593TMC3    H1 8848   0.280   4.070  11.702  1.2518  2.1694 -0.7995
  593TMC3    H2 8849   0.522   4.243  11.998  2.4155 -1.3108  0.1897
  593TMC3    C7 8850   0.419   4.270  11.768 -0.7410 -1.1619 -1.2827
  593TMC3    C8 8851   0.425   4.109  12.200 -0.1721  0.6161 -0.3421
  593TMC3    O1 8852   0.412   4.238  11.650 -0.8239  0.3177  0.0013
  593TMC3    O2 8853   0.337   4.086  12.281 -0.3580  0.4372 -0.2332
  594MPD2     C 8854   3.899   2.519  14.340 -0.2276  0.0112  0.1458
  594MPD2    C1 8855   3.845   2.529  14.465  0.2521 -0.4656 -0.5226
  594MPD2    C2 8856   3.923   2.591  14.562 -0.1320 -0.0745 -0.8866
  594MPD2    C3 8857   4.048   2.647  14.534  0.7540 -0.4244 -0.0055
  594MPD2    C4 8858   4.106   2.615  14.411 -0.0105  0.8582 -0.2835
  594MPD2    C5 8859   4.031   2.552  14.319  0.8067 -0.4592  0.6544
  594MPD2     H 8860   3.878   2.600  14.660  0.6169  1.0656 -0.6496
  594MPD2    H1 8861   4.202   2.657  14.385  0.1400  0.2427 -0.7314
  594MPD2    H2 8862   3.858   2.462  14.257 -1.3288  1.6990 -0.4885
  594MPD2    H3 8863   4.073   2.528  14.222  0.9020  0.0177  0.5794
  594MPD2     N 8864   4.112   2.719  14.631  0.5473  0.2252  0.3773
  594MPD2    H5 8865   4.062   2.752  14.713 -0.1981  0.3617 -0.1264
  594MPD2    N1 8866   3.718   2.484  14.493 -0.7219  0.1465  0.7203
  594MPD2    H7 8867   3.685   2.480  14.589  0.0900 -1.9656  0.9046
  595TMC3    C1 8868   4.475   2.851  14.908  0.8649 -0.2097 -0.1100
  595TMC3    C2 8869   4.428   2.778  14.801  0.4210 -0.4398  0.0355
  595TMC3    C3 8870   4.296   2.797  14.766 -0.9828 -1.0925  0.4111
  595TMC3    C4 8871   4.403   2.942  14.975 -0.8814  0.3028  0.3210
  595TMC3    C5 8872   4.269   2.956  14.939  0.0682 -0.0201  0.5896
  595TMC3    C6 8873   4.212   2.884  14.845 -0.6260  0.5183  0.4739
  595TMC3     C 8874   4.618   2.841  14.955 -0.1503 -0.2731  0.6346
  595TMC3     O 8875   4.674   2.916  15.040  0.5880 -0.6602  0.3771
  595TMC3     H 8876   4.493   2.728  14.730 -0.5606 -0.4089 -0.9000
  595TMC3    H1 8877   4.446   2.993  15.060  0.7029  2.1687 -1.5726
  595TMC3    H2 8878   4.113   2.911  14.810  0.3600  1.1015 -1.8680
  595TMC3    C7 8879   4.199   3.070  14.983  0.0194 -0.9216 -0.2896
  595TMC3    C8 8880   4.249   2.732  14.645 -0.1479  0.1038  0.8962
  595TMC3    O1 8881   4.077   3.056  14.984 -0.3790  0.1978 -0.1185
  595TMC3    O2 8882   4.335   2.686  14.576  0.0694 -0.4843 -0.3229
  596MPD2     C 8883   2.925   0.485  16.842 -0.1702 -0.2298 -0.2057
  596MPD2    C1 8884   2.917   0.611  16.780 -0.0934  0.4616  0.9309
  596MPD2    C2 8885   2.950   0.620  16.647  0.4542 -0.5464 -0.1204
  596MPD2    C3 8886   2.963   0.506  16.565  0.6098  0.6463  0.1737
  596MPD2    C4 8887   2.961   0.384  16.630  0.6026  0.2191 -0.0501
  596MPD2    C5 8888   2.943   0.375  16.763  0.1920 -0.3957  0.5861
  596MPD2     H 8889   2.972   0.718  16.605  3.4429 -0.8190  0.8209
  596MPD2    H1 8890   2.970   0.288  16.581  0.9924  0.3991 -0.3339
  596MPD2    H2 8891   2.927   0.465  16.949 -2.6725  0.0250 -0.1185
  596MPD2    H3 8892   2.971   0.286  16.818 -1.4682 -0.2644  1.6650
  596MPD2     N 8893   2.980   0.505  16.424 -0.1726  0.5362 -0.7741
  596MPD2    H5 8894   2.987   0.415  16.377  0.0800  0.4509 -0.5760
  596MPD2    N1 8895   2.904   0.735  16.852  0.3532  0.3302 -0.4725
  596MPD2    H7 8896   2.921   0.824  16.806  0.9512  0.5990  0.2550
  597TMC3    C1 8897   2.857   0.891  17.025  0.0233  0.0395  0.4670
  597TMC3    C2 8898   2.919   0.981  16.950  0.2294 -0.8312 -0.9540
  597TMC3    C3 8899   2.880   1.110  16.977  0.0296 -0.5180  0.7591
  597TMC3    C4 8900   2.741   0.916  17.102  0.1269 -0.0706  0.3531
  597TMC3    C5 8901   2.695   1.045  17.108  1.0304  0.5109 -0.0392
  597TMC3    C6 8902   2.769   1.144  17.056  0.2977  0.4245  0.4665
  597TMC3     C 8903   2.870   0.751  16.990  0.1761  0.0550  0.3389
  597TMC3     O 8904   2.827   0.666  17.075 -0.1257  0.3534  1.0809
  597TMC3     H 8905   3.004   0.969  16.883  1.6815 -1.6754  1.0375
  597TMC3    H1 8906   2.683   0.833  17.141 -0.4701  0.4124  0.4918
  597TMC3    H2 8907   2.756   1.246  17.091  0.1069  0.8973 -0.9805
  597TMC3    C7 8908   2.566   1.071  17.184  0.1416  0.2563  0.4492
  597TMC3    C8 8909   2.949   1.216  16.906 -0.3662  0.0105 -0.3469
  597TMC3    O1 8910   2.522   0.977  17.245 -0.9807 -0.4958 -0.0319
  597TMC3    O2 8911   3.058   1.198  16.859 -0.5396  0.4294 -0.4292
  598TMC3    C1 8912   1.488   1.829  15.815  0.2049 -0.4695  0.2425
  598TMC3    C2 8913   1.423   1.881  15.924  0.8086 -0.6351  0.5948
  598TMC3    C3 8914   1.364   2.010  15.922 -1.0304 -0.3390 -0.1923
  598TMC3    C4 8915   1.498   1.899  15.700  0.1847  0.1986  0.1931
  598TMC3    C5 8916   1.444   2.024  15.700 -0.2238  0.4963  1.3522
  598TMC3    C6 8917   1.381   2.084  15.805  0.1535  0.7065 -0.1382
  598TMC3     C 8918   1.536   1.693  15.824 -0.1614  0.2585  0.1003
  598TMC3     O 8919   1.503   1.617  15.914 -0.6306 -0.4021 -0.0983
  598TMC3     H 8920   1.426   1.835  16.022 -0.4218  2.1237  1.9309
  598TMC3    H1 8921   1.557   1.863  15.617 -2.7988  0.0517 -1.8860
  598TMC3    H2 8922   1.339   2.184  15.797 -1.8549 -0.3045 -1.9893
  598TMC3    C7 8923   1.467   2.093  15.573  0.3856 -0.3614 -0.4883
  598TMC3    C8 8924   1.339   2.078  16.045 -0.0689 -0.1926  0.2491
  598TMC3    O1 8925   1.481   2.021  15.475  0.3653  0.2995  0.1804
  598TMC3    O2 8926   1.402   2.031  16.139  0.1907 -0.2956  1.1533
  599MPD2     C 8927   1.093   4.323  15.682 -0.4220  0.0137 -0.1121
  599MPD2    C1 8928   1.066   4.195  15.725 -1.1986 -0.0033  0.1629
  599MPD2    C2 8929   0.936   4.175  15.776 -0.7168  0.2188  0.8402
  599MPD2    C3 8930   0.844   4.277  15.783 -1.3743 -0.0534 -0.7529
  599MPD2    C4 8931   0.877   4.398  15.732  0.1900  0.2697  1.0990
  599MPD2    C5 8932   1.001   4.422  15.685  0.1307  0.1476  0.9246
  599MPD2     H 8933   0.926   4.077  15.820  1.8670 -0.7224 -0.6270
  599MPD2    H1 8934   0.801   4.474  15.751 -1.0319 -0.6098 -0.2437
  599MPD2    H2 8935   1.187   4.355  15.639  0.5608 -2.7264 -0.0359
  599MPD2    H3 8936   1.038   4.521  15.661  1.8337 -0.7715 -0.2360
  599MPD2     N 8937   0.726   4.275  15.855  0.7764 -0.0249  0.6129
  599MPD2    H5 8938   0.672   4.361  15.865  1.3460  0.4668 -0.5691
  599MPD2    N1 8939   1.158   4.090  15.725  0.4659 -0.1288  0.1711
  599MPD2    H7 8940   1.254   4.113  15.704  0.0892  1.4999  0.2382
  600TMC3    C1 8941   0.573   4.209  16.013 -0.1073  0.3661  0.1151
  600TMC3    C2 8942   0.470   4.120  16.033  0.3022 -0.3860  0.0623
  600TMC3    C3 8943   0.353   4.164  16.096  0.0001  0.3299  0.6521
  600TMC3    C4 8944   0.551   4.344  16.040  0.5771  0.5582 -0.3446
  600TMC3    C5 8945   0.437   4.390  16.102 -0.6270 -0.0812  0.0141
  600TMC3    C6 8946   0.337   4.294  16.135 -0.2528  0.0019  0.3178
  600TMC3     C 8947   0.679   4.166  15.926  0.0564 -0.1331 -0.8017
  600TMC3     O 8948   0.709   4.046  15.916  0.6292 -0.6310 -0.3608
  600TMC3     H 8949   0.474   4.015  16.010 -0.1571 -0.8666  2.1294
  600TMC3    H1 8950   0.644   4.399  16.047  0.9662 -0.0878 -0.4650
  600TMC3    H2 8951   0.242   4.329  16.173 -1.0345 -3.8325  1.9109
  600TMC3    C7 8952   0.423   4.518  16.153  0.9042  0.3755  0.3057
  600TMC3    C8 8953   0.244   4.070  16.112  0.5715  0.5584  0.1855
  600TMC3    O1 8954   0.345   4.543  16.241 -0.4091  0.2956  0.2364
  600TMC3    O2 8955   0.271   3.951  16.128  0.4011 -0.0966  0.1684
  601MPD2     C 8956   3.436   2.523  17.592 -0.1202  0.7261 -0.1602
  601MPD2    C1 8957   3.306   2.568  17.618 -0.1345  0.3096 -0.1886
  601MPD2    C2 8958   3.245   2.518  17.724  0.3011 -0.2763 -0.4315
  601MPD2    C3 8959   3.279   2.410   0.061 -0.6523 -0.6511  0.3125
  601MPD2    C4 8960   3.396   2.351   0.016  0.5410 -0.1075 -0.2475
  601MPD2    C5 8961   3.480   2.408  17.666 -0.1242  0.6670 -0.0799
  601MPD2     H 8962   3.167   2.581   0.025  0.8928  1.1882 -1.5417
  601MPD2    H1 8963   3.433   2.262   0.067  1.1705 -0.2318 -0.9238
  601MPD2    H2 8964   3.493   2.567  17.511  2.4343 -3.0985 -0.4408
  601MPD2    H3 8965   3.576   2.363  17.646 -0.4049  0.9169 -2.0057
  601MPD2     N 8966   3.206   2.356   0.170 -0.1456  0.6866  0.5608
  601MPD2    H5 8967   3.254   2.278   0.215  0.0763  0.2473 -0.4156
  601MPD2    N1 8968   3.244   2.677  17.552  0.4702  0.4437 -0.7162
  601MPD2    H7 8969   3.153   2.712  17.582  1.0409  1.5986 -0.3199
  602TMC3    C1 8970   3.197   2.839  17.394 -0.2625 -0.3305 -0.2632
  602TMC3    C2 8971   3.126   2.915  17.483 -0.2895  0.2916  0.2599
  602TMC3    C3 8972   3.060   3.023  17.430  0.0746  0.5680  1.0722
  602TMC3    C4 8973   3.184   2.855  17.256 -0.3652  0.1950 -0.5630
  602TMC3    C5 8974   3.090   2.940  17.213  0.3236  0.1346 -0.0291
  602TMC3    C6 8975   3.040   3.037  17.293 -0.6525  0.9296 -0.1878
  602TMC3     C 8976   3.288   2.737  17.432  0.1031 -0.1706 -0.3443
  602TMC3     O 8977   3.386   2.713  17.365  0.2343 -0.2577 -0.0651
  602TMC3     H 8978   3.140   2.911  17.590  1.5667 -0.6416 -0.0219
  602TMC3    H1 8979   3.194   2.762  17.200 -3.7692  0.4696 -1.6108
  602TMC3    H2 8980   2.988   3.125  17.257 -0.9144  1.2837  1.0462
  602TMC3    C7 8981   2.993   2.899  17.116 -0.0409  0.2767  0.0551
  602TMC3    C8 8982   2.955   3.072  17.507 -0.4581 -0.9068  0.2293
  602TMC3    O1 8983   3.041   2.862  17.007 -0.2849  0.0711 -0.0658
  602TMC3    O2 8984   2.852   3.008  17.494  0.5043  0.4833 -0.2691
  603TMC3    C1 8985   1.222   3.536  11.084  0.5198  0.1352 -0.5035
  603TMC3    C2 8986   1.187   3.478  11.202 -0.2351 -1.3876  0.2751
  603TMC3    C3 8987   1.101   3.373  11.182 -0.1686  0.3980  0.4212
  603TMC3    C4 8988   1.168   3.504  10.964  0.3167  0.7199 -0.3566
  603TMC3    C5 8989   1.080   3.401  10.952  0.6502  0.1165 -0.9425
  603TMC3    C6 8990   1.050   3.331  11.068 -0.2024  0.4315 -1.2475
  603TMC3     C 8991   1.315   3.651  11.080  0.5624  0.0582 -0.1700
  603TMC3     O 8992   1.358   3.685  10.968  0.2197 -0.1241 -0.2071
  603TMC3     H 8993   1.251   3.494  11.288 -1.3428  0.4136  0.7600
  603TMC3    H1 8994   1.202   3.546  10.870 -0.8641  2.3537 -0.0484
  603TMC3    H2 8995   0.989   3.241  11.071 -0.9809  0.9807 -0.7591
  603TMC3    C7 8996   0.995   3.398  10.836  0.2607 -0.3195  0.2909
  603TMC3    C8 8997   1.063   3.307  11.310  0.0536 -0.2163 -0.4594
  603TMC3    O1 8998   1.047   3.450  10.735 -0.4266 -0.7540  0.3264
  603TMC3    O2 8999   1.051   3.186  11.311  0.0106 -0.0122  0.1879
  604MPD2     C 9000   2.010   1.918  16.537  0.5732  0.0927 -0.1995
  604MPD2    C1 9001   1.877   1.892  16.514  0.5307  0.3515  0.0173
  604MPD2    C2 9002   1.835   1.830  16.401 -0.7260  0.5118  0.3742
  604MPD2    C3 9003   1.939   1.807  16.305  0.1268  0.0204 -0.3171
  604MPD2    C4 9004   2.072   1.842  16.332  0.1721  0.9545 -0.3262
  604MPD2    C5 9005   2.107   1.904  16.443 -1.2432  0.2908  0.6215
  604MPD2     H 9006   1.732   1.812  16.375 -0.4179  0.0933 -0.5564
  604MPD2    H1 9007   2.155   1.827  16.265  0.5091 -2.2251  0.8021
  604MPD2    H2 9008   2.041   1.954  16.634  1.6798  1.8455 -1.2091
  604MPD2    H3 9009   2.212   1.926  16.458 -0.7200 -0.9998 -1.1429
  604MPD2     N 9010   1.908   1.765  16.175 -0.0352  0.0897 -0.2937
  604MPD2    H5 9011   1.809   1.741  16.171  0.5743 -2.3684 -0.9395
  604MPD2    N1 9012   1.791   1.921  16.617  0.5175  0.0005 -0.1825
  604MPD2    H7 9013   1.836   1.960  16.699  2.3913 -3.3102  0.3695
  605TMC3    C1 9014   1.598   1.933  16.742 -0.0669 -0.2643 -0.1615
  605TMC3    C2 9015   1.682   1.915  16.848 -0.5136  0.6178 -0.2768
  605TMC3    C3 9016   1.685   2.011  16.945  0.1364  0.0841  0.7798
  605TMC3    C4 9017   1.509   2.040  16.737 -0.1012  0.0179 -0.1392
  605TMC3    C5 9018   1.502   2.119  16.847 -0.9445  0.5392 -0.0640
  605TMC3    C6 9019   1.591   2.113  16.947 -0.6547  0.0883 -0.1922
  605TMC3     C 9020   1.655   1.905  16.612 -0.3255 -0.0379  0.7334
  605TMC3     O 9021   1.579   1.888  16.517 -0.4200  0.0528 -0.3283
  605TMC3     H 9022   1.760   1.840  16.853 -0.6122  0.4288 -1.6673
  605TMC3    H1 9023   1.444   2.041  16.651 -0.1719 -1.9026 -0.1110
  605TMC3    H2 9024   1.600   2.197  17.016 -0.0761 -1.1775  1.2861
  605TMC3    C7 9025   1.395   2.219  16.839 -0.1916  0.2460 -0.3469
  605TMC3    C8 9026   1.822   2.061  16.949 -0.3550 -0.1497 -0.3280
  605TMC3    O1 9027   1.417   2.339  16.859  0.0988 -0.4449  0.2217
  605TMC3    O2 9028   1.901   2.013  16.872 -0.3683  0.0292 -0.1663
  606TMC3    C1 9029   2.784   0.409   0.019 -0.2827 -0.4569  0.6660
  606TMC3    C2 9030   2.915   0.414   0.004 -0.0610 -0.3941  0.4760
  606TMC3    C3 9031   2.977   0.303  17.704 -0.5921 -0.2402  0.4213
  606TMC3    C4 9032   2.714   0.290   0.004  0.0227 -0.8726 -0.0251
  606TMC3    C5 9033   2.781   0.180  17.708  0.0945 -0.0195  0.0069
  606TMC3    C6 9034   2.913   0.184  17.678  0.7045  0.0753  0.1307
  606TMC3     C 9035   2.719   0.520   0.088 -0.2754  0.0475 -0.4303
  606TMC3     O 9036   2.598   0.514   0.102 -0.2362 -0.4333  0.6676
  606TMC3     H 9037   2.961   0.509  17.720 -1.4161  0.2762  0.5043
  606TMC3    H1 9038   2.609   0.287   0.029  0.0476 -0.1659  0.1768
  606TMC3    H2 9039   2.959   0.107  17.617  0.5121 -0.7605  1.0454
  606TMC3    C7 9040   2.705   0.082  17.643  0.3193  0.3657 -0.0177
  606TMC3    C8 9041   3.118   0.315  17.672 -0.4295  0.0788  0.3105
  606TMC3    O1 9042   2.599   0.116  17.589 -0.3333 -0.3956 -0.0744
  606TMC3    O2 9043   3.158   0.242  17.583 -0.2561  0.2705  0.3740
  607MPD2     C 9044   0.203   2.939  11.290 -0.2040  0.2892  0.5457
  607MPD2    C1 9045   0.121   2.956  11.399  0.1014  0.1456 -0.8554
  607MPD2    C2 9046   0.060   2.842  11.442  0.6946 -0.0899  0.6648
  607MPD2    C3 9047   0.069   2.717  11.386  0.3058 -0.1078 -0.4035
  607MPD2    C4 9048   0.139   2.711  11.266  0.1160 -0.4963  0.0505
  607MPD2    C5 9049   0.196   2.823  11.219  0.5926  0.1910  0.0681
  607MPD2     H 9050   0.006   2.851  11.536 -0.4417 -1.8402  0.1742
  607MPD2    H1 9051   0.135   2.627  11.198 -0.7732  1.9938 -2.9427
  607MPD2    H2 9052   0.261   3.017  11.243  0.5631  0.6584  2.0884
  607MPD2    H3 9053   0.241   2.823  11.121  0.5248 -1.9668  0.0480
  607MPD2     N 9054   4.736   2.615  11.450  0.2793 -0.3764  0.1249
  607MPD2    H5 9055   4.672   2.631  11.527 -0.8758 -1.5608 -0.5888
  607MPD2    N1 9056   0.106   3.076  11.473 -0.7374  1.2861  0.0368
  607MPD2    H7 9057   0.036   3.069  11.545 -1.7579 -0.5832 -1.1289
  608TMC3    C1 9058   0.175   3.268  11.576 -0.0400 -0.0420 -0.2129
  608TMC3    C2 9059   0.085   3.249  11.676  0.0572  0.2168 -0.5807
  608TMC3    C3 9060   0.102   3.305  11.802 -0.2700 -0.4709 -0.5610
  608TMC3    C4 9061   0.288   3.332  11.611 -0.9578 -0.2415 -0.5870
  608TMC3    C5 9062   0.309   3.372  11.740 -0.1149 -0.5575  0.2501
  608TMC3    C6 9063   0.218   3.358  11.843 -0.0893  0.1785 -0.3326
  608TMC3     C 9064   0.185   3.186  11.460 -0.0643 -0.1058  0.3387
  608TMC3     O 9065   0.283   3.203  11.388  0.2954  0.0753 -0.0118
  608TMC3     H 9066   4.720   3.238  11.637  1.2421 -0.6849 -3.3817
  608TMC3    H1 9067   0.364   3.351  11.536 -0.0518 -0.2781  0.3154
  608TMC3    H2 9068   0.228   3.402  11.942  0.5330  0.5184 -0.5484
  608TMC3    C7 9069   0.427   3.458  11.757  0.2382  0.1271  0.2758
  608TMC3    C8 9070   0.026   3.248  11.912 -0.1452  0.8727  0.2548
  608TMC3    O1 9071   0.493   3.463  11.652  0.4901 -0.9359 -0.0847
  608TMC3    O2 9072   0.006   3.314  12.019  0.6545 -0.2170  0.3373
  609TMC3    C1 9073   4.338   1.861   8.929  0.6547 -0.4610 -0.5512
  609TMC3    C2 9074   4.300   1.865   8.799 -0.1305 -0.0170 -0.3323
  609TMC3    C3 9075   4.319   1.749   8.730 -1.0437 -0.6115  0.3286
  609TMC3    C4 9076   4.398   1.754   8.986 -0.2196 -0.6077 -0.1431
  609TMC3    C5 9077   4.415   1.642   8.912 -0.0130 -0.5024 -0.4023
  609TMC3    C6 9078   4.377   1.638   8.781 -0.2286  0.1378  0.8713
  609TMC3     C 9079   4.269   1.956   9.012 -0.3588  0.0594  0.1019
  609TMC3     O 9080   4.174   2.018   8.958  0.0833  0.0831 -0.1773
  609TMC3     H 9081   4.274   1.959   8.751 -0.5355  0.7495  1.3991
  609TMC3    H1 9082   4.419   1.747   9.092 -0.0858  0.5490 -0.0859
  609TMC3    H2 9083   4.383   1.551   8.716  1.8579  0.2544  0.9050
  609TMC3    C7 9084   4.492   1.528   8.973 -0.2188  0.2652  0.0335
  609TMC3    C8 9085   4.283   1.753   8.591 -0.3050  0.3342 -0.3090
  609TMC3    O1 9086   4.528   1.552   9.088  0.2974 -0.0655  0.5087
  609TMC3    O2 9087   4.256   1.865   8.552  0.0985  0.8096  0.2541
  610TMC3    C1 9088   0.091   3.150  12.501 -0.0384 -0.3692 -0.7105
  610TMC3    C2 9089   0.108   3.097  12.376 -0.3559  0.4079 -0.1003
  610TMC3    C3 9090   0.236   3.080  12.331 -0.4838  0.3450 -0.0889
  610TMC3    C4 9091   0.206   3.196  12.571  0.2273  0.1783 -0.2001
  610TMC3    C5 9092   0.332   3.177  12.516  0.1109 -0.0022 -1.2503
  610TMC3    C6 9093   0.349   3.111  12.399 -0.2730 -0.5252 -0.7591
  610TMC3     C 9094   4.692   3.200  12.536  0.8524  0.0518 -0.1055
  610TMC3     O 9095   4.594   3.172  12.470 -0.3548 -0.3289  0.4390
  610TMC3     H 9096   0.024   3.070  12.314 -0.3321  0.1623 -0.0263
  610TMC3    H1 9097   0.199   3.237  12.671 -2.1683  0.9882 -0.6841
  610TMC3    H2 9098   0.449   3.086  12.366 -0.7640 -1.7704 -1.3348
  610TMC3    C7 9099   0.444   3.145  12.611 -1.1537 -0.6425  0.2960
  610TMC3    C8 9100   0.244   3.002  12.205 -0.2492 -0.4492  0.1421
  610TMC3    O1 9101   0.508   3.041  12.583 -0.0564  0.1943 -0.6815
  610TMC3    O2 9102   0.159   2.913  12.202  0.2569  0.1640  0.2588
  611MPD2     C 9103   4.193   2.940  10.516 -0.6338 -0.5895  0.2140
  611MPD2    C1 9104   4.277   2.846  10.461  0.0847  0.5531 -0.2085
  611MPD2    C2 9105   4.412   2.864  10.453 -0.6039  0.1833 -0.7115
  611MPD2    C3 9106   4.467   2.987  10.498 -0.1007  0.2063 -1.0050
  611MPD2    C4 9107   4.380   3.078  10.550  0.7733 -0.5357 -0.4116
  611MPD2    C5 9108   4.250   3.048  10.565  0.1759  0.7720  0.0063
  611MPD2     H 9109   4.470   2.787  10.403  1.6804  1.0346  0.6599
  611MPD2    H1 9110   4.412   3.172  10.594 -0.3143  0.6608 -2.1542
  611MPD2    H2 9111   4.086   2.925  10.527 -0.5784  0.0909  1.5803
  611MPD2    H3 9112   4.178   3.116  10.609  1.4159  0.4345  2.5463
  611MPD2     N 9113   4.600   3.012  10.502  0.0079  0.4138 -0.3481
  611MPD2    H5 9114   4.618   3.100  10.549  2.9169  0.4859 -1.5895
  611MPD2    N1 9115   4.216   2.735  10.414  0.0859  0.5114  0.1978
  611MPD2    H7 9116   4.117   2.733  10.437  0.0561  1.0821  0.1316
  612TMC3    C1 9117   0.102   2.973  10.486 -0.0843  0.4198 -0.5409
  612TMC3    C2 9118   0.130   3.076  10.573 -0.5324 -0.4151 -0.1945
  612TMC3    C3 9119   0.257   3.070  10.632 -0.5372 -0.5849 -0.2805
  612TMC3    C4 9120   0.189   2.872  10.456  0.0957  0.3614  0.8604
  612TMC3    C5 9121   0.314   2.878  10.515 -0.0788  0.2910  0.2025
  612TMC3    C6 9122   0.349   2.964  10.608  1.1342 -0.7366 -0.1391
  612TMC3     C 9123   4.703   2.940  10.445  0.2917 -0.2782 -0.4703
  612TMC3     O 9124   4.694   2.854  10.357  0.2528  0.0441  0.6665
  612TMC3     H 9125   0.065   3.162  10.582 -0.4914 -0.4325  0.2933
  612TMC3    H1 9126   0.168   2.790  10.389  1.6649 -0.0424  0.8552
  612TMC3    H2 9127   0.448   2.966  10.651  0.7414 -1.3493  0.7882
  612TMC3    C7 9128   0.414   2.787  10.454  0.0410  0.6287 -0.2766
  612TMC3    C8 9129   0.310   3.201  10.658 -0.3342 -0.3841 -0.1748
  612TMC3    O1 9130   0.532   2.830  10.468 -0.7635  0.4299 -1.2484
  612TMC3    O2 9131   0.256   3.297  10.606  0.2389 -0.1419  0.1181
  613MPD2     C 9132   4.133   0.724  16.942  0.1297  0.3579  0.0327
  613MPD2    C1 9133   4.071   0.812  16.849  0.4831 -0.1463  0.4697
  613MPD2    C2 9134   3.970   0.755  16.771  0.5286  0.1065  1.0385
  613MPD2    C3 9135   3.920   0.625  16.789 -0.0230 -0.3099  0.4323
  613MPD2    C4 9136   3.979   0.544  16.884 -0.0285 -0.2600 -0.4607
  613MPD2    C5 9137   4.086   0.591  16.956 -0.3549 -1.5009 -0.5723
  613MPD2     H 9138   3.916   0.809  16.693  3.4808  0.5678 -0.6676
  613MPD2    H1 9139   3.972   0.436  16.892  0.9068 -0.0832  2.6738
  613MPD2    H2 9140   4.227   0.754  16.986 -0.9614 -0.4997  2.9234
  613MPD2    H3 9141   4.135   0.530  17.031 -0.8815  1.2931  2.0589
  613MPD2     N 9142   3.827   0.562  16.704 -0.6403 -0.2736 -0.3786
  613MPD2    H5 9143   3.802   0.467  16.729  0.4491 -0.1196  1.3272
  613MPD2    N1 9144   4.133   0.939  16.824 -0.2537 -0.4389  0.8362
  613MPD2    H7 9145   4.182   0.983  16.901 -0.5029 -0.0892  0.7959
  614TMC3    C1 9146   4.078   0.963  16.588  0.2619  0.6221  0.1141
  614TMC3    C2 9147   4.144   0.844  16.551 -1.2264 -0.1974  0.5757
  614TMC3    C3 9148   4.105   0.789  16.433  0.1951  0.3351 -0.0497
  614TMC3    C4 9149   4.000   1.034  16.504  0.6076  0.0624 -0.2012
  614TMC3    C5 9150   3.969   0.964  16.390 -0.4973 -0.3184  0.0386
  614TMC3    C6 9151   4.012   0.841  16.350  0.1705 -0.2621  0.3972
  614TMC3     C 9152   4.114   1.021  16.716  0.4761 -0.1714  0.2871
  614TMC3     O 9153   4.151   1.136  16.709 -0.1801  0.4614  0.2566
  614TMC3     H 9154   4.221   0.807  16.617  1.7642  2.0640 -1.6582
  614TMC3    H1 9155   3.951   1.128  16.525  0.2858 -0.3583  0.9350
  614TMC3    H2 9156   3.973   0.792  16.261  1.9339 -0.3052 -0.3456
  614TMC3    C7 9157   3.891   1.039  16.293  0.2477 -0.0575 -0.5886
  614TMC3    C8 9158   4.123   0.647  16.412  0.1816 -0.3453 -0.2130
  614TMC3    O1 9159   3.828   1.134  16.340 -0.0500  0.2509 -0.0018
  614TMC3    O2 9160   4.075   0.593  16.314  0.5645 -0.1822 -0.0842
  615MPD2     C 9161   2.981   1.801  16.300  0.2076 -0.3213 -0.4058
  615MPD2    C1 9162   3.062   1.867  16.215 -0.3230 -0.6992 -0.4123
  615MPD2    C2 9163   3.027   1.856  16.082 -0.5085  0.0140 -0.1774
  615MPD2    C3 9164   2.925   1.785  16.027  0.4424 -0.6159 -0.5553
  615MPD2    C4 9165   2.841   1.714  16.122  0.1109  0.5252  0.7171
  615MPD2    C5 9166   2.875   1.729  16.250  0.5036  0.5121 -0.5563
  615MPD2     H 9167   3.097   1.899  16.011  0.4449  1.9833  1.9254
  615MPD2    H1 9168   2.752   1.653  16.108 -0.5877  1.6782  0.0765
  615MPD2    H2 9169   2.992   1.790  16.407  0.5879 -1.5488 -0.5672
  615MPD2    H3 9170   2.810   1.682  16.322  0.5442  0.1483 -0.7547
  615MPD2     N 9171   2.888   1.793  15.890  0.9134  0.0787 -0.0246
  615MPD2    H5 9172   2.807   1.739  15.863  0.0272  0.9145  0.9316
  615MPD2    N1 9173   3.172   1.947  16.264 -0.0603 -0.6510 -0.1353
  615MPD2    H7 9174   3.216   2.009  16.196 -0.0900 -1.2521 -0.7029
  616TMC3    C1 9175   3.350   2.032  16.388 -0.6501  0.1341  0.4712
  616TMC3    C2 9176   3.457   1.982  16.460 -0.8022 -0.6396  0.3014
  616TMC3    C3 9177   3.582   2.039  16.443  0.4280 -0.1078 -0.1281
  616TMC3    C4 9178   3.359   2.132  16.294 -0.6579 -0.3039  0.2297
  616TMC3    C5 9179   3.491   2.180  16.280 -0.8594  0.4720  0.0873
  616TMC3    C6 9180   3.600   2.146  16.358 -0.2279  0.0777  0.1297
  616TMC3     C 9181   3.227   1.954  16.394  0.3168 -0.6799  0.1345
  616TMC3     O 9182   3.207   1.877  16.488 -0.1635  0.2172  0.0467
  616TMC3     H 9183   3.454   1.898  16.528  0.1680 -0.2912  0.7686
  616TMC3    H1 9184   3.279   2.177  16.238 -1.0012 -1.2344 -0.0231
  616TMC3    H2 9185   3.698   2.189  16.347 -1.3827  2.6646 -0.0378
  616TMC3    C7 9186   3.504   2.300  16.193  0.4118  1.0056 -0.6750
  616TMC3    C8 9187   3.698   1.972  16.511 -0.3293 -0.2185 -0.1030
  616TMC3    O1 9188   3.609   2.367  16.211  0.7379  0.2300 -0.7840
  616TMC3    O2 9189   3.676   1.863  16.569 -0.5119 -0.3792 -0.8202
  617MPD2     C 9190   1.224   0.247  13.495 -0.9193 -1.3544  0.4312
  617MPD2    C1 9191   1.263   0.311  13.611 -0.4752  0.2760  0.4123
  617MPD2    C2 9192   1.213   0.263  13.731  0.4066  0.3542  0.1833
  617MPD2    C3 9193   1.120   0.160  13.729  0.2951 -0.4903 -0.5035
  617MPD2    C4 9194   1.076   0.103  13.611 -0.1740  0.4084 -0.2238
  617MPD2    C5 9195   1.130   0.152  13.496  0.5501 -0.8488  0.0889
  617MPD2     H 9196   1.234   0.314  13.824  0.8509  0.3316  0.0973
  617MPD2    H1 9197   1.005   0.021  13.613  1.5682 -1.0984 -0.0541
  617MPD2    H2 9198   1.259   0.291  13.403 -3.5158 -0.0971  0.0501
  617MPD2    H3 9199   1.088   0.097  13.412  0.2584 -1.1929  0.4562
  617MPD2     N 9200   1.058   0.120  13.847 -0.9232 -0.1679  0.0357
  617MPD2    H5 9201   0.985   0.050  13.850  0.2460 -1.3107  1.5248
  617MPD2    N1 9202   1.338   0.424  13.607  0.4965 -0.0559  0.0794
  617MPD2    H7 9203   1.342   0.458  13.512 -2.1786 -1.1826 -0.4538
  618TMC3    C1 9204   1.478   0.597  13.683  0.1645 -0.0739  0.4472
  618TMC3    C2 9205   1.587   0.622  13.760 -0.1411  0.4069 -0.7427
  618TMC3    C3 9206   1.652   0.737  13.729 -0.0949 -0.6322 -0.4310
  618TMC3    C4 9207   1.421   0.682  13.591  0.3926 -0.0823  0.7617
  618TMC3    C5 9208   1.493   0.790  13.568 -0.7979 -0.2889  0.5778
  618TMC3    C6 9209   1.600   0.830  13.647  0.7056 -0.1410  0.4887
  618TMC3     C 9210   1.425   0.465  13.708  0.1882 -0.3899 -0.2096
  618TMC3     O 9211   1.463   0.393  13.798 -0.1424  0.1139 -0.0030
  618TMC3     H 9212   1.629   0.548  13.827 -1.3864  2.1730  1.9637
  618TMC3    H1 9213   1.329   0.656  13.540 -0.3003 -0.0542  1.9855
  618TMC3    H2 9214   1.648   0.924  13.627  3.2218 -1.2902  1.1479
  618TMC3    C7 9215   1.431   0.892  13.491 -0.4404  0.3187  0.5561
  618TMC3    C8 9216   1.796   0.732  13.726 -0.0141  0.0554 -0.4423
  618TMC3    O1 9217   1.326   0.937  13.531  0.4202  0.5164  0.2149
  618TMC3    O2 9218   1.848   0.839  13.749 -0.1170  0.1408 -0.1782
  619MPD2     C 9219   2.563   1.390  13.800  0.5637 -0.0411 -0.0561
  619MPD2    C1 9220   2.483   1.465  13.726 -0.3575  0.4883  0.7301
  619MPD2    C2 9221   2.352   1.478  13.768 -0.1832  0.4883  0.1173
  619MPD2    C3 9222   2.310   1.425  13.890  0.0297 -0.0797 -0.4049
  619MPD2    C4 9223   2.396   1.346  13.961  0.2691 -0.1549  0.2725
  619MPD2    C5 9224   2.524   1.335  13.915  0.2085 -0.1606 -0.3975
  619MPD2     H 9225   2.281   1.535  13.709 -1.3445 -0.9815  0.1197
  619MPD2    H1 9226   2.363   1.310  14.057  0.1433 -0.9340 -0.0592
  619MPD2    H2 9227   2.661   1.363  13.764  1.5789  0.5700  2.2425
  619MPD2    H3 9228   2.606   1.283  13.963 -1.4560  0.1211  2.7478
  619MPD2     N 9229   2.183   1.463  13.943  0.0883  0.8028  0.3007
  619MPD2    H5 9230   2.136   1.410  14.015  0.2991  0.5431  0.2473
  619MPD2    N1 9231   2.522   1.530  13.607 -0.2195  0.2859 -0.0511
  619MPD2    H7 9232   2.458   1.598  13.569 -1.0821 -0.1900  0.5638
  620TMC3    C1 9233   2.678   1.633  13.460 -0.0577 -0.3154  0.3244
  620TMC3    C2 9234   2.599   1.643  13.351 -0.2607  0.2999  0.3783
  620TMC3    C3 9235   2.590   1.756  13.275 -0.1197 -0.5541 -0.3132
  620TMC3    C4 9236   2.749   1.750  13.492 -0.4442  0.3500 -0.0491
  620TMC3    C5 9237   2.745   1.864  13.417  0.5013 -0.3547 -0.1435
  620TMC3    C6 9238   2.672   1.865  13.302 -0.0157 -0.0007 -0.9352
  620TMC3     C 9239   2.658   1.539  13.565  0.1898 -0.1690 -0.0809
  620TMC3     O 9240   2.760   1.491  13.614 -0.2325 -0.4618  0.3338
  620TMC3     H 9241   2.537   1.558  13.324  0.5124  0.1149 -0.8370
  620TMC3    H1 9242   2.814   1.753  13.579 -2.0817  0.7433  1.1601
  620TMC3    H2 9243   2.657   1.948  13.233  0.5802 -0.0814 -1.1682
  620TMC3    C7 9244   2.769   1.994  13.485 -0.2660 -0.6293  0.4872
  620TMC3    C8 9245   2.503   1.753  13.166  0.0467  0.0360 -0.4370
  620TMC3    O1 9246   2.836   1.996  13.589  0.4438 -0.6466  0.5221
  620TMC3    O2 9247   2.562   1.773  13.056  0.2937 -0.1075 -0.1514
  621MPD2     C 9248   3.434   1.189   9.577 -0.8842  0.0599  0.1772
  621MPD2    C1 9249   3.447   1.213   9.718  0.5337 -0.5187  0.3009
  621MPD2    C2 9250   3.542   1.312   9.762  0.1814  0.1875  0.6969
  621MPD2    C3 9251   3.599   1.391   9.672 -0.9899  0.0216 -0.0843
  621MPD2    C4 9252   3.583   1.366   9.538 -0.2220  0.4459  0.1753
  621MPD2    C5 9253   3.517   1.252   9.496 -0.1925 -0.2245 -0.4635
  621MPD2     H 9254   3.569   1.328   9.866  1.1264 -1.2345  0.6696
  621MPD2    H1 9255   3.639   1.420   9.463 -0.0851  0.6084  0.3948
  621MPD2    H2 9256   3.361   1.127   9.526  0.0387 -1.0981  0.2575
  621MPD2    H3 9257   3.519   1.229   9.390 -3.5973 -1.1472 -0.3416
  621MPD2     N 9258   3.664   1.506   9.719 -0.1161 -0.5183 -0.3759
  621MPD2    H5 9259   3.690   1.510   9.817 -1.6919 -1.6351  0.0907
  621MPD2    N1 9260   3.383   1.136   9.820 -0.0389  0.1327 -0.0824
  621MPD2    H7 9261   3.406   1.159   9.917 -0.9593 -0.1343  0.1986
  622TMC3    C1 9262   3.215   1.011   9.919 -0.6272  0.4298 -0.0654
  622TMC3    C2 9263   3.296   1.016  10.031 -0.3208 -0.4432  0.1094
  622TMC3    C3 9264   3.244   1.042  10.153 -0.4654 -0.4275  0.6840
  622TMC3    C4 9265   3.080   1.016   9.928  0.5472  0.2687 -0.7053
  622TMC3    C5 9266   3.027   1.054  10.050  0.1431  0.0617 -0.5654
  622TMC3    C6 9267   3.112   1.064  10.166 -0.2834 -0.4676 -0.7889
  622TMC3     C 9268   3.268   1.061   9.790 -0.0484  0.2484  0.3907
  622TMC3     O 9269   3.201   1.071   9.689  0.6296 -0.4371 -0.6791
  622TMC3     H 9270   3.404   1.003  10.027 -0.5955 -2.5548 -0.6386
  622TMC3    H1 9271   3.019   1.030   9.840 -0.2348 -1.1803 -0.3905
  622TMC3    H2 9272   3.067   1.086  10.262  1.6104  0.9891 -0.2394
  622TMC3    C7 9273   2.895   1.124  10.061  0.1202  0.0658  0.6885
  622TMC3    C8 9274   3.328   1.140  10.209  0.6904  0.1697  0.5293
  622TMC3    O1 9275   2.843   1.122  10.174 -0.1672 -0.4073 -0.2064
  622TMC3    O2 9276   3.452   1.134  10.197  0.1190  0.1797 -0.2386
  623MPD2     C 9277   2.186   2.110  15.980 -0.4095 -0.3239  0.0103
  623MPD2    C1 9278   2.098   2.110  16.094  0.3601  0.2993  0.6968
  623MPD2    C2 9279   2.157   2.139  16.217 -0.2436 -0.6300 -0.0663
  623MPD2    C3 9280   2.287   2.188  16.228 -0.2500 -0.1829 -0.4061
  623MPD2    C4 9281   2.363   2.197  16.112  0.3699  0.4205 -0.3632
  623MPD2    C5 9282   2.315   2.154  15.991  0.1182 -0.4763 -0.4395
  623MPD2     H 9283   2.093   2.141  16.304 -2.2615 -0.6222 -1.5689
  623MPD2    H1 9284   2.464   2.238  16.117  0.5158 -0.0074  0.1460
  623MPD2    H2 9285   2.149   2.087  15.880  0.4972  1.0521 -0.6427
  623MPD2    H3 9286   2.374   2.169  15.901  0.4285 -1.7457 -0.4520
  623MPD2     N 9287   2.340   2.228  16.356  0.2008  0.7969 -0.1342
  623MPD2    H5 9288   2.281   2.216  16.438 -0.5468 -1.1269 -0.9370
  623MPD2    N1 9289   1.957   2.091  16.096 -0.4737 -0.4568 -0.3696
  623MPD2    H7 9290   1.916   2.111  16.186 -0.5284  0.3257 -0.5678
  624TMC3    C1 9291   2.642   2.315  16.684 -0.0155  0.0510 -0.0277
  624TMC3    C2 9292   2.538   2.298  16.778 -0.5984 -0.3984  0.1885
  624TMC3    C3 9293   2.411   2.304  16.732  0.3875  0.9784 -0.3227
  624TMC3    C4 9294   2.613   2.328  16.547  0.0230  0.3065  0.2868
  624TMC3    C5 9295   2.489   2.326  16.510  0.2875 -0.4034  0.2210
  624TMC3    C6 9296   2.391   2.328  16.600 -0.7100  0.2602 -0.2979
  624TMC3     C 9297   2.772   2.282  16.735 -0.0503  0.0225 -0.2192
  624TMC3     O 9298   2.790   2.228  16.840 -0.6246  0.1377  0.2923
  624TMC3     H 9299   2.557   2.261  16.879  0.7795  0.4214  0.2296
  624TMC3    H1 9300   2.691   2.310  16.474  0.5349  1.2845  0.5905
  624TMC3    H2 9301   2.290   2.339  16.561 -0.1367  2.3365 -1.2171
  624TMC3    C7 9302   2.460   2.293  16.373  0.7483 -0.1000  0.7311
  624TMC3    C8 9303   2.291   2.272  16.806 -0.7017  0.2291  0.6313
  624TMC3    O1 9304   2.550   2.332  16.296  0.3264 -0.6157 -0.4832
  624TMC3    O2 9305   2.190   2.240  16.744 -0.2597  0.6447 -0.4341
  625MPD2     C 9306   2.432   2.753   0.842  0.1811 -0.5508 -0.0628
  625MPD2    C1 9307   2.537   2.842   0.810  0.8060  0.5188 -0.3031
  625MPD2    C2 9308   2.657   2.821   0.868 -0.7594  0.4788  0.3098
  625MPD2    C3 9309   2.678   2.728   0.967 -0.5744  0.2383 -0.3214
  625MPD2    C4 9310   2.574   2.651   1.010  0.0585 -0.0577 -0.4884
  625MPD2    C5 9311   2.452   2.662   0.947  0.3842  0.6077  1.1362
  625MPD2     H 9312   2.737   2.890   0.844 -1.7022  2.2090  2.2005
  625MPD2    H1 9313   2.587   2.570   1.080 -2.5886 -1.4271 -1.5786
  625MPD2    H2 9314   2.340   2.744   0.787  0.3271 -1.9720 -0.0804
  625MPD2    H3 9315   2.373   2.589   0.965 -0.4430  1.0515 -0.6929
  625MPD2     N 9316   2.812   2.718   1.018 -0.1631 -0.3949 -0.2442
  625MPD2    H5 9317   2.878   2.778   0.971 -2.1879  0.4605 -2.0211
  625MPD2    N1 9318   2.516   2.947   0.718 -0.5885 -0.6045  0.1199
  625MPD2    H7 9319   2.602   2.993   0.690 -1.3110 -0.1514 -1.3344
  626TMC3    C1 9320   2.408   3.118   0.591  0.2445 -0.0083  0.0188
  626TMC3    C2 9321   2.317   3.169   0.496  0.4246 -0.8331  0.1802
  626TMC3    C3 9322   2.329   3.293   0.445 -0.5048 -0.3556 -0.3785
  626TMC3    C4 9323   2.513   3.203   0.621  0.3611  0.8986 -0.5616
  626TMC3    C5 9324   2.524   3.331   0.575 -0.2102 -0.0536 -0.0930
  626TMC3    C6 9325   2.427   3.377   0.488 -0.0934  0.7228  0.1008
  626TMC3     C 9326   2.396   2.993   0.665  0.1707  0.5159  0.1825
  626TMC3     O 9327   2.285   2.956   0.691 -0.4918  0.2489  0.5960
  626TMC3     H 9328   2.237   3.104   0.461  0.1223 -1.4437  2.0066
  626TMC3    H1 9329   2.579   3.182   0.704  1.3465 -1.0301 -1.8129
  626TMC3    H2 9330   2.426   3.473   0.437 -0.3045  0.4918 -0.3220
  626TMC3    C7 9331   2.552   3.427   0.677  0.6988  0.6394 -0.1873
  626TMC3    C8 9332   2.235   3.351   0.338  0.5277 -0.3370 -0.3267
  626TMC3    O1 9333   2.628   3.395   0.765  0.7010 -0.3281 -0.4880
  626TMC3    O2 9334   2.290   3.435   0.270 -0.3431 -0.2134 -0.1791
  627MPD2     C 9335   0.946   4.167  15.103 -0.5292 -0.2468 -0.4956
  627MPD2    C1 9336   1.051   4.108  15.032  0.6959 -0.1299  0.4882
  627MPD2    C2 9337   1.039   3.973  14.997 -0.2508 -0.3576  0.0536
  627MPD2    C3 9338   0.920   3.907  15.026 -0.8289  1.3575 -0.2929
  627MPD2    C4 9339   0.822   3.962  15.103  0.0482 -0.4187 -0.0253
  627MPD2    C5 9340   0.840   4.094  15.142 -0.6811  0.2035 -0.5751
  627MPD2     H 9341   1.121   3.930  14.941 -1.8691  1.4382 -3.6641
  627MPD2    H1 9342   0.737   3.910  15.146 -1.3302  2.6695  0.9500
  627MPD2    H2 9343   0.950   4.263  15.153  0.9303  0.1631 -1.3812
  627MPD2    H3 9344   0.764   4.137  15.206  0.0525  1.9212 -0.8376
  627MPD2     N 9345   0.920   3.777  14.986 -0.0920 -0.3319  0.1878
  627MPD2    H5 9346   1.004   3.751  14.934  1.3039  0.4747  2.0372
  627MPD2    N1 9347   1.178   4.162  14.999 -0.4568  0.3480 -0.6776
  627MPD2    H7 9348   1.250   4.096  14.968  1.5760  1.8482  0.8650
  628TMC3    C1 9349   1.340   4.344  14.994 -0.1247  0.2920  0.0400
  628TMC3    C2 9350   1.440   4.259  15.031  0.2165  0.6085 -0.2006
  628TMC3    C3 9351   1.566   4.305  15.017 -0.3983  0.8292 -0.8655
  628TMC3    C4 9352   1.354   4.477  14.961  0.6098 -0.3097 -0.2489
  628TMC3    C5 9353   1.483   4.525  14.972 -0.2743  0.4529 -0.0449
  628TMC3    C6 9354   1.587   4.436  14.990 -0.4715  0.2617  1.3645
  628TMC3     C 9355   1.201   4.300  15.022 -0.3111  0.2861 -0.2638
  628TMC3     O 9356   1.126   4.391  15.050 -0.2069  0.0277 -0.0035
  628TMC3     H 9357   1.430   4.152  15.048  1.6830 -0.1386 -4.2150
  628TMC3    H1 9358   1.275   4.551  14.961 -0.5274 -1.5105  0.4552
  628TMC3    H2 9359   1.677   4.485  15.025  0.2019  0.2453 -0.3536
  628TMC3    C7 9360   1.515   4.622  14.871  0.0329  1.4898  0.1138
  628TMC3    C8 9361   1.672   4.222  15.070 -0.2689 -0.8131 -0.2693
  628TMC3    O1 9362   1.635   4.638  14.859 -0.1597  0.4732 -0.3227
  628TMC3    O2 9363   1.645   4.144  15.163 -0.5897  0.4660  0.5272
  629MPD2     C 9364   4.201   1.974  16.586 -0.7954  0.4022  0.9116
  629MPD2    C1 9365   4.165   2.100  16.578  0.7018  0.9685  1.9464
  629MPD2    C2 9366   4.032   2.129  16.554  0.2467  0.2168  0.6055
  629MPD2    C3 9367   3.940   2.021  16.542  0.0382  0.1088 -1.0156
  629MPD2    C4 9368   3.980   1.887  16.551 -0.8692  1.2434  0.2029
  629MPD2    C5 9369   4.120   1.865  16.566  0.0961  0.2997  0.2335
  629MPD2     H 9370   3.992   2.229  16.540 -0.5639  0.1293  2.1940
  629MPD2    H1 9371   3.910   1.807  16.529 -1.3519  1.4420  1.0180
  629MPD2    H2 9372   4.299   1.950  16.625 -0.8319 -0.4609  0.4808
  629MPD2    H3 9373   4.159   1.765  16.555  1.4537  0.5907  2.4491
  629MPD2     N 9374   3.806   2.063  16.512 -0.5784  0.6849 -0.2011
  629MPD2    H5 9375   3.784   2.162  16.505 -0.6963  0.8168  2.0204
  629MPD2    N1 9376   4.256   2.201  16.611  0.3500 -0.0860  0.0737
  629MPD2    H7 9377   4.351   2.174  16.634  0.5898  0.9901  0.3421
  630TMC3    C1 9378   4.372   2.398  16.639  0.6017 -0.0787 -0.4245
  630TMC3    C2 9379   4.390   2.524  16.595 -0.1019 -0.2578 -0.1665
  630TMC3    C3 9380   4.503   2.588  16.628 -0.1697  0.3485 -0.3875
  630TMC3    C4 9381   4.454   2.333  16.725  0.5717  0.1029  0.2885
  630TMC3    C5 9382   4.552   2.411  16.775  0.8255  0.0871  0.2965
  630TMC3    C6 9383   4.587   2.535  16.727  0.5545 -0.0857 -0.2812
  630TMC3     C 9384   4.246   2.337  16.593 -0.4517  0.7509 -0.1133
  630TMC3     O 9385   4.153   2.395  16.535 -0.4065 -0.2573  0.0836
  630TMC3     H 9386   4.317   2.582  16.540 -0.4372 -0.9751 -0.4813
  630TMC3    H1 9387   4.421   2.241  16.773  1.8876 -1.6175 -2.1165
  630TMC3    H2 9388   4.675   2.591  16.759  0.5670 -0.9424  1.2125
  630TMC3    C7 9389   4.617   2.362  16.902  0.0568  0.0072  0.4624
  630TMC3    C8 9390   4.524   2.733  16.595  0.4450 -0.5507  0.9921
  630TMC3    O1 9391   4.601   2.245  16.937 -0.0482  0.4551 -0.4075
  630TMC3    O2 9392   4.596   2.794  16.673  0.3699  0.1376 -0.1793
  631MPD2     C 9393   2.181   2.266  15.588 -0.1119  0.2257 -0.1520
  631MPD2    C1 9394   2.291   2.321  15.520 -0.6450  0.2073  0.1877
  631MPD2    C2 9395   2.394   2.242  15.492 -0.4764 -0.2256 -0.3584
  631MPD2    C3 9396   2.400   2.116  15.550  0.0096  0.1526  0.1392
  631MPD2    C4 9397   2.285   2.059  15.614  0.5804 -0.7669  0.6115
  631MPD2    C5 9398   2.188   2.142  15.646  0.3217 -0.0283  0.4123
  631MPD2     H 9399   2.486   2.275  15.446 -1.2018  0.7484 -1.1186
  631MPD2    H1 9400   2.289   1.964  15.667  1.8225 -1.1371 -0.1400
  631MPD2    H2 9401   2.091   2.326  15.603 -0.9283 -0.7481 -1.1764
  631MPD2    H3 9402   2.101   2.106  15.699  0.8903 -0.0974  1.2963
  631MPD2     N 9403   2.515   2.039  15.531 -0.3518  0.4068 -0.3685
  631MPD2    H5 9404   2.602   2.075  15.493 -0.3145  1.3113  0.5756
  631MPD2    N1 9405   2.279   2.456  15.482  0.4168  0.4608  0.2346
  631MPD2    H7 9406   2.203   2.511  15.521  1.1775  1.2279  0.6364
  632TMC3    C1 9407   2.361   2.646  15.377 -0.3779  0.0618  0.6839
  632TMC3    C2 9408   2.354   2.720  15.488 -0.5001  0.2436 -0.1632
  632TMC3    C3 9409   2.381   2.856  15.482 -0.8090 -1.2053 -0.0664
  632TMC3    C4 9410   2.408   2.707  15.258 -0.3437 -0.2570 -0.8816
  632TMC3    C5 9411   2.450   2.833  15.261  0.0772 -0.0124  0.1543
  632TMC3    C6 9412   2.426   2.920  15.367 -0.3855  0.1916 -0.4135
  632TMC3     C 9413   2.363   2.505  15.386 -0.4327  0.8900  0.2202
  632TMC3     O 9414   2.427   2.452  15.300 -0.0413 -0.0191  0.0595
  632TMC3     H 9415   2.336   2.679  15.587  0.5358 -0.9669 -0.4701
  632TMC3    H1 9416   2.425   2.648  15.168 -0.8173 -1.0740 -0.4365
  632TMC3    H2 9417   2.434   3.027  15.351 -2.4889  0.1621 -1.7288
  632TMC3    C7 9418   2.552   2.876  15.167  0.2329  0.0384  0.5220
  632TMC3    C8 9419   2.319   2.936  15.584 -0.1161  0.6539  0.1726
  632TMC3    O1 9420   2.584   2.789  15.088  0.5963 -0.4011  0.2290
  632TMC3    O2 9421   2.250   2.874  15.666 -0.2640 -0.4370  0.0541
  633MPD2     C 9422   2.221   0.391  17.374 -0.0770  0.0676 -0.7769
  633MPD2    C1 9423   2.256   0.343  17.246 -0.8647  0.3012  0.1249
  633MPD2    C2 9424   2.206   0.221  17.211  0.6590 -0.7772  0.1659
  633MPD2    C3 9425   2.132   0.148  17.303 -0.5691  0.3940  0.6461
  633MPD2    C4 9426   2.113   0.195  17.429  0.3099  0.2379 -0.2099
  633MPD2    C5 9427   2.152   0.323  17.468  0.2607 -0.1179 -0.6508
  633MPD2     H 9428   2.233   0.173  17.118  1.8619 -0.5375  0.3985
  633MPD2    H1 9429   2.057   0.143  17.507 -0.6853  2.2023  0.3910
  633MPD2    H2 9430   2.260   0.486  17.408 -0.3563 -0.5770  1.3101
  633MPD2    H3 9431   2.126   0.367  17.564  1.2893  0.5339 -0.6733
  633MPD2     N 9432   2.112   0.010  17.283 -0.0344  0.2355 -0.1408
  633MPD2    H5 9433   2.087   4.699  17.369 -0.1170 -2.6900 -1.7766
  633MPD2    N1 9434   2.348   0.407  17.160 -0.1350 -1.0033  0.1156
  633MPD2    H7 9435   2.368   0.355  17.075 -0.2214  0.0913 -0.5799
  634TMC3    C1 9436   2.468   0.583  17.045  0.1745 -0.5430 -0.0091
  634TMC3    C2 9437   2.514   0.502  16.948 -0.0062 -0.3437 -0.8586
  634TMC3    C3 9438   2.560   0.553  16.827 -0.5055  0.6157 -0.2020
  634TMC3    C4 9439   2.456   0.720  17.025 -0.2110 -0.1179  0.4324
  634TMC3    C5 9440   2.497   0.774  16.899  0.1245 -0.2980  0.2404
  634TMC3    C6 9441   2.562   0.689  16.808  0.0802  0.7940  0.4392
  634TMC3     C 9442   2.413   0.523  17.175  0.8785 -0.2580  0.1519
  634TMC3     O 9443   2.384   0.608  17.261 -0.2179  0.3226  0.4523
  634TMC3     H 9444   2.509   0.396  16.967  0.3664 -0.2889 -0.4502
  634TMC3    H1 9445   2.423   0.782  17.107  3.1013 -0.2969  1.8946
  634TMC3    H2 9446   2.570   0.728  16.707  0.9744  0.2483  0.3036
  634TMC3    C7 9447   2.448   0.899  16.842 -0.1984 -0.0546  0.4323
  634TMC3    C8 9448   2.567   0.463  16.710  0.6069  0.2688  0.4125
  634TMC3    O1 9449   2.488   0.934  16.730 -0.0959  0.4260  0.0457
  634TMC3    O2 9450   2.538   0.344  16.726  0.0373  0.4255  0.0130
  635TMC3    C1 9451   2.287   1.538   0.510  0.4216  0.7831  0.4133
  635TMC3    C2 9452   2.359   1.430   0.466  0.2477  0.8842  0.5870
  635TMC3    C3 9453   2.302   1.306   0.466  0.4108  0.0639  0.7761
  635TMC3    C4 9454   2.165   1.526   0.572 -0.2804  0.4016  0.6113
  635TMC3    C5 9455   2.111   1.402   0.568 -0.2472  0.1607  0.4645
  635TMC3    C6 9456   2.176   1.294   0.516  0.5657  0.5484 -0.3826
  635TMC3     C 9457   2.355   1.662   0.525  0.0860 -0.0697  0.0670
  635TMC3     O 9458   2.478   1.656   0.528 -0.2568 -0.1303  0.7088
  635TMC3     H 9459   2.442   1.441   0.397  0.9557 -1.6454  1.0418
  635TMC3    H1 9460   2.115   1.604   0.628 -0.0965 -0.4488  1.9644
  635TMC3    H2 9461   2.125   1.198   0.513 -0.6442  1.2201 -1.0023
  635TMC3    C7 9462   1.974   1.399   0.600  0.1467 -0.0968  0.1968
  635TMC3    C8 9463   2.356   1.207   0.372  0.3692  0.4329  0.0125
  635TMC3    O1 9464   1.934   1.289   0.645  0.0177  0.4704 -0.1198
  635TMC3    O2 9465   2.443   1.248   0.292  0.4314  0.6883 -0.2654
  636MPD2     C 9466   3.503   0.876  15.814  0.8056  0.4007 -0.0893
  636MPD2    C1 9467   3.502   0.923  15.939 -0.1402 -0.4724 -1.0651
  636MPD2    C2 9468   3.568   0.849  16.036  0.0962 -0.1499  0.2629
  636MPD2    C3 9469   3.628   0.727  16.007 -0.0318 -1.2355 -0.3908
  636MPD2    C4 9470   3.638   0.687  15.873 -0.2559 -0.2444  0.2143
  636MPD2    C5 9471   3.566   0.762  15.779  0.1516  0.2607  0.4276
  636MPD2     H 9472   3.558   0.883  16.139 -2.2990 -0.3509  0.1104
  636MPD2    H1 9473   3.687   0.593  15.851  0.3258 -0.4349  2.3383
  636MPD2    H2 9474   3.471   0.940  15.733 -1.9596  0.2470  0.8780
  636MPD2    H3 9475   3.562   0.723  15.678 -1.8901  0.3898  0.4616
  636MPD2     N 9476   3.682   0.656  16.116 -0.3591 -0.2863 -0.2067
  636MPD2    H5 9477   3.651   0.691  16.206 -1.0876 -0.5104 -0.3774
  636MPD2    N1 9478   3.442   1.046  15.978 -0.7619  0.8305  0.0014
  636MPD2    H7 9479   3.455   1.067  16.076 -0.4336  2.3386 -0.3584
  637TMC3    C1 9480   3.762   0.486  16.244  0.3147 -0.0308 -0.2372
  637TMC3    C2 9481   3.729   0.567  16.348 -0.4023 -0.5459  0.4783
  637TMC3    C3 9482   3.746   0.515  16.476  0.6163 -0.7428  0.7712
  637TMC3    C4 9483   3.806   0.357  16.257  0.0803  0.5151  0.0601
  637TMC3    C5 9484   3.812   0.310  16.383 -0.3319 -0.6042  0.2933
  637TMC3    C6 9485   3.788   0.384  16.496  0.2358 -0.1648 -0.4000
  637TMC3     C 9486   3.757   0.542  16.114 -0.2631  0.2891 -0.5026
  637TMC3     O 9487   3.818   0.494  16.022 -0.1966 -0.2753 -0.0088
  637TMC3     H 9488   3.716   0.675  16.344 -2.7998 -0.9369 -2.3037
  637TMC3    H1 9489   3.832   0.300  16.169  1.5963 -0.8756  1.4217
  637TMC3    H2 9490   3.786   0.345  16.597 -0.5688  0.6027 -0.1235
  637TMC3    C7 9491   3.882   0.184  16.391 -0.1700  0.1436 -0.2368
  637TMC3    C8 9492   3.787   0.611  16.583 -0.1230 -0.3792 -0.2495
  637TMC3    O1 9493   3.831   0.100  16.321 -0.0922  0.3095  0.8520
  637TMC3    O2 9494   3.791   0.726  16.542 -0.6196 -0.1376  0.1292
  638MPD2     C 9495   3.294   4.555  14.797  0.0915 -0.1462  0.0762
  638MPD2    C1 9496   3.408   4.478  14.787 -0.3874  0.0136 -0.1099
  638MPD2    C2 9497   3.456   4.396  14.890 -0.0413  0.3609 -0.5439
  638MPD2    C3 9498   3.389   4.381  15.005  0.4881  0.2355  0.3741
  638MPD2    C4 9499   3.270   4.457  15.015  0.4988  0.1344  0.2959
  638MPD2    C5 9500   3.223   4.541  14.916 -0.1409  0.4305  0.3500
  638MPD2     H 9501   3.541   4.331  14.879  0.9616  1.7833 -1.1603
  638MPD2    H1 9502   3.215   4.443  15.107  1.6867 -4.4072  0.3373
  638MPD2    H2 9503   3.263   4.615  14.713  1.1372  0.4468  0.1158
  638MPD2    H3 9504   3.125   4.586  14.929 -0.8150 -0.5914 -1.2882
  638MPD2     N 9505   3.433   4.287  15.099  0.6665  0.1008  0.0814
  638MPD2    H5 9506   3.515   4.236  15.068  0.5901  1.6675 -2.7129
  638MPD2    N1 9507   3.484   4.482  14.666 -0.2421  0.6755 -0.0584
  638MPD2    H7 9508   3.572   4.431  14.657 -1.7079 -1.5999 -1.4722
  639TMC3    C1 9509   3.453   4.149  15.288 -0.0602 -0.1310 -0.1059
  639TMC3    C2 9510   3.382   4.042  15.333  0.1151  0.4673 -0.3224
  639TMC3    C3 9511   3.445   3.919  15.302  0.9813  0.9576  0.4550
  639TMC3    C4 9512   3.584   4.150  15.252 -0.6137  0.0472 -0.1287
  639TMC3    C5 9513   3.645   4.031  15.239  0.0131  0.3047 -0.4473
  639TMC3    C6 9514   3.571   3.917  15.253  0.0879 -0.2056 -0.0584
  639TMC3     C 9515   3.372   4.245  15.213 -0.0064 -0.2222 -0.3028
  639TMC3     O 9516   3.272   4.284  15.271 -0.5224 -0.2096 -0.1541
  639TMC3     H 9517   3.277   4.046  15.357  0.3334  3.3690  0.2240
  639TMC3    H1 9518   3.640   4.240  15.227 -2.2783  1.5450  1.5208
  639TMC3    H2 9519   3.607   3.820  15.218  5.0853  0.3353  3.6831
  639TMC3    C7 9520   3.736   4.035  15.130  0.0300  0.2256 -0.9053
  639TMC3    C8 9521   3.353   3.845  15.222  0.3470 -0.4860  0.1706
  639TMC3    O1 9522   3.696   4.115  15.043  0.0088 -0.1900  0.0092
  639TMC3    O2 9523   3.382   3.841  15.104  0.0091  0.2457 -0.0696
  640MPD2     C 9524   0.228   2.591   9.979  0.4035 -0.2983  0.5383
  640MPD2    C1 9525   0.106   2.557   9.922  0.5682 -0.3192 -0.0189
  640MPD2    C2 9526   0.001   2.643   9.932 -0.5306 -0.4197  0.0656
  640MPD2    C3 9527   0.009   2.758  10.006  0.0799  0.6445 -0.3433
  640MPD2    C4 9528   0.129   2.786  10.066  0.4502 -0.6050  0.1326
  640MPD2    C5 9529   0.238   2.711  10.044  0.0628 -0.3296 -0.0886
  640MPD2     H 9530   4.640   2.617   9.891 -0.4669 -0.2243 -0.2046
  640MPD2    H1 9531   0.137   2.878  10.123 -1.9606 -0.0770 -0.3837
  640MPD2    H2 9532   0.314   2.527   9.963  0.4202  0.0610 -0.8320
  640MPD2    H3 9533   0.339   2.740  10.071  0.5051 -1.1204 -0.8898
  640MPD2     N 9534   4.643   2.848  10.035 -0.3262 -0.3281 -0.2412
  640MPD2    H5 9535   4.667   2.922  10.100  2.0098 -1.5438  0.2863
  640MPD2    N1 9536   0.099   2.439   9.842 -0.4269 -0.4297  0.3673
  640MPD2    H7 9537   0.190   2.396   9.828 -0.1947  0.3791 -0.6037
  641TMC3    C1 9538   0.019   2.276   9.701 -0.2743  0.5822  0.1788
  641TMC3    C2 9539   0.100   2.183   9.766  0.7688 -0.7303  0.5529
  641TMC3    C3 9540   0.133   2.071   9.698 -0.4087 -0.3231 -0.0451
  641TMC3    C4 9541   4.716   2.259   9.573  0.4332 -0.0863  0.5185
  641TMC3    C5 9542   0.016   2.149   9.508 -0.2465  0.5371 -0.4721
  641TMC3    C6 9543   0.090   2.049   9.569 -0.3126  0.2690 -0.3593
  641TMC3     C 9544   4.731   2.400   9.760 -0.2735 -0.3905 -0.1857
  641TMC3     O 9545   4.628   2.456   9.726 -0.1387  0.0828  0.4018
  641TMC3     H 9546   0.120   2.195   9.872  1.6605 -3.2951  0.6775
  641TMC3    H1 9547   4.650   2.327   9.521  0.1210 -1.9973 -1.6111
  641TMC3    H2 9548   0.120   1.961   9.512 -0.8209 -1.0353  1.3969
  641TMC3    C7 9549   4.728   2.151   9.363 -0.4972  0.4034  0.1682
  641TMC3    C8 9550   0.216   1.972   9.772 -0.1018 -0.3094 -0.2594
  641TMC3    O1 9551   4.688   2.255   9.310  0.3345 -0.2070  0.6626
  641TMC3    O2 9552   0.290   2.012   9.862 -0.8894  0.4190 -0.0867
  642TMC3    C1 9553   0.263   3.962  12.672  0.3142 -0.4471  0.2700
  642TMC3    C2 9554   0.389   3.937  12.626  0.3015  0.7593 -0.0275
  642TMC3    C3 9555   0.402   3.855  12.515 -1.1928  0.4260 -0.3162
  642TMC3    C4 9556   0.150   3.913  12.611  0.1450 -0.2063  0.1870
  642TMC3    C5 9557   0.169   3.845  12.494 -0.4803  0.8601  0.4726
  642TMC3    C6 9558   0.293   3.815  12.447 -0.5782 -0.0356 -0.6740
  642TMC3     C 9559   0.252   4.064  12.777  0.4369 -0.2072 -0.3466
  642TMC3     O 9560   0.346   4.142  12.792 -0.4890 -0.9387  0.1647
  642TMC3     H 9561   0.475   3.990  12.665 -0.8803  0.7556  2.5836
  642TMC3    H1 9562   0.056   3.964  12.629  0.8299  0.2572  2.4944
  642TMC3    H2 9563   0.308   3.758  12.357  1.1704 -3.1848  1.6173
  642TMC3    C7 9564   0.066   3.780  12.418 -0.4832 -0.4834  0.1330
  642TMC3    C8 9565   0.535   3.832  12.459  0.0894 -0.3483 -0.7354
  642TMC3    O1 9566   0.089   3.734  12.308  0.1759  0.4853  0.3999
  642TMC3    O2 9567   0.531   3.762  12.363 -0.3700 -0.8455  0.3171
  643TMC3    C1 9568   4.314   3.481  17.658  0.0729  0.2637 -1.0448
  643TMC3    C2 9569   4.204   3.516  17.587  0.0740 -0.6765  0.6697
  643TMC3    C3 9570   4.178   3.444  17.473 -0.4326 -0.1574 -0.0304
  643TMC3    C4 9571   4.391   3.362  17.630 -0.3524 -0.3754  0.7450
  643TMC3    C5 9572   4.352   3.291  17.515  0.0602 -0.5943 -0.2969
  643TMC3    C6 9573   4.244   3.333  17.435  0.4161  0.1301  0.5377
  643TMC3     C 9574   4.327   3.550   0.052 -0.2492 -0.7065  0.1788
  643TMC3     O 9575   4.252   3.644   0.080  0.1247  0.0784 -0.3841
  643TMC3     H 9576   4.151   3.606  17.617  2.2112  0.1348  2.0021
  643TMC3    H1 9577   4.476   3.330  17.689 -0.1018  0.4402  0.8221
  643TMC3    H2 9578   4.196   3.273  17.358  0.7075 -0.4417  0.7993
  643TMC3    C7 9579   4.424   3.162  17.492  0.3017 -0.2669 -0.3429
  643TMC3    C8 9580   4.071   3.496  17.383  0.4243  0.8495 -0.3620
  643TMC3    O1 9581   4.463   3.114  17.598 -0.0766 -0.1638 -0.7429
  643TMC3    O2 9582   4.034   3.429  17.290  0.1634 -0.0123  0.0863
  644MPD2     C 9583   3.811   2.380   9.068 -0.1283  0.1029 -0.0439
  644MPD2    C1 9584   3.867   2.490   9.123 -0.7017 -0.4542  0.6098
  644MPD2    C2 9585   3.785   2.562   9.213 -0.7788  0.0409  0.1155
  644MPD2    C3 9586   3.647   2.537   9.230  0.5759  0.1322 -0.3878
  644MPD2    C4 9587   3.600   2.416   9.182  0.9199 -0.2647 -0.0916
  644MPD2    C5 9588   3.678   2.346   9.097 -0.1313 -0.0636 -0.2291
  644MPD2     H 9589   3.824   2.649   9.265  1.1484  0.5649 -2.1912
  644MPD2    H1 9590   3.503   2.376   9.211  0.7425 -2.3502 -3.4850
  644MPD2    H2 9591   3.867   2.322   8.996 -0.1790  0.6266 -0.5048
  644MPD2    H3 9592   3.639   2.251   9.062  1.6016 -0.6853 -0.4760
  644MPD2     N 9593   3.583   2.620   9.322 -0.9516 -0.4449  0.9098
  644MPD2    H5 9594   3.639   2.684   9.378  3.2307 -1.7439 -1.7362
  644MPD2    N1 9595   4.004   2.513   9.108  0.0744 -0.2631  0.0745
  644MPD2    H7 9596   4.053   2.452   9.043  0.2781  0.4121 -0.4081
  645TMC3    C1 9597   3.416   2.727   9.450 -0.4996  0.3887  0.3921
  645TMC3    C2 9598   3.305   2.716   9.522  0.2126  0.5578 -0.9146
  645TMC3    C3 9599   3.265   2.817   9.605  0.1180 -0.6877  0.6930
  645TMC3    C4 9600   3.490   2.841   9.450  0.1622 -0.0412  0.6172
  645TMC3    C5 9601   3.430   2.950   9.517  0.7649  0.2122 -0.1558
  645TMC3    C6 9602   3.321   2.940   9.597 -0.6485  0.3493  0.0357
  645TMC3     C 9603   3.450   2.621   9.358  0.4967  0.1745  0.5571
  645TMC3     O 9604   3.364   2.543   9.329  0.3229 -0.3473  0.2091
  645TMC3     H 9605   3.250   2.622   9.528  0.7367  0.4324  1.7157
  645TMC3    H1 9606   3.577   2.855   9.387  1.0702  0.1768  1.8985
  645TMC3    H2 9607   3.261   3.018   9.642 -1.0905 -0.1814  0.3772
  645TMC3    C7 9608   3.486   3.080   9.489 -0.5278 -0.0656 -0.7144
  645TMC3    C8 9609   3.150   2.800   9.688 -0.4123 -0.8436  0.5012
  645TMC3    O1 9610   3.535   3.089   9.376  0.7118 -0.0956 -0.6688
  645TMC3    O2 9611   3.072   2.709   9.657 -0.3737  0.5742  0.7978
  646MPD2     C 9612   3.759   3.188  14.818  0.3145  0.6683 -0.4302
  646MPD2    C1 9613   3.662   3.156  14.903  0.3541 -0.6107 -0.3296
  646MPD2    C2 9614   3.533   3.186  14.866 -0.2675 -0.2469  0.4664
  646MPD2    C3 9615   3.500   3.242  14.747  0.1220 -0.3193 -0.2297
  646MPD2    C4 9616   3.603   3.279  14.661 -0.0164 -0.0114 -0.1601
  646MPD2    C5 9617   3.734   3.250  14.695  0.1296  0.1503 -0.4547
  646MPD2     H 9618   3.452   3.162  14.934  0.8856  0.0107  1.9520
  646MPD2    H1 9619   3.580   3.332  14.570 -0.7170  1.9417  1.1443
  646MPD2    H2 9620   3.866   3.181  14.836  0.3127  0.3111 -0.5513
  646MPD2    H3 9621   3.814   3.277  14.627  1.0398  0.9307  0.9433
  646MPD2     N 9622   3.361   3.262  14.725  0.0039  0.4591  0.2729
  646MPD2    H5 9623   3.299   3.221  14.794 -0.4608  1.0790  0.2243
  646MPD2    N1 9624   3.703   3.102  15.023 -0.2240 -0.3492  0.2014
  646MPD2    H7 9625   3.804   3.091  15.027 -0.3197 -1.3639 -0.2048
  647TMC3    C1 9626   3.693   3.029  15.254 -0.6267 -0.4078  0.2022
  647TMC3    C2 9627   3.607   2.964  15.344  0.1508  0.5108  0.7824
  647TMC3    C3 9628   3.660   2.903  15.456 -0.5385 -0.0543 -0.7525
  647TMC3    C4 9629   3.833   3.027  15.273  0.5402 -0.4818  0.2136
  647TMC3    C5 9630   3.874   2.974  15.394  0.5506  0.2006  0.0896
  647TMC3    C6 9631   3.794   2.914  15.489  0.7567  0.2841 -0.4407
  647TMC3     C 9632   3.621   3.072  15.132 -0.0415 -0.4296  0.3107
  647TMC3     O 9633   3.503   3.106  15.152 -0.3118  0.1377 -0.6823
  647TMC3     H 9634   3.500   2.963  15.328  0.2751 -0.8830  0.0459
  647TMC3    H1 9635   3.907   3.071  15.207 -0.6134  1.1091 -0.0280
  647TMC3    H2 9636   3.837   2.874  15.580 -2.9553 -2.7627 -0.0130
  647TMC3    C7 9637   4.013   2.940  15.407  0.7805 -0.0377  0.0191
  647TMC3    C8 9638   3.599   2.779  15.503  0.1071 -0.3082 -0.7120
  647TMC3    O1 9639   4.058   2.950  15.521  0.1759 -0.3221  0.4916
  647TMC3    O2 9640   3.657   2.714  15.588  0.0070  0.5685  0.8715
  648TMC3    C1 9641   2.987   0.589  16.205  0.5459 -0.1420  0.4845
  648TMC3    C2 9642   3.047   0.478  16.162  0.1663  0.3758 -0.6743
  648TMC3    C3 9643   3.025   0.438  16.030 -0.0714  0.0468  0.0049
  648TMC3    C4 9644   2.899   0.670  16.124 -0.8936 -0.4591 -0.4918
  648TMC3    C5 9645   2.886   0.630  15.998  0.1684 -0.7964  0.7094
  648TMC3    C6 9646   2.953   0.519  15.948  0.2130 -0.0395 -0.1298
  648TMC3     C 9647   2.975   0.618  16.349 -0.2878  0.6364 -0.3210
  648TMC3     O 9648   2.933   0.728  16.371 -0.3855 -0.3406  0.0200
  648TMC3     H 9649   3.112   0.425  16.230 -1.0129  0.7980  0.7891
  648TMC3    H1 9650   2.856   0.758  16.169  0.9784 -0.8753  2.1369
  648TMC3    H2 9651   2.940   0.474  15.850 -0.0167  0.1226 -0.1734
  648TMC3    C7 9652   2.793   0.699  15.911  0.0694  0.5913  0.7720
  648TMC3    C8 9653   3.093   0.325  15.973  0.1178 -1.0251  0.3059
  648TMC3    O1 9654   2.797   0.670  15.792 -0.0007  0.7516 -0.0700
  648TMC3    O2 9655   3.123   0.322  15.854  0.4865 -0.0239  0.7708
  649TMC3    C1 9656   1.399   2.039  12.956 -0.2886 -0.2280  0.5173
  649TMC3    C2 9657   1.538   2.053  12.936 -0.3035  0.4778 -0.5590
  649TMC3    C3 9658   1.614   2.033  13.046 -0.1491  0.0825 -0.0184
  649TMC3    C4 9659   1.344   2.020  13.080  0.2436 -0.5476 -0.2807
  649TMC3    C5 9660   1.424   2.000  13.189 -0.4389  0.5338 -0.5483
  649TMC3    C6 9661   1.562   2.010  13.172  0.1663 -0.0232  0.4712
  649TMC3     C 9662   1.296   2.054  12.856  0.2936 -0.2431 -0.1900
  649TMC3     O 9663   1.173   2.067  12.885 -0.4467 -0.7959  0.3222
  649TMC3     H 9664   1.577   2.072  12.837  1.6503 -0.5793  0.0103
  649TMC3    H1 9665   1.236   2.020  13.092  0.2477  1.6461 -0.1899
  649TMC3    H2 9666   1.626   2.002  13.259  1.4387 -2.8494 -0.7231
  649TMC3    C7 9667   1.368   1.897  13.264  0.0315  0.2043 -0.7566
  649TMC3    C8 9668   1.759   2.004  13.041 -0.3817 -0.7145 -0.0927
  649TMC3    O1 9669   1.247   1.879  13.258 -0.3006  0.1307 -0.1239
  649TMC3    O2 9670   1.804   1.942  13.136 -0.2484  0.7806  0.2828
  650TMC3    C1 9671   4.098   3.141  13.219  1.0630  0.2148 -0.0736
  650TMC3    C2 9672   4.001   3.218  13.278  0.0443  0.0846  0.6148
  650TMC3    C3 9673   3.896   3.260  13.201  0.1446 -0.2721 -0.4169
  650TMC3    C4 9674   4.099   3.098  13.087  0.7019 -0.9029  1.0729
  650TMC3    C5 9675   3.983   3.132  13.018  0.5314 -0.3203  0.0944
  650TMC3    C6 9676   3.883   3.204  13.077 -0.2084 -0.2710 -0.7935
  650TMC3     C 9677   4.222   3.127  13.288  0.0044 -0.7031 -0.3575
  650TMC3     O 9678   4.246   3.220  13.360 -0.0326 -0.0325 -0.4296
  650TMC3     H 9679   4.017   3.237  13.383  2.1507 -3.2049  0.8946
  650TMC3    H1 9680   4.178   3.043  13.037  0.4928 -0.1599 -0.0769
  650TMC3    H2 9681   3.797   3.233  13.018 -1.0554 -1.2655 -0.0514
  650TMC3    C7 9682   4.007   3.180  12.883 -0.8788  0.1192  0.1424
  650TMC3    C8 9683   3.877   3.404  13.210  0.0784  0.6892  0.1788
  650TMC3    O1 9684   4.058   3.114  12.793 -0.3056 -0.3461  0.2534
  650TMC3    O2 9685   3.918   3.460  13.111  0.0255 -0.0345  0.3647
  651MPD2     C 9686   2.705   0.807  10.394 -0.1873 -0.9341  0.6142
  651MPD2    C1 9687   2.723   0.872  10.508 -0.3607  0.2501 -0.7521
  651MPD2    C2 9688   2.852   0.911  10.545 -0.4418  0.6193  0.7100
  651MPD2    C3 9689   2.963   0.878  10.469  0.0002  0.6871 -0.9993
  651MPD2    C4 9690   2.943   0.820  10.347  0.0759 -0.1208  0.3144
  651MPD2    C5 9691   2.811   0.801  10.316  0.8502  0.0958  0.0096
  651MPD2     H 9692   2.861   0.965  10.639  0.4941  0.6271  0.6181
  651MPD2    H1 9693   3.013   0.797  10.268 -2.3750  0.0377 -1.8945
  651MPD2    H2 9694   2.611   0.783  10.346 -1.0854  2.7994  0.5460
  651MPD2    H3 9695   2.779   0.769  10.217  2.4949 -1.0785 -0.1457
  651MPD2     N 9696   3.095   0.900  10.525  0.3566 -0.2572 -0.2047
  651MPD2    H5 9697   3.087   0.948  10.615 -1.7335  0.3541 -0.7102
  651MPD2    N1 9698   2.619   0.896  10.602  0.7777 -0.4608 -0.5244
  651MPD2    H7 9699   2.641   0.966  10.672  0.3828 -1.0612  0.2016
  652TMC3    C1 9700   3.556   0.906  10.544  0.6828  0.3027 -0.3342
  652TMC3    C2 9701   3.449   0.833  10.518  0.1545 -0.3956  0.0618
  652TMC3    C3 9702   3.329   0.889  10.562 -0.1413 -0.4472 -0.0733
  652TMC3    C4 9703   3.555   1.033  10.583 -0.0967  0.3559  0.4393
  652TMC3    C5 9704   3.432   1.090  10.611  0.2796  1.2640  0.4827
  652TMC3    C6 9705   3.318   1.015  10.613 -0.7669 -0.2152  0.6837
  652TMC3     C 9706   3.672   0.842  10.600  0.3436  0.6009  0.6640
  652TMC3     O 9707   3.661   0.809  10.714 -0.7297 -0.2133  0.5794
  652TMC3     H 9708   3.457   0.729  10.489 -0.8864 -0.5626  0.3756
  652TMC3    H1 9709   3.651   1.083  10.593 -0.3588  0.8040  0.7293
  652TMC3    H2 9710   3.224   1.063  10.636 -1.3852 -0.1889 -1.9320
  652TMC3    C7 9711   3.423   1.221  10.680 -0.0479 -0.0679 -0.8820
  652TMC3    C8 9712   3.213   0.839  10.489  0.0338 -0.2521 -0.0203
  652TMC3    O1 9713   3.327   1.231  10.750  0.2397 -0.5040  0.4057
  652TMC3    O2 9714   3.229   0.756  10.399 -0.0872 -0.0299 -0.1319
  653MPD2     C 9715   1.897   0.464  17.691 -0.5801 -1.0144  0.6277
  653MPD2    C1 9716   1.877   0.554  17.585 -0.3733  0.0117 -0.1938
  653MPD2    C2 9717   1.835   0.495  17.468 -0.3723  0.8061  0.1640
  653MPD2    C3 9718   1.810   0.358  17.455 -0.0899  0.4743 -1.1251
  653MPD2    C4 9719   1.825   0.278  17.564  0.2063  0.3050  0.0269
  653MPD2    C5 9720   1.870   0.327  17.681  0.8469 -0.4314 -0.4424
  653MPD2     H 9721   1.813   0.564  17.387 -2.3701 -0.9143 -0.7415
  653MPD2    H1 9722   1.805   0.172  17.569  1.3464  0.1645  1.6114
  653MPD2    H2 9723   1.943   0.487   0.044  1.4270  1.7632 -1.0371
  653MPD2    H3 9724   1.881   0.261   0.024 -0.2569  0.1742  0.1757
  653MPD2     N 9725   1.763   0.307  17.331  0.3786 -0.2583 -0.1021
  653MPD2    H5 9726   1.735   0.365  17.252 -0.5536 -1.4214 -0.6253
  653MPD2    N1 9727   1.897   0.697  17.594  0.6541  0.4277 -0.0334
  653MPD2    H7 9728   1.887   0.751  17.509 -0.7775 -1.5123 -1.1144
  654TMC3    C1 9729   1.725   0.140  17.166  0.2716  0.5196  0.0253
  654TMC3    C2 9730   1.704   0.236  17.071  0.0677  0.7162  0.5237
  654TMC3    C3 9731   1.684   0.197  16.940  0.4456  0.2819 -0.3666
  654TMC3    C4 9732   1.723   0.004  17.130 -0.3453  0.0854 -0.8183
  654TMC3    C5 9733   1.716   4.707  16.999  0.6674  0.8736  0.4417
  654TMC3    C6 9734   1.698   0.065  16.903  0.1684 -0.2177  0.0929
  654TMC3     C 9735   1.769   0.173  17.303  0.8961  0.2313  0.7659
  654TMC3     O 9736   1.791   0.079  17.374 -0.6128  0.1682 -0.1340
  654TMC3     H 9737   1.699   0.340  17.100 -1.1765  1.0608 -0.8774
  654TMC3    H1 9738   1.733   4.672  17.213  0.6776 -0.0250 -1.0325
  654TMC3    H2 9739   1.680   0.032  16.802 -1.9382 -2.4014  1.1762
  654TMC3    C7 9740   1.693   4.576  16.951  0.2033 -0.6119 -0.0593
  654TMC3    C8 9741   1.635   0.307  16.852  0.0923  0.7670  0.3066
  654TMC3    O1 9742   1.643   4.557  16.840 -0.8639 -0.1434  0.2014
  654TMC3    O2 9743   1.633   0.426  16.888  0.2485 -0.2435  0.4197
  655MPD2     C 9744   3.250   0.607  15.662 -0.4397  0.3529 -1.0528
  655MPD2    C1 9745   3.229   0.723  15.591  0.4592 -0.2779 -0.1676
  655MPD2    C2 9746   3.244   0.728  15.453 -0.1848  0.0516  0.2491
  655MPD2    C3 9747   3.276   0.616  15.384  0.8634  0.6179  0.0718
  655MPD2    C4 9748   3.305   0.501  15.452 -0.1356  0.7583  0.2542
  655MPD2    C5 9749   3.287   0.501  15.587  0.5383 -0.0988 -0.7779
  655MPD2     H 9750   3.211   0.817  15.400  2.8806  0.2837 -1.2537
  655MPD2    H1 9751   3.313   0.406  15.400  1.2658  1.5601 -1.0008
  655MPD2    H2 9752   3.244   0.604  15.770 -1.2820  1.6032 -1.0592
  655MPD2    H3 9753   3.289   0.403  15.634  1.5496  1.2420  1.9928
  655MPD2     N 9754   3.274   0.612  15.248 -0.1532 -0.0000  0.1197
  655MPD2    H5 9755   3.283   0.522  15.203 -0.5246  0.0632 -0.0798
  655MPD2    N1 9756   3.172   0.839  15.657 -0.0357  0.7140  0.1385
  655MPD2    H7 9757   3.160   0.924  15.602 -1.1841  0.2440 -0.3426
  656TMC3    C1 9758   3.049   0.975  15.805 -0.4218 -1.3939 -0.7147
  656TMC3    C2 9759   3.018   0.998  15.936 -0.5196  0.3172  0.0534
  656TMC3    C3 9760   2.931   1.095  15.969 -0.0513 -0.2076 -0.3182
  656TMC3    C4 9761   2.992   1.043  15.704 -1.1350  0.1958  0.1079
  656TMC3    C5 9762   2.884   1.118  15.738 -0.3430  0.5897  0.0554
  656TMC3    C6 9763   2.852   1.146  15.873  0.7009  0.5862  0.4102
  656TMC3     C 9764   3.117   0.844  15.783  0.4947 -0.0933 -0.0683
  656TMC3     O 9765   3.114   0.760  15.870  0.3359 -0.3442 -0.0427
  656TMC3     H 9766   3.066   0.932  16.008 -1.5948 -0.1817  0.3097
  656TMC3    H1 9767   3.015   1.023  15.600  1.3505 -1.3296  0.9388
  656TMC3    H2 9768   2.770   1.212  15.897  0.1165 -0.1912  0.5711
  656TMC3    C7 9769   2.784   1.137  15.636  1.4143  0.1556  0.3397
  656TMC3    C8 9770   2.879   1.079  16.105  0.4390 -0.1776 -0.7448
  656TMC3    O1 9771   2.813   1.117  15.520  0.1816  0.4865 -0.4506
  656TMC3    O2 9772   2.900   0.978  16.165 -0.1118 -0.3788  0.3482
  657TMC3    C1 9773   2.399   4.676  14.604  0.7197  0.1903  0.4568
  657TMC3    C2 9774   2.357   4.632  14.723  0.1928 -0.7038  0.0110
  657TMC3    C3 9775   2.276   4.711  14.791 -0.4057  0.3525  0.1714
  657TMC3    C4 9776   2.372   0.069  14.554  0.7205  0.0545 -0.1027
  657TMC3    C5 9777   2.296   0.145  14.632 -0.2846  0.0119  0.5238
  657TMC3    C6 9778   2.242   0.101  14.750  0.0165 -0.4289  0.6297
  657TMC3     C 9779   2.498   4.598  14.529  0.0732 -0.3075 -0.5495
  657TMC3     O 9780   2.487   4.594  14.405 -0.6132  0.3893  0.1761
  657TMC3     H 9781   2.367   4.529  14.754 -2.5154 -1.2295 -0.8115
  657TMC3    H1 9782   2.406   0.095  14.455  3.0428  0.3082  0.7653
  657TMC3    H2 9783   2.193   0.162  14.825 -0.8536  1.3942 -1.4203
  657TMC3    C7 9784   2.235   0.263  14.578  0.7719  0.3513  0.5754
  657TMC3    C8 9785   2.220   4.650  14.907  0.4109  0.8287 -0.2174
  657TMC3    O1 9786   2.129   0.293  14.623 -0.1956  0.3970  0.3217
  657TMC3    O2 9787   2.241   4.534  14.931 -0.2870  0.2028 -0.4813
  658MPD2     C 9788   3.523   0.965  14.583 -0.4983 -0.0573 -0.3817
  658MPD2    C1 9789   3.398   0.913  14.577  1.0010  0.3252  0.3656
  658MPD2    C2 9790   3.324   0.933  14.459 -0.0347 -0.0687  0.0977
  658MPD2    C3 9791   3.372   1.001  14.355 -0.5393  0.2670 -0.5141
  658MPD2    C4 9792   3.497   1.049  14.356 -0.3554 -0.3187  0.8530
  658MPD2    C5 9793   3.576   1.034  14.472 -0.5660  0.2763 -0.4293
  658MPD2     H 9794   3.220   0.903  14.455 -0.0974  0.0442  0.9405
  658MPD2    H1 9795   3.547   1.093  14.271  1.8265  0.8737  2.7594
  658MPD2    H2 9796   3.589   0.942  14.665 -0.5215  0.5766 -0.1832
  658MPD2    H3 9797   3.675   1.077  14.476 -0.1121 -0.5350 -2.5361
  658MPD2     N 9798   3.292   1.008  14.238  0.4233 -0.5566  0.1722
  658MPD2    H5 9799   3.203   0.959  14.242  1.4135 -2.4540 -0.6086
  658MPD2    N1 9800   3.346   0.835  14.678 -0.1793  0.6472 -0.3459
  658MPD2    H7 9801   3.413   0.810  14.750 -1.0750 -2.2062 -0.4959
  659TMC3    C1 9802   3.183   0.717  14.805  0.3349 -0.3190 -0.0626
  659TMC3    C2 9803   3.253   0.748  14.917  0.4606  0.2415 -0.2647
  659TMC3    C3 9804   3.218   0.670  15.029  0.3397 -0.4139  0.3777
  659TMC3    C4 9805   3.080   0.631  14.800 -0.1403  0.3248  0.2965
  659TMC3    C5 9806   3.065   0.547  14.898  0.3820  0.5564  0.1093
  659TMC3    C6 9807   3.131   0.568  15.019 -0.0635  0.0972  0.8045
  659TMC3     C 9808   3.213   0.785  14.687 -0.8172  0.3844  0.1820
  659TMC3     O 9809   3.112   0.804  14.623  0.0827  0.0028  0.2355
  659TMC3     H 9810   3.319   0.834  14.925  3.4051 -1.8542 -1.9570
  659TMC3    H1 9811   3.032   0.609  14.705 -0.8211  0.0353  0.7074
  659TMC3    H2 9812   3.089   0.537  15.114 -0.8378 -1.2566  0.0263
  659TMC3    C7 9813   2.933   0.488  14.914 -0.0141  0.4838  0.7155
  659TMC3    C8 9814   3.247   0.714  15.162  0.0475  0.5080 -0.5603
  659TMC3    O1 9815   2.918   0.427  15.022 -0.3351  0.8696 -0.3273
  659TMC3    O2 9816   3.267   0.834  15.177  0.7513 -0.1895 -0.3891
  660MPD2     C 9817   1.525   3.825  12.993  0.0206  0.0988  0.6732
  660MPD2    C1 9818   1.400   3.868  12.959  0.1322 -0.2104  0.0281
  660MPD2    C2 9819   1.299   3.843  13.050 -0.3843 -0.6963 -0.0616
  660MPD2    C3 9820   1.325   3.785  13.176 -0.1319 -0.0764 -0.1823
  660MPD2    C4 9821   1.460   3.751  13.206 -0.8439  0.0689  1.1613
  660MPD2    C5 9822   1.556   3.778  13.113 -0.1528  0.2909 -0.6542
  660MPD2     H 9823   1.200   3.883  13.030 -1.3869 -2.1925  2.0255
  660MPD2    H1 9824   1.495   3.713  13.301 -3.4414  2.9595  3.2696
  660MPD2    H2 9825   1.606   3.828  12.921  2.1252  0.6212  3.0601
  660MPD2    H3 9826   1.660   3.756  13.134 -1.2109 -3.2621  0.9037
  660MPD2     N 9827   1.228   3.780  13.278 -0.6804  0.2885 -0.6585
  660MPD2    H5 9828   1.262   3.760  13.371  1.8993  0.6839 -1.4876
  660MPD2    N1 9829   1.389   3.944  12.831 -0.3540 -0.1181 -0.8778
  660MPD2    H7 9830   1.474   3.967  12.781 -0.4428 -1.4598 -1.6365
  661TMC3    C1 9831   1.298   4.072  12.655  0.6981 -0.2324  0.9127
  661TMC3    C2 9832   1.394   4.025  12.566  0.0802  0.1464  0.8897
  661TMC3    C3 9833   1.375   4.069  12.437 -0.1853 -0.7378 -0.0352
  661TMC3    C4 9834   1.191   4.149  12.614  0.4362  0.4336  0.3301
  661TMC3    C5 9835   1.172   4.188  12.485 -0.4234  0.0683 -0.3558
  661TMC3    C6 9836   1.268   4.150  12.396 -0.0777  0.1169  0.3664
  661TMC3     C 9837   1.277   3.997  12.776  0.5177 -0.6419  0.5475
  661TMC3     O 9838   1.165   3.996  12.814 -0.6707 -0.3013 -0.4061
  661TMC3     H 9839   1.471   3.952  12.586  0.5133  0.4027  0.1797
  661TMC3    H1 9840   1.112   4.168  12.686  2.4869  1.0944  2.4164
  661TMC3    H2 9841   1.252   4.155  12.289 -0.2113  0.6152  0.4075
  661TMC3    C7 9842   1.042   4.205  12.424  0.5816  0.3326  0.3801
  661TMC3    C8 9843   1.455   4.001  12.336 -0.1826  0.4830  0.2114
  661TMC3    O1 9844   1.030   4.180  12.306 -0.2687 -0.7170  0.2510
  661TMC3    O2 9845   1.458   3.882  12.323  0.2268 -0.2783  0.4472
  662MPD2     C 9846   1.094   4.512  17.035  0.5280 -0.0746 -0.0770
  662MPD2    C1 9847   1.093   4.425  17.147  0.9604 -0.6362  0.0577
  662MPD2    C2 9848   1.072   4.486  17.267 -0.1135 -0.7905  0.5104
  662MPD2    C3 9849   1.046   4.622  17.279  0.2483 -0.1564 -0.4699
  662MPD2    C4 9850   1.041   4.700  17.170  0.1356 -0.1968  0.3816
  662MPD2    C5 9851   1.064   4.644  17.047 -0.1672 -0.0294 -0.1692
  662MPD2     H 9852   1.060   4.425  17.356  0.8556 -1.0500  0.4567
  662MPD2    H1 9853   1.013   0.069  17.171 -2.9374 -1.0174  0.3602
  662MPD2    H2 9854   1.106   4.470  16.936 -0.6893  1.3424 -0.8101
  662MPD2    H3 9855   1.048   4.697  16.954  0.2947 -1.4837 -1.0804
  662MPD2     N 9856   1.005   4.682  17.405  0.3617 -0.1057  0.3426
  662MPD2    H5 9857   0.986   0.046  17.400  0.6315  0.0316  2.3678
  662MPD2    N1 9858   1.115   4.287  17.143  0.1370 -0.3014 -0.2929
  662MPD2    H7 9859   1.085   4.241  17.228 -0.3939 -1.5195 -1.1310
  663TMC3    C1 9860   1.183   4.072  17.085 -0.2019 -0.1025 -0.4214
  663TMC3    C2 9861   1.210   4.043  17.218 -0.1126  0.0687 -0.5933
  663TMC3    C3 9862   1.225   3.914  17.267  0.5765  0.1819  0.5097
  663TMC3    C4 9863   1.193   3.977  16.993  0.4482 -0.3953 -0.1958
  663TMC3    C5 9864   1.223   3.848  17.033 -0.3468  0.1142 -0.4522
  663TMC3    C6 9865   1.238   3.820  17.169 -0.0752  0.2824 -0.2054
  663TMC3     C 9866   1.163   4.214  17.039  0.7271 -0.0766  0.4454
  663TMC3     O 9867   1.185   4.246  16.919 -0.1700  0.1324 -0.3258
  663TMC3     H 9868   1.181   4.114  17.295 -1.5743  0.9288 -1.9565
  663TMC3    H1 9869   1.165   4.000  16.891 -2.7070  0.0536  0.7645
  663TMC3    H2 9870   1.217   3.721  17.208 -0.0927  0.8177  1.1448
  663TMC3    C7 9871   1.198   3.745  16.936 -0.2871 -0.3213  0.0948
  663TMC3    C8 9872   1.128   3.878  17.367  0.5612  0.6822  0.4152
  663TMC3    O1 9873   1.131   3.780  16.840 -0.3173  0.3302  0.0904
  663TMC3    O2 9874   1.039   3.807  17.326  0.1711 -0.4995 -0.0567
  664MPD2     C 9875   4.480   1.633   0.009 -0.3385  0.0815  0.0493
  664MPD2    C1 9876   4.448   1.769   0.023 -0.0650 -0.6655 -0.0826
  664MPD2    C2 9877   4.420   1.808   0.152 -0.5432  0.2518  0.4795
  664MPD2    C3 9878   4.441   1.726   0.264  0.3454 -0.6461  0.8346
  664MPD2    C4 9879   4.487   1.596   0.245  0.5456 -0.3091  0.2535
  664MPD2    C5 9880   4.504   1.546   0.122 -0.0405 -0.1577  0.0623
  664MPD2     H 9881   4.386   1.908   0.176  0.2070  0.3500  1.1245
  664MPD2    H1 9882   4.500   1.529   0.329 -0.7941 -0.3809  0.3995
  664MPD2    H2 9883   4.489   1.594  17.650  1.8400  1.1339 -0.1440
  664MPD2    H3 9884   4.524   1.442   0.097  1.1613  0.4088 -1.3543
  664MPD2     N 9885   4.443   1.791   0.391 -0.2192 -0.1975  0.1674
  664MPD2    H5 9886   4.402   1.884   0.390 -1.0892 -0.5765 -0.6354
  664MPD2    N1 9887   4.454   1.869  17.661 -0.2434  0.3399  0.1477
  664MPD2    H7 9888   4.439   1.965  17.689  2.0345  0.0654  2.3995
  665TMC3    C1 9889   4.509   1.828   0.607  0.0792  0.9454 -0.2974
  665TMC3    C2 9890   4.501   1.785   0.737 -0.1178 -0.1972  0.4549
  665TMC3    C3 9891   4.532   1.872   0.840  0.2571 -0.1626 -0.4855
  665TMC3    C4 9892   4.548   1.952   0.574 -0.4927 -0.4385 -0.3936
  665TMC3    C5 9893   4.577   2.036   0.681 -0.5053  0.1895 -0.1498
  665TMC3    C6 9894   4.575   2.000   0.811 -1.1217  0.0256  0.3619
  665TMC3     C 9895   4.488   1.731   0.502 -0.0161 -0.4204 -1.0978
  665TMC3     O 9896   4.492   1.616   0.533  0.1252 -0.0547  0.3806
  665TMC3     H 9897   4.486   1.680   0.761 -0.0098 -0.0525  1.1447
  665TMC3    H1 9898   4.562   1.993   0.475  2.7185 -0.1745  0.1604
  665TMC3    H2 9899   4.605   2.058   0.897  0.5895  0.6959 -0.6914
  665TMC3    C7 9900   4.605   2.173   0.654  0.1352 -0.6122 -0.3927
  665TMC3    C8 9901   4.488   1.858   0.980  0.7281  0.5825  0.5225
  665TMC3    O1 9902   4.580   2.206   0.539  0.2747  0.5052  0.0389
  665TMC3    O2 9903   4.541   1.925   1.067 -0.1277 -0.1918  0.0505
  666TMC3    C1 9904   3.791   1.706   9.699  0.6270  0.5196  0.1330
  666TMC3    C2 9905   3.882   1.652   9.782  0.1514  0.0830  0.6690
  666TMC3    C3 9906   3.965   1.745   9.840 -0.1434 -0.0942 -0.9977
  666TMC3    C4 9907   3.765   1.841   9.687  0.3588 -0.3605 -0.0394
  666TMC3    C5 9908   3.859   1.934   9.738  0.2639  0.4893  0.3430
  666TMC3    C6 9909   3.953   1.886   9.823  0.1621 -0.4187 -0.3265
  666TMC3     C 9910   3.695   1.612   9.632  0.6726 -0.7859  0.5450
  666TMC3     O 9911   3.656   1.654   9.522  0.2061  0.0842  0.4307
  666TMC3     H 9912   3.890   1.544   9.783  1.5147  0.1740 -1.9860
  666TMC3    H1 9913   3.695   1.873   9.611  0.7546  3.3855  1.1863
  666TMC3    H2 9914   4.013   1.952   9.883 -0.5471 -0.3403  0.2947
  666TMC3    C7 9915   3.806   2.068   9.768  0.1150  0.0374  0.0136
  666TMC3    C8 9916   4.051   1.702   9.949  0.1368 -0.3805  0.8601
  666TMC3    O1 9917   3.688   2.077   9.747  0.5115 -0.6389  0.2339
  666TMC3    O2 9918   4.008   1.620  10.027  0.1743  0.5580 -0.0697
  667MPD2     C 9919   1.044   2.094  14.836  0.0183 -0.0099  0.4527
  667MPD2    C1 9920   0.972   2.114  14.954 -0.5615  0.4542  0.1696
  667MPD2    C2 9921   0.840   2.079  14.956  0.0777 -0.4643 -0.6089
  667MPD2    C3 9922   0.776   2.026  14.846 -0.3336 -0.0517 -0.1043
  667MPD2    C4 9923   0.849   1.994  14.737  0.3465 -0.5288  0.9311
  667MPD2    C5 9924   0.980   2.034  14.733  1.0782  0.0345  0.6183
  667MPD2     H 9925   0.783   2.086  15.048 -0.2501  0.2036 -0.8624
  667MPD2    H1 9926   0.808   1.951  14.646  1.8843 -0.9270  0.4131
  667MPD2    H2 9927   1.149   2.119  14.822 -0.5598  0.6913 -2.7377
  667MPD2    H3 9928   1.040   2.002  14.649  0.2765 -1.8629  0.7515
  667MPD2     N 9929   0.644   1.977  14.843 -0.1530 -1.0907  0.3407
  667MPD2    H5 9930   0.626   1.903  14.776 -1.1155 -0.9637  0.4652
  667MPD2    N1 9931   1.024   2.183  15.069 -0.1627 -0.0815 -1.0503
  667MPD2    H7 9932   0.970   2.187  15.154  2.3725  0.8670  0.5351
  668TMC3    C1 9933   1.140   2.351  15.196 -0.0313  0.3972  0.6825
  668TMC3    C2 9934   1.170   2.482  15.183 -0.0333  0.0412  0.0279
  668TMC3    C3 9935   1.184   2.553  15.301 -0.1560 -0.3564 -0.4452
  668TMC3    C4 9936   1.108   2.283  15.314 -0.1317  0.8034  0.3608
  668TMC3    C5 9937   1.108   2.367  15.424 -0.5948  0.6649 -0.3184
  668TMC3    C6 9938   1.152   2.497  15.424  0.1076  0.4120 -1.0129
  668TMC3     C 9939   1.131   2.273  15.066 -0.0277  0.5488  0.1980
  668TMC3     O 9940   1.193   2.312  14.969 -0.6827 -0.9843 -0.2048
  668TMC3     H 9941   1.166   2.524  15.084  0.5786 -1.4558 -0.6263
  668TMC3    H1 9942   1.083   2.177  15.318  4.6163 -0.3491 -1.2110
  668TMC3    H2 9943   1.142   2.561  15.511 -0.4897  1.7627 -2.0591
  668TMC3    C7 9944   1.085   2.310  15.556 -0.0332  0.0722  0.1911
  668TMC3    C8 9945   1.215   2.692  15.298 -0.1617  0.3096  0.3349
  668TMC3    O1 9946   1.119   2.376  15.657 -0.3276 -0.0112 -0.4392
  668TMC3    O2 9947   1.208   2.749  15.403 -0.6562 -0.0486  0.7306
  669TMC3    C1 9948   3.453   2.176  14.488 -0.1764  0.1708  0.2175
  669TMC3    C2 9949   3.347   2.171  14.398  0.2890 -0.0281  0.2235
  669TMC3    C3 9950   3.327   2.278  14.319 -0.0418 -0.5542  0.5144
  669TMC3    C4 9951   3.532   2.286  14.492  0.2063  0.8014 -0.4481
  669TMC3    C5 9952   3.502   2.396  14.418  0.3880 -0.1364 -0.1196
  669TMC3    C6 9953   3.407   2.387  14.317 -0.2172  0.3787 -0.6408
  669TMC3     C 9954   3.430   2.091  14.604  0.7702 -0.1066 -0.3186
  669TMC3     O 9955   3.361   1.992  14.585  0.1480 -0.1637  0.1613
  669TMC3     H 9956   3.270   2.094  14.402  0.7479 -0.6347 -2.7144
  669TMC3    H1 9957   3.620   2.276  14.555  0.9333  1.6455 -1.3438
  669TMC3    H2 9958   3.392   2.463  14.242  0.1878  1.4346  0.3575
  669TMC3    C7 9959   3.616   2.481  14.391 -0.0248 -0.9398 -0.5834
  669TMC3    C8 9960   3.220   2.264  14.224 -0.1680 -0.0529 -0.1926
  669TMC3    O1 9961   3.619   2.544  14.285 -0.6736 -0.4262 -0.6554
  669TMC3    O2 9962   3.199   2.147  14.186  0.2867  0.7445 -0.4043
  670MPD2     C 9963   1.328   4.589  13.525 -0.5496  1.1789  0.1893
  670MPD2    C1 9964   1.411   4.692  13.574 -0.8785 -0.0531 -0.2642
  670MPD2    C2 9965   1.402   4.724  13.708 -0.5592 -0.2811  0.2286
  670MPD2    C3 9966   1.328   4.642  13.792 -0.3296 -0.7174 -0.1326
  670MPD2    C4 9967   1.244   4.544  13.738  0.3790  0.7913  0.3448
  670MPD2    C5 9968   1.236   4.525  13.600  0.5091 -0.1831  0.0217
  670MPD2     H 9969   1.466   0.064  13.751 -1.8793  0.8807  0.1444
  670MPD2    H1 9970   1.186   4.477  13.800 -3.7454  1.8917 -2.3719
  670MPD2    H2 9971   1.331   4.560  13.421 -0.7619 -0.8125  0.7396
  670MPD2    H3 9972   1.170   4.446  13.564  2.5729 -1.6980 -0.4477
  670MPD2     N 9973   1.359   4.655  13.932 -0.9990  0.5552  0.6249
  670MPD2    H5 9974   1.419   4.732  13.958  0.6595 -0.8286  0.9567
  670MPD2    N1 9975   1.496   0.036  13.494  0.2830  0.1922  0.0064
  670MPD2    H7 9976   1.524   0.124  13.537  1.7792 -1.1281  1.7465
  671TMC3    C1 9977   1.348   4.613  14.160 -0.2383 -0.3881  0.3997
  671TMC3    C2 9978   1.479   4.631  14.172  0.4291 -0.1488  0.2865
  671TMC3    C3 9979   1.540   4.583  14.280  0.1559  0.0251  0.2213
  671TMC3    C4 9980   1.275   4.565  14.265 -0.3348 -0.4843 -0.2294
  671TMC3    C5 9981   1.335   4.520  14.380 -0.3000  0.0943 -0.8932
  671TMC3    C6 9982   1.473   4.536  14.394  0.3228  0.0467 -0.5298
  671TMC3     C 9983   1.300   4.580  14.030  0.1262 -0.2187 -0.1988
  671TMC3     O 9984   1.215   4.493  14.028  0.0030 -0.3684  0.9666
  671TMC3     H 9985   1.542   4.641  14.084 -0.0967  3.3326  0.3173
  671TMC3    H1 9986   1.176   4.532  14.235 -1.6837  1.4908  2.0840
  671TMC3    H2 9987   1.527   4.509  14.484 -1.8390  0.9604  1.0253
  671TMC3    C7 9988   1.277   4.394  14.434 -0.3828 -0.0474 -0.1260
  671TMC3    C8 9989   1.668   4.515  14.263 -0.3138  0.3338 -0.3010
  671TMC3    O1 9990   1.193   4.337  14.366  0.2640 -0.1988  0.4561
  671TMC3    O2 9991   1.691   4.424  14.337  0.1164 -0.0784 -0.2198
  672MPD2     C 9992   2.172   0.131   0.038 -0.3238 -0.3937  0.9818
  672MPD2    C1 9993   2.118   0.178   0.150  0.5784  1.0330 -0.7432
  672MPD2    C2 9994   2.169   0.285   0.212 -0.5108  0.1088  0.2827
  672MPD2    C3 9995   2.285   0.350   0.168 -0.1567  0.3637 -0.8585
  672MPD2    C4 9996   2.339   0.298   0.056 -0.3978 -0.2793  0.5667
  672MPD2    C5 9997   2.283   0.188  17.730  0.0768  0.0240 -0.3604
  672MPD2     H 9998   2.117   0.323   0.300 -0.9979 -1.2597  0.5844
  672MPD2    H1 9999   2.436   0.330   0.022 -0.8266  1.0208  0.5478
  672MPD2    H210000   2.133   0.049  17.719  1.7358 -0.4959 -0.2222
  672MPD2    H310001   2.338   0.140  17.650  1.2294 -0.9457  1.0294
  672MPD2     N10002   2.354   0.455   0.237  0.6716  0.0578 -0.1486
  672MPD2    H510003   2.449   0.482   0.212  0.5438  0.5140 -0.1465
  672MPD2    N110004   1.999   0.117   0.200 -0.3428 -0.0955 -0.0023
  672MPD2    H710005   1.975   0.150   0.293 -2.1360 -0.1486 -0.4573
  673TMC3    C110006   1.840   4.689   0.250 -0.0176  0.2539 -0.1257
  673TMC3    C210007   1.841   4.556   0.236 -0.8504 -0.2737 -0.1277
  673TMC3    C310008   1.806   4.475   0.336  0.4549 -0.0834  0.0898
  673TMC3    C410009   1.802   0.021   0.364 -0.0502  0.5821 -0.1156
  673TMC3    C510010   1.767   4.671   0.465  0.3382 -0.2236 -0.1176
  673TMC3    C610011   1.778   4.533   0.463 -0.2032 -0.3430 -0.2902
  673TMC3     C10012   1.932   0.008   0.150 -0.2988 -0.1671 -0.6457
  673TMC3     O10013   1.946   4.683   0.044  0.3287  0.0357 -0.0708
  673TMC3     H10014   1.879   4.500   0.151  0.1805 -0.3116  0.3591
  673TMC3    H110015   1.795   0.129   0.362  2.2486  0.7370  0.8192
  673TMC3    H210016   1.772   4.460   0.542 -2.2214  1.7299  1.4789
  673TMC3    C710017   1.746   4.722   0.595  0.3334  0.4912  0.5286
  673TMC3    C810018   1.892   4.361   0.333  0.1049  0.2983 -0.3016
  673TMC3    O110019   1.794   4.665   0.695  0.1104 -0.2073 -0.1391
  673TMC3    O210020   1.878   4.282   0.243 -0.3645  0.1501  0.1536
  674MPD2     C10021   1.580   0.093   0.011  0.3011 -0.1806  0.7491
  674MPD2    C110022   1.562   4.711   0.079  0.2057 -0.4077 -0.5459
  674MPD2    C210023   1.525   4.723   0.214 -0.1362 -0.3629 -0.3255
  674MPD2    C310024   1.487   0.111   0.270  0.3196  0.3502  0.0422
  674MPD2    C410025   1.506   0.224   0.199 -0.5214 -0.2548  0.0347
  674MPD2    C510026   1.553   0.216   0.074 -0.1966 -0.2309 -0.4205
  674MPD2     H10027   1.518   4.631   0.270 -1.2770 -0.3783 -0.5055
  674MPD2    H110028   1.512   0.321   0.248 -1.4089 -0.3342  0.3009
  674MPD2    H210029   1.612   0.091  17.649 -1.2579 -0.6777  0.2768
  674MPD2    H310030   1.595   0.299   0.018  1.8281 -0.9857 -0.0188
  674MPD2     N10031   1.423   0.101   0.395  0.8278 -0.1000 -0.1430
  674MPD2    H510032   1.415   0.004   0.425 -0.0141  0.3155  0.9741
  674MPD2    N110033   1.598   4.595   0.015 -0.3739 -0.7435  0.0711
  674MPD2    H710034   1.622   4.601  17.659 -1.7919  0.5866 -0.1863
  675TMC3    C110035   1.609   4.365  17.716  0.0693 -0.2438 -0.1474
  675TMC3    C210036   1.539   4.248  17.724 -0.2608  0.2082  0.2660
  675TMC3    C310037   1.563   4.145  17.645 -0.2802 -0.2855  0.6862
  675TMC3    C410038   1.714   4.376  17.630 -0.2324 -0.6048  0.4943
  675TMC3    C510039   1.736   4.277  17.545 -0.1215  0.7589  0.6435
  675TMC3    C610040   1.660   4.162  17.550 -0.2628 -0.2735  0.4566
  675TMC3     C10041   1.568   4.469   0.064 -0.3199 -0.3505  0.0090
  675TMC3     O10042   1.511   4.433   0.167  0.3293  0.5494  0.5821
  675TMC3     H10043   1.454   4.235   0.048  0.3219 -0.3335  0.9149
  675TMC3    H110044   1.773   4.467  17.623 -1.1368 -0.0841 -0.4064
  675TMC3    H210045   1.704   4.073  17.508 -2.3200 -1.2606  0.4037
  675TMC3    C710046   1.872   4.242  17.521 -0.5962  0.7999 -0.1736
  675TMC3    C810047   1.559   4.021  17.713  0.1267  0.1633 -0.7323
  675TMC3    O110048   1.903   4.181  17.420 -0.4149 -0.0643  0.4776
  675TMC3    O210049   1.548   3.920  17.645  0.0965  0.4723  0.5244
  676MPD2     C10050   4.184   3.171  11.193 -0.2782 -0.0028  0.5404
  676MPD2    C110051   4.095   3.084  11.260  0.2252  0.7788 -0.5267
  676MPD2    C210052   4.087   2.954  11.234  0.2819  0.2326  0.0508
  676MPD2    C310053   4.165   2.894  11.136 -0.6612  0.1779  0.8312
  676MPD2    C410054   4.248   2.974  11.056 -0.2235  0.2621 -0.0647
  676MPD2    C510055   4.251   3.114  11.083 -0.5500  0.0261  0.3464
  676MPD2     H10056   4.018   2.889  11.287  0.1860 -1.1720 -1.8118
  676MPD2    H110057   4.305   2.935  10.972  1.3510  1.2809  0.5182
  676MPD2    H210058   4.189   3.275  11.221  1.3632 -0.4030  1.7625
  676MPD2    H310059   4.306   3.182  11.019 -0.4953 -0.6972 -0.3757
  676MPD2     N10060   4.159   2.761  11.100  0.8689  1.0239 -0.0170
  676MPD2    H510061   4.225   2.721  11.034 -0.0613 -1.8940  0.7978
  676MPD2    N110062   4.010   3.130  11.364  0.4669 -0.1993 -0.3677
  676MPD2    H710063   3.930   3.073  11.390  0.7769 -1.3450 -1.8915
  677TMC3    C110064   3.905   3.273  11.513 -0.2842 -0.2894  0.8772
  677TMC3    C210065   3.797   3.191  11.520 -0.3196 -0.0007 -0.1656
  677TMC3    C310066   3.710   3.209  11.624  0.6503  0.3100 -0.4275
  677TMC3    C410067   3.926   3.372  11.603 -0.8483 -0.6673  0.1896
  677TMC3    C510068   3.843   3.376  11.708 -0.3131 -0.0910 -0.4139
  677TMC3    C610069   3.736   3.302  11.721  0.1463  0.2130 -0.0696
  677TMC3     C10070   4.013   3.250  11.420 -0.3051  0.8069 -1.0115
  677TMC3     O10071   4.111   3.323  11.423 -0.5728  0.0860  0.1227
  677TMC3     H10072   3.776   3.102  11.461 -0.3996 -1.6684  2.3438
  677TMC3    H110073   4.021   3.424  11.602 -1.5006  0.5380  1.4138
  677TMC3    H210074   3.659   3.313  11.796  0.0683 -2.1853  0.1964
  677TMC3    C710075   3.868   3.444  11.834  0.0825 -0.5933 -0.0471
  677TMC3    C810076   3.613   3.096  11.638 -0.6099  0.1404 -0.2400
  677TMC3    O110077   3.795   3.410  11.926  0.6993  0.0372  0.0169
  677TMC3    O210078   3.557   3.076  11.532 -0.1485 -0.1001 -0.0393
  678MPD2     C10079   0.859   3.365   1.450  0.0583 -0.3736  0.6115
  678MPD2    C110080   0.837   3.301   1.328  0.2352  0.0465 -0.3017
  678MPD2    C210081   0.715   3.279   1.285  0.4167  0.2153 -0.4026
  678MPD2    C310082   0.601   3.321   1.356 -0.5465 -0.3798 -0.3126
  678MPD2    C410083   0.617   3.394   1.469 -0.5469  0.1345 -0.4811
  678MPD2    C510084   0.744   3.415   1.518  0.4859 -0.3500 -0.4651
  678MPD2     H10085   0.702   3.231   1.189 -0.0491 -1.1193  0.3282
  678MPD2    H110086   0.532   3.419   1.532 -1.0906  0.3895 -1.3133
  678MPD2    H210087   0.955   3.382   1.499 -0.6250  1.1749  1.4185
  678MPD2    H310088   0.753   3.461   1.616  1.4212 -0.8086 -0.3396
  678MPD2     N10089   0.478   3.292   1.296 -0.2098  0.2265 -0.0612
  678MPD2    H510090   0.484   3.234   1.213 -3.8333  0.0306 -0.2069
  678MPD2    N110091   0.935   3.256   1.240  0.4274  0.8426 -0.0359
  678MPD2    H710092   0.909   3.182   1.176 -2.4038 -0.1116  2.2230
  679TMC3    C110093   1.172   3.058   0.992 -0.1883 -0.4954  0.2401
  679TMC3    C210094   1.105   3.102   1.100  0.4746  0.1104  0.2036
  679TMC3    C310095   1.151   3.221   1.159  0.6535 -0.0128 -0.4105
  679TMC3    C410096   1.288   3.118   0.945  0.5737  0.1799 -0.4978
  679TMC3    C510097   1.332   3.235   1.005 -0.0220  0.4046 -0.0655
  679TMC3    C610098   1.264   3.285   1.111 -0.2438  0.1201  0.0639
  679TMC3     C10099   1.145   2.928   0.939  0.5232 -0.4236 -0.4450
  679TMC3     O10100   1.248   2.869   0.908 -0.5694  0.1272 -0.3115
  679TMC3     H10101   1.028   3.046   1.152  0.5492  0.1643  0.3721
  679TMC3    H110102   1.340   3.079   0.859  0.6971 -2.1863  0.6408
  679TMC3    H210103   1.298   3.379   1.155 -1.4267  1.1841 -1.2704
  679TMC3    C710104   1.399   3.330   0.918  0.6075  0.8071  0.1418
  679TMC3    C810105   1.066   3.290   1.251  0.2651 -0.2736 -0.4375
  679TMC3    O110106   1.384   3.449   0.948 -0.4746 -0.8785 -0.0627
  679TMC3    O210107   1.115   3.384   1.314  0.0292  0.0345 -0.1283
  680MPD2     C10108   0.630   1.959  13.669  0.3269  0.1286  0.0530
  680MPD2    C110109   0.727   1.901  13.735 -0.3497 -0.3590  0.4528
  680MPD2    C210110   0.809   1.974  13.817  0.0421  0.0828  0.6445
  680MPD2    C310111   0.796   2.115  13.816  0.0058  0.3059  1.0621
  680MPD2    C410112   0.689   2.171  13.747 -0.4236  0.5779  1.1028
  680MPD2    C510113   0.604   2.093  13.671  0.3373  0.4268  0.0755
  680MPD2     H10114   0.877   1.913  13.876 -0.0970 -0.3040  0.4008
  680MPD2    H110115   0.679   2.279  13.740 -2.6145  0.2256 -1.3631
  680MPD2    H210116   0.565   1.896  13.609  0.5064 -0.0532  0.0492
  680MPD2    H310117   0.514   2.130  13.621  1.1272  3.3149  0.7880
  680MPD2     N10118   0.885   2.202  13.888  0.1977 -0.3259  0.0954
  680MPD2    H510119   0.854   2.298  13.890 -1.2815 -0.8092  0.5547
  680MPD2    N110120   0.758   1.767  13.728  0.2067  0.5063 -0.7989
  680MPD2    H710121   0.852   1.744  13.759 -0.1195  1.2263  0.6979
  681TMC3    C110122   0.757   1.544  13.679 -0.4246  0.3552 -0.1698
  681TMC3    C210123   0.703   1.447  13.767  0.2974 -0.0170 -0.2340
  681TMC3    C310124   0.793   1.375  13.841 -0.0371  0.1209  0.1090
  681TMC3    C410125   0.889   1.558  13.666  0.3965 -0.3153  0.0168
  681TMC3    C510126   0.978   1.483  13.744 -0.1228 -0.0963 -0.1364
  681TMC3    C610127   0.926   1.398  13.839 -0.5604 -0.2856  0.2176
  681TMC3     C10128   0.682   1.669  13.674 -0.0863  0.5135 -0.4070
  681TMC3     O10129   0.559   1.656  13.657 -0.1014  0.2931 -0.5526
  681TMC3     H10130   0.595   1.434  13.774  0.2954 -0.9845 -1.9729
  681TMC3    H110131   0.922   1.638  13.601 -0.7705  0.9821  1.0390
  681TMC3    H210132   0.991   1.334  13.899  1.3486  1.4805  0.0131
  681TMC3    C710133   1.120   1.487  13.715  0.7528  0.4395 -0.1026
  681TMC3    C810134   0.737   1.305  13.954 -0.3512  0.0140  0.3644
  681TMC3    O110135   1.191   1.431  13.799 -0.2675  0.1484 -0.1017
  681TMC3    O210136   0.623   1.254  13.936 -0.4818 -0.1904  0.1655
  682MPD2     C10137   3.219   3.017  10.596  0.8998 -0.2714 -0.5155
  682MPD2    C110138   3.169   2.889  10.597  0.0200  0.0283 -1.4731
  682MPD2    C210139   3.124   2.835  10.716  0.4935 -0.3320 -0.6316
  682MPD2    C310140   3.109   2.904  10.837  0.7847  0.3814 -0.0355
  682MPD2    C410141   3.147   3.038  10.823  0.5668 -0.1346  0.7709
  682MPD2    C510142   3.209   3.092  10.715 -0.0695  0.8762  0.0112
  682MPD2     H10143   3.103   2.729  10.728  1.6153 -0.1889  2.6585
  682MPD2    H110144   3.135   3.105  10.908  1.0369  0.3762  0.4380
  682MPD2    H210145   3.268   3.063  10.511 -1.0174  2.0602 -0.3745
  682MPD2    H310146   3.249   3.193  10.724 -0.1930  0.8579  0.7421
  682MPD2     N10147   3.074   2.845  10.957 -0.2899  0.2988  0.5434
  682MPD2    H510148   3.093   2.900  11.041 -0.3814  0.0205  0.7446
  682MPD2    N110149   3.187   2.801  10.487  0.0830 -0.1511  0.3402
  682MPD2    H710150   3.136   2.714  10.498 -0.3569  0.1993  1.0512
  683TMC3    C110151   3.031   2.686  11.325  0.4135  0.4080  0.7575
  683TMC3    C210152   3.027   2.552  11.346  0.1075  0.3581  0.1257
  683TMC3    C310153   3.016   2.475  11.233 -0.4157  0.4487  0.4723
  683TMC3    C410154   3.026   2.751  11.206 -0.0173 -0.1235 -0.5594
  683TMC3    C510155   3.007   2.664  11.102  0.3015 -0.4517  0.3922
  683TMC3    C610156   3.003   2.529  11.112 -0.4472  0.7533  0.0231
  683TMC3     C10157   3.081   2.772  11.436  0.0191 -0.2846 -0.5493
  683TMC3     O10158   3.170   2.848  11.401  0.6139  0.0249 -0.5633
  683TMC3     H10159   3.050   2.515  11.445 -0.1741  0.9779  0.4235
  683TMC3    H110160   3.020   2.859  11.200 -1.2927 -0.1571  0.2206
  683TMC3    H210161   2.990   2.473  11.020 -2.8206  0.1450  0.7362
  683TMC3    C710162   3.013   2.718  10.963  0.0711 -0.8733  0.2727
  683TMC3    C810163   3.059   2.338  11.236 -0.1487 -0.2554 -0.0226
  683TMC3    O110164   2.963   2.653  10.875 -0.4761 -0.9703  0.4195
  683TMC3    O210165   3.060   2.277  11.129  0.7182  0.0984 -0.5188
  684MPD2     C10166   1.766   2.326  16.663  0.2663 -0.1922  0.0480
  684MPD2    C110167   1.677   2.379  16.573 -0.2287 -0.3427  0.1781
  684MPD2    C210168   1.607   2.492  16.603 -0.7740 -0.1631  0.6161
  684MPD2    C310169   1.646   2.578  16.709  0.4320 -0.2550 -0.6384
  684MPD2    C410170   1.729   2.519  16.800  0.4243  0.4756  0.0005
  684MPD2    C510171   1.789   2.398  16.781 -0.0788  0.6306 -0.0166
  684MPD2     H10172   1.527   2.533  16.542 -0.0151 -2.2425 -1.7815
  684MPD2    H110173   1.756   2.582  16.884 -0.9338  0.7166  0.2639
  684MPD2    H210174   1.816   2.232  16.643  1.5536  0.5490 -0.2814
  684MPD2    H310175   1.871   2.374  16.848 -0.6803  0.0782  0.5203
  684MPD2     N10176   1.602   2.710  16.724  0.4117 -0.9155 -0.2683
  684MPD2    H510177   1.643   2.762  16.801 -0.3545  0.4306 -0.7636
  684MPD2    N110178   1.641   2.327  16.447 -0.0866 -0.0647  0.8369
  684MPD2    H710179   1.555   2.364  16.408  0.1885 -1.6308 -1.2510
  685TMC3    C110180   1.666   2.211  16.242  0.1558  0.0571  0.2343
  685TMC3    C210181   1.602   2.315  16.172  0.1598 -0.1458 -0.9823
  685TMC3    C310182   1.611   2.317  16.038 -0.0618 -0.4147  0.0707
  685TMC3    C410183   1.732   2.113  16.178  0.0052 -0.4613  0.4695
  685TMC3    C510184   1.741   2.122  16.042 -0.2508 -0.4424  0.5760
  685TMC3    C610185   1.680   2.221  15.972 -0.2405 -0.6315 -0.2997
  685TMC3     C10186   1.721   2.242  16.374 -0.1176 -0.0594  0.4246
  685TMC3     O10187   1.838   2.210  16.392  0.2565 -0.3638  0.1330
  685TMC3     H10188   1.551   2.397  16.223 -1.9288 -0.9469 -1.8248
  685TMC3    H110189   1.755   2.025  16.238  0.7276 -0.0398  0.8111
  685TMC3    H210190   1.675   2.227  15.864 -2.2626  0.5467 -0.1429
  685TMC3    C710191   1.875   2.091  15.986  0.5047 -0.4155 -0.0827
  685TMC3    C810192   1.518   2.403  15.958 -0.3539  0.7156 -0.2850
  685TMC3    O110193   1.910   2.089  15.867 -0.1653  0.4221  0.1557
  685TMC3    O210194   1.488   2.358  15.849  0.3492 -0.6775 -0.2670
  686MPD2     C10195   2.701   2.469  15.449  0.4017 -0.4925  0.2533
  686MPD2    C110196   2.749   2.375  15.540 -0.4334  0.1724  0.9026
  686MPD2    C210197   2.821   2.264  15.493  0.2864 -0.0507  0.4134
  686MPD2    C310198   2.834   2.244  15.349  0.5079  0.0605  0.2699
  686MPD2    C410199   2.792   2.352  15.267  0.3013  0.5044 -0.4219
  686MPD2    C510200   2.721   2.460  15.312  0.2813  0.3147  0.5801
  686MPD2     H10201   2.872   2.197  15.561  0.3953 -0.1305  0.2543
  686MPD2    H110202   2.797   2.342  15.159  2.5310 -1.3304 -0.1501
  686MPD2    H210203   2.655   2.561  15.482  0.0405 -1.0571  1.3393
  686MPD2    H310204   2.691   2.534  15.239  0.3415  0.6944  0.9345
  686MPD2     N10205   2.894   2.131  15.286 -0.1433  0.6742  0.4803
  686MPD2    H510206   2.916   2.149  15.189 -0.4918 -0.8592  0.1152
  686MPD2    N110207   2.714   2.384  15.676 -0.3071  0.0801  0.1895
  686MPD2    H710208   2.681   2.469  15.720  0.9610  0.4630  0.3971
  687TMC3    C110209   2.886   1.960  15.457 -0.6641 -0.5384 -1.0109
  687TMC3    C210210   2.753   1.943  15.449  0.4796 -0.0969  0.8556
  687TMC3    C310211   2.691   1.883  15.551  0.3653  0.1040  0.2032
  687TMC3    C410212   2.968   1.914  15.558 -0.4131 -0.2063 -0.1771
  687TMC3    C510213   2.903   1.850  15.659  0.6468 -0.2171  0.2019
  687TMC3    C610214   2.767   1.835  15.652  0.6841  0.3907 -0.1860
  687TMC3     C10215   2.957   2.025  15.349  0.0182  0.1947  0.4782
  687TMC3     O10216   3.055   1.963  15.308  0.2555  0.0504  0.3600
  687TMC3     H10217   2.706   1.987  15.362  0.9424  1.5950  1.4585
  687TMC3    H110218   3.075   1.934  15.562 -1.0182  3.2452 -1.6788
  687TMC3    H210219   2.726   1.787  15.740 -1.6231  3.8411  0.6511
  687TMC3    C710220   2.962   1.853  15.795  0.5515 -0.1155 -0.4480
  687TMC3    C810221   2.546   1.910  15.574 -0.0739  0.1993 -0.0598
  687TMC3    O110222   3.062   1.923  15.800  0.6243  0.4153  0.2890
  687TMC3    O210223   2.487   1.857  15.672 -0.3394 -0.4920  0.0365
  688MPD2     C10224   2.196   1.373  17.349 -0.1527 -0.8443 -1.2058
  688MPD2    C110225   2.234   1.246  17.393  0.2724  0.1786 -0.5275
  688MPD2    C210226   2.341   1.187  17.325 -0.4188  0.1371 -0.4421
  688MPD2    C310227   2.407   1.255  17.225 -0.7878 -0.0299 -0.1805
  688MPD2    C410228   2.371   1.386  17.192 -0.1952 -0.3907 -0.7791
  688MPD2    C510229   2.266   1.441  17.255 -0.4796 -0.2313  0.0491
  688MPD2     H10230   2.377   1.096  17.372 -0.3366 -0.4516 -1.6718
  688MPD2    H110231   2.412   1.457  17.121 -2.3059  0.4615 -1.1656
  688MPD2    H210232   2.104   1.417  17.384  1.1269 -0.1248  1.3383
  688MPD2    H310233   2.240   1.545  17.236 -0.0581 -0.2739 -0.7359
  688MPD2     N10234   2.514   1.195  17.156 -0.2526  0.2843 -0.2966
  688MPD2    H510235   2.557   1.254  17.086  0.0105 -0.2500 -0.5829
  688MPD2    N110236   2.182   1.160  17.495  0.2722  0.4919  0.9433
  688MPD2    H710237   2.221   1.067  17.506 -1.8003 -0.3212  1.3320
  689TMC3    C110238   2.041   1.096  17.681  0.6841  0.6193 -0.1054
  689TMC3    C210239   2.003   1.140   0.061 -1.1087 -0.0891 -0.0467
  689TMC3    C310240   1.914   1.061   0.130  0.1199 -0.1790 -0.6585
  689TMC3    C410241   1.994   0.973  17.630  1.3069  0.1772  0.6340
  689TMC3    C510242   1.900   0.907  17.709  0.9010 -0.7870  0.0660
  689TMC3    C610243   1.856   0.949   0.085  0.0590  0.0788  0.3620
  689TMC3     C10244   2.093   1.203  17.592  0.1625  0.6102  0.4590
  689TMC3     O10245   2.065   1.319  17.615  0.2845 -0.0201 -0.4923
  689TMC3     H10246   2.034   1.230   0.113 -1.1854  0.7136 -1.3881
  689TMC3    H110247   2.022   0.947  17.529 -1.4507 -0.4579  0.0392
  689TMC3    H210248   1.773   0.896   0.130 -0.1469 -0.0646 -0.1849
  689TMC3    C710249   1.911   0.760  17.716  0.1208 -0.1357  0.1371
  689TMC3    C810250   1.917   1.066   0.276 -0.2011 -0.1590 -0.5481
  689TMC3    O110251   1.892   0.723   0.088 -0.0276 -0.3226  0.8819
  689TMC3    O210252   1.959   1.168   0.335  0.2057  0.3271  0.2055
  690MPD2     C10253   4.514   3.287  15.930  0.8212 -1.3612  0.1999
  690MPD2    C110254   4.483   3.245  15.801  0.2414 -1.0975  0.4015
  690MPD2    C210255   4.564   3.275  15.696  0.4481  0.3730 -0.4238
  690MPD2    C310256   4.689   3.339  15.716 -0.0759  0.3624  0.7591
  690MPD2    C410257   4.712   3.387  15.845 -0.4946  0.5632  0.1319
  690MPD2    C510258   4.623   3.364  15.948 -0.1405 -0.3263 -0.0563
  690MPD2     H10259   4.538   3.240  15.596 -1.0499 -2.1533  0.8571
  690MPD2    H110260   0.069   3.438  15.870 -1.0190  1.1408  0.8999
  690MPD2    H210261   4.457   3.272  16.022  0.3428 -0.2796  0.0791
  690MPD2    H310262   4.646   3.387  16.051 -1.0921 -0.4044  0.1683
  690MPD2     N10263   0.037   3.361  15.602 -0.2538  0.4149  0.0462
  690MPD2    H510264   0.002   3.328  15.513 -0.7336 -0.9144  0.7341
  690MPD2    N110265   4.373   3.153  15.777 -0.5478  0.0615  1.0813
  690MPD2    H710266   4.375   3.122  15.681  1.2604  0.6318  0.9285
  691TMC3    C110267   4.193   3.007  15.807  0.3990 -0.2183 -0.1273
  691TMC3    C210268   4.071   3.013  15.876 -0.1902 -0.1868 -0.0962
  691TMC3    C310269   3.982   2.906  15.866  0.1865  0.1463 -0.0458
  691TMC3    C410270   4.244   2.881  15.772 -0.0508 -0.9225 -0.5624
  691TMC3    C510271   4.162   2.774  15.776 -0.2483  0.0368 -0.5350
  691TMC3    C610272   4.024   2.791  15.809  0.7272  0.1799  0.7288
  691TMC3     C10273   4.286   3.105  15.873  0.0454  0.0848 -0.3688
  691TMC3     O10274   4.264   3.148  15.984  0.4402 -0.1611  0.2602
  691TMC3     H10275   4.046   3.102  15.932  1.3808  0.0151  0.2783
  691TMC3    H110276   4.344   2.871  15.731  0.6895 -1.7562  1.4571
  691TMC3    H210277   3.956   2.707  15.796  0.5013  0.2533  1.4412
  691TMC3    C710278   4.220   2.643  15.744 -0.4343 -0.7771  0.8352
  691TMC3    C810279   3.839   2.911  15.894  0.3501  0.7848 -0.4228
  691TMC3    O110280   4.339   2.642  15.765 -0.0882 -0.0235 -0.0807
  691TMC3    O210281   3.765   2.816  15.865 -0.0253  0.3271 -0.6015
  692TMC3    C110282   1.259   3.877  15.770 -0.2867 -1.0482 -0.3436
  692TMC3    C210283   1.377   3.942  15.784 -0.0071  0.4069  0.9962
  692TMC3    C310284   1.475   3.876  15.838 -0.0440 -0.1905 -0.4194
  692TMC3    C410285   1.229   3.751  15.813  0.4132  0.6477 -0.4495
  692TMC3    C510286   1.331   3.686  15.869  0.1514 -0.2360  0.1973
  692TMC3    C610287   1.454   3.747  15.891  0.1524  0.4824  0.2805
  692TMC3     C10288   1.135   3.954  15.749 -0.3014  0.1351  0.1461
  692TMC3     O10289   1.032   3.890  15.744 -0.7024 -0.0171  0.2780
  692TMC3     H10290   1.405   4.022  15.717 -1.8562  0.0310 -0.2303
  692TMC3    H110291   1.131   3.705  15.809  0.8775 -0.6165  2.6868
  692TMC3    H210292   1.540   3.682  15.897 -1.1422 -1.1633  1.0108
  692TMC3    C710293   1.310   3.546  15.888  0.1334  0.4020  0.4673
  692TMC3    C810294   1.530   3.946  15.951  0.0437 -0.2846  0.0092
  692TMC3    O110295   1.235   3.493  15.811 -0.0923 -0.5487 -0.4052
  692TMC3    O210296   1.602   3.887  16.031  0.6174  0.5956 -0.2874
  693MPD2     C10297   0.740   2.153  10.654  0.5301  0.8509 -0.0235
  693MPD2    C110298   0.670   2.080  10.738  0.5578  0.9680  0.3092
  693MPD2    C210299   0.724   2.053  10.861 -0.1784 -0.5900 -0.5062
  693MPD2    C310300   0.838   2.117  10.906  0.0674  0.0326  0.8578
  693MPD2    C410301   0.902   2.203  10.820  0.6445  0.2439 -0.2177
  693MPD2    C510302   0.855   2.217  10.695 -0.0400  0.8128 -0.6959
  693MPD2     H10303   0.675   1.979  10.923  1.4854 -0.4658  0.9517
  693MPD2    H110304   0.982   2.271  10.849  1.9573 -1.4848  0.1816
  693MPD2    H210305   0.693   2.182  10.560  0.8260  3.7895  0.7259
  693MPD2    H310306   0.899   2.293  10.632 -1.5874  0.6185 -2.0303
  693MPD2     N10307   0.888   2.106  11.045 -0.2470  0.1595  0.1821
  693MPD2    H510308   0.972   2.158  11.067  1.5636 -3.1313  1.1805
  693MPD2    N110309   0.539   2.040  10.699  0.0146  0.4109 -0.4918
  693MPD2    H710310   0.496   2.084  10.618  1.3213  1.6148 -0.5388
  694TMC3    C110311   0.330   1.943  10.720 -0.0835 -0.4178 -0.0410
  694TMC3    C210312   0.273   1.833  10.673 -0.6620  0.4326  0.0817
  694TMC3    C310313   0.137   1.825  10.678  0.1332 -0.9444  0.7946
  694TMC3    C410314   0.262   2.049  10.766  0.2344 -0.5603 -0.2520
  694TMC3    C510315   0.128   2.048  10.760  0.2951  0.4541 -0.7056
  694TMC3    C610316   0.062   1.933  10.712 -0.1725  0.2260  0.3299
  694TMC3     C10317   0.476   1.929  10.752  0.6148  0.2124 -0.2432
  694TMC3     O10318   0.526   1.829  10.800 -0.0599 -0.6506 -0.3048
  694TMC3     H10319   0.337   1.757  10.630 -0.2521  1.1498 -0.5933
  694TMC3    H110320   0.322   2.122  10.818 -0.7023  0.2538 -0.3234
  694TMC3    H210321   4.689   1.932  10.709 -0.2166 -1.8804  1.8820
  694TMC3    C710322   0.083   2.109  10.879 -0.4602 -0.3811  1.0769
  694TMC3    C810323   0.073   1.701  10.634 -0.5291  0.4018 -0.1837
  694TMC3    O110324   0.140   2.210  10.921 -0.3838 -0.1446 -0.5833
  694TMC3    O210325   4.707   1.715  10.567  0.1848  0.1800 -0.0589
  695MPD2     C10326   1.690   3.448  14.129  0.2157 -0.0735  0.3647
  695MPD2    C110327   1.676   3.582  14.160 -0.8909  1.0502  0.2069
  695MPD2    C210328   1.553   3.627  14.203  0.5972  0.2374 -0.7407
  695MPD2    C310329   1.438   3.547  14.184  0.2407 -0.5106 -0.6629
  695MPD2    C410330   1.457   3.415  14.142  0.2330  0.9258  0.4653
  695MPD2    C510331   1.580   3.367  14.122  0.2929 -0.4061 -0.6401
  695MPD2     H10332   1.544   3.726  14.246 -1.1725 -0.4075  0.3871
  695MPD2    H110333   1.369   3.358  14.115  0.7871 -0.5019  1.7392
  695MPD2    H210334   1.785   3.401  14.107 -1.0011 -2.2694 -0.2759
  695MPD2    H310335   1.593   3.270  14.074 -1.5804 -0.6347 -0.7007
  695MPD2     N10336   1.321   3.609  14.225 -0.5704  0.0111 -0.4288
  695MPD2    H510337   1.322   3.707  14.250 -0.4807 -0.3064  0.8377
  695MPD2    N110338   1.793   3.669  14.170  1.0511 -0.3538 -0.0866
  695MPD2    H710339   1.769   3.763  14.199  1.0747 -0.8489  1.5057
  696TMC3    C110340   1.087   3.644  14.251 -0.1959  0.3125 -0.1234
  696TMC3    C210341   1.107   3.723  14.361 -0.2414 -0.3062 -0.4752
  696TMC3    C310342   1.009   3.813  14.384  0.5883  0.3261 -0.8433
  696TMC3    C410343   0.994   3.674  14.151  0.5179  0.1673  0.0254
  696TMC3    C510344   0.903   3.775  14.173  0.0014 -0.4266  0.8725
  696TMC3    C610345   0.905   3.837  14.296 -0.3264 -0.6198 -0.7225
  696TMC3     C10346   1.196   3.553  14.208 -0.6898 -0.1037  0.7152
  696TMC3     O10347   1.164   3.438  14.189 -0.5474  0.1841 -0.0484
  696TMC3     H10348   1.191   3.709  14.428 -0.5403 -2.3393 -0.5227
  696TMC3    H110349   0.995   3.624  14.054 -1.9213 -0.0041  0.0890
  696TMC3    H210350   0.831   3.912  14.320  0.1494 -0.6996  0.9920
  696TMC3    C710351   0.852   3.855  14.060 -0.1516  0.0070  0.1337
  696TMC3    C810352   1.049   3.921  14.467 -0.1060  0.5813 -0.1474
  696TMC3    O110353   0.788   3.801  13.971  0.0433  0.1247  0.1969
  696TMC3    O210354   0.976   4.017  14.467 -0.2612 -0.1857  0.4539
  697MPD2     C10355   0.773   1.163  15.606 -0.5267 -0.0307  0.2117
  697MPD2    C110356   0.751   1.142  15.473  0.5796  0.0309  0.5065
  697MPD2    C210357   0.738   1.261  15.402  0.2106  0.1138 -0.2390
  697MPD2    C310358   0.727   1.387  15.456 -0.2939 -0.1076  0.2021
  697MPD2    C410359   0.729   1.397  15.589 -0.1284 -0.7259  0.4381
  697MPD2    C510360   0.749   1.287  15.662 -0.6548 -0.2994 -0.2251
  697MPD2     H10361   0.741   1.258  15.294  1.6544 -1.2791 -0.1474
  697MPD2    H110362   0.717   1.495  15.634  0.6551 -0.2807 -0.3225
  697MPD2    H210363   0.770   1.083  15.679 -0.8519  1.1580  1.4890
  697MPD2    H310364   0.726   1.292  15.767  1.3992  0.0722  0.2204
  697MPD2     N10365   0.701   1.497  15.360  0.2549 -0.2629  0.5028
  697MPD2    H510366   0.719   1.470  15.264 -3.1997 -0.9054  0.0165
  697MPD2    N110367   0.759   1.019  15.399  0.0238  0.1796  0.4477
  697MPD2    H710368   0.749   1.015  15.298  2.2551  0.0317  0.2355
  698TMC3    C110369   0.730   1.703  15.268  0.1134  0.1717  0.6146
  698TMC3    C210370   0.850   1.777  15.265 -0.2751 -0.6048 -0.3445
  698TMC3    C310371   0.917   1.792  15.144  0.1699 -0.3578 -0.4092
  698TMC3    C410372   0.682   1.646  15.153 -0.1243 -0.6177 -0.0160
  698TMC3    C510373   0.744   1.674  15.035 -0.2515 -0.2740 -0.6525
  698TMC3    C610374   0.868   1.737  15.027 -0.2699 -0.1181  0.3795
  698TMC3     C10375   0.720   1.629  15.382 -0.3920  0.3690 -0.3572
  698TMC3     O10376   0.733   1.680  15.491 -0.1317  0.4598 -0.1196
  698TMC3     H10377   0.891   1.810  15.360 -1.3432  0.4503 -0.2393
  698TMC3    H110378   0.582   1.604  15.146 -0.1405 -0.4635 -0.8048
  698TMC3    H210379   0.906   1.751  14.927  0.9350  0.4634  0.9196
  698TMC3    C710380   0.679   1.620  14.910 -0.1408 -0.9639 -1.1524
  698TMC3    C810381   1.058   1.808  15.165 -0.6323 -0.6661  0.6055
  698TMC3    O110382   0.714   1.684  14.810  0.7386 -0.2003 -0.2978
  698TMC3    O210383   1.098   1.835  15.278  0.1840  0.6624 -0.2500
  699TMC3    C110384   1.028   3.770  13.378 -0.1371 -0.3007 -0.5100
  699TMC3    C210385   1.070   3.694  13.485  0.4148 -0.0369 -0.1396
  699TMC3    C310386   1.003   3.690  13.598 -0.1825 -0.5727 -0.7330
  699TMC3    C410387   0.913   3.831  13.377  0.3098  0.7062  0.1891
  699TMC3    C510388   0.838   3.829  13.494 -0.3204 -0.4576  0.3574
  699TMC3    C610389   0.877   3.756  13.605  0.1429  0.0389  0.2489
  699TMC3     C10390   1.096   3.784  13.253 -0.2906 -0.1764 -0.1823
  699TMC3     O10391   1.024   3.801  13.156  0.2181  1.0947 -0.1145
  699TMC3     H10392   1.163   3.639  13.479  0.8962  0.5957  1.6145
  699TMC3    H110393   0.881   3.890  13.292 -0.0626  0.1633 -0.0485
  699TMC3    H210394   0.816   3.755  13.694 -0.3389  2.2206 -0.0463
  699TMC3    C710395   0.733   3.926  13.511  0.7778  0.1864 -0.2096
  699TMC3    C810396   1.034   3.598  13.705  0.1240  0.0540 -0.5116
  699TMC3    O110397   0.647   3.891  13.587  0.3661  0.0276 -0.3655
  699TMC3    O210398   0.963   3.598  13.803 -0.2691 -0.0165  0.5372
  700TMC3    C110399   0.548   1.488  17.357  0.2041 -0.4802  0.0914
  700TMC3    C210400   0.641   1.462  17.256 -0.4846  0.1776  0.2060
  700TMC3    C310401   0.764   1.520  17.256 -0.8106  0.4194 -0.3699
  700TMC3    C410402   0.590   1.567  17.464  0.1590 -0.0956 -0.2202
  700TMC3    C510403   0.709   1.635  17.459  0.2856  0.6177  0.4667
  700TMC3    C610404   0.796   1.622  17.350 -0.6035  0.1479 -0.5109
  700TMC3     C10405   0.441   1.568  17.308  0.1297  0.2283  0.3646
  700TMC3     O10406   0.382   1.636  17.389 -0.0067  0.3790  0.1012
  700TMC3     H10407   0.620   1.377  17.193 -0.2544 -1.1550  1.9459
  700TMC3    H110408   0.542   1.563  17.560  4.8802 -1.3297  2.0974
  700TMC3    H210409   0.893   1.671  17.351 -0.7103  0.3493  0.0009
  700TMC3    C710410   0.707   1.766  17.515  0.1297  0.5080  0.3723
  700TMC3    C810411   0.860   1.459  17.176 -0.3667 -0.1862 -0.2368
  700TMC3    O110412   0.813   1.828  17.524  0.4399  0.3155 -1.1548
  700TMC3    O210413   0.824   1.406  17.075  0.1378  0.6039 -0.6471
  701TMC3    C110414   0.258   0.820  15.437  0.0307 -0.3459 -0.1063
  701TMC3    C210415   0.248   0.814  15.298 -0.4358 -0.0702 -0.2218
  701TMC3    C310416   0.282   0.928  15.234  1.0169  0.5202  0.1129
  701TMC3    C410417   0.309   0.929  15.503 -0.6819  1.1072  0.0871
  701TMC3    C510418   0.358   1.032  15.434  0.2815  0.0351 -0.0665
  701TMC3    C610419   0.351   1.031  15.297 -0.4226  0.2849  0.4164
  701TMC3     C10420   0.187   0.730  15.524  0.1817  0.2864  0.6897
  701TMC3     O10421   0.162   0.758  15.644  0.1525  0.3691  0.0330
  701TMC3     H10422   0.196   0.735  15.245 -0.1059  0.0437 -0.7136
  701TMC3    H110423   0.312   0.917  15.611 -1.3896  0.5169  0.0354
  701TMC3    H210424   0.390   1.115  15.241  0.2189 -0.0944  0.2992
  701TMC3    C710425   0.388   1.150  15.497  0.1650  0.4592 -0.1037
  701TMC3    C810426   0.246   0.948  15.101  0.0581 -0.2758  0.0113
  701TMC3    O110427   0.395   1.244  15.423 -0.1153 -0.0126 -0.1221
  701TMC3    O210428   0.331   1.007  15.034 -0.2879 -0.2354 -0.2569
  702MPD2     C10429   4.439   2.217  10.660  0.0770  0.2776 -0.2019
  702MPD2    C110430   4.306   2.233  10.625 -0.1680 -0.1743 -0.3269
  702MPD2    C210431   4.265   2.184  10.500  0.3299 -0.1192  0.4231
  702MPD2    C310432   4.356   2.135  10.403  0.2377  0.3241 -0.6726
  702MPD2    C410433   4.489   2.124  10.438  0.0388 -0.7602  0.0039
  702MPD2    C510434   4.526   2.157  10.567 -0.2798  0.3992  0.2422
  702MPD2     H10435   4.159   2.186  10.475  0.1428 -0.9751  1.1283
  702MPD2    H110436   4.574   2.116  10.370  1.2719 -0.9812  1.5689
  702MPD2    H210437   4.471   2.245  10.760  0.8729 -1.3932  0.0126
  702MPD2    H310438   4.631   2.157  10.595 -0.1127 -0.8528 -0.4074
  702MPD2     N10439   4.319   2.120  10.261 -0.6376 -0.3567 -1.0015
  702MPD2    H510440   4.393   2.080  10.203  1.8845  1.5933  0.8982
  702MPD2    N110441   4.214   2.295  10.701 -0.2735 -0.1700  0.4540
  702MPD2    H710442   4.116   2.271  10.689 -0.3452 -0.5394  1.7133
  703TMC3    C110443   4.158   2.297  10.227 -0.5000 -0.0729 -0.0837
  703TMC3    C210444   4.031   2.312  10.200  0.3107 -0.0241  1.0832
  703TMC3    C310445   3.973   2.427  10.251 -0.4998  0.2698 -0.1667
  703TMC3    C410446   4.237   2.403  10.275  0.1035 -0.2631 -0.0723
  703TMC3    C510447   4.176   2.524  10.300 -0.1948  0.3993  0.1751
  703TMC3    C610448   4.043   2.537  10.295  0.5532 -0.2836 -0.5386
  703TMC3     C10449   4.208   2.165  10.200  0.1779  0.1031 -0.5686
  703TMC3     O10450   4.179   2.126  10.086  0.2058 -0.3929  0.1582
  703TMC3     H10451   3.974   2.233  10.153  1.4737 -0.9354  1.1924
  703TMC3    H110452   4.341   2.383  10.296 -0.6419 -0.1746  3.6943
  703TMC3    H210453   4.002   2.634  10.320 -3.6064 -2.1882 -0.0173
  703TMC3    C710454   4.272   2.624  10.347  0.2444  0.8157  0.5999
  703TMC3    C810455   3.837   2.398  10.284 -0.3797  0.2784  0.2817
  703TMC3    O110456   4.392   2.595  10.329 -0.4470  0.0948  0.2358
  703TMC3    O210457   3.776   2.313  10.220  0.2393  0.0598  0.0420
  704TMC3    C110458   1.618   0.905  12.521 -0.6632 -0.3328 -0.3946
  704TMC3    C210459   1.715   0.927  12.432  0.1930 -0.0881 -0.1861
  704TMC3    C310460   1.828   0.853  12.448 -0.2225  0.3953 -0.0568
  704TMC3    C410461   1.624   0.817  12.628  0.4657 -0.4748 -0.0407
  704TMC3    C510462   1.741   0.740  12.640 -0.2995  0.7116 -0.0456
  704TMC3    C610463   1.842   0.760  12.554 -0.5704  0.4850 -0.3691
  704TMC3     C10464   1.507   0.997  12.533  0.6699 -0.1540 -0.0447
  704TMC3     O10465   1.441   0.990  12.635 -1.2547 -0.1252 -0.2999
  704TMC3     H10466   1.706   1.006  12.358  1.3769  1.0142  0.8308
  704TMC3    H110467   1.533   0.791  12.680  0.2102  0.0967 -0.2074
  704TMC3    H210468   1.934   0.703  12.564 -0.4165  0.7102 -0.4982
  704TMC3    C710469   1.740   0.619  12.710 -0.6392  0.2209  0.2266
  704TMC3    C810470   1.897   0.810  12.330 -0.6076 -0.8117  0.0892
  704TMC3    O110471   1.825   0.537  12.680 -0.6567  0.6103  0.2249
  704TMC3    O210472   1.939   0.697  12.328  1.1494 -0.0350  0.6168
  705MPD2     C10473   1.676   3.881  16.735  1.0432  0.1107  0.5402
  705MPD2    C110474   1.666   4.010  16.677  0.1557  0.2902 -0.1868
  705MPD2    C210475   1.545   4.060  16.640 -0.5968  0.5546  0.7718
  705MPD2    C310476   1.433   3.978  16.637 -0.1496 -0.2288  0.4179
  705MPD2    C410477   1.450   3.850  16.689  0.2693  0.5419 -0.4977
  705MPD2    C510478   1.569   3.799  16.736 -0.2121 -0.0027  0.3442
  705MPD2     H10479   1.542   4.155  16.589 -0.2031  0.5466  0.7310
  705MPD2    H110480   1.365   3.783  16.696 -2.0167  3.8539  2.9727
  705MPD2    H210481   1.770   3.843  16.775 -0.2443 -4.2503 -0.6189
  705MPD2    H310482   1.565   3.719  16.809 -2.3097 -0.9313 -0.8132
  705MPD2     N10483   1.316   4.030  16.572 -0.4884  0.1991  0.1918
  705MPD2    H510484   1.308   4.128  16.546  0.5756 -0.4063 -2.4323
  705MPD2    N110485   1.777   4.093  16.637 -0.1994  0.0425 -0.5506
  705MPD2    H710486   1.765   4.191  16.613 -0.7685  0.7479  2.6086
  706TMC3    C110487   2.036   4.134  16.316  0.2417  0.3601  0.2063
  706TMC3    C210488   2.022   4.271  16.315  1.0712 -1.1638 -0.1704
  706TMC3    C310489   1.981   4.330  16.430 -0.2458  0.3171  0.5159
  706TMC3    C410490   2.030   4.065  16.432 -0.5399  0.2914 -0.1329
  706TMC3    C510491   1.991   4.131  16.544  0.3990 -1.0599  0.3720
  706TMC3    C610492   1.954   4.261  16.545 -0.2206  0.1278  0.5075
  706TMC3     C10493   2.071   4.076  16.189  0.6064  0.0063  0.0087
  706TMC3     O10494   2.000   4.110  16.093 -0.0903  0.0941 -0.0341
  706TMC3     H10495   2.025   4.328  16.223  1.0117 -1.4616 -0.3581
  706TMC3    H110496   2.023   3.957  16.426 -0.8457  0.2597  0.9158
  706TMC3    H210497   1.919   4.303  16.638  1.6977  0.5205  1.0390
  706TMC3    C710498   1.903   4.041  16.624  0.0708  0.6665 -0.2061
  706TMC3    C810499   1.952   4.470  16.416  0.6922  0.6050  0.0219
  706TMC3    O110500   1.938   3.926  16.628 -0.7705 -0.4610 -0.0140
  706TMC3    O210501   1.904   4.518  16.315 -0.1826 -0.1647  0.5725
  707TMC3    C110502   3.488   2.346   1.606 -0.4106  0.0166  0.2697
  707TMC3    C210503   3.561   2.433   1.691 -0.3731 -0.1927 -0.1861
  707TMC3    C310504   3.506   2.465   1.813 -0.3523  0.2138  0.0243
  707TMC3    C410505   3.377   2.281   1.650  0.3451 -0.0245 -0.1982
  707TMC3    C510506   3.330   2.315   1.777 -0.8749  0.1863 -0.4222
  707TMC3    C610507   3.392   2.405   1.856 -0.2169 -0.1404 -0.2399
  707TMC3     C10508   3.576   2.285   1.513 -0.0918 -0.6056  0.4062
  707TMC3     O10509   3.677   2.355   1.492  0.5472  0.3195  0.2352
  707TMC3     H10510   3.635   2.496   1.643  0.5459 -0.3190  1.0908
  707TMC3    H110511   3.325   2.215   1.582 -1.2545  1.6342 -0.5972
  707TMC3    H210512   3.366   2.425   1.959  0.5315 -0.0407 -0.0645
  707TMC3    C710513   3.200   2.265   1.825 -0.2593 -0.3537  0.1613
  707TMC3    C810514   3.607   2.472   1.920  0.3488 -0.1345  0.6735
  707TMC3    O110515   3.147   2.343   1.898 -0.2018 -0.5238  0.0102
  707TMC3    O210516   3.581   2.531   2.026  0.2215  0.5424 -0.1358
  708MPD2     C10517   4.567   1.854  14.685  0.0965 -0.5186 -0.1088
  708MPD2    C110518   4.648   1.964  14.696  0.3013 -0.0440  0.4366
  708MPD2    C210519   4.709   1.991  14.822  0.3646 -0.1028 -0.0631
  708MPD2    C310520   4.704   1.891  14.923  0.1722 -0.1195  0.4079
  708MPD2    C410521   4.605   1.799  14.910 -0.3740 -0.0915  0.2290
  708MPD2    C510522   4.528   1.785  14.794 -0.0504  0.1779  0.2887
  708MPD2     H10523   0.020   2.086  14.842 -0.4732  0.3225 -0.1068
  708MPD2    H110524   4.574   1.729  14.987  1.1435 -0.4768  0.4821
  708MPD2    H210525   4.501   1.839  14.601 -0.4318  2.6018 -0.2362
  708MPD2    H310526   4.441   1.721  14.785 -0.7964  0.9545  2.0649
  708MPD2     N10527   0.030   1.904  15.048 -0.4782  0.2999 -1.0764
  708MPD2    H510528   0.001   1.838  15.120  0.4206  1.8912  0.7632
  708MPD2    N110529   4.646   2.061  14.592 -0.4445  0.0076  0.0199
  708MPD2    H710530   4.566   2.048  14.531 -0.0922  0.9585 -0.6388
  709TMC3    C110531   4.632   2.279  14.521  0.0713 -0.8901 -0.2904
  709TMC3    C210532   4.539   2.252  14.416  1.4694  0.5185 -0.1287
  709TMC3    C310533   4.420   2.320  14.407 -0.1564  0.4900  0.5449
  709TMC3    C410534   4.604   2.382  14.603  0.3718  0.1947 -0.0186
  709TMC3    C510535   4.476   2.440  14.603 -0.3134 -0.7231  0.5543
  709TMC3    C610536   4.382   2.406  14.507 -0.1340  0.1083  0.2590
  709TMC3     C10537   4.705   2.182  14.595 -0.6094 -0.6197  0.4244
  709TMC3     O10538   0.067   2.218  14.661 -0.7925 -0.0689 -0.3329
  709TMC3     H10539   4.540   2.162  14.355 -2.6259  0.1130  0.3850
  709TMC3    H110540   4.664   2.382  14.694 -2.0259 -1.4648  1.5609
  709TMC3    H210541   4.284   2.452  14.500  0.3938  1.4045  1.2635
  709TMC3    C710542   4.432   2.458  14.741  0.0958  0.3068 -0.1228
  709TMC3    C810543   4.324   2.264  14.317  0.2829  0.0127 -0.2867
  709TMC3    O110544   4.519   2.504  14.814  0.7921 -0.0983 -0.0322
  709TMC3    O210545   4.211   2.246  14.360 -0.8440  0.1045 -0.2137
  710TMC3    C110546   1.426   4.105   0.579 -0.3264 -0.1696 -0.5093
  710TMC3    C210547   1.381   4.101   0.447  0.5032  0.7255  0.5604
  710TMC3    C310548   1.380   3.983   0.379  0.0290 -0.2259  0.1766
  710TMC3    C410549   1.482   3.991   0.634  0.3146 -0.5820 -0.5639
  710TMC3    C510550   1.489   3.878   0.561 -0.4743  0.2555  0.9102
  710TMC3    C610551   1.433   3.873   0.436 -0.5327 -0.0008  0.6469
  710TMC3     C10552   1.395   4.209   0.664 -0.0844 -0.0760  0.2949
  710TMC3     O10553   1.472   4.226   0.757 -0.4016  0.0267 -0.4895
  710TMC3     H10554   1.337   4.189   0.401  1.0573  0.0823 -1.1717
  710TMC3    H110555   1.519   3.992   0.736 -1.1085  0.3624 -0.0493
  710TMC3    H210556   1.442   3.782   0.377 -0.1689  1.8207 -2.1317
  710TMC3    C710557   1.524   3.756   0.631  0.0310 -0.1081 -0.2044
  710TMC3    C810558   1.326   3.975   0.245  0.0844  0.4729 -0.1206
  710TMC3    O110559   1.513   3.753   0.752  0.4534  0.1335 -0.0170
  710TMC3    O210560   1.314   4.073   0.176 -0.2732 -0.5670 -0.0381
  711TMC3    C110561   0.751   0.241  15.347 -0.6381 -0.4395  0.8611
  711TMC3    C210562   0.734   0.256  15.483  0.2662  0.0252 -0.5165
  711TMC3    C310563   0.802   0.351  15.559 -0.0452 -0.1907 -0.4562
  711TMC3    C410564   0.837   0.325  15.287 -0.4271 -0.4434  0.2646
  711TMC3    C510565   0.893   0.427  15.359 -0.1385  0.6398 -0.4416
  711TMC3    C610566   0.865   0.447  15.493 -0.2010 -0.6511  0.4822
  711TMC3     C10567   0.677   0.141  15.272  0.0616 -0.3578 -0.5785
  711TMC3     O10568   0.672   0.147  15.149  0.3053  0.0635  0.2068
  711TMC3     H10569   0.670   0.185  15.533  2.5399 -2.4923 -1.1801
  711TMC3    H110570   0.862   0.306  15.183 -1.0459  0.4259 -0.0379
  711TMC3    H210571   0.927   0.524  15.538  0.1071 -0.7776  0.2643
  711TMC3    C710572   1.029   0.466  15.323 -0.0165  0.2394 -0.1888
  711TMC3    C810573   0.835   0.313  15.696  1.0153  1.0736  0.2354
  711TMC3    O110574   1.085   0.563  15.377 -0.2239 -0.4376  0.3079
  711TMC3    O210575   0.795   0.203  15.728  0.1605  0.4303 -0.6989
  712MPD2     C10576   1.647   0.883  14.079 -0.2538  0.4862 -0.4478
  712MPD2    C110577   1.572   0.963  13.992  0.2247  0.1113  0.3850
  712MPD2    C210578   1.618   1.092  13.976  0.3074  0.1961  0.3354
  712MPD2    C310579   1.728   1.145  14.049 -0.0236 -0.1066  0.4525
  712MPD2    C410580   1.791   1.072  14.140  0.2420 -0.0391 -0.6109
  712MPD2    C510581   1.748   0.945  14.149  0.3058  0.4401 -0.1010
  712MPD2     H10582   1.562   1.156  13.908 -0.0116 -0.1424  0.2771
  712MPD2    H110583   1.871   1.115  14.200  0.1812 -0.4067 -0.2621
  712MPD2    H210584   1.628   0.781  14.111  1.4550  0.2988 -0.0302
  712MPD2    H310585   1.809   0.883  14.213  0.9256  1.4165  0.2615
  712MPD2     N10586   1.770   1.287  14.038  0.6794 -0.1116 -0.5397
  712MPD2    H510587   1.854   1.304  14.093  1.3012 -2.3205 -0.7845
  712MPD2    N110588   1.449   0.930  13.937 -0.3155 -0.5502  0.2301
  712MPD2    H710589   1.393   1.007  13.902  2.1257  0.8789 -0.5460
  713TMC3    C110590   1.782   1.495  13.936 -0.2061 -1.2725  0.1866
  713TMC3    C210591   1.915   1.473  13.933 -0.5770  0.1201  0.0718
  713TMC3    C310592   1.990   1.585  13.947  0.3290  0.2657 -0.5518
  713TMC3    C410593   1.715   1.613  13.937  0.1291 -0.0696 -0.5302
  713TMC3    C510594   1.797   1.726  13.938 -0.3240  0.1578  0.2877
  713TMC3    C610595   1.929   1.708  13.956 -0.0851  0.4287  0.2570
  713TMC3     C10596   1.712   1.371  13.943 -0.4076 -0.2548  0.3805
  713TMC3     O10597   1.608   1.376  13.883 -0.2505  0.7704  0.3533
  713TMC3     H10598   1.957   1.377  13.906  5.3119  1.9116  2.9120
  713TMC3    H110599   1.606   1.613  13.933  0.1852 -0.1424 -2.1362
  713TMC3    H210600   1.997   1.791  13.969 -0.0012  0.1381  1.7673
  713TMC3    C710601   1.740   1.861  13.919  0.0863  0.4183  0.5512
  713TMC3    C810602   2.125   1.577  13.900 -0.2968  0.1099  1.0693
  713TMC3    O110603   1.819   1.947  13.958  0.7451  0.3058  0.0895
  713TMC3    O210604   2.178   1.675  13.856 -0.7190 -0.2614 -0.0815
  714MPD2     C10605   4.310   4.541   0.807 -0.0551  0.1045 -0.4366
  714MPD2    C110606   4.297   4.406   0.837  0.0366  0.1394  0.1837
  714MPD2    C210607   4.185   4.343   0.787  0.7289  0.4022  0.5537
  714MPD2    C310608   4.098   4.410   0.700 -0.6141 -0.1585  0.6508
  714MPD2    C410609   4.122   4.538   0.667 -0.2057  0.1741  0.8508
  714MPD2    C510610   4.230   4.603   0.718  0.0892  0.7216  0.5445
  714MPD2     H10611   4.167   4.240   0.815  1.6895 -0.0997 -0.6216
  714MPD2    H110612   4.066   4.590   0.589  0.5341 -0.3848 -0.0494
  714MPD2    H210613   4.393   4.599   0.847 -0.2424 -1.1139  1.7627
  714MPD2    H310614   4.247   4.706   0.689 -0.9930  1.0693  1.1413
  714MPD2     N10615   3.990   4.340   0.652  0.1516  0.1205  0.4139
  714MPD2    H510616   3.975   4.244   0.682  0.6688  0.2064  0.9373
  714MPD2    N110617   4.398   4.349   0.913 -0.0540  0.3873 -0.4512
  714MPD2    H710618   4.460   4.409   0.967  2.1044 -3.4909  1.4141
  715TMC3    C110619   4.523   4.162   0.992  0.1939  0.2529 -0.0193
  715TMC3    C210620   4.589   4.041   0.966 -0.1694  0.1429  0.7148
  715TMC3    C310621   4.677   3.986   1.062 -0.1544 -0.2208 -0.6102
  715TMC3    C410622   4.534   4.218   1.121  0.6819  0.8064  0.9946
  715TMC3    C510623   4.611   4.156   1.212 -0.7615 -0.0423 -0.0173
  715TMC3    C610624   4.690   4.048   1.187  0.0159  0.0341  0.1913
  715TMC3     C10625   4.417   4.211   0.915  0.1016  0.3279  0.0328
  715TMC3     O10626   4.382   4.131   0.827 -0.6081  0.0785  0.2124
  715TMC3     H10627   4.569   3.996   0.869 -1.3755  1.6088  0.2837
  715TMC3    H110628   4.467   4.299   1.149 -0.1250  0.6629 -0.4894
  715TMC3    H210629   4.713   3.978   1.267  1.2391  0.3993  0.1599
  715TMC3    C710630   4.600   4.180   1.351  0.0038  0.1968  0.2424
  715TMC3    C810631   0.009   3.865   1.028 -0.2692  0.1521 -0.6267
  715TMC3    O110632   4.688   4.138   1.426 -0.2772 -0.2287  0.3638
  715TMC3    O210633   4.710   3.804   0.928  0.7039  0.8752  0.5509
  716MPD2     C10634   0.345   1.720   9.884 -0.1531  0.0052 -0.3979
  716MPD2    C110635   0.256   1.720   9.780 -1.4583 -0.5940 -0.0678
  716MPD2    C210636   0.210   1.604   9.730 -0.8434  0.0311  0.2062
  716MPD2    C310637   0.275   1.486   9.759  0.6993  0.4019  0.1169
  716MPD2    C410638   0.379   1.485   9.852  0.0150 -0.1929  0.1146
  716MPD2    C510639   0.404   1.607   9.921 -0.0615  0.4039 -0.2076
  716MPD2     H10640   0.136   1.611   9.651  0.0715  1.4723 -0.5213
  716MPD2    H110641   0.431   1.395   9.885  3.2188  2.1423  1.4623
  716MPD2    H210642   0.376   1.804   9.946 -0.1832  0.3553 -0.8558
  716MPD2    H310643   0.469   1.610  10.008  0.9487 -2.5738 -0.8519
  716MPD2     N10644   0.222   1.370   9.695 -0.0312 -0.9799 -0.4699
  716MPD2    H510645   0.139   1.377   9.637  0.8372 -1.9610 -1.8289
  716MPD2    N110646   0.194   1.843   9.728  0.1870  0.3176  0.2133
  716MPD2    H710647   0.131   1.823   9.652 -0.4196 -1.5151  1.1876
  717TMC3    C110648   0.162   1.155   9.642  1.0421  0.5825 -0.4999
  717TMC3    C210649   0.107   1.205   9.528 -0.4713  1.1603 -0.2071
  717TMC3    C310650   0.010   1.133   9.467  1.0038  1.0076  0.1833
  717TMC3    C410651   0.121   1.045   9.708 -0.9052  0.0674 -0.5449
  717TMC3    C510652   0.013   0.981   9.650 -0.1851  0.2135  0.7359
  717TMC3    C610653   4.687   1.033   9.536 -0.4870 -0.4656  0.2519
  717TMC3     C10654   0.258   1.238   9.718  0.2414  0.3945 -0.0622
  717TMC3     O10655   0.329   1.188   9.801 -0.2791  0.2146 -0.3505
  717TMC3     H10656   0.162   1.281   9.474  2.2674 -0.6148  0.0824
  717TMC3    H110657   0.167   1.016   9.802  1.0581  2.1069 -0.8794
  717TMC3    H210658   4.598   0.984   9.498 -0.2011  0.3078 -1.3945
  717TMC3    C710659   4.679   0.870   9.723 -0.1427 -0.1372 -0.0395
  717TMC3    C810660   4.690   1.192   9.343  0.4739 -0.4376 -0.4475
  717TMC3    O110661   4.585   0.818   9.666 -0.1416 -0.3399 -0.0506
  717TMC3    O210662   4.715   1.308   9.317  0.0796  0.1539  0.2155
  718MPD2     C10663   3.147   0.918  12.627  0.2009 -0.5090 -0.0100
  718MPD2    C110664   3.071   0.966  12.523 -0.7492 -0.1234  0.0184
  718MPD2    C210665   2.939   0.987  12.547  0.4857  0.0936  0.2440
  718MPD2    C310666   2.883   0.982  12.669  0.0568  0.2444  0.0029
  718MPD2    C410667   2.950   0.928  12.778 -0.0564  0.2635  0.0084
  718MPD2    C510668   3.084   0.908  12.754 -0.0066 -0.1723  0.6787
  718MPD2     H10669   2.871   1.028  12.472  0.4304  1.1839  0.8847
  718MPD2    H110670   2.901   0.901  12.871 -2.5463 -0.3781 -1.4953
  718MPD2    H210671   3.253   0.899  12.614  0.6516  0.8612  1.6868
  718MPD2    H310672   3.141   0.870  12.838  0.0820  1.8173  1.4991
  718MPD2     N10673   2.755   1.024  12.675 -0.6151 -0.0898  0.0986
  718MPD2    H510674   2.727   1.063  12.585  1.3802 -0.7671 -0.8196
  718MPD2    N110675   3.135   1.006  12.406  0.2836  0.2298  0.3516
  718MPD2    H710676   3.237   1.002  12.404  0.3795  2.3496  0.7412
  719TMC3    C110677   3.148   1.086  12.188 -0.0727 -0.2001  0.0337
  719TMC3    C210678   3.081   1.118  12.071  0.0185  0.3347 -0.1447
  719TMC3    C310679   3.083   1.236  12.010 -0.0997  1.0713 -0.1023
  719TMC3    C410680   3.248   1.175  12.225 -1.0559 -0.4884  0.2403
  719TMC3    C510681   3.268   1.286  12.146  0.0923 -0.2502 -0.2329
  719TMC3    C610682   3.173   1.327  12.051 -0.1495  0.6966 -0.6283
  719TMC3     C10683   3.063   1.055  12.298  0.6636 -0.6896 -0.2435
  719TMC3     O10684   2.942   1.068  12.269  0.0162 -0.2961 -0.1748
  719TMC3     H10685   3.004   1.047  12.043  1.6390 -1.0630 -1.0705
  719TMC3    H110686   3.314   1.158  12.310  1.8462  0.9683 -1.7324
  719TMC3    H210687   3.187   1.426  12.009  4.2262  0.2849 -0.1575
  719TMC3    C710688   3.380   1.380  12.174  0.7280 -0.0067 -0.4475
  719TMC3    C810689   2.951   1.286  11.985 -0.1583 -0.2384 -0.0070
  719TMC3    O110690   3.436   1.428  12.077 -0.5136 -0.7711  0.4299
  719TMC3    O210691   2.946   1.386  11.914  0.0982  0.0565 -0.3231
  720MPD2     C10692   2.323   2.702  14.180 -0.0681 -0.2777 -0.1724
  720MPD2    C110693   2.361   2.829  14.151  0.1253  0.3953 -0.8541
  720MPD2    C210694   2.495   2.860  14.171 -0.0480  0.0529 -0.8274
  720MPD2    C310695   2.580   2.771  14.247  0.6008  0.4362 -0.4551
  720MPD2    C410696   2.531   2.649  14.278 -0.1216 -0.1927  0.1771
  720MPD2    C510697   2.407   2.610  14.240 -0.4316 -0.3519 -0.5151
  720MPD2     H10698   2.527   2.961  14.150 -1.4249  0.5550 -0.5304
  720MPD2    H110699   2.594   2.578  14.330 -1.8891 -1.7609  0.1740
  720MPD2    H210700   2.222   2.670  14.154 -0.6098  1.8171 -0.7172
  720MPD2    H310701   2.372   2.521  14.291  1.1658 -0.8206 -0.2541
  720MPD2     N10702   2.708   2.825  14.292  0.3624  0.2450  1.1105
  720MPD2    H510703   2.733   2.911  14.245  0.1351 -0.9746 -1.2039
  720MPD2    N110704   2.276   2.920  14.083 -0.0091  0.2924  0.2449
  720MPD2    H710705   2.317   3.011  14.064  0.0757 -0.1933 -1.9415
  721TMC3    C110706   2.902   2.840  14.428 -0.0241  0.2216 -0.2913
  721TMC3    C210707   2.917   2.856  14.563 -0.3975 -0.3862  0.2556
  721TMC3    C310708   3.016   2.947  14.600  0.3246  0.2344 -0.4308
  721TMC3    C410709   2.971   2.903  14.330 -0.3207 -0.2757 -0.3063
  721TMC3    C510710   3.080   2.972  14.368 -0.1471 -0.0570 -0.8605
  721TMC3    C610711   3.106   2.995  14.503 -0.3515  0.7860  0.0189
  721TMC3     C10712   2.786   2.760  14.390 -0.2974  0.8348  0.0917
  721TMC3     O10713   2.756   2.672  14.471 -0.1318 -0.3869  1.0936
  721TMC3     H10714   2.851   2.810  14.635 -0.8353  0.3904  0.3561
  721TMC3    H110715   2.944   2.885  14.227 -2.0540  1.1211 -0.0803
  721TMC3    H210716   3.187   3.061  14.533 -2.4701  2.5059  1.9690
  721TMC3    C710717   3.167   3.042  14.281 -0.6732 -1.3389 -0.3143
  721TMC3    C810718   3.022   3.004  14.739 -0.1155 -0.0985 -0.4109
  721TMC3    O110719   3.221   3.139  14.329 -0.6085 -0.0650  0.0753
  721TMC3    O210720   3.117   3.081  14.758  0.2846  1.0300 -0.0010
  722MPD2     C10721   0.750   1.593  13.308  0.5718 -0.0534  0.0668
  722MPD2    C110722   0.694   1.719  13.317 -0.7243  0.0601 -1.2501
  722MPD2    C210723   0.566   1.739  13.275  0.1118 -0.3422 -0.0781
  722MPD2    C310724   0.490   1.645  13.204  0.9915 -0.1821  0.3119
  722MPD2    C410725   0.553   1.523  13.184  0.3664 -0.3127 -0.1998
  722MPD2    C510726   0.678   1.493  13.242 -0.6333  0.3906  0.0253
  722MPD2     H10727   0.527   1.839  13.286 -0.4027 -0.2427 -2.8909
  722MPD2    H110728   0.500   1.440  13.137 -0.3594 -1.4540  2.6187
  722MPD2    H210729   0.846   1.568  13.352  0.5997  0.6800  0.4181
  722MPD2    H310730   0.724   1.397  13.222 -2.4847 -0.7356  1.2268
  722MPD2     N10731   0.359   1.684  13.163 -0.3138 -0.5667  0.3404
  722MPD2    H510732   0.333   1.780  13.182  1.4198 -0.1658  0.6302
  722MPD2    N110733   0.757   1.834  13.377 -0.1998 -0.4898  0.1188
  722MPD2    H710734   0.712   1.925  13.368  1.1345  0.3399  1.8216
  723TMC3    C110735   0.160   1.677  13.029 -0.3126 -0.3004  0.4066
  723TMC3    C210736   0.111   1.631  12.904  1.1528 -0.0099 -0.2286
  723TMC3    C310737   0.043   1.725  12.827 -0.0759 -0.3817  0.1076
  723TMC3    C410738   0.136   1.805  13.076 -0.7061 -0.4942 -0.5233
  723TMC3    C510739   0.065   1.884  12.989 -0.1295  1.0329  0.0242
  723TMC3    C610740   0.036   1.855  12.863  0.2837 -0.3200  0.1260
  723TMC3     C10741   0.275   1.604  13.078 -0.0973  0.7361  0.1898
  723TMC3     O10742   0.296   1.489  13.038  0.6634 -0.4611  0.0806
  723TMC3     H10743   0.130   1.531  12.866 -0.4455 -0.5098  0.2650
  723TMC3    H110744   0.170   1.836  13.175 -0.5309 -2.5655  0.0792
  723TMC3    H210745   4.719   1.931  12.807  2.4037  0.4364 -0.8504
  723TMC3    C710746   0.074   2.020  13.023  0.3421 -0.6086  0.4654
  723TMC3    C810747   4.728   1.695  12.693  0.7297 -0.3444 -0.7008
  723TMC3    O110748   0.087   2.097  12.929  0.2626  0.6155  0.2546
  723TMC3    O210749   4.660   1.788  12.651  0.0564  0.3677  0.0381
  724TMC3    C110750   1.729   4.417  10.685  0.3047  0.3192  0.3007
  724TMC3    C210751   1.773   4.451  10.555  0.0543  0.0768  0.4631
  724TMC3    C310752   1.793   4.582  10.522 -0.2615  0.3137  0.6678
  724TMC3    C410753   1.705   4.520  10.770  0.2578 -0.5219  1.3327
  724TMC3    C510754   1.725   4.650  10.730 -0.4749  0.0152 -0.7195
  724TMC3    C610755   1.780   4.682  10.610  0.0918  0.2520  0.2790
  724TMC3     C10756   1.760   4.286  10.729 -0.4476  0.1282 -0.3531
  724TMC3     O10757   1.758   4.201  10.641  0.0353 -0.1951 -0.0918
  724TMC3     H10758   1.825   4.379  10.493 -0.3684  1.4665 -1.4867
  724TMC3    H110759   1.668   4.497  10.869 -3.2295 -0.1050  0.1280
  724TMC3    H210760   1.831   0.040  10.591 -2.0542  1.8689  2.6830
  724TMC3    C710761   1.724   0.025  10.828 -0.8655 -0.1938 -0.5190
  724TMC3    C810762   1.825   4.606  10.380  0.1187  0.1065 -0.4027
  724TMC3    O110763   1.807   0.116  10.801  0.0045  0.0349  0.3535
  724TMC3    O210764   1.845   4.508  10.305  0.2694 -0.1592 -0.2881
  725TMC3    C110765   2.861   3.447  13.283  0.1356  0.4013 -0.0414
  725TMC3    C210766   2.753   3.448  13.202  0.8738  0.7697  0.0401
  725TMC3    C310767   2.668   3.345  13.211  0.4175  0.1979 -0.0228
  725TMC3    C410768   2.886   3.343  13.371  0.7777  0.3465 -0.5717
  725TMC3    C510769   2.793   3.246  13.379  0.5889  0.1761 -0.3271
  725TMC3    C610770   2.680   3.252  13.307  0.1055  0.9229 -0.2308
  725TMC3     C10771   2.963   3.551  13.266 -0.1761 -0.7891  0.1760
  725TMC3     O10772   2.947   3.627  13.171  0.1284  0.0785  0.0044
  725TMC3     H10773   2.741   3.525  13.127  0.3745  0.1631 -0.5005
  725TMC3    H110774   2.972   3.333  13.436 -1.2449 -1.3133  1.8629
  725TMC3    H210775   2.604   3.175  13.321 -0.1052  1.5880  2.1962
  725TMC3    C710776   2.804   3.152  13.489  0.0693 -0.0563 -0.2625
  725TMC3    C810777   2.533   3.368  13.175  1.2216 -0.0084 -0.3110
  725TMC3    O110778   2.860   3.204  13.578 -0.1754 -0.7552 -0.1847
  725TMC3    O210779   2.448   3.359  13.266 -0.3111  0.1343 -0.2058
  726MPD2     C10780   4.555   0.335  11.083 -0.3009  0.1285 -0.5352
  726MPD2    C110781   4.551   0.278  10.960 -0.2485 -0.1081  0.7029
  726MPD2    C210782   4.480   0.161  10.943 -0.5257  0.9304  0.0618
  726MPD2    C310783   4.417   0.103  11.045  0.0422 -0.0977 -0.3529
  726MPD2    C410784   4.423   0.159  11.173  0.0672 -0.3980 -0.6063
  726MPD2    C510785   4.494   0.278  11.193  0.0631  0.6895 -0.0499
  726MPD2     H10786   4.486   0.116  10.845  1.1342 -0.4353  0.8066
  726MPD2    H110787   4.377   0.112  11.259  1.1985 -2.0760 -0.9280
  726MPD2    H210788   4.616   0.422  11.105  0.7402 -0.3619 -1.4740
  726MPD2    H310789   4.507   0.318  11.293  2.0380  0.6932 -0.3104
  726MPD2     N10790   4.366   4.706  11.041 -0.0156  0.0509 -0.1036
  726MPD2    H510791   4.359   4.651  11.126  0.5558  0.4418  0.1984
  726MPD2    N110792   4.622   0.336  10.853  0.3011 -0.4237 -0.3893
  726MPD2    H710793   4.600   0.311  10.758  0.6894 -1.2061 -0.2728
  727TMC3    C110794   0.051   0.446  10.740  0.4829  0.6391 -0.8208
  727TMC3    C210795   0.185   0.481  10.727 -0.5021  0.5201 -0.9303
  727TMC3    C310796   0.215   0.588  10.638 -0.7297  0.3997  0.8122
  727TMC3    C410797   4.691   0.488  10.644 -0.6170  0.2578  0.3717
  727TMC3    C510798   0.003   0.569  10.542  0.1296 -0.2847  0.8262
  727TMC3    C610799   0.129   0.634  10.544 -0.5010  0.0325 -0.1031
  727TMC3     C10800   4.732   0.409  10.868  0.2989 -0.0081 -0.0846
  727TMC3     O10801   0.068   0.431  10.965  0.6711  0.3143 -0.0444
  727TMC3     H10802   0.249   0.460  10.812 -1.5010 -1.5439 -0.6875
  727TMC3    H110803   4.587   0.455  10.642 -0.9228  1.3099 -1.4166
  727TMC3    H210804   0.154   0.689  10.454  1.1564  2.5235  1.8698
  727TMC3    C710805   4.638   0.627  10.461 -0.5755  0.6245 -1.2154
  727TMC3    C810806   0.343   0.660  10.658  0.4792 -0.2571 -0.0342
  727TMC3    O110807   4.656   0.744  10.431 -0.4140  0.2779 -0.0902
  727TMC3    O210808   0.409   0.625  10.755 -0.6445  0.2924  0.4892
  728TMC3    C110809   0.209   3.456  15.478  0.9552 -0.1187 -0.0156
  728TMC3    C210810   0.343   3.462  15.453 -0.6692  0.6969  0.2160
  728TMC3    C310811   0.391   3.515  15.337 -0.0802  0.0237 -0.3473
  728TMC3    C410812   0.117   3.496  15.381 -0.5024  0.7412  0.8106
  728TMC3    C510813   0.181   3.536  15.264  0.0353  0.1563 -0.1473
  728TMC3    C610814   0.314   3.552  15.238  0.2416 -0.4757 -0.2000
  728TMC3     C10815   0.157   3.427  15.608 -0.4850  0.1916 -0.0818
  728TMC3     O10816   0.236   3.428  15.703  0.9741 -0.8619 -0.2894
  728TMC3     H10817   0.416   3.433  15.527  2.0945  1.7119 -2.1389
  728TMC3    H110818   0.010   3.492  15.392 -0.2772 -1.0425  2.4309
  728TMC3    H210819   0.361   3.571  15.142  0.1068  0.9609  0.0066
  728TMC3    C710820   0.096   3.574  15.158  0.1411  0.0164  0.7042
  728TMC3    C810821   0.496   3.438  15.284 -0.3409 -0.3945 -0.3310
  728TMC3    O110822   4.718   3.520  15.160 -0.1982 -0.7065  0.1653
  728TMC3    O210823   0.493   3.396  15.171  0.0496 -0.0537  0.6523
  729MPD2     C10824   2.367   4.068  16.483  0.2361  0.2409  0.2711
  729MPD2    C110825   2.351   4.208  16.502  1.0759 -0.6976  0.7935
  729MPD2    C210826   2.305   4.263  16.619  0.6312  0.2808 -0.4206
  729MPD2    C310827   2.269   4.181  16.721  0.0318 -0.1267  0.0216
  729MPD2    C410828   2.285   4.047  16.709 -0.0723  0.3176  0.9038
  729MPD2    C510829   2.329   3.990  16.593 -0.3690 -0.6081  0.2828
  729MPD2     H10830   2.300   4.370  16.631  1.1896  0.2495  0.0869
  729MPD2    H110831   2.246   3.987  16.791 -1.1398 -0.4676 -0.1852
  729MPD2    H210832   2.411   4.024  16.394  1.5693  0.9142  0.5917
  729MPD2    H310833   2.325   3.882  16.593  1.0086 -0.6542 -2.3981
  729MPD2     N10834   2.225   4.229  16.844  0.0271  0.4275 -0.0658
  729MPD2    H510835   2.238   4.171  16.926 -2.6565  0.4098  0.3640
  729MPD2    N110836   2.407   4.296  16.404 -0.0014 -0.2122  0.1210
  729MPD2    H710837   2.457   4.252  16.327 -1.9142  0.2846 -1.4119
  730TMC3    C110838   2.172   4.386  16.995 -0.2876  0.0276  0.1180
  730TMC3    C210839   2.279   4.353  17.074  0.4768  0.1639  0.3139
  730TMC3    C310840   2.290   4.413  17.191 -0.1767  0.8943 -0.2464
  730TMC3    C410841   2.083   4.478  17.039  0.2172  0.2796  0.3275
  730TMC3    C510842   2.105   4.542  17.163 -0.9513 -0.0898 -0.2296
  730TMC3    C610843   2.198   4.501  17.241 -0.6172 -0.4198 -0.0034
  730TMC3     C10844   2.169   4.353  16.861  0.1636 -0.9246  0.4794
  730TMC3     O10845   2.120   4.440  16.789 -0.0116 -0.0003 -0.4455
  730TMC3     H10846   2.371   4.312  17.032  0.4008 -0.5880  0.8823
  730TMC3    H110847   2.010   4.523  16.973  0.4561  0.8093  0.4239
  730TMC3    H210848   2.220   4.537  17.341 -1.3907 -1.1628  0.4314
  730TMC3    C710849   2.114   4.683  17.160  0.7100 -0.9907  0.1301
  730TMC3    C810850   2.403   4.374  17.267  0.2858  0.9514  0.1547
  730TMC3    O110851   2.114   4.729  17.044 -0.3776 -0.3531  0.4510
  730TMC3    O210852   2.465   4.273  17.231 -0.9131 -0.4120  0.2207
  731MPD2     C10853   1.548   3.019  12.373  0.2257  0.7844 -0.0047
  731MPD2    C110854   1.647   2.929  12.392  0.2094  0.0960 -0.0085
  731MPD2    C210855   1.642   2.846  12.501 -0.1443  0.0147 -0.2470
  731MPD2    C310856   1.535   2.850  12.590 -0.4083 -0.3728 -0.5504
  731MPD2    C410857   1.436   2.946  12.565 -0.2920 -0.0778 -0.2085
  731MPD2    C510858   1.443   3.033  12.455  0.7854  0.1346 -0.5819
  731MPD2     H10859   1.710   2.762  12.512  0.9493  1.1870  1.9805
  731MPD2    H110860   1.344   2.950  12.621 -0.7771 -1.0525 -0.9285
  731MPD2    H210861   1.557   3.083  12.285  1.8607 -1.5007 -1.4951
  731MPD2    H310862   1.357   3.095  12.432  0.7191 -0.4354 -1.8670
  731MPD2     N10863   1.527   2.754  12.689  0.8040 -0.2561 -0.4803
  731MPD2    H510864   1.604   2.689  12.689 -0.7632 -2.1111 -0.4531
  731MPD2    N110865   1.749   2.925  12.292  0.1330  0.1054 -0.3709
  731MPD2    H710866   1.751   3.003  12.228  1.1494  1.6312  1.5183
  732TMC3    C110867   1.954   2.883  12.192  0.1735  0.0562  0.3782
  732TMC3    C210868   1.906   2.965  12.086 -0.1591  0.3928 -0.3925
  732TMC3    C310869   1.984   2.977  11.976  0.0001  0.3049  0.3183
  732TMC3    C410870   2.072   2.819  12.179 -0.3725  0.2073  0.3925
  732TMC3    C510871   2.149   2.849  12.070 -0.4324  0.1098 -0.4524
  732TMC3    C610872   2.102   2.917  11.966  0.2531  0.0921  0.4334
  732TMC3     C10873   1.854   2.843  12.295 -0.4301  0.6224 -0.0951
  732TMC3     O10874   1.879   2.742  12.365  0.2213 -0.1722 -0.0434
  732TMC3     H10875   1.808   3.012  12.089  0.1199  0.8757  1.6161
  732TMC3    H110876   2.112   2.750  12.253 -0.3253  0.2442  0.4016
  732TMC3    H210877   2.170   2.942  11.885  0.7454 -1.3633  0.3850
  732TMC3    C710878   2.286   2.800  12.059 -0.4885 -0.5177  0.6612
  732TMC3    C810879   1.949   3.068  11.877  0.2155 -1.1278 -0.3432
  732TMC3    O110880   2.323   2.774  11.943 -0.1138 -0.2036  0.3384
  732TMC3    O210881   2.031   3.157  11.847 -0.0974  0.0953  0.0876
  733TMC3    C110882   2.332   1.165  12.801 -0.0415  0.0891 -0.4416
  733TMC3    C210883   2.453   1.109  12.839  0.6763  0.6588  0.3776
  733TMC3    C310884   2.554   1.107  12.742 -0.2824  0.6129  0.1527
  733TMC3    C410885   2.311   1.225  12.680 -0.7563  0.0837  0.7687
  733TMC3    C510886   2.416   1.224  12.594 -0.8402 -0.4879  0.2579
  733TMC3    C610887   2.538   1.165  12.622 -0.1768  0.1345 -1.1565
  733TMC3     C10888   2.238   1.191  12.906 -0.6760  0.1328 -0.2044
  733TMC3     O10889   2.164   1.291  12.897  0.2943 -0.4040  0.8006
  733TMC3     H10890   2.479   1.079  12.939  0.3363  1.9202  0.8423
  733TMC3    H110891   2.233   1.299  12.670 -1.0161 -0.1871  0.8104
  733TMC3    H210892   2.622   1.199  12.562 -0.4961 -0.2118 -1.8042
  733TMC3    C710893   2.399   1.297  12.469  0.0997 -0.0593 -0.1389
  733TMC3    C810894   2.674   1.029  12.782  0.3874  0.6531 -0.3272
  733TMC3    O110895   2.306   1.379  12.450 -0.0400  0.0192  0.5275
  733TMC3    O210896   2.684   0.985  12.896 -0.3579  0.4008 -0.2981
  734MPD2     C10897   4.498   2.840  12.080 -0.4862 -0.1409  0.2898
  734MPD2    C110898   4.567   2.808  11.958  0.2836  0.3195 -1.2070
  734MPD2    C210899   4.641   2.904  11.901 -1.0909 -0.1145  0.4634
  734MPD2    C310900   4.649   3.032  11.952 -0.0741 -0.4984  0.6943
  734MPD2    C410901   4.583   3.063  12.069  0.3192  0.9841 -0.0369
  734MPD2    C510902   4.506   2.965  12.136  0.4356 -1.0002 -0.3323
  734MPD2     H10903   4.688   2.877  11.807 -0.2502  0.1647  0.7945
  734MPD2    H110904   4.599   3.152  12.129  0.5761 -0.2385  1.7342
  734MPD2    H210905   4.434   2.763  12.121  0.0015  0.7748  2.8011
  734MPD2    H310906   4.468   2.991  12.234 -3.0445  1.9985 -2.4874
  734MPD2     N10907   4.726   3.121  11.872  0.7353 -0.4804 -0.2771
  734MPD2    H510908   0.042   3.092  11.790  0.6920  0.3610 -0.5998
  734MPD2    N110909   4.551   2.678  11.902  0.0858  0.1593 -0.5405
  734MPD2    H710910   4.510   2.608  11.963 -1.3776  2.2470  0.9033
  735TMC3    C110911   4.585   2.510  11.737  0.6415  0.6624  0.3842
  735TMC3    C210912   4.586   2.481  11.605 -0.2800  0.1775  0.1923
  735TMC3    C310913   4.686   2.416  11.539 -0.0926  0.1413  0.7493
  735TMC3    C410914   4.685   2.458  11.813 -0.4890  0.6114 -0.0884
  735TMC3    C510915   0.049   2.379  11.749 -0.4946 -0.1226 -0.1136
  735TMC3    C610916   0.045   2.354  11.613 -0.3154 -0.1173 -0.2338
  735TMC3     C10917   4.564   2.653  11.768 -0.2890  0.0672  0.1765
  735TMC3     O10918   4.572   2.737  11.677 -0.0189 -0.0919  0.2265
  735TMC3     H10919   4.500   2.512  11.547 -1.0412 -0.1484  1.1447
  735TMC3    H110920   4.698   2.484  11.917  0.9284  0.4413 -0.2184
  735TMC3    H210921   0.127   2.302  11.566 -0.2045  1.0476 -1.3237
  735TMC3    C710922   0.178   2.391  11.811 -0.7464  0.0220  0.8309
  735TMC3    C810923   0.008   2.482  11.424  0.2625  1.2355  0.5653
  735TMC3    O110924   0.198   2.499  11.862 -0.2370  0.1767  0.1119
  735TMC3    O210925   0.092   2.429  11.354 -0.1985  0.4799  0.2233
  736MPD2     C10926   0.426   2.125  11.867  0.8983 -0.1644  0.4452
  736MPD2    C110927   0.381   2.257  11.855 -0.0958 -0.6110  0.2338
  736MPD2    C210928   0.471   2.360  11.884 -0.0424  0.4537 -0.6709
  736MPD2    C310929   0.603   2.336  11.903  0.3284  0.1385 -1.2290
  736MPD2    C410930   0.644   2.209  11.899 -0.3149  0.6086 -0.1737
  736MPD2    C510931   0.559   2.102  11.875 -0.1938 -0.1135 -0.3177
  736MPD2     H10932   0.435   2.462  11.889 -0.8153  0.1633 -0.3008
  736MPD2    H110933   0.746   2.177  11.920 -0.4208  0.1659 -0.3265
  736MPD2    H210934   0.365   2.040  11.839 -2.8651  2.2096  1.4589
  736MPD2    H310935   0.589   1.999  11.858  2.3133  0.6799 -0.5486
  736MPD2     N10936   0.703   2.443  11.923 -0.1213  0.1025  0.7563
  736MPD2    H510937   0.798   2.414  11.945 -0.4663 -3.2448 -2.1580
  736MPD2    N110938   0.252   2.274  11.800 -0.0301  0.1103  0.5834
  736MPD2    H710939   0.201   2.196  11.760 -1.5163  1.0864  0.5688
  737TMC3    C110940   0.793   2.660  11.922 -0.2429  0.0777  0.1657
  737TMC3    C210941   0.764   2.796  11.913 -0.2779  0.0571  0.2519
  737TMC3    C310942   0.867   2.873  11.870  0.4336 -0.2334  0.2426
  737TMC3    C410943   0.917   2.612  11.901 -0.2862  1.4534 -0.6349
  737TMC3    C510944   1.021   2.702  11.875 -1.0068  0.1815  0.8154
  737TMC3    C610945   0.991   2.829  11.853  0.4252 -0.0356 -0.6102
  737TMC3     C10946   0.675   2.580  11.928  1.1318 -0.3770  0.0814
  737TMC3     O10947   0.571   2.642  11.916 -0.4648 -0.5090 -0.4804
  737TMC3     H10948   0.674   2.839  11.953 -0.5213  0.3380 -0.6011
  737TMC3    H110949   0.937   2.506  11.897  0.7821  1.6224  0.0467
  737TMC3    H210950   1.065   2.905  11.831  1.4774 -1.8083 -3.2082
  737TMC3    C710951   1.156   2.648  11.860  0.0389  1.1353 -0.2696
  737TMC3    C810952   0.850   3.014  11.864  0.6860  0.2978 -0.7465
  737TMC3    O110953   1.178   2.534  11.899 -0.2950  0.2255  0.2310
  737TMC3    O210954   0.784   3.074  11.943  0.2183 -0.3054 -0.0595
  738MPD2     C10955   1.299   1.664  15.209  0.3949  0.2263 -0.7739
  738MPD2    C110956   1.267   1.715  15.084  0.1914 -0.3175  1.0398
  738MPD2    C210957   1.364   1.739  14.987 -0.3022 -0.0301 -0.0157
  738MPD2    C310958   1.496   1.692  15.009 -0.8724  0.4878 -0.3652
  738MPD2    C410959   1.524   1.638  15.136  0.8412 -0.1695  0.1246
  738MPD2    C510960   1.430   1.625  15.234  0.2350 -0.6264 -0.6055
  738MPD2     H10961   1.331   1.782  14.893  2.4068 -0.5762 -1.2098
  738MPD2    H110962   1.622   1.592  15.147  1.1509  0.5751  0.5180
  738MPD2    H210963   1.232   1.654  15.294 -0.4750 -2.8986 -1.8269
  738MPD2    H310964   1.451   1.571  15.325  1.1652 -2.0913 -1.7058
  738MPD2     N10965   1.593   1.694  14.908 -0.1812  0.0411  0.0088
  738MPD2    H510966   1.680   1.645  14.928 -0.3542  0.9091  2.9311
  738MPD2    N110967   1.135   1.746  15.060 -0.5732 -0.4383  0.1813
  738MPD2    H710968   1.110   1.745  14.962  0.2921  0.0959 -0.0423
  739TMC3    C110969   1.704   1.733  14.712 -0.6279  0.1199  0.0806
  739TMC3    C210970   1.750   1.852  14.664  0.0324 -0.3196  0.4697
  739TMC3    C310971   1.869   1.848  14.594  0.9950 -0.1053 -0.5660
  739TMC3    C410972   1.787   1.624  14.720 -0.0720 -0.2472 -0.4533
  739TMC3    C510973   1.904   1.625  14.651  0.0481  0.5095 -0.6079
  739TMC3    C610974   1.948   1.739  14.587  0.1825  0.0794 -0.1386
  739TMC3     C10975   1.576   1.733  14.778  0.6149 -0.9973 -0.1018
  739TMC3     O10976   1.498   1.817  14.737 -0.9380  0.3630  0.0825
  739TMC3     H10977   1.711   1.950  14.688  0.4685  0.2709 -1.2248
  739TMC3    H110978   1.751   1.532  14.765  1.2999 -1.2629 -1.4417
  739TMC3    H210979   2.049   1.738  14.546  0.5390 -2.4840  0.7840
  739TMC3    C710980   2.017   1.534  14.689  0.1903  0.6166 -0.0556
  739TMC3    C810981   1.893   1.948  14.497 -0.0640  0.7065  0.1316
  739TMC3    O110982   2.131   1.562  14.652  0.0612 -0.2115  0.1173
  739TMC3    O210983   2.001   1.938  14.443  0.0961 -0.1728  0.7202
  740TMC3    C110984   2.281   3.154  14.869  0.4488  0.6104 -0.0439
  740TMC3    C210985   2.253   3.040  14.943  0.4827 -0.2545 -0.1448
  740TMC3    C310986   2.321   2.922  14.896 -0.7138 -0.6543 -0.4432
  740TMC3    C410987   2.372   3.167  14.766  0.1061 -0.2139 -0.6835
  740TMC3    C510988   2.441   3.047  14.729 -0.4015 -0.0585 -0.8126
  740TMC3    C610989   2.424   2.930  14.797  0.4631  0.8343 -0.3624
  740TMC3     C10990   2.206   3.275  14.897  0.8022 -0.1386  0.4263
  740TMC3     O10991   2.241   3.386  14.856  0.1158 -0.5163  0.3586
  740TMC3     H10992   2.173   3.020  15.014  0.0886 -1.7366 -1.0002
  740TMC3    H110993   2.378   3.260  14.711 -1.1934 -0.0834 -0.6005
  740TMC3    H210994   2.486   2.846  14.767 -3.8972 -2.8160  0.8694
  740TMC3    C710995   2.555   3.062  14.646 -0.0811  0.5189 -0.2306
  740TMC3    C810996   2.261   2.795  14.932  0.2159  0.6042 -0.1867
  740TMC3    O110997   2.656   2.998  14.677  0.1631 -0.6105  0.2775
  740TMC3    O210998   2.206   2.801  15.041  0.9374 -0.1276 -0.3583
  741TMC3    C110999   1.137   3.200  14.503  0.5937  0.2784  0.3198
  741TMC3    C211000   1.060   3.100  14.559  0.3617 -0.0465 -0.0508
  741TMC3    C311001   1.103   2.972  14.557  0.1556  0.6717 -0.2621
  741TMC3    C411002   1.265   3.173  14.470 -0.4533  1.0286  0.0082
  741TMC3    C511003   1.307   3.046  14.472 -0.1746 -0.3369 -0.2276
  741TMC3    C611004   1.228   2.945  14.515  0.0907  0.6619  0.2467
  741TMC3     C11005   1.110   3.340  14.540 -0.2178 -0.0562  0.1216
  741TMC3     O11006   1.202   3.410  14.587  0.4864 -0.7091  0.2681
  741TMC3     H11007   0.972   3.123  14.618 -2.2447 -3.0142 -2.7741
  741TMC3    H111008   1.324   3.258  14.440 -1.9196  2.0848  0.1443
  741TMC3    H211009   1.249   2.838  14.512 -2.0050  0.2692 -0.6251
  741TMC3    C711010   1.440   3.008  14.427 -0.7625 -0.0860 -0.0069
  741TMC3    C811011   0.997   2.874  14.581  0.2196 -0.0900 -0.1409
  741TMC3    O111012   1.460   2.889  14.429  0.2552  0.0304 -0.2316
  741TMC3    O211013   0.881   2.916  14.577 -0.1056 -0.6534  0.6164
  742TMC3    C111014   1.402   0.693  15.667 -0.4002 -1.7992  0.7794
  742TMC3    C211015   1.341   0.743  15.555 -0.1191 -0.2344 -0.2930
  742TMC3    C311016   1.416   0.743  15.438  0.3846 -0.9214  0.6517
  742TMC3    C411017   1.523   0.630  15.668 -0.2491  0.6065 -0.1865
  742TMC3    C511018   1.584   0.616  15.554  0.2424 -0.3460 -0.4742
  742TMC3    C611019   1.542   0.681  15.438  0.9496  0.0372  0.9408
  742TMC3     C11020   1.324   0.703  15.788 -0.2574  0.2175  0.5687
  742TMC3     O11021   1.348   0.625  15.877  0.0315  0.2072  0.5035
  742TMC3     H11022   1.233   0.751  15.549 -0.1519  0.5599  1.3640
  742TMC3    H111023   1.563   0.583  15.757 -1.0845  1.2958  0.5529
  742TMC3    H211024   1.593   0.673  15.343  0.1389  2.8039  0.2878
  742TMC3    C711025   1.703   0.535  15.551  0.1548  0.0178  0.9639
  742TMC3    C811026   1.371   0.793  15.309  0.2056  0.1517 -0.8441
  742TMC3    O111027   1.773   0.548  15.451 -0.0355 -0.5849 -0.1414
  742TMC3    O211028   1.438   0.771  15.207 -0.6428 -0.5540 -0.2493
  743MPD2     C11029   0.011   2.457   2.048 -0.8815  0.4917  0.2541
  743MPD2    C111030   0.029   2.375   1.944  0.1745  0.7934  0.3622
  743MPD2    C211031   0.147   2.391   1.868 -0.4903  0.4952  0.5459
  743MPD2    C311032   0.235   2.499   1.898  0.7460 -0.8756  0.4395
  743MPD2    C411033   0.205   2.587   2.001 -0.6877  0.5012  0.0278
  743MPD2    C511034   0.092   2.561   2.081  1.2010  0.4524 -0.4832
  743MPD2     H11035   0.164   2.334   1.778 -0.6802 -0.7883  1.3174
  743MPD2    H111036   0.257   2.681   2.018 -0.1819  0.3871 -0.8580
  743MPD2    H211037   4.650   2.458   2.098 -0.3014  2.0115  1.3415
  743MPD2    H311038   0.067   2.634   2.157  0.4298  0.6708 -0.9419
  743MPD2     N11039   0.350   2.513   1.816  0.6736  0.1711  0.3268
  743MPD2    H511040   0.368   2.452   1.737 -1.2335  1.0713 -0.8167
  743MPD2    N111041   4.657   2.294   1.897 -0.0796 -0.2161  0.1843
  743MPD2    H711042   4.577   2.304   1.958 -0.6791 -2.9222 -0.1383
  744TMC3    C111043   4.534   2.130   1.762  0.5196 -0.5814  0.0015
  744TMC3    C211044   4.413   2.180   1.791  0.1038  0.4962  0.6837
  744TMC3    C311045   4.303   2.119   1.744 -0.0863 -0.1833  0.6982
  744TMC3    C411046   4.541   2.010   1.691 -0.0719  0.0899  0.4302
  744TMC3    C511047   4.428   1.954   1.649 -0.1022  0.1538  0.2777
  744TMC3    C611048   4.301   1.999   1.685  0.1173 -0.2657 -0.8329
  744TMC3     C11049   4.664   2.199   1.791 -0.4750  0.3181  0.1568
  744TMC3     O11050   0.022   2.175   1.714  0.1809  0.2484  0.8826
  744TMC3     H11051   4.392   2.279   1.831  2.0789  0.5355  1.5882
  744TMC3    H111052   4.638   1.967   1.667 -0.1738  2.3307 -4.1327
  744TMC3    H211053   4.205   1.959   1.655 -0.3214 -0.8751  1.3719
  744TMC3    C711054   4.434   1.887   1.524 -0.0415  0.1978  0.3954
  744TMC3    C811055   4.174   2.161   1.783 -0.3037  0.5787  0.0850
  744TMC3    O111056   4.526   1.923   1.454  0.6089  0.5462  0.3139
  744TMC3    O211057   4.095   2.149   1.689 -0.4078  0.3904 -0.6624
  745TMC3    C111058   1.248   0.811  13.917  0.0568  0.0007 -0.4668
  745TMC3    C211059   1.174   0.773  14.024  0.5592 -0.3402  0.8652
  745TMC3    C311060   1.068   0.842  14.054 -0.0562 -0.0132 -0.1283
  745TMC3    C411061   1.210   0.904  13.836  0.3018 -0.0731  0.3243
  745TMC3    C511062   1.082   0.956  13.857  0.0858  0.6230 -0.4195
  745TMC3    C611063   1.006   0.924  13.965  0.4292  0.4180  0.2741
  745TMC3     C11064   1.390   0.807  13.947  0.3813 -0.1285 -0.4657
  745TMC3     O11065   1.423   0.724  14.034 -0.2601  0.4476 -0.4526
  745TMC3     H11066   1.199   0.687  14.084 -2.2701 -3.0167 -1.7586
  745TMC3    H111067   1.263   0.921  13.743 -0.1711 -1.1477 -0.1384
  745TMC3    H211068   0.910   0.970  13.983  0.3770  0.3080  0.2738
  745TMC3    C711069   1.024   1.055  13.769  0.6627 -0.2795 -0.2214
  745TMC3    C811070   1.073   0.897  14.190 -0.4142 -0.0752 -0.0756
  745TMC3    O111071   0.905   1.082  13.775 -0.1601 -0.2281 -0.0400
  745TMC3    O211072   1.004   0.993  14.217 -0.4575 -0.1742 -0.0388
  746TMC3    C111073   4.093   2.533  11.085  0.4783  0.2144  0.1355
  746TMC3    C211074   4.174   2.519  10.976  0.1903 -0.3318 -0.4181
  746TMC3    C311075   4.163   2.405  10.899  0.3220 -0.9900 -0.1395
  746TMC3    C411076   4.010   2.433  11.126 -0.5659 -0.2146  0.3159
  746TMC3    C511077   4.004   2.318  11.050  0.4623  0.2854 -0.8557
  746TMC3    C611078   4.087   2.299  10.942 -0.0151 -0.5959  0.0912
  746TMC3     C11079   4.077   2.662  11.150 -0.3861 -0.0421 -0.2017
  746TMC3     O11080   3.988   2.663  11.234 -0.0535 -0.0911  0.0078
  746TMC3     H11081   4.238   2.601  10.944  0.6205  0.6540  2.9395
  746TMC3    H111082   3.954   2.445  11.218 -0.9412  0.9379 -0.0594
  746TMC3    H211083   4.088   2.209  10.880  1.8578  0.8101 -1.9452
  746TMC3    C711084   3.880   2.234  11.043  0.1149  0.3995  0.0131
  746TMC3    C811085   4.256   2.385  10.794  0.4767  0.4219 -0.4810
  746TMC3    O111086   3.866   2.179  10.934 -0.3151  0.8935 -0.3415
  746TMC3    O211087   4.358   2.452  10.780  0.1618 -0.2871 -0.1503
  747TMC3    C111088   1.807   3.062  11.108  0.3202 -0.4700  0.5906
  747TMC3    C211089   1.733   2.966  11.164 -0.1065 -0.2297  0.2553
  747TMC3    C311090   1.710   2.975  11.298  0.0104 -0.3974  0.6506
  747TMC3    C411091   1.877   3.155  11.184 -0.4357 -0.2000 -0.3983
  747TMC3    C511092   1.862   3.157  11.321 -0.1611  0.1904  0.7771
  747TMC3    C611093   1.773   3.071  11.376  0.6680  0.5712 -0.0692
  747TMC3     C11094   1.852   3.044  10.971 -0.1927  0.2246 -0.4902
  747TMC3     O11095   1.917   3.128  10.911  0.1809  0.3044 -0.4854
  747TMC3     H11096   1.670   2.910  11.096  1.7866 -1.4271 -0.5119
  747TMC3    H111097   1.953   3.210  11.129 -0.0416 -0.9255 -0.5870
  747TMC3    H211098   1.751   3.073  11.483 -0.9532  2.6349 -0.4321
  747TMC3    C711099   1.957   3.209  11.410  1.2066 -0.9269  0.3774
  747TMC3    C811100   1.645   2.856  11.357  0.3355  0.1316  0.8728
  747TMC3    O111101   1.921   3.210  11.530 -0.1464  0.4475  0.4679
  747TMC3    O211102   1.662   2.756  11.286 -0.3755  0.0458 -0.4987
  748MPD2     C11103   3.981   2.822   0.652  0.0227 -0.4206  0.2971
  748MPD2    C111104   3.946   2.839   0.787  0.0017 -0.5034  0.5532
  748MPD2    C211105   3.941   2.970   0.831 -0.3734  0.2858 -0.3541
  748MPD2    C311106   3.989   3.072   0.757 -0.0362  0.5928 -0.2207
  748MPD2    C411107   4.041   3.051   0.630 -0.1813  0.5959  0.1142
  748MPD2    C511108   4.026   2.927   0.574  0.2183  0.2810 -0.2076
  748MPD2     H11109   3.925   2.993   0.936 -1.6219 -0.2724 -0.4204
  748MPD2    H111110   4.080   3.130   0.566 -0.1070  0.0831 -0.4764
  748MPD2    H211111   3.952   2.736   0.592 -0.6468  0.6065 -0.8522
  748MPD2    H311112   4.062   2.921   0.472  0.2081 -1.8310 -0.0831
  748MPD2     N11113   3.987   3.201   0.820 -0.0252 -0.7250 -0.6217
  748MPD2    H511114   3.953   3.213   0.915 -1.8805 -1.0460 -1.2444
  748MPD2    N111115   3.886   2.728   0.858 -0.1565 -0.7834 -0.5417
  748MPD2    H711116   3.885   2.639   0.810  1.7182 -1.5189  0.7955
  749TMC3    C111117   4.049   3.425   0.834 -0.1623 -0.4975  0.4778
  749TMC3    C211118   4.096   3.414   0.967 -1.0289  0.3369  0.4467
  749TMC3    C311119   4.118   3.533   1.032  0.3896  0.5515 -0.2629
  749TMC3    C411120   4.030   3.547   0.774 -0.0228  1.5368  0.0997
  749TMC3    C511121   4.059   3.658   0.843 -0.2632 -0.4166  0.0671
  749TMC3    C611122   4.094   3.652   0.973  0.6465 -0.6509  0.4912
  749TMC3     C11123   4.033   3.310   0.749  0.4558  0.8843 -0.5178
  749TMC3     O11124   4.026   3.333   0.628  0.2982 -0.0443  0.4966
  749TMC3     H11125   4.105   3.317   1.013 -0.3397  0.7248  1.1196
  749TMC3    H111126   4.000   3.540   0.670  0.1641  1.5430  0.0440
  749TMC3    H211127   4.118   3.744   1.026 -2.1009  0.7407 -0.6843
  749TMC3    C711128   4.086   3.778   0.771 -0.1012 -0.4304  0.3506
  749TMC3    C811129   4.185   3.532   1.163 -0.0720  0.2444  0.1107
  749TMC3    O111130   4.121   3.881   0.829  0.3813  0.7746  0.1602
  749TMC3    O211131   4.182   3.629   1.234 -0.5465 -0.0084  0.9611
  750MPD2     C11132   4.051   4.183  11.844  0.5169 -0.7085  0.5500
  750MPD2    C111133   3.953   4.193  11.752 -0.0388 -0.2841  0.1351
  750MPD2    C211134   3.956   4.114  11.638  0.3006  0.4821 -0.0690
  750MPD2    C311135   4.047   4.011  11.625  0.1278  0.1045 -0.3321
  750MPD2    C411136   4.141   3.997  11.719  0.2445 -0.4686  1.1627
  750MPD2    C511137   4.142   4.081  11.831 -0.0823 -0.0300  0.6416
  750MPD2     H11138   3.880   4.131  11.562 -0.7519 -1.8117  0.4888
  750MPD2    H111139   4.222   3.925  11.713  2.3366  2.1566 -1.5260
  750MPD2    H211140   4.055   4.243  11.934 -3.2692  0.2128  0.1269
  750MPD2    H311141   4.229   4.068  11.894 -0.2416 -3.1568  0.2284
  750MPD2     N11142   4.076   3.937  11.510  0.3656 -0.1201 -0.0172
  750MPD2    H511143   4.161   3.882  11.502 -0.6124 -1.4825 -0.8818
  750MPD2    N111144   3.843   4.287  11.776 -0.6468  0.1483 -0.4061
  750MPD2    H711145   3.855   4.354  11.851  0.5160  0.2943 -0.7163
  751TMC3    C111146   4.036   3.820  11.320  0.3276 -0.3307 -0.3255
  751TMC3    C211147   3.941   3.729  11.299  0.4226  0.0145 -0.0290
  751TMC3    C311148   3.972   3.603  11.255 -0.3675  0.3481  0.5941
  751TMC3    C411149   4.173   3.791  11.302  1.2323 -0.8219 -0.5089
  751TMC3    C511150   4.201   3.659  11.270  0.3819  0.5203  0.0850
  751TMC3    C611151   4.105   3.561  11.237 -0.7692  0.3916 -0.1712
  751TMC3     C11152   3.989   3.930  11.404 -0.5789  0.2922  0.3827
  751TMC3     O11153   3.876   3.976  11.390 -0.1792  0.3990 -0.5539
  751TMC3     H11154   3.842   3.769  11.312  1.3199  1.5458  2.0704
  751TMC3    H111155   4.253   3.863  11.316  2.2550 -2.3286  1.2945
  751TMC3    H211156   4.126   3.472  11.179  1.0754  0.0556  1.0134
  751TMC3    C711157   4.340   3.619  11.238 -0.9257  0.2141 -0.3414
  751TMC3    C811158   3.865   3.502  11.232  0.0889  0.3712 -1.0312
  751TMC3    O111159   4.416   3.705  11.196  0.7928  0.7249  0.2077
  751TMC3    O211160   3.892   3.409  11.159 -0.6108  0.0407  0.6021
  752TMC3    C111161   3.107   4.290  16.961  0.4486 -0.3880 -0.1979
  752TMC3    C211162   3.081   4.187  17.054 -0.5563  0.2251  0.0130
  752TMC3    C311163   3.030   4.229  17.175 -0.5090  0.1511  0.3642
  752TMC3    C411164   3.080   4.421  16.992  0.0303 -0.2477  0.3453
  752TMC3    C511165   3.018   4.452  17.112  0.0284  0.2593  0.6836
  752TMC3    C611166   2.986   4.357  17.205 -0.0542 -0.2711  0.0479
  752TMC3     C11167   3.126   4.235  16.829 -0.1581  0.8093  0.5539
  752TMC3     O11168   3.181   4.127  16.804 -0.5958 -0.0155  0.7094
  752TMC3     H11169   3.109   4.084  17.035  2.4423  0.9711  0.4350
  752TMC3    H111170   3.126   4.499  16.931  1.6325 -1.9194 -0.5802
  752TMC3    H211171   2.929   4.375  17.295 -2.1585  0.1147 -1.3566
  752TMC3    C711172   3.035   4.579  17.173 -0.2206 -0.5208  0.5302
  752TMC3    C811173   3.021   4.122  17.272 -0.3444  0.0546  0.2055
  752TMC3    O111174   3.021   4.589  17.295  0.7247  0.2808 -0.2920
  752TMC3    O211175   2.984   4.010  17.236 -0.3133 -0.1972  0.3553
  753TMC3    C111176   4.709   0.889  13.295  0.1451  0.0468 -0.5805
  753TMC3    C211177   0.007   0.906  13.433  0.2288  0.0271  0.3875
  753TMC3    C311178   0.057   0.791  13.492  0.4578  0.8909  1.1910
  753TMC3    C411179   4.702   0.771  13.228  0.3202 -0.0827 -0.4342
  753TMC3    C511180   0.001   0.656  13.297 -0.2273  0.3254 -0.0866
  753TMC3    C611181   0.044   0.671  13.426  0.2162 -0.2078  0.9226
  753TMC3     C11182   4.688   1.007  13.213  0.3077  0.0082  0.0282
  753TMC3     O11183   4.640   0.993  13.102 -0.0894  0.5363 -0.2185
  753TMC3     H11184   4.726   0.990  13.499 -1.1079  0.3606 -0.3861
  753TMC3    H111185   4.667   0.761  13.126  0.3313  0.6531 -0.5091
  753TMC3    H211186   0.074   0.587  13.487  2.5519 -1.3327 -1.7894
  753TMC3    C711187   4.719   0.530  13.228 -0.2605 -1.1238 -0.2502
  753TMC3    C811188   0.119   0.792  13.625 -0.2530 -0.1677 -0.2097
  753TMC3    O111189   4.645   0.532  13.130  0.0877  0.3977  0.2760
  753TMC3    O211190   0.152   0.691  13.683  0.4325  0.2684 -0.1278
  754MPD2     C11191   3.880   4.724  13.204 -0.0628 -0.1590  0.2066
  754MPD2    C111192   3.852   4.613  13.277 -0.2134  0.2865 -0.1549
  754MPD2    C211193   3.736   4.547  13.265  0.6519  0.9785 -0.3121
  754MPD2    C311194   3.652   4.569  13.149  0.3988 -0.7012 -0.2871
  754MPD2    C411195   3.695   4.671  13.069 -0.6172  0.5934 -0.5185
  754MPD2    C511196   3.802   0.006  13.091 -0.2721  0.4773 -0.0026
  754MPD2     H11197   3.709   4.479  13.345  1.5916  0.2967 -0.5709
  754MPD2    H111198   3.635   4.695  12.982 -0.3194 -3.4426 -1.7987
  754MPD2    H211199   3.963   0.056  13.220 -1.3883  1.8232 -1.3545
  754MPD2    H311200   3.809   0.094  13.028  1.7790 -0.0601 -0.5291
  754MPD2     N11201   3.532   4.498  13.124 -0.0945  0.2102 -0.0475
  754MPD2    H511202   3.475   4.548  13.056  1.1379 -0.6141 -1.6966
  754MPD2    N111203   3.926   4.583  13.394  0.2043  0.3501 -0.0287
  754MPD2    H711204   3.883   4.516  13.457  0.3749  1.3091  1.1123
  755MPD2     C11205   2.764   0.159  13.007 -0.3626  0.2679  0.2636
  755MPD2    C111206   2.714   0.047  13.072 -0.0102  0.9647 -0.3463
  755MPD2    C211207   2.804   4.680  13.106 -0.1043 -0.6593 -0.1028
  755MPD2    C311208   2.936   4.692  13.069 -0.6615  0.1211 -0.0281
  755MPD2    C411209   2.983   0.068  12.998  0.1131 -0.3675  0.1920
  755MPD2    C511210   2.893   0.166  12.959  0.3315 -0.7116  0.2037
  755MPD2     H11211   2.767   4.595  13.163 -2.5165  0.0244 -0.6283
  755MPD2    H111212   3.085   0.090  12.968 -0.5390  2.9091  0.4621
  755MPD2    H211213   2.698   0.239  12.976 -1.6229 -1.3693 -1.2522
  755MPD2    H311214   2.918   0.260  12.911  4.3350 -3.3839 -2.9763
  755MPD2     N11215   3.036   4.596  13.117  0.2102 -0.2669  0.0740
  755MPD2    H511216   3.126   4.596  13.070  1.3581  0.4919  2.2728
  755MPD2    N111217   2.581   0.040  13.115  0.2904 -0.0514  0.0976
  755MPD2    H711218   2.546   4.685  13.145  0.0973  0.3373  1.0359
  756MPD2     C11219   3.591   0.018   9.830 -0.0214  0.7242 -0.0047
  756MPD2    C111220   3.480   0.042   9.916  0.6456 -0.3907  0.8584
  756MPD2    C211221   3.361   0.064   9.856 -0.6450  0.1024 -0.3463
  756MPD2    C311222   3.346   0.074   9.719  0.9638 -0.1127 -0.1230
  756MPD2    C411223   3.454   0.056   9.638 -0.3252 -0.2832  0.5452
  756MPD2    C511224   3.574   0.039   9.702  0.3832  0.4975  0.1513
  756MPD2     H11225   3.276   0.060   9.922 -0.9454  1.9984 -0.6097
  756MPD2    H111226   3.456   0.071   9.531  1.2617  1.7249  0.8618
  756MPD2    H211227   3.690   4.729   9.866 -0.9488 -2.5508  0.2084
  756MPD2    H311228   3.665   0.029   9.643  0.2796 -1.0047  0.2571
  756MPD2     N11229   3.219   0.121   9.668 -0.3171  0.0442 -0.1918
  756MPD2    H511230   3.151   0.133   9.742 -2.1348 -0.4107 -1.7893
  756MPD2    N111231   3.475   0.025  10.058 -0.3235  0.3830  1.2160
  756MPD2    H711232   3.391   0.045  10.110 -1.2549 -1.3861  0.3885
  757MPD2     C11233   2.556   4.555  10.084  0.2861 -0.5654  0.4518
  757MPD2    C111234   2.692   4.544  10.081 -0.0238 -0.0375 -0.3987
  757MPD2    C211235   2.756   4.635   9.996  0.2396 -0.0439  0.6751
  757MPD2    C311236   2.692   4.724   9.918  0.2404 -0.9628 -0.5518
  757MPD2    C411237   2.552   0.006   9.926  0.6797 -0.3274 -0.2697
  757MPD2    C511238   2.492   4.650  10.004 -0.6712 -0.4962  0.0433
  757MPD2     H11239   2.864   4.637   9.986  0.0190  1.7475 -1.3443
  757MPD2    H111240   2.489   0.073   9.868 -0.5779  1.4627  3.1807
  757MPD2    H211241   2.503   4.477  10.137  0.4865 -0.6272  0.5636
  757MPD2    H311242   2.384   4.660  10.005 -0.6442 -0.2463  0.4774
  757MPD2     N11243   2.774   0.055   9.823  0.2144 -0.3341 -0.5000
  757MPD2    H511244   2.865   0.012   9.809  0.0095 -0.4789 -1.3759
  757MPD2    N111245   2.756   4.453  10.166 -0.5595  0.1539 -0.4160
  757MPD2    H711246   2.702   4.403  10.236 -0.6830 -0.1951 -0.7546
  758MPD2     C11247   3.864   3.993  15.967 -0.3489  0.0320  0.0148
  758MPD2    C111248   3.876   3.879  16.044  0.3166  0.3658  0.6744
  758MPD2    C211249   3.778   3.861  16.135  0.0228  0.3096 -0.2163
  758MPD2    C311250   3.689   3.964  16.163 -1.5136  0.1352 -0.6747
  758MPD2    C411251   3.685   4.075  16.083 -0.0028 -0.3039  0.1426
  758MPD2    C511252   3.779   4.099  15.990  0.0358 -0.2367  0.3504
  758MPD2     H11253   3.780   3.774  16.200 -4.4759  0.9586  0.7890
  758MPD2    H111254   3.619   4.161  16.087 -1.5496 -1.4365 -0.8485
  758MPD2    H211255   3.931   4.017  15.884  0.5839 -1.8574  0.2303
  758MPD2    H311256   3.779   4.187  15.926 -0.6946 -1.2837 -1.0853
  758MPD2     N11257   3.603   3.948  16.280 -0.3877 -0.2225 -0.3800
  758MPD2    H511258   3.600   3.856  16.321 -1.7629  0.1525  0.3615
  758MPD2    N111259   3.981   3.783  16.016 -0.2678  0.3689  0.6118
  758MPD2    H711260   4.058   3.815  15.959 -1.8278 -0.7647 -2.1337
  759MPD2     C11261   3.066   2.399   9.987  0.4285 -0.5089  0.2712
  759MPD2    C111262   3.113   2.270   9.973 -0.0160 -0.2634 -0.3101
  759MPD2    C211263   3.230   2.249   9.902 -0.4388 -0.0574  0.0909
  759MPD2    C311264   3.290   2.348   9.827 -0.1080  0.0114 -0.3794
  759MPD2    C411265   3.256   2.479   9.850  0.0836  0.4278  0.1753
  759MPD2    C511266   3.143   2.500   9.931 -0.2222 -0.6083  0.4652
  759MPD2     H11267   3.266   2.148   9.887 -0.6231  0.1530 -1.7146
  759MPD2    H111268   3.305   2.561   9.800  0.9685 -1.8477 -2.6873
  759MPD2    H211269   2.967   2.428  10.019 -0.7614 -2.8296 -1.3257
  759MPD2    H311270   3.105   2.602   9.934  1.3409 -0.0165  0.2403
  759MPD2     N11271   3.392   2.302   9.737 -0.2890 -0.1458 -0.9219
  759MPD2    H511272   3.400   2.202   9.721 -0.1482 -0.2913  0.0580
  759MPD2    N111273   3.050   2.157  10.031 -0.2804  0.2494  0.2530
  759MPD2    H711274   3.091   2.065  10.015  0.3764  0.6436 -0.3113
  760MPD2     C11275   2.147   4.422  12.166  0.2825  0.3618 -0.2073
  760MPD2    C111276   2.277   4.382  12.172  1.3561 -0.1306  0.3533
  760MPD2    C211277   2.308   4.251  12.198 -0.0571  0.2230  0.0915
  760MPD2    C311278   2.209   4.150  12.219  0.4733  0.2031 -0.6721
  760MPD2    C411279   2.076   4.199  12.210  0.1815  0.2024 -0.4327
  760MPD2    C511280   2.048   4.330  12.192 -0.3089 -0.4083 -0.1754
  760MPD2     H11281   2.414   4.228  12.198  0.0675  0.8029 -1.7638
  760MPD2    H111282   1.995   4.129  12.229  0.9417 -0.7612 -0.7827
  760MPD2    H211283   2.115   4.525  12.155  0.6140  0.6487  1.5470
  760MPD2    H311284   1.944   4.360  12.200 -0.2727  0.1161 -1.5662
  760MPD2     N11285   2.240   4.013  12.250  0.1675 -0.3988  0.4999
  760MPD2    H511286   2.163   3.950  12.268 -0.6352  0.4925  0.2232
  760MPD2    N111287   2.384   4.468  12.161  0.0097  0.1703 -0.2567
  760MPD2    H711288   2.473   4.422  12.175 -0.8773 -1.1421  0.9970
  761MPD2     C11289   3.403   3.312  11.349  0.2950 -0.7219 -0.2731
  761MPD2    C111290   3.486   3.280  11.245  0.4882 -0.2495 -0.2021
  761MPD2    C211291   3.616   3.340  11.240 -0.0003  0.3835 -0.0103
  761MPD2    C311292   3.649   3.436  11.329  0.7052  0.5588  0.0532
  761MPD2    C411293   3.558   3.472  11.427  0.0733 -1.0874 -0.5932
  761MPD2    C511294   3.438   3.410  11.434  0.0952  0.2108  0.0959
  761MPD2     H11295   3.682   3.319  11.156 -0.5255  2.0650 -0.8436
  761MPD2    H111296   3.591   3.540  11.506 -0.3877 -2.3398  0.6827
  761MPD2    H211297   3.302   3.273  11.352 -0.4201  1.0824 -0.8309
  761MPD2    H311298   3.373   3.427  11.519 -0.4738 -0.8927 -0.1188
  761MPD2     N11299   3.766   3.511  11.326 -0.4732  0.0500  0.0888
  761MPD2    H511300   3.769   3.587  11.394  0.1781 -0.1305  0.2621
  761MPD2    N111301   3.445   3.174  11.162 -0.2526 -0.1041  0.0588
  761MPD2    H711302   3.360   3.122  11.180 -0.7315  1.4619  2.2860
  762MPD2     C11303   3.418   2.458  10.584  0.7210 -0.5843  0.6025
  762MPD2    C111304   3.502   2.564  10.607 -0.1307  0.7052  0.4343
  762MPD2    C211305   3.618   2.573  10.535  0.2722  0.3073 -0.1400
  762MPD2    C311306   3.662   2.477  10.445  0.7681  0.2989  0.9111
  762MPD2    C411307   3.584   2.365  10.439  0.1102  0.0420 -0.1523
  762MPD2    C511308   3.473   2.357  10.509 -0.1523 -0.5292  0.0179
  762MPD2     H11309   3.674   2.666  10.535  0.9202 -0.0690  2.2961
  762MPD2    H111310   3.598   2.278  10.376 -2.8846 -0.5679  0.0189
  762MPD2    H211311   3.318   2.454  10.625 -0.8471 -1.1986 -3.3181
  762MPD2    H311312   3.418   2.264  10.497 -0.2768 -0.6409  1.3892
  762MPD2     N11313   3.790   2.488  10.384 -0.0092 -0.3921  0.1906
  762MPD2    H511314   3.854   2.557  10.421 -0.2779  0.6016 -1.1802
  762MPD2    N111315   3.462   2.650  10.712  0.0670 -0.4385 -0.1013
  762MPD2    H711316   3.383   2.620  10.769  0.5344 -0.2793  0.6325
  763MPD2     C11317   1.145   3.867  16.155 -0.4367 -0.2325 -0.6166
  763MPD2    C111318   1.023   3.923  16.113  0.2932  0.3144  0.2468
  763MPD2    C211319   1.007   4.062  16.111 -0.0667  0.0860 -0.7175
  763MPD2    C311320   1.117   4.142  16.160 -0.2608 -1.3433 -0.5535
  763MPD2    C411321   1.229   4.088  16.205  0.6321  0.3117  0.1914
  763MPD2    C511322   1.248   3.951  16.195 -0.8164 -0.4055  0.1486
  763MPD2     H11323   0.911   4.099  16.078  0.2395 -0.3106 -2.0485
  763MPD2    H111324   1.309   4.141  16.255  2.4102 -2.2721  0.0346
  763MPD2    H211325   1.163   3.762  16.140  0.5564 -0.3428  1.2599
  763MPD2    H311326   1.324   3.895  16.248  0.1433  0.8326  0.0721
  763MPD2     N11327   1.111   4.282  16.169  0.1446 -0.2376  0.1266
  763MPD2    H511328   1.192   4.330  16.209 -0.0181  0.9883 -0.9987
  763MPD2    N111329   0.923   3.853  16.050  0.4450 -0.0556 -0.3319
  763MPD2    H711330   0.848   3.905  16.006  0.8427  1.4170  0.7288
  764MPD2     C11331   3.992   0.855  17.230 -0.1885  1.0955  0.2936
  764MPD2    C111332   3.896   0.777  17.174  0.4700  0.8362  0.0828
  764MPD2    C211333   3.890   0.640  17.195 -0.1715  0.3640  0.2145
  764MPD2    C311334   3.985   0.576  17.264 -0.0202  0.1859  0.3563
  764MPD2    C411335   4.090   0.649  17.315 -0.2014  0.3840 -0.4946
  764MPD2    C511336   4.090   0.785  17.301 -0.7783  0.7890  0.0944
  764MPD2     H11337   3.807   0.587  17.151 -1.0052  0.0519  2.1753
  764MPD2    H111338   4.176   0.612  17.369 -0.2210 -0.0647 -0.7667
  764MPD2    H211339   3.994   0.963  17.220 -0.2204  1.1772  1.1529
  764MPD2    H311340   4.179   0.839  17.330  1.1035 -0.6947 -2.9966
  764MPD2     N11341   3.956   0.441  17.290  0.0166 -0.5665 -0.9055
  764MPD2    H511342   3.869   0.399  17.260 -0.9971  1.2160 -0.4133
  764MPD2    N111343   3.796   0.842  17.096  0.0143 -0.3888  0.5328
  764MPD2    H711344   3.723   0.777  17.068  0.0154  0.1381 -0.6941
  765MPD2     C11345   3.448   3.119  16.137  0.4482 -0.0923  0.1853
  765MPD2    C111346   3.530   3.227  16.095  0.7537  0.7307 -0.2863
  765MPD2    C211347   3.659   3.196  16.045 -0.6369 -0.1577  0.0905
  765MPD2    C311348   3.682   3.061  16.020 -0.1143  0.5999 -0.3399
  765MPD2    C411349   3.605   2.954  16.060  0.2419  0.3056 -0.0189
  765MPD2    C511350   3.489   2.991  16.129  0.4468  0.3731  0.2792
  765MPD2     H11351   3.732   3.266  16.007 -1.1929  0.6343  0.4940
  765MPD2    H111352   3.629   2.850  16.043 -2.3655 -0.0518 -1.6188
  765MPD2    H211353   3.357   3.143  16.190  2.1298  0.9855  2.5741
  765MPD2    H311354   3.426   2.911  16.165 -0.8212  1.4331  0.4242
  765MPD2     N11355   3.804   3.029  15.953  0.0283 -0.4390  0.0950
  765MPD2    H511356   3.871   3.103  15.938 -0.6423 -0.2675 -2.0242
  765MPD2    N111357   3.473   3.354  16.091 -0.8548  0.0106 -0.5220
  765MPD2    H711358   3.379   3.358  16.129 -1.4257  2.1913 -2.1494
  766MPD2     C11359   3.046   3.443  15.663 -0.3544 -0.3896 -0.0260
  766MPD2    C111360   3.153   3.536  15.651 -0.2841 -0.1006  0.4957
  766MPD2    C211361   3.233   3.536  15.538 -0.4612 -0.3329 -0.3679
  766MPD2    C311362   3.209   3.442  15.436 -0.2322 -0.6879 -0.0332
  766MPD2    C411363   3.104   3.355  15.439 -0.1332 -0.1084  0.3769
  766MPD2    C511364   3.024   3.358  15.555  1.1947  0.1005  0.2528
  766MPD2     H11365   3.303   3.618  15.528  2.3367 -2.5656  0.9077
  766MPD2    H111366   3.070   3.286  15.362 -2.5038 -0.1700  1.4513
  766MPD2    H211367   2.982   3.445  15.750 -2.1751  0.0666 -1.3761
  766MPD2    H311368   2.956   3.274  15.562  0.2695  0.9424  1.2082
  766MPD2     N11369   3.291   3.437  15.318  0.0862 -0.3575 -0.1985
  766MPD2    H511370   3.260   3.391  15.233  0.3717 -1.7277  0.4381
  766MPD2    N111371   3.193   3.623  15.756  0.0390 -0.5500 -0.0466
  766MPD2    H711372   3.267   3.690  15.741 -1.6980  1.4862  0.4082
  767MPD2     C11373   3.026   3.693  15.320  0.2115  0.3354 -0.3930
  767MPD2    C111374   3.128   3.738  15.236 -0.2913  0.0119  0.4956
  767MPD2    C211375   3.118   3.695  15.106  0.3170 -0.4332 -0.1159
  767MPD2    C311376   3.016   3.610  15.068  0.6883  0.2031  0.3574
  767MPD2    C411377   2.916   3.572  15.156  0.0084 -0.3877 -0.4210
  767MPD2    C511378   2.922   3.615  15.285  0.3527  0.5908 -1.1325
  767MPD2     H11379   3.195   3.708  15.031 -0.0824 -2.0785 -0.8264
  767MPD2    H111380   2.838   3.506  15.119 -0.1760 -0.4356  0.0502
  767MPD2    H211381   3.036   3.729  15.422  2.3776 -1.3621 -0.0250
  767MPD2    H311382   2.853   3.582  15.361 -0.1027  0.4220 -1.6150
  767MPD2     N11383   3.025   3.565  14.934 -0.5757 -0.2038 -0.0438
  767MPD2    H511384   3.109   3.583  14.879  0.5718 -1.1921  1.3767
  767MPD2    N111385   3.238   3.816  15.288  0.2155 -0.2382  0.0878
  767MPD2    H711386   3.238   3.836  15.388  0.4299 -0.3124  0.1029
  768MPD2     C11387   3.941   1.842  10.544  0.9020 -0.4341 -0.2104
  768MPD2    C111388   3.895   1.857  10.669  0.4853 -0.3130 -0.7206
  768MPD2    C211389   3.976   1.909  10.771  0.1844  0.1264 -0.4047
  768MPD2    C311390   4.113   1.928  10.748  0.0896  0.2547  0.0087
  768MPD2    C411391   4.160   1.910  10.621  0.4609 -1.1428 -0.3767
  768MPD2    C511392   4.075   1.873  10.524  0.9194 -0.0272 -0.6679
  768MPD2     H11393   3.932   1.948  10.862 -0.8471  0.0658 -0.8798
  768MPD2    H111394   4.268   1.923  10.611  0.4661 -1.0295 -0.1753
  768MPD2    H211395   3.883   1.815  10.456 -0.1251  1.0450 -0.0062
  768MPD2    H311396   4.118   1.869  10.425 -0.3904  1.6776 -1.3044
  768MPD2     N11397   4.200   1.975  10.849  0.3147  0.2773 -0.2618
  768MPD2    H511398   4.298   1.999  10.838  0.9134 -1.8637  0.4758
  768MPD2    N111399   3.758   1.827  10.696 -0.1459 -0.5802  1.0181
  768MPD2    H711400   3.715   1.847  10.786 -0.9770 -2.2688  0.9969
  769MPD2     C11401   4.703   0.783  14.702  0.5102 -0.6387 -0.4788
  769MPD2    C111402   4.652   0.728  14.818  0.9271  0.1653  0.5928
  769MPD2    C211403   4.709   0.763  14.932 -0.5258  0.1336  0.2190
  769MPD2    C311404   0.077   0.856  14.942 -0.6829  0.5957  0.9472
  769MPD2    C411405   0.125   0.909  14.824  0.0747 -0.4175  0.3017
  769MPD2    C511406   0.076   0.865  14.702 -0.1949 -0.0317 -0.3974
  769MPD2     H11407   4.697   0.715  15.029 -1.6286 -0.6086 -0.2892
  769MPD2    H111408   0.211   0.974  14.822 -0.7662  0.6836 -0.2407
  769MPD2    H211409   4.663   0.756  14.605 -1.3481 -2.9386  0.9466
  769MPD2    H311410   0.128   0.905  14.616  1.3799  0.8072  0.9455
  769MPD2     N11411   0.126   0.875  15.072  0.2211 -0.0409 -0.0789
  769MPD2    H511412   0.078   0.822  15.144 -1.2982  0.0006 -1.0658
  769MPD2    N111413   4.549   0.633  14.809  0.4268  0.3981 -0.9032
  769MPD2    H711414   4.518   0.621  14.713  1.4518 -1.2680 -1.0236
  770MPD2     C11415   0.129   4.465  15.039 -0.3796  0.4512 -0.0303
  770MPD2    C111416   0.004   4.417  15.008 -0.5671 -0.2336  0.6116
  770MPD2    C211417   4.654   4.501  14.937 -0.0024 -0.2579 -0.0049
  770MPD2    C311418   4.676   4.640  14.931  0.5552  0.0877 -0.4936
  770MPD2    C411419   0.061   4.686  14.980  0.0958 -0.2031  0.4987
  770MPD2    C511420   0.153   4.595  15.021 -0.5146 -0.0865  0.0064
  770MPD2     H11421   4.560   4.463  14.899  1.4776 -2.9044 -1.0329
  770MPD2    H111422   0.088   0.055  14.980 -3.4139  0.7128 -1.0572
  770MPD2    H211423   0.211   4.410  15.083 -0.3068 -0.0443 -0.7793
  770MPD2    H311424   0.244   4.636  15.065 -1.2309 -0.1401  1.5240
  770MPD2     N11425   4.572   4.728  14.886 -0.3899  0.1912 -0.2852
  770MPD2    H511426   4.481   4.696  14.853  0.5736 -1.8586 -0.9699
  770MPD2    N111427   4.706   4.281  15.032  0.5258 -0.1192 -0.0339
  770MPD2    H711428   4.615   4.250  14.999  0.1007  1.5018 -0.3841
  771MPD2     C11429   0.916   2.384  14.274 -0.2733 -0.5287  0.8218
  771MPD2    C111430   0.844   2.491  14.224 -0.6067  0.1924 -0.2196
  771MPD2    C211431   0.723   2.463  14.170 -1.1137  0.5695  0.1175
  771MPD2    C311432   0.675   2.337  14.161 -0.6208  0.2221 -0.1367
  771MPD2    C411433   0.751   2.232  14.200  0.0299  0.1136 -0.5798
  771MPD2    C511434   0.865   2.261  14.266 -0.4756 -0.2401 -0.0442
  771MPD2     H11435   0.674   2.536  14.107 -1.3150 -1.5013 -2.1481
  771MPD2    H111436   0.717   2.129  14.206 -0.1620  0.2803  1.1545
  771MPD2    H211437   1.004   2.402  14.335  0.3907  1.3521 -0.7039
  771MPD2    H311438   0.918   2.178  14.313 -1.7779 -0.7734  0.4710
  771MPD2     N11439   0.553   2.306  14.106  0.3443 -0.1863  0.2955
  771MPD2    H511440   0.545   2.217  14.057  1.5029 -0.6313  0.9395
  771MPD2    N111441   0.879   2.626  14.218  0.3141  0.4033  0.1501
  771MPD2    H711442   0.812   2.690  14.176  0.1726 -0.2228 -0.5820
  772MPD2     C11443   0.517   3.220  14.370  0.0994 -0.0091  0.1086
  772MPD2    C111444   0.522   3.088  14.333  0.1575  0.3106  0.2237
  772MPD2    C211445   0.396   3.019  14.319 -0.0154  0.1632  0.8889
  772MPD2    C311446   0.280   3.080  14.351 -0.7094 -0.2680  0.0381
  772MPD2    C411447   0.286   3.208  14.406  0.8194 -0.3407  0.3455
  772MPD2    C511448   0.402   3.275  14.417  0.6931 -0.6345  0.1602
  772MPD2     H11449   0.407   2.918  14.282  1.6492  0.9402 -0.8059
  772MPD2    H111450   0.196   3.247  14.451  0.0140  0.0412 -1.5972
  772MPD2    H211451   0.608   3.277  14.383 -1.5763  2.1301  2.5617
  772MPD2    H311452   0.390   3.377  14.452 -1.0473 -1.6910  2.6260
  772MPD2     N11453   0.158   3.010  14.353 -0.5846 -0.7303  0.5495
  772MPD2    H511454   0.076   3.054  14.394 -1.1032 -1.8021  0.6656
  772MPD2    N111455   0.641   3.031  14.299 -0.3495 -0.3515  0.0511
  772MPD2    H711456   0.634   2.935  14.266  2.7280 -0.3979 -0.4552
  773MPD2     C11457   4.396   4.585  17.456 -0.6667 -0.1219  0.8448
  773MPD2    C111458   4.324   4.466  17.462 -0.1567 -0.5656  0.6103
  773MPD2    C211459   4.344   4.368  17.562 -0.4165 -0.2946  0.4294
  773MPD2    C311460   4.434   4.407  17.659 -0.1771 -0.2660 -0.7400
  773MPD2    C411461   4.497   4.525  17.663 -0.1362 -0.2562 -0.0832
  773MPD2    C511462   4.487   4.608  17.551  0.7270 -0.2847  0.4299
  773MPD2     H11463   4.293   4.273  17.567 -0.5019 -0.4145 -3.0679
  773MPD2    H111464   4.576   4.547  17.733  0.0621 -0.6279 -0.1884
  773MPD2    H211465   4.390   4.661  17.379  1.2036  0.8884  1.7073
  773MPD2    H311466   4.556   4.692  17.547 -0.5782  0.7324 -0.3593
  773MPD2     N11467   4.462   4.309   0.015  0.8977 -0.4468  0.9668
  773MPD2    H511468   4.408   4.224   0.003  0.3049  0.0554  0.0711
  773MPD2    N111469   4.241   4.424  17.356 -0.7885  0.1160 -0.1716
  773MPD2    H711470   4.204   4.330  17.366 -0.4659 -0.0491 -0.5261
  774MPD2     C11471   4.114   3.714  13.597 -0.6909 -0.2756  0.1734
  774MPD2    C111472   4.040   3.762  13.702 -0.3824  1.3699 -0.0666
  774MPD2    C211473   4.033   3.900  13.717 -0.4057  0.2830  0.2155
  774MPD2    C311474   4.093   3.986  13.632  0.4777  0.3800  0.6610
  774MPD2    C411475   4.156   3.936  13.521 -0.1199  0.2165  0.0517
  774MPD2    C511476   4.173   3.801  13.509  0.2689 -0.0933  0.2685
  774MPD2     H11477   3.977   3.952  13.793  1.0587  0.7771  0.9622
  774MPD2    H111478   4.202   4.000  13.447  0.6914  1.2050  1.4128
  774MPD2    H211479   4.134   3.608  13.589 -1.0252 -0.3980  0.9396
  774MPD2    H311480   4.220   3.753  13.424  0.1656  0.7481 -0.2688
  774MPD2     N11481   4.068   4.123  13.653 -0.1653  0.0581  0.0771
  774MPD2    H511482   4.032   4.156  13.742  0.7494 -0.6900  0.7196
  774MPD2    N111483   3.970   3.672  13.783  0.3026  0.2664  0.1866
  774MPD2    H711484   3.972   3.572  13.766 -1.3444  0.0823  1.0556
  775MPD2     C11485   0.272   0.067  15.451  0.3210 -0.1748  0.1394
  775MPD2    C111486   0.303   0.157  15.550  0.1433  0.0853 -0.5485
  775MPD2    C211487   0.356   0.273  15.507 -0.5152  0.1902  0.0988
  775MPD2    C311488   0.384   0.297  15.370  0.0295  0.5877 -0.3755
  775MPD2    C411489   0.355   0.201  15.273  0.3834  0.7158 -0.1555
  775MPD2    C511490   0.292   0.091  15.320  0.5701  0.2750 -0.2277
  775MPD2     H11491   0.381   0.353  15.575  0.6953 -2.0513  2.2902
  775MPD2    H111492   0.393   0.208  15.172  0.9832 -1.1649 -0.0620
  775MPD2    H211493   0.218   4.711  15.473  0.5463 -0.1620  0.7658
  775MPD2    H311494   0.271   0.015  15.245  0.0051 -0.2488  0.4716
  775MPD2     N11495   0.458   0.415  15.328 -0.5289  0.2874 -0.3581
  775MPD2    H511496   0.465   0.443  15.230  1.0859 -1.7957 -0.8476
  775MPD2    N111497   0.269   0.131  15.686  0.5272  0.4471  0.4598
  775MPD2    H711498   0.205   0.052  15.685  0.1357  0.7053  3.7370
  776MPD2     C11499   3.262   4.685  11.332 -0.7108  0.3307  0.9159
  776MPD2    C111500   3.317   4.711  11.456 -0.0890 -0.0177  0.8876
  776MPD2    C211501   3.350   0.105  11.477 -0.0197 -0.7307  0.7413
  776MPD2    C311502   3.339   0.206  11.384  0.1544 -0.2043 -0.4040
  776MPD2    C411503   3.273   0.184  11.264 -0.5885  0.7532 -0.4914
  776MPD2    C511504   3.233   0.048  11.247  0.2415 -1.0364 -0.0240
  776MPD2     H11505   3.407   0.137  11.563  0.3490  0.0829  0.2021
  776MPD2    H111506   3.251   0.263  11.193 -1.4175  0.1909 -0.8555
  776MPD2    H211507   3.225   4.588  11.298 -0.8541  0.6528  0.1434
  776MPD2    H311508   3.187   0.039  11.150 -0.4945 -1.0537  0.3272
  776MPD2     N11509   3.405   0.321  11.417  0.0101  0.3496  0.0155
  776MPD2    H511510   3.433   0.328  11.514  1.6562 -1.2748 -0.3396
  776MPD2    N111511   3.339   4.603  11.544 -0.6644  0.9559 -0.1343
  776MPD2    H711512   3.319   4.509  11.510  0.9145 -1.3713  5.3666
  777MPD2     C11513   4.638   2.670   0.782 -0.4647 -0.8319  0.0326
  777MPD2    C111514   4.676   2.597   0.889 -0.1285  0.8619  0.8240
  777MPD2    C211515   4.682   2.459   0.882 -0.2999 -0.7580  0.4383
  777MPD2    C311516   4.649   2.387   0.768 -0.4897  0.1880 -0.2382
  777MPD2    C411517   4.625   2.465   0.654  0.3393 -1.0530 -0.4641
  777MPD2    C511518   4.622   2.601   0.664  0.2537 -0.1279 -0.0477
  777MPD2     H11519   4.702   2.407   0.975  1.5769 -1.0250 -0.1046
  777MPD2    H111520   4.601   2.428   0.555  0.4823 -0.9825 -0.5251
  777MPD2    H211521   4.644   2.778   0.782 -0.6351 -0.8207 -0.1666
  777MPD2    H311522   4.596   2.661   0.577 -1.1177  0.0340  0.4651
  777MPD2     N11523   4.652   2.243   0.761 -0.4047 -0.3656  0.0564
  777MPD2    H511524   4.682   2.195   0.845 -1.3706  0.5437  0.9252
  777MPD2    N111525   4.702   2.672   1.002  0.0833  0.5190  0.2236
  777MPD2    H711526   4.691   2.773   0.997 -2.3318  0.2393  0.1646
  778MPD2     C11527   1.246   2.970  15.232  0.4814  0.1765  0.2534
  778MPD2    C111528   1.286   2.871  15.147 -0.0887  0.5437 -0.6121
  778MPD2    C211529   1.365   2.891  15.041  0.2293  0.0356 -0.4424
  778MPD2    C311530   1.425   3.015  15.026  0.0751  0.0227  0.9087
  778MPD2    C411531   1.377   3.117  15.097  0.0612 -0.1221  0.4806
  778MPD2    C511532   1.296   3.095  15.206  0.2744 -0.1583 -0.1614
  778MPD2     H11533   1.400   2.808  14.981  0.3883  0.1352 -0.4864
  778MPD2    H111534   1.402   3.218  15.068 -0.6050  0.1255  0.7577
  778MPD2    H211535   1.174   2.958  15.312  0.5535 -0.2257  0.2535
  778MPD2    H311536   1.268   3.176  15.272 -2.2866 -1.2093  0.0322
  778MPD2     N11537   1.524   3.025  14.919 -0.4292  0.1604 -0.5357
  778MPD2    H511538   1.551   2.934  14.885 -2.4986 -0.3410 -0.8135
  778MPD2    N111539   1.266   2.736  15.178  0.4249  0.2296 -0.2943
  778MPD2    H711540   1.296   2.669  15.109  0.4073 -1.1089  0.9880
  779MPD2     C11541   0.049   2.029  14.079  0.2905  0.9907 -0.9581
  779MPD2    C111542   0.155   1.998  14.160  0.6411 -0.3632  0.5533
  779MPD2    C211543   0.202   2.101  14.242  0.2069 -0.5048 -0.3028
  779MPD2    C311544   0.147   2.228  14.253  1.4005 -0.0076  0.1122
  779MPD2    C411545   0.044   2.257  14.161  0.2122  0.1465  0.5781
  779MPD2    C511546   0.006   2.156  14.077 -0.4180 -0.3593  0.8792
  779MPD2     H11547   0.280   2.073  14.312  0.8187  1.9470 -0.0288
  779MPD2    H111548   4.727   2.352  14.149 -0.4514 -0.3780 -0.6975
  779MPD2    H211549   0.005   1.951  14.017  1.5456 -0.3806 -0.1054
  779MPD2    H311550   4.658   2.183  14.013 -0.0599 -2.1733 -0.3377
  779MPD2     N11551   0.196   2.318  14.353 -0.5105  0.0321 -0.3507
  779MPD2    H511552   0.265   2.274  14.412  1.4172  2.7555 -0.5833
  779MPD2    N111553   0.221   1.879  14.158 -0.0559 -0.1307 -0.1542
  779MPD2    H711554   0.293   1.867  14.229  0.9772 -1.0266 -1.3628
  780MPD2     C11555   0.637   1.793   1.116 -0.0420 -0.3149 -0.3885
  780MPD2    C111556   0.548   1.715   1.044 -0.1120 -0.2447  0.5035
  780MPD2    C211557   0.546   1.731   0.904  0.4199 -0.3908  0.1296
  780MPD2    C311558   0.633   1.820   0.842 -0.4946 -0.3390  0.8474
  780MPD2    C411559   0.700   1.912   0.921  0.4887  0.4844 -0.6374
  780MPD2    C511560   0.709   1.893   1.055  0.2189 -0.0867 -0.1587
  780MPD2     H11561   0.486   1.660   0.848  1.5258  0.0477 -1.6241
  780MPD2    H111562   0.755   1.997   0.882  0.9791  0.2060 -0.5520
  780MPD2    H211563   0.653   1.775   1.221 -1.1193  1.2272  0.0408
  780MPD2    H311564   0.773   1.951   1.119 -0.4200  0.6963 -0.2275
  780MPD2     N11565   0.637   1.809   0.698  0.6080  0.1444  0.5069
  780MPD2    H511566   0.565   1.756   0.650  0.6826  1.4815 -1.0786
  780MPD2    N111567   0.466   1.629   1.118 -0.5638 -0.1120  0.2461
  780MPD2    H711568   0.480   1.629   1.219 -3.1586 -0.4715  0.5964
  781MPD2     C11569   1.742   3.328  12.279 -0.4565  0.6334  0.0465
  781MPD2    C111570   1.832   3.279  12.372 -0.2947 -0.3716 -0.1515
  781MPD2    C211571   1.961   3.252  12.327 -0.1324  0.1637 -0.4986
  781MPD2    C311572   2.003   3.275  12.198 -0.6209 -0.1229 -0.0852
  781MPD2    C411573   1.906   3.309  12.107  0.5012 -0.2191 -0.7795
  781MPD2    C511574   1.775   3.330  12.149 -0.6820  0.2884  0.0265
  781MPD2     H11575   2.029   3.215  12.404 -0.3220 -0.7764 -0.7872
  781MPD2    H111576   1.934   3.318  12.002  2.8090  1.0840 -0.0546
  781MPD2    H211577   1.646   3.366  12.311 -0.1906  0.0614  1.5332
  781MPD2    H311578   1.704   3.352  12.070 -0.6183 -1.0311 -0.3934
  781MPD2     N11579   2.137   3.246  12.153  0.4462  0.0871 -0.0128
  781MPD2    H511580   2.157   3.252  12.054  0.9203  2.6932  0.2410
  781MPD2    N111581   1.795   3.276  12.512  0.4626 -0.3473 -0.4090
  781MPD2    H711582   1.697   3.294  12.534  1.3728  2.4304  1.3159
  782MPD2     C11583   0.001   3.850  10.540 -0.1600  0.8899 -0.1375
  782MPD2    C111584   0.018   3.833  10.675  0.7595  0.4340 -0.5476
  782MPD2    C211585   4.668   3.908  10.765 -0.1395 -0.2984 -0.9812
  782MPD2    C311586   4.575   3.998  10.718  0.4340  0.4823 -0.4855
  782MPD2    C411587   4.562   4.014  10.579 -0.1346  0.3035  0.4493
  782MPD2    C511588   4.644   3.940  10.495 -0.4277 -0.8836 -0.0131
  782MPD2     H11589   4.679   3.885  10.870 -3.4981  2.6998  0.0295
  782MPD2    H111590   4.492   4.084  10.537  0.4543  2.3170  2.8248
  782MPD2    H211591   0.072   3.805  10.471  0.7870 -2.2197  2.8656
  782MPD2    H311592   4.647   3.951  10.388  0.4599 -0.1635  0.0833
  782MPD2     N11593   4.507   4.082  10.811 -0.2514  0.2358 -0.2287
  782MPD2    H511594   4.537   4.074  10.908  2.3828  0.4018 -1.0217
  782MPD2    N111595   0.108   3.749  10.738 -0.0026 -0.2352  0.6170
  782MPD2    H711596   0.104   3.744  10.839  1.4852  0.4045  0.7149
  783MPD2     C11597   4.485   3.282  11.296  0.3020  0.7105  0.2055
  783MPD2    C111598   4.475   3.412  11.246 -0.5995  0.2559 -0.1548
  783MPD2    C211599   4.576   3.457  11.160  0.8577 -0.0520  0.3269
  783MPD2    C311600   4.687   3.382  11.147  0.6339  0.3330  0.1410
  783MPD2    C411601   4.703   3.252  11.193  0.2181 -0.1084 -0.0158
  783MPD2    C511602   4.598   3.208  11.270  0.4040 -0.0866  0.4585
  783MPD2     H11603   4.566   3.557  11.121 -0.4464  0.0380  0.9017
  783MPD2    H111604   0.056   3.189  11.193  1.6360  1.8842 -1.2881
  783MPD2    H211605   4.406   3.242  11.358 -2.0000 -0.6048 -3.5691
  783MPD2    H311606   4.607   3.121  11.333  1.0025 -0.3928 -0.0547
  783MPD2     N11607   0.059   3.434  11.061 -0.4161 -0.2612  0.2328
  783MPD2    H511608   0.052   3.530  11.029 -1.3513  0.5770  2.9429
  783MPD2    N111609   4.362   3.487  11.269  0.0768  0.0991  0.5424
  783MPD2    H711610   4.289   3.440  11.322  1.4274  1.2430  3.4085
  784MPD2     C11611   2.324   4.117   0.462  0.8198  0.1105  0.3016
  784MPD2    C111612   2.330   4.243   0.519 -0.1228  0.8874  0.0006
  784MPD2    C211613   2.223   4.331   0.500  0.6254  0.3920 -0.1125
  784MPD2    C311614   2.105   4.285   0.439 -0.5008  0.4125 -0.2739
  784MPD2    C411615   2.103   4.158   0.386  0.1909 -0.0925  0.2452
  784MPD2    C511616   2.211   4.077   0.406 -0.6489 -0.2472  0.3660
  784MPD2     H11617   2.230   4.434   0.534  0.3302  0.1791  0.6046
  784MPD2    H111618   2.014   4.118   0.339  0.4636 -0.6277  0.1833
  784MPD2    H211619   2.410   4.050   0.463  1.3508  0.7854 -0.4781
  784MPD2    H311620   2.202   3.972   0.380 -0.2224  0.1730 -1.4536
  784MPD2     N11621   1.999   4.375   0.419  0.2144 -0.3609 -0.2528
  784MPD2    H511622   2.004   4.453   0.484  0.3115  0.9592 -1.8646
  784MPD2    N111623   2.434   4.292   0.596  0.4321  0.1789 -0.3748
  784MPD2    H711624   2.419   4.382   0.641 -1.7169  0.6156 -1.9472
  785MPD2     C11625   2.769   2.192  11.104  0.0035  0.1666  0.2646
  785MPD2    C111626   2.650   2.258  11.108 -0.1889 -0.1615 -0.4226
  785MPD2    C211627   2.554   2.257  11.005  0.4690 -0.1979  0.6583
  785MPD2    C311628   2.576   2.176  10.895  0.1594 -0.6825 -0.9779
  785MPD2    C411629   2.695   2.100  10.893  0.3626  0.3551  0.3725
  785MPD2    C511630   2.787   2.112  10.993  0.1413  1.0945  0.2526
  785MPD2     H11631   2.475   2.331  11.001 -0.5478 -1.4004 -1.5555
  785MPD2    H111632   2.724   2.032  10.813 -2.9898 -2.5040  1.6174
  785MPD2    H211633   2.844   2.181  11.180  0.5548  1.1481 -0.1429
  785MPD2    H311634   2.885   2.068  10.991 -0.6534 -0.8209  2.7812
  785MPD2     N11635   2.473   2.165  10.803 -0.2972  0.2718 -0.0218
  785MPD2    H511636   2.401   2.236  10.812 -1.2607 -0.9295  1.6431
  785MPD2    N111637   2.617   2.324  11.231  0.3118  0.3060 -0.0713
  785MPD2    H711638   2.691   2.324  11.300 -0.4775  1.9333  0.7625
  786MPD2     C11639   0.991   1.008  15.013  0.1534  0.0322  0.8661
  786MPD2    C111640   1.078   0.900  15.001  0.1955 -0.4195 -0.8139
  786MPD2    C211641   1.169   0.864  15.101  0.3560  0.3178  0.0998
  786MPD2    C311642   1.170   0.922  15.221  0.1520  1.3547  0.1863
  786MPD2    C411643   1.086   1.026  15.245  0.8341  0.3520  0.1440
  786MPD2    C511644   0.995   1.056  15.145 -0.1030  0.7734  0.0311
  786MPD2     H11645   1.232   0.779  15.077 -0.3854 -0.0850 -0.4245
  786MPD2    H111646   1.063   1.059  15.345  1.1474  0.7293  0.0913
  786MPD2    H211647   0.924   1.050  14.939 -0.5345 -1.8660  0.4233
  786MPD2    H311648   0.930   1.141  15.158 -1.4425 -0.4336  1.2647
  786MPD2     N11649   1.258   0.880  15.322 -0.1902  0.6674  0.0148
  786MPD2    H511650   1.250   0.917  15.416 -0.1973 -3.1271  1.4935
  786MPD2    N111651   1.094   0.818  14.887 -0.1610  0.2160 -0.0549
  786MPD2    H711652   1.154   0.736  14.893 -1.2486 -0.6309 -0.8713
  787MPD2     C11653   1.556   0.509  14.914 -0.2373 -0.1717 -0.3965
  787MPD2    C111654   1.523   0.477  14.788  0.1414 -0.1484  0.0695
  787MPD2    C211655   1.610   0.396  14.709  0.5982  0.0182  0.1469
  787MPD2    C311656   1.718   0.333  14.761 -0.1777 -0.4113 -0.2749
  787MPD2    C411657   1.752   0.368  14.886 -0.4268  0.3701 -0.3321
  787MPD2    C511658   1.675   0.457  14.959  0.3717  0.5556  0.0693
  787MPD2     H11659   1.576   0.370  14.610  0.9125 -1.0561  0.3162
  787MPD2    H111660   1.835   0.322  14.939 -0.0658  2.1156  0.6153
  787MPD2    H211661   1.487   0.568  14.973  0.8202  0.3713  0.2937
  787MPD2    H311662   1.705   0.478  15.061  2.3065 -1.1997 -0.1294
  787MPD2     N11663   1.789   0.244  14.679 -0.5018  0.4871  0.8600
  787MPD2    H511664   1.743   0.236  14.589  1.8583  0.7634 -0.3672
  787MPD2    N111665   1.399   0.526  14.742  0.1229 -0.6268  0.0941
  787MPD2    H711666   1.352   0.590  14.804 -0.1552 -0.3881 -0.3612
  788MPD2     C11667   3.100   3.209   1.495  0.0221 -0.4352  0.3345
  788MPD2    C111668   3.148   3.178   1.368  0.0496 -0.6015  0.6133
  788MPD2    C211669   3.179   3.280   1.273  0.4560 -0.4528 -0.1296
  788MPD2    C311670   3.159   3.412   1.310 -0.6217 -0.4279  0.1664
  788MPD2    C411671   3.110   3.437   1.439  0.1878 -0.6250 -0.5966
  788MPD2    C511672   3.078   3.341   1.529  0.0298 -0.3478 -0.1693
  788MPD2     H11673   3.198   3.251   1.170 -1.6284 -1.6500 -0.1900
  788MPD2    H111674   3.093   3.540   1.470 -2.4239 -1.3482  0.3570
  788MPD2    H211675   3.065   3.135   1.566  0.7895 -0.6608  0.4737
  788MPD2    H311676   3.026   3.362   1.622 -0.6756 -1.0655 -0.3980
  788MPD2     N11677   3.180   3.524   1.224 -0.2133  0.3129  0.2558
  788MPD2    H511678   3.141   3.615   1.245 -1.3502 -0.3102  0.8274
  788MPD2    N111679   3.154   3.036   1.327  0.6895 -0.1899  0.2594
  788MPD2    H711680   3.205   3.019   1.241 -1.5968 -2.8860 -0.5836
  789MPD2     C11681   3.309   3.480  17.284 -0.5992  0.1432  0.0382
  789MPD2    C111682   3.270   3.453  17.156 -0.5451 -0.8235 -0.3109
  789MPD2    C211683   3.192   3.545  17.086 -0.8506 -0.5145 -0.2701
  789MPD2    C311684   3.181   3.674  17.137  0.7860 -0.2745  0.0222
  789MPD2    C411685   3.238   3.702  17.260 -0.0076 -0.1125 -1.1863
  789MPD2    C511686   3.293   3.605  17.341  0.1768  0.8470  0.7996
  789MPD2     H11687   3.135   3.516  16.998 -0.4619  1.7135 -1.2676
  789MPD2    H111688   3.226   3.802  17.300 -1.8908 -1.4903  1.7118
  789MPD2    H211689   3.388   3.417  17.324  0.8759 -0.0266 -3.1332
  789MPD2    H311690   3.334   3.633  17.437  1.0359  2.0837  0.0679
  789MPD2     N11691   3.115   3.776  17.065 -0.5407 -0.5823  0.0979
  789MPD2    H511692   3.097   3.866  17.107  0.3924 -1.8574  3.2338
  789MPD2    N111693   3.300   3.331  17.088  0.2471 -0.0340  0.0673
  789MPD2    H711694   3.264   3.336  16.994  1.6120 -0.1854 -0.4593
  790MPD2     C11695   4.038   0.306  13.534  1.3450 -0.5361 -0.7462
  790MPD2    C111696   4.122   0.311  13.424 -1.1501 -0.5589 -0.2848
  790MPD2    C211697   4.078   0.353  13.299  0.4478 -0.1116 -0.2742
  790MPD2    C311698   3.945   0.379  13.278  0.8058  0.7306 -1.0620
  790MPD2    C411699   3.858   0.378  13.392  0.1545  0.6409 -0.0853
  790MPD2    C511700   3.909   0.349  13.520 -0.4412  0.9146 -0.2623
  790MPD2     H11701   4.142   0.364  13.212  0.6626  1.5476  0.1010
  790MPD2    H111702   3.752   0.401  13.396 -0.0553 -0.3272  0.0995
  790MPD2    H211703   4.073   0.278  13.633  1.1213 -0.7923 -0.7383
  790MPD2    H311704   3.839   0.339  13.602 -1.3050 -0.8234 -1.2071
  790MPD2     N11705   3.897   0.386  13.145 -0.6312  0.3952  0.4067
  790MPD2    H511706   3.966   0.379  13.071 -2.0183 -0.0202 -0.8407
  790MPD2    N111707   4.254   0.279  13.455 -0.5173 -0.3127  0.5443
  790MPD2    H711708   4.275   0.228  13.541  0.6822  1.3167  1.2094
  791MPD2     C11709   3.195   0.322  12.519 -0.1554 -0.4160  0.3331
  791MPD2    C111710   3.268   0.244  12.610  0.2870 -0.6236 -0.1220
  791MPD2    C211711   3.195   0.142  12.671 -0.3320 -0.2143  0.4426
  791MPD2    C311712   3.062   0.109  12.634 -0.3828 -0.1242 -0.1042
  791MPD2    C411713   3.005   0.169  12.531 -0.3932  0.1351  0.8039
  791MPD2    C511714   3.072   0.272  12.475 -0.4238  0.6034  0.1275
  791MPD2     H11715   3.244   0.082  12.746  1.0898  1.2079  0.6430
  791MPD2    H111716   2.905   0.146  12.497 -0.5778  1.5493  0.4236
  791MPD2    H211717   3.238   0.414  12.479 -2.4578  0.3302 -0.4041
  791MPD2    H311718   3.011   0.319  12.399 -1.8417  1.2755  1.6918
  791MPD2     N11719   3.000   4.731  12.705  0.6842  0.6257 -0.7932
  791MPD2    H511720   3.057   4.687  12.777  0.2296 -0.3270 -1.0140
  791MPD2    N111721   3.396   0.285  12.650  0.0863 -0.2318 -0.0890
  791MPD2    H711722   3.427   0.372  12.609 -0.9094  0.0676 -0.1818
  792MPD2     C11723   3.971   0.566  11.725 -0.4362  0.1449  0.3473
  792MPD2    C111724   3.960   0.554  11.587  1.2756 -0.1220  0.1462
  792MPD2    C211725   3.893   0.444  11.532 -0.2201  0.1280  0.0159
  792MPD2    C311726   3.844   0.344  11.616 -0.5519  0.4839  0.2465
  792MPD2    C411727   3.846   0.362  11.751  0.1553 -0.3255 -0.3079
  792MPD2    C511728   3.906   0.476  11.805  0.1210  0.4283  0.3214
  792MPD2     H11729   3.912   0.426  11.426 -3.0399 -1.7675 -0.1522
  792MPD2    H111730   3.806   0.280  11.811  0.0144 -0.2274 -0.2684
  792MPD2    H211731   4.010   0.654  11.777  0.0825  0.8715 -1.2843
  792MPD2    H311732   3.911   0.489  11.912  1.0124  0.7396  0.2347
  792MPD2     N11733   3.802   0.219  11.567 -0.0626 -0.1311 -0.3415
  792MPD2    H511734   3.787   0.140  11.629 -0.4763 -2.0755 -2.9475
  792MPD2    N111735   4.024   0.659  11.504 -0.6225 -0.3924 -0.3204
  792MPD2    H711736   4.087   0.720  11.556  0.9488  0.6961 -3.5143
  793MPD2     C11737   3.288   4.630  10.761 -0.3055  0.2062  0.4649
  793MPD2    C111738   3.389   4.725  10.755  0.0902  0.0363  0.4306
  793MPD2    C211739   3.474   4.735  10.872  0.3735 -0.4116  0.1296
  793MPD2    C311740   3.456   4.651  10.974 -0.2935 -0.4561 -1.1114
  793MPD2    C411741   3.359   4.561  10.975  1.0338 -0.3816  0.1995
  793MPD2    C511742   3.276   4.546  10.866 -0.7342  0.0642  0.0909
  793MPD2     H11743   3.556   0.071  10.877  1.7008 -1.8117 -1.5147
  793MPD2    H111744   3.331   4.502  11.061 -0.3718  1.1834  0.8032
  793MPD2    H211745   3.213   4.616  10.684 -0.5165 -0.6360  0.8288
  793MPD2    H311746   3.197   4.472  10.865 -0.9644  0.3147 -1.5891
  793MPD2     N11747   3.530   4.664  11.100 -0.3464  0.0658  0.4348
  793MPD2    H511748   3.578   0.016  11.116  1.2036 -0.6658 -0.1619
  793MPD2    N111749   3.417   0.071  10.640 -0.1441  0.0697  1.0558
  793MPD2    H711750   3.497   0.132  10.652 -0.5042  0.5918  0.8124
  794MPD2     C11751   3.612   0.010  16.936 -0.0486  0.3388 -0.6158
  794MPD2    C111752   3.663   4.658  16.844  0.9214 -0.3184 -0.0657
  794MPD2    C211753   3.605   4.661  16.716  0.1717  0.0775 -0.6214
  794MPD2    C311754   3.531   0.040  16.682 -0.2564 -0.2988 -0.3595
  794MPD2    C411755   3.486   0.125  16.775  0.1862  0.0638 -0.1982
  794MPD2    C511756   3.508   0.089  16.909 -0.5686  0.4124 -0.1665
  794MPD2     H11757   3.643   4.587  16.647 -0.1268 -1.5456  0.9381
  794MPD2    H111758   3.429   0.216  16.760  1.6738  1.2292  1.2312
  794MPD2    H211759   3.644   0.008  17.040  0.7609  0.4720 -0.8652
  794MPD2    H311760   3.482   0.160  16.987  1.3468  0.8683  0.0555
  794MPD2     N11761   3.487   0.066  16.556  0.4450 -0.1748  0.7723
  794MPD2    H511762   3.435   0.152  16.542  0.2471 -0.2196  1.2608
  794MPD2    N111763   3.770   4.567  16.874  0.4647 -0.2702  0.2148
  794MPD2    H711764   3.788   4.495  16.805 -0.3277  1.5347 -1.8919
  795MPD2     C11765   1.403   2.201  13.780  0.2219  0.2125  1.3708
  795MPD2    C111766   1.364   2.094  13.710  0.5302  0.0674 -0.4136
  795MPD2    C211767   1.440   1.982  13.727 -0.2709  0.3971 -0.1933
  795MPD2    C311768   1.556   1.987  13.807  0.5278  0.5666  0.3600
  795MPD2    C411769   1.607   2.110  13.846  0.0379 -0.3852  0.4709
  795MPD2    C511770   1.526   2.214  13.836 -0.2116  0.4438  0.6144
  795MPD2     H11771   1.409   1.892  13.676  0.2680  0.3059 -0.3645
  795MPD2    H111772   1.697   2.119  13.907  1.4948 -1.6691 -1.4977
  795MPD2    H211773   1.350   2.295  13.777 -0.1516 -0.0679 -0.7445
  795MPD2    H311774   1.561   2.305  13.884 -1.2720  1.4462 -0.5373
  795MPD2     N11775   1.622   1.868  13.851  0.6316  0.0429  0.2357
  795MPD2    H511776   1.578   1.782  13.820 -0.6168  0.8812 -0.2908
  795MPD2    N111777   1.252   2.098  13.625  0.3904 -0.2404  0.7533
  795MPD2    H711778   1.232   2.014  13.571 -1.8552  0.0145  1.1669
  796MPD2     C11779   1.361   3.088  16.117 -0.1947  0.3732 -0.0245
  796MPD2    C111780   1.407   3.187  16.204 -0.5053  0.5376  0.0819
  796MPD2    C211781   1.405   3.320  16.169 -0.5357 -0.3050 -0.0938
  796MPD2    C311782   1.354   3.358  16.044 -0.1580 -0.4377  0.1986
  796MPD2    C411783   1.288   3.266  15.969  0.2292  0.6937  0.5024
  796MPD2    C511784   1.301   3.130  16.003  0.0864 -0.0642 -0.0904
  796MPD2     H11785   1.445   3.393  16.239 -2.4925 -0.1299  0.8399
  796MPD2    H111786   1.230   3.296  15.883 -0.9970 -0.3964  0.9541
  796MPD2    H211787   1.367   2.985  16.147  0.1642 -0.1057 -1.7172
  796MPD2    H311788   1.254   3.056  15.940  2.4749 -1.4523 -0.2314
  796MPD2     N11789   1.366   3.494  16.007 -0.1000 -0.0662 -0.0977
  796MPD2    H511790   1.407   3.556  16.075  0.0193  0.6886 -0.8566
  796MPD2    N111791   1.445   3.132  16.327  0.3341  0.3066 -0.8806
  796MPD2    H711792   1.426   3.034  16.340 -0.2707  0.5775  0.3185
  797MPD2     C11793   2.761   2.950  16.935 -0.0016 -0.5159  0.3989
  797MPD2    C111794   2.757   2.952  17.074 -0.1478 -0.7596 -0.1772
  797MPD2    C211795   2.639   2.965  17.138  0.2232  0.2569  0.1435
  797MPD2    C311796   2.519   2.994  17.077  0.0543  0.1914  0.5076
  797MPD2    C411797   2.525   3.007  16.936 -0.4115 -0.4727  0.3656
  797MPD2    C511798   2.644   2.986  16.870 -0.6957  0.5892 -0.2745
  797MPD2     H11799   2.642   2.964  17.247 -0.3726  1.7620  0.1699
  797MPD2    H111800   2.450   3.042  16.866  0.0537 -0.8613 -0.3350
  797MPD2    H211801   2.851   2.939  16.876 -0.0774 -0.7617  0.3299
  797MPD2    H311802   2.639   2.983  16.762 -0.6040 -1.7275 -0.1967
  797MPD2     N11803   2.395   2.999  17.149 -0.9475  0.4078  0.4914
  797MPD2    H511804   2.317   3.044  17.101 -0.0985  1.1843 -0.1740
  797MPD2    N111805   2.868   2.928  17.159  0.8704  0.7262  0.2222
  797MPD2    H711806   2.867   2.955  17.257 -0.2224  0.2046  0.3491
  798MPD2     C11807   2.691   3.516  17.561  0.1365  0.0864 -0.0454
  798MPD2    C111808   2.648   3.383  17.559  0.2111  0.0498  0.0644
  798MPD2    C211809   2.736   3.282  17.554 -0.2489  0.6916  0.3104
  798MPD2    C311810   2.873   3.306  17.549  0.5517  0.1985 -0.6586
  798MPD2    C411811   2.922   3.432  17.565 -0.3105  0.2298 -0.4677
  798MPD2    C511812   2.830   3.540  17.555  0.1634 -0.0815  0.6269
  798MPD2     H11813   2.695   3.183  17.546 -1.7777  1.6013 -3.0328
  798MPD2    H111814   3.027   3.452  17.584  0.0680  0.1766 -2.5167
  798MPD2    H211815   2.617   3.594  17.567  0.0979  0.1977 -2.0378
  798MPD2    H311816   2.856   3.645  17.547  2.0187 -0.4376  1.9586
  798MPD2     N11817   2.970   3.211  17.520  0.7493  0.3673 -0.6094
  798MPD2    H511818   3.063   3.250  17.515  0.8090  0.1382 -1.3775
  798MPD2    N111819   2.507   3.356  17.564  0.0488  0.0453 -0.2460
  798MPD2    H711820   2.448   3.412  17.503 -1.0863 -0.0043  0.8064
  799MPD2     C11821   1.518   0.065  14.626 -0.1023  0.0190  0.0199
  799MPD2    C111822   1.401   0.009  14.682  0.3738 -0.0269  0.5397
  799MPD2    C211823   1.278   0.025  14.621 -0.1026 -0.7799 -0.2760
  799MPD2    C311824   1.277   0.099  14.499 -0.4888 -0.3007 -0.2255
  799MPD2    C411825   1.391   0.151  14.446 -0.1281 -0.3397 -0.0868
  799MPD2    C511826   1.511   0.141  14.508  0.8251 -0.1654 -0.6272
  799MPD2     H11827   1.192   4.706  14.658  1.5343  0.2171  5.0096
  799MPD2    H111828   1.388   0.211  14.356 -3.4676  0.2201  0.4057
  799MPD2    H211829   1.608   0.050  14.685 -1.1438 -2.4045  0.9446
  799MPD2    H311830   1.593   0.184  14.452  2.6619 -1.2478  1.2197
  799MPD2     N11831   1.157   0.122  14.422 -0.2041  0.7206 -0.3633
  799MPD2    H511832   1.175   0.172  14.335  1.4171  1.2023  0.2493
  799MPD2    N111833   1.404   4.659  14.791 -0.3270 -0.5105  0.3267
  799MPD2    H711834   1.317   4.608  14.806 -0.1660 -1.5846 -2.4702
  800MPD2     C11835   1.327   0.993  14.619  0.2412  0.9383 -0.1476
  800MPD2    C111836   1.403   0.914  14.542 -0.2543 -0.1847  0.5008
  800MPD2    C211837   1.357   0.869  14.421  0.1449  0.8352 -0.4309
  800MPD2    C311838   1.226   0.901  14.382  0.1156 -0.6721  0.0332
  800MPD2    C411839   1.156   0.984  14.462 -0.5453  0.1061 -0.3825
  800MPD2    C511840   1.205   1.033  14.582  0.8650 -0.0366  0.1707
  800MPD2     H11841   1.421   0.817  14.350  0.6113  1.1235 -0.2240
  800MPD2    H111842   1.066   1.030  14.423 -0.9038 -0.9570 -0.7825
  800MPD2    H211843   1.355   1.046  14.709 -1.7720  2.6231 -0.5055
  800MPD2    H311844   1.152   1.095  14.653  3.1320  0.7507  1.1959
  800MPD2     N11845   1.186   0.861  14.252 -0.6219  0.4468 -0.3704
  800MPD2    H511846   1.253   0.806  14.199 -1.0638  0.6779 -1.1696
  800MPD2    N111847   1.535   0.892  14.582  0.1012  0.4749 -0.2204
  800MPD2    H711848   1.560   0.937  14.669 -4.3068  4.1032 -0.8449
  801MPD2     C11849   1.678   1.538  14.421 -0.1133  0.4730  1.2591
  801MPD2    C111850   1.648   1.424  14.494 -0.5459  0.5112  0.2797
  801MPD2    C211851   1.523   1.417  14.550 -0.4917 -0.0306  0.6690
  801MPD2    C311852   1.429   1.517  14.543  0.1248  0.3402  0.1008
  801MPD2    C411853   1.459   1.620  14.471  0.3969 -0.9907  0.5526
  801MPD2    C511854   1.581   1.635  14.412  0.6741 -0.2451  0.1363
  801MPD2     H11855   1.496   1.324  14.598 -1.3743  0.8750  1.9408
  801MPD2    H111856   1.384   1.697  14.456  2.0184  0.6742  0.9529
  801MPD2    H211857   1.769   1.547  14.364 -0.0651  1.4341  1.4861
  801MPD2    H311858   1.602   1.712  14.339 -1.9164 -1.0939 -1.4766
  801MPD2     N11859   1.309   1.515  14.616 -0.2237  0.2680  0.7461
  801MPD2    H511860   1.231   1.575  14.592 -1.3697 -2.1795 -1.6806
  801MPD2    N111861   1.724   1.309  14.507 -0.3606  0.0872  0.1470
  801MPD2    H711862   1.670   1.246  14.565  0.1672 -1.2325 -0.8029
  802MPD2     C11863   1.617   2.417   0.566  0.4353  0.2709  0.1367
  802MPD2    C111864   1.520   2.448   0.469 -0.3115  0.4331 -0.3924
  802MPD2    C211865   1.504   2.360   0.363 -0.2848 -0.3069  0.0718
  802MPD2    C311866   1.563   2.236   0.355 -0.0921 -0.1044 -0.0832
  802MPD2    C411867   1.655   2.208   0.453 -0.0568  0.0041 -0.5531
  802MPD2    C511868   1.676   2.291   0.556  0.5669  0.5569  0.1158
  802MPD2     H11869   1.423   2.390   0.298  2.4340  2.4924 -1.9518
  802MPD2    H111870   1.713   2.117   0.453  2.7089  1.7848 -1.2051
  802MPD2    H211871   1.605   2.467   0.661 -0.2540 -0.7714  0.5963
  802MPD2    H311872   1.738   2.263   0.640 -1.4431 -3.2080  0.3439
  802MPD2     N11873   1.526   2.154   0.247  0.4976  0.1978 -0.5531
  802MPD2    H511874   1.452   2.188   0.188 -0.8352  0.3000  1.1648
  802MPD2    N111875   1.427   2.555   0.473  0.2750  0.0841  0.3503
  802MPD2    H711876   1.347   2.550   0.411 -0.1870  0.8303  0.8939
  803MPD2     C11877   1.821   4.612  11.968 -0.6341 -0.3343 -0.1440
  803MPD2    C111878   1.870   4.728  12.024  0.2761  0.0471 -0.4265
  803MPD2    C211879   1.872   0.008  12.166  0.2502 -0.7892  0.1028
  803MPD2    C311880   1.826   4.643  12.248 -0.3596 -0.0862  0.4822
  803MPD2    C411881   1.775   4.530  12.191 -0.1582  0.5317 -0.2760
  803MPD2    C511882   1.779   4.511  12.054 -0.2345 -0.5924 -0.3917
  803MPD2     H11883   1.913   0.097  12.213 -3.5916  0.8850  0.2695
  803MPD2    H111884   1.726   4.454  12.250 -1.1402  0.1370 -1.6106
  803MPD2    H211885   1.837   4.573  11.868  3.7763 -0.9541  0.8042
  803MPD2    H311886   1.744   4.419  12.009  0.6133 -1.4043  0.6089
  803MPD2     N11887   1.844   4.652  12.391  0.3007 -0.2546  0.0549
  803MPD2    H511888   1.876   0.004  12.429  1.7156 -1.4699  1.6713
  803MPD2    N111889   1.940   0.087  11.946 -0.9033  0.5602 -0.3438
  803MPD2    H711890   1.969   0.171  11.995  0.6365 -0.3427  0.2988
  804MPD2     C11891   1.873   1.557  16.984  0.4155  0.3247  0.5899
  804MPD2    C111892   1.872   1.548  17.117  0.6006  0.3009  0.0866
  804MPD2    C211893   1.929   1.646  17.195  0.1479  0.5099 -0.0347
  804MPD2    C311894   2.011   1.743  17.140  0.0399  0.5346  0.1222
  804MPD2    C411895   2.023   1.748  17.002 -0.4641 -0.2295 -0.5659
  804MPD2    C511896   1.956   1.654  16.932 -0.2984 -0.5497  0.2800
  804MPD2     H11897   1.934   1.635  17.302 -0.3740 -0.2324 -0.0918
  804MPD2    H111898   2.087   1.820  16.952 -1.1157 -0.0875 -1.1943
  804MPD2    H211899   1.814   1.495  16.916 -0.0342 -2.4431  3.5349
  804MPD2    H311900   1.958   1.664  16.824  2.4517  1.8091  0.5389
  804MPD2     N11901   2.086   1.825  17.230  0.4258 -0.2753  0.2822
  804MPD2    H511902   2.067   1.808  17.328 -1.0817  1.1060  0.2388
  804MPD2    N111903   1.811   1.438  17.185  0.4779 -0.2194 -0.1888
  804MPD2    H711904   1.837   1.431  17.283 -1.8055  0.2440  0.4487
  805MPD2     C11905   0.940   0.245  15.959 -0.0915  0.2208  0.0285
  805MPD2    C111906   1.000   0.335  15.875  0.4000  0.2297 -0.3754
  805MPD2    C211907   1.121   0.388  15.913  0.7704  0.2052  0.1543
  805MPD2    C311908   1.183   0.341  16.032 -0.2810 -0.0587  0.0698
  805MPD2    C411909   1.119   0.245  16.112 -0.4044 -0.1406 -0.3862
  805MPD2    C511910   0.993   0.209  16.080  0.0176 -0.0739 -0.2746
  805MPD2     H11911   1.171   0.462  15.851  0.4343  0.5395  0.2823
  805MPD2    H111912   1.160   0.206  16.205 -2.3474 -1.4295 -0.0792
  805MPD2    H211913   0.839   0.204  15.956 -0.1579  0.4754 -1.4274
  805MPD2    H311914   0.938   0.144  16.147 -0.9036  0.9626 -0.0241
  805MPD2     N11915   1.311   0.393  16.068  0.3170 -0.0125  0.1061
  805MPD2    H511916   1.335   0.484  16.030  1.1555 -0.4449 -0.4050
  805MPD2    N111917   0.931   0.388  15.758 -0.0197 -0.0103 -0.4943
  805MPD2    H711918   0.971   0.474  15.721 -1.9920  1.0938 -0.0839
  806MPD2     C11919   1.827   3.785   0.355  0.1409  0.2848 -0.5384
  806MPD2    C111920   1.804   3.920   0.386  0.0273 -0.0779 -0.0524
  806MPD2    C211921   1.734   3.998   0.294 -0.1666 -0.4647 -0.3050
  806MPD2    C311922   1.683   3.946   0.174 -0.0726  0.0268  0.5424
  806MPD2    C411923   1.706   3.813   0.150  0.1704  0.0017  0.3605
  806MPD2    C511924   1.783   3.738   0.232 -0.3306  0.5610  0.3214
  806MPD2     H11925   1.723   4.104   0.309  0.8403 -0.5972  1.5147
  806MPD2    H111926   1.675   3.763   0.059  1.0688 -1.3282  0.7797
  806MPD2    H211927   1.889   3.716   0.412  1.1416  1.4589 -0.2079
  806MPD2    H311928   1.808   3.637   0.201  0.9222  0.3451  2.0021
  806MPD2     N11929   1.610   4.037   0.096 -0.2319  0.4274  0.5068
  806MPD2    H511930   1.613   4.137   0.114 -2.2954  0.2082  2.1395
  806MPD2    N111931   1.855   3.974   0.506  0.2900  0.1627 -0.3447
  806MPD2    H711932   1.921   3.913   0.553 -2.5219 -1.2776  1.7110
  807MPD2     C11933   1.704   4.552   1.115  0.0435 -0.4179  0.7660
  807MPD2    C111934   1.654   4.439   1.045 -0.3430  0.0627 -0.1159
  807MPD2    C211935   1.520   4.383   1.060 -0.4826 -0.2766  0.5825
  807MPD2    C311936   1.443   4.444   1.157  0.4995 -0.0650 -0.0696
  807MPD2    C411937   1.498   4.544   1.240  0.1392  0.4175 -0.0761
  807MPD2    C511938   1.621   4.594   1.210  0.1923  0.4618 -0.2683
  807MPD2     H11939   1.488   4.295   1.005  2.9288 -0.3643 -1.2779
  807MPD2    H111940   1.451   4.574   1.333  2.6918  0.1706  1.2895
  807MPD2    H211941   1.801   4.599   1.120 -0.1086  0.0793 -0.8108
  807MPD2    H311942   1.646   4.681   1.269 -0.1537 -0.1888  0.8361
  807MPD2     N11943   1.328   4.372   1.196  0.1105 -0.5241 -0.0827
  807MPD2    H511944   1.297   4.299   1.132  0.5324 -0.8737  0.1088
  807MPD2    N111945   1.740   4.373   0.952 -0.1625  0.1306  0.5493
  807MPD2    H711946   1.709   4.279   0.928  3.1155 -0.8699  0.2462
  808MPD2     C11947   1.798   1.182  10.419  0.5406 -0.4899 -0.2160
  808MPD2    C111948   1.763   1.186  10.290  0.6940 -0.0615 -0.5247
  808MPD2    C211949   1.754   1.310  10.228  0.3386  0.1841  0.4437
  808MPD2    C311950   1.774   1.429  10.298 -0.6915 -0.0056  0.2001
  808MPD2    C411951   1.812   1.417  10.431  0.2628 -0.4071 -0.3966
  808MPD2    C511952   1.817   1.294  10.489 -0.3182  0.3634 -0.2672
  808MPD2     H11953   1.715   1.314  10.127  1.3590 -1.2896  0.0048
  808MPD2    H111954   1.829   1.499  10.500 -2.4317  0.1369 -0.3865
  808MPD2    H211955   1.800   1.094  10.482  2.6480 -0.4532 -0.2322
  808MPD2    H311956   1.863   1.285  10.586 -0.5097 -1.4137 -0.3449
  808MPD2     N11957   1.766   1.558  10.242  0.0577 -0.2580  0.6706
  808MPD2    H511958   1.774   1.630  10.313 -0.7806 -0.6671  1.1853
  808MPD2    N111959   1.729   1.073  10.216 -0.3634  0.5385 -0.1716
  808MPD2    H711960   1.715   1.098  10.118 -3.0161  0.2142  0.1269
  809MPD2     C11961   2.306   2.084   9.476 -0.2909  0.0812 -0.0964
  809MPD2    C111962   2.300   1.957   9.513  0.2140 -0.8655 -0.0420
  809MPD2    C211963   2.198   1.920   9.604 -0.6960 -0.5129  0.0868
  809MPD2    C311964   2.129   2.022   9.669  0.2061 -0.5834 -0.5839
  809MPD2    C411965   2.152   2.157   9.636  0.4303 -0.3815  0.2245
  809MPD2    C511966   2.234   2.181   9.533  0.3571 -0.5507 -0.9160
  809MPD2     H11967   2.188   1.815   9.631 -0.0532 -0.1475  1.7372
  809MPD2    H111968   2.089   2.231   9.685  0.6409  0.3559 -0.6267
  809MPD2    H211969   2.379   2.115   9.401 -1.7659  0.6063 -1.3133
  809MPD2    H311970   2.229   2.280   9.489  0.2516  0.1448  0.6690
  809MPD2     N11971   2.044   1.993   9.779  0.6231  0.1713 -0.6158
  809MPD2    H511972   1.995   2.072   9.819  2.4370  0.2873  1.3382
  809MPD2    N111973   2.380   1.849   9.461 -0.2465  0.4349  0.1275
  809MPD2    H711974   2.361   1.759   9.503  2.8044 -0.4608 -0.4146
  810MPD2     C11975   1.454   0.494  10.795 -0.5093 -0.2599 -0.7246
  810MPD2    C111976   1.352   0.443  10.882 -0.1420  0.3825 -0.1296
  810MPD2    C211977   1.283   0.534  10.965 -0.5480  0.1992  0.6820
  810MPD2    C311978   1.297   0.671  10.945 -0.5500 -0.4095 -0.5729
  810MPD2    C411979   1.400   0.721  10.870 -0.5408 -0.2521 -0.0377
  810MPD2    C511980   1.477   0.632  10.796  0.0588  0.1853 -0.1196
  810MPD2     H11981   1.206   0.496  11.032  0.0181  1.7558  2.2178
  810MPD2    H111982   1.408   0.828  10.853 -0.8383 -0.4104 -1.1495
  810MPD2    H211983   1.514   0.436  10.726 -0.0121  0.1585 -0.6414
  810MPD2    H311984   1.556   0.677  10.736  0.7200 -0.4717  0.2534
  810MPD2     N11985   1.219   0.774  11.005  0.3724  0.0273 -0.2987
  810MPD2    H511986   1.256   0.867  11.020  1.1699 -0.2157 -0.7513
  810MPD2    N111987   1.325   0.303  10.882 -0.1094  0.2350  0.0695
  810MPD2    H711988   1.240   0.280  10.932  0.1830  1.0758  0.9617
  811MPD2     C11989   1.039   0.241  10.306  0.0560  0.3205  0.3077
  811MPD2    C111990   1.008   0.266  10.437  0.5216 -0.7394 -0.1887
  811MPD2    C211991   0.982   0.403  10.480 -0.5516  0.2898 -0.0414
  811MPD2    C311992   0.987   0.500  10.384 -0.3502 -0.3736 -0.4206
  811MPD2    C411993   1.005   0.467  10.252  0.2216  0.7386  0.5152
  811MPD2    C511994   1.022   0.342  10.213 -0.6834  0.3240 -0.5536
  811MPD2     H11995   0.976   0.430  10.585  0.5968  0.8975 -0.1394
  811MPD2    H111996   0.989   0.543  10.177 -0.2912  1.7773  1.6678
  811MPD2    H211997   1.048   0.137  10.276  1.8656  0.4391  0.4186
  811MPD2    H311998   1.048   0.318  10.110  0.2599  0.2898 -0.3120
  811MPD2     N11999   0.967   0.635  10.431 -0.2896  0.3638 -0.2659
  811MPD2    H512000   0.938   0.654  10.526  1.0867 -2.1109  0.6558
  811MPD2    N112001   1.016   0.158  10.527  0.9064  0.1509 -0.5498
  811MPD2    H712002   1.080   0.085  10.496 -0.5758  0.0712 -3.3644
  812MPD2     C12003   4.215   0.177  12.445  0.4602 -0.4198 -0.0370
  812MPD2    C112004   4.321   0.261  12.426 -0.4116 -0.5904 -0.1781
  812MPD2    C212005   4.435   0.240  12.492  0.4617  0.3622  0.4952
  812MPD2    C312006   4.449   0.139  12.582  0.1769 -0.3254 -0.1379
  812MPD2    C412007   4.353   0.052  12.591  0.4110  0.3694 -0.1827
  812MPD2    C512008   4.237   0.066  12.517 -0.0877  0.2969 -0.1762
  812MPD2     H12009   4.522   0.305  12.485  0.5247  0.0343 -1.7259
  812MPD2    H112010   4.366   4.706  12.661  1.4287  2.9129  2.5694
  812MPD2    H212011   4.120   0.199  12.398  0.1195 -2.3889 -0.2653
  812MPD2    H312012   4.164   4.724  12.534  0.5356 -0.3632 -0.4810
  812MPD2     N12013   4.572   0.136  12.652 -0.6905 -0.3807  0.0769
  812MPD2    H512014   4.623   0.223  12.642  0.6940 -1.2786 -0.8180
  812MPD2    N112015   4.304   0.381  12.349  0.0921 -1.0554  0.0816
  812MPD2    H712016   4.214   0.403  12.306  0.2095 -2.2173 -0.7678
  813MPD2     C12017   4.158   2.083  12.995  0.2949 -0.5991  0.2972
  813MPD2    C112018   4.158   2.106  13.136  0.2092  0.0969 -0.2387
  813MPD2    C212019   4.042   2.117  13.197 -0.0436 -0.7680 -0.1392
  813MPD2    C312020   3.920   2.095  13.138  0.4337  0.0904 -0.0251
  813MPD2    C412021   3.919   2.071  13.004 -0.1244 -0.2405  0.2756
  813MPD2    C512022   4.033   2.057  12.930 -0.7341  0.4689 -0.5843
  813MPD2     H12023   4.037   2.149  13.301  0.7588  1.0444 -0.6467
  813MPD2    H112024   3.825   2.053  12.953 -0.0923  0.0395  0.1209
  813MPD2    H212025   4.245   2.081  12.930  0.6949  1.1796  0.7734
  813MPD2    H312026   4.039   2.036  12.824 -1.4978  1.9041 -0.9077
  813MPD2     N12027   3.800   2.115  13.215  0.0073 -0.4284 -0.6396
  813MPD2    H512028   3.818   2.143  13.311 -0.9968 -0.9074 -0.3126
  813MPD2    N112029   4.284   2.137  13.193  0.2218  0.9940 -0.6111
  813MPD2    H712030   4.370   2.132  13.140  2.0315  1.3394  2.2504
  814MPD2     C12031   4.312   3.613  12.398 -0.5244  0.3947  0.0660
  814MPD2    C112032   4.418   3.585  12.316  0.7778  0.3738 -0.7601
  814MPD2    C212033   4.538   3.640  12.335  0.1013  0.6868  0.0745
  814MPD2    C312034   4.553   3.717  12.452 -0.0037 -0.8029  0.2904
  814MPD2    C412035   4.450   3.747  12.532  0.0564 -0.1473 -0.0047
  814MPD2    C512036   4.330   3.691  12.509 -0.3655  0.3969 -0.8565
  814MPD2     H12037   4.621   3.611  12.272 -0.6393 -0.0366 -0.5756
  814MPD2    H112038   4.465   3.801  12.625  0.5728  0.0286 -0.1914
  814MPD2    H212039   4.210   3.582  12.381 -0.3243 -1.1549  1.6812
  814MPD2    H312040   4.250   3.699  12.581 -0.7036 -0.5765 -1.1247
  814MPD2     N12041   4.681   3.778  12.493 -0.8468 -0.7090  0.1393
  814MPD2    H512042   4.692   3.811  12.589 -2.6615  0.1013  0.0648
  814MPD2    N112043   4.407   3.506  12.200  0.0139  0.4402 -0.3415
  814MPD2    H712044   4.484   3.519  12.135  1.4979  1.9747  1.7094
  815MPD2     C12045   0.100   1.831  12.267 -0.2286 -0.1582  0.5439
  815MPD2    C112046   0.037   1.769  12.162 -0.2017  0.1319  0.3745
  815MPD2    C212047   4.635   1.768  12.156 -0.3388  0.6997  0.2457
  815MPD2    C312048   4.565   1.852  12.237 -0.6512  0.2663 -0.9144
  815MPD2    C412049   4.631   1.918  12.342 -0.3814  0.7152 -1.1398
  815MPD2    C512050   0.035   1.902  12.362  0.2306 -1.0669 -0.0121
  815MPD2     H12051   4.578   1.718  12.079  0.7046 -1.3871  0.8325
  815MPD2    H112052   4.573   1.978  12.412 -1.7879 -2.0763  0.0799
  815MPD2    H212053   0.208   1.841  12.262 -0.1683 -1.1386 -0.0031
  815MPD2    H312054   0.093   1.966  12.428 -1.1445  0.0954  0.0708
  815MPD2     N12055   4.425   1.841  12.231 -0.3563 -0.3299 -0.6495
  815MPD2    H512056   4.392   1.786  12.153 -1.7392  0.3606 -0.5522
  815MPD2    N112057   0.120   1.733  12.057  0.2311  0.3840 -0.6003
  815MPD2    H712058   0.220   1.742  12.072  0.4171 -0.2777 -1.3795
  816MPD2     C12059   1.217   1.395  17.245 -0.3602  0.2282 -0.2739
  816MPD2    C112060   1.094   1.374  17.190  0.0654 -0.2352 -0.4934
  816MPD2    C212061   1.087   1.293  17.079  1.0453 -0.2405  0.6516
  816MPD2    C312062   1.205   1.234  17.023 -0.7332  0.4407 -0.0655
  816MPD2    C412063   1.331   1.267  17.073  0.2922 -0.1991  0.1036
  816MPD2    C512064   1.327   1.342  17.189 -0.3205 -0.0142  0.6461
  816MPD2     H12065   0.991   1.274  17.032  1.0448  1.4259 -0.0187
  816MPD2    H112066   1.421   1.226  17.029  0.3853  1.3807 -1.1517
  816MPD2    H212067   1.235   1.447  17.339 -0.5024 -0.0374 -0.1001
  816MPD2    H312068   1.420   1.362  17.241 -1.0060 -1.3337  2.3742
  816MPD2     N12069   1.186   1.149  16.917 -0.2003  0.2367 -0.0993
  816MPD2    H512070   1.096   1.112  16.888 -0.2209  0.6257 -0.5406
  816MPD2    N112071   0.985   1.449  17.240 -0.7338  0.1591 -0.2495
  816MPD2    H712072   0.989   1.490  17.333 -0.8235  1.1712 -0.6878
  817MPD2     C12073   0.267   2.607   9.579 -0.0671 -0.3747 -0.2481
  817MPD2    C112074   0.251   2.493   9.504 -0.2380 -0.1395 -0.4446
  817MPD2    C212075   0.148   2.487   9.413  0.1671  0.3088  0.1708
  817MPD2    C312076   0.045   2.574   9.422  0.5207 -0.7268  0.2339
  817MPD2    C412077   0.048   2.685   9.506  0.1264  0.2353 -0.3195
  817MPD2    C512078   0.165   2.698   9.579  0.3915 -0.5153 -0.4771
  817MPD2     H12079   0.135   2.394   9.358 -1.2779  0.3077  0.5152
  817MPD2    H112080   4.715   2.769   9.515 -1.1523 -0.6918 -1.5359
  817MPD2    H212081   0.350   2.622   9.648  0.9150 -0.0748 -1.5130
  817MPD2    H312082   0.170   2.793   9.630 -0.8586 -0.5225 -0.3251
  817MPD2     N12083   4.663   2.548   9.340 -0.3104  0.3538  0.2255
  817MPD2    H512084   4.659   2.466   9.280 -0.2736  0.3522  0.2252
  817MPD2    N112085   0.334   2.380   9.519  0.2524  0.1218 -0.7441
  817MPD2    H712086   0.327   2.315   9.442  0.6702 -2.0258  1.0102
  818MPD2     C12087   3.818   2.540   9.958 -0.0856  0.1094 -0.1514
  818MPD2    C112088   3.712   2.453   9.959  0.2941 -1.0881  0.1000
  818MPD2    C212089   3.736   2.328   9.906  0.2810  0.9440 -0.1269
  818MPD2    C312090   3.866   2.286   9.866  0.6155  0.6984  0.4454
  818MPD2    C412091   3.969   2.378   9.877 -0.0293  0.2694 -0.7581
  818MPD2    C512092   3.941   2.504   9.912  0.3152  0.0084 -0.8897
  818MPD2     H12093   3.650   2.262   9.905  0.8034  0.2398  0.6375
  818MPD2    H112094   4.068   2.364   9.838 -0.1612 -0.2561 -0.8984
  818MPD2    H212095   3.809   2.646   9.978 -2.0244  0.1502 -1.3373
  818MPD2    H312096   4.023   2.573   9.926  1.0639 -0.7576 -1.5214
  818MPD2     N12097   3.894   2.160   9.809 -0.6343  0.0567  0.1288
  818MPD2    H512098   3.994   2.150   9.790 -0.5543 -0.4187  0.8156
  818MPD2    N112099   3.582   2.474  10.021  0.1411 -0.3937  0.4947
  818MPD2    H712100   3.505   2.407  10.021 -1.9966  2.0486  0.3632
  819MPD2     C12101   1.739   4.520  15.851  0.1324 -0.5131 -0.5040
  819MPD2    C112102   1.795   4.479  15.730 -0.7186 -0.1440  0.1744
  819MPD2    C212103   1.925   4.428  15.733 -0.6106  0.2925  0.3433
  819MPD2    C312104   1.993   4.432  15.854 -0.1465 -0.4785  0.2289
  819MPD2    C412105   1.940   4.484  15.975  0.2520  0.2635  0.2781
  819MPD2    C512106   1.807   4.514  15.970  0.1291 -1.2084  0.0408
  819MPD2     H12107   1.980   4.390  15.648 -1.6098  0.7187 -0.4888
  819MPD2    H112108   1.989   4.484  16.071  3.0587  0.0420 -1.1430
  819MPD2    H212109   1.633   4.544  15.852 -0.2367 -2.1578  0.9713
  819MPD2    H312110   1.747   4.532  16.058 -2.2385  0.9306 -1.9982
  819MPD2     N12111   2.119   4.367  15.846 -0.0879 -0.3892  0.4701
  819MPD2    H512112   2.139   4.330  15.753  2.6194  0.2069  0.8298
  819MPD2    N112113   1.714   4.486  15.615  0.2485 -0.1211 -0.7754
  819MPD2    H712114   1.619   4.522  15.624  0.9083  1.1233  1.1875
  820MPD2     C12115   1.305   0.425  15.249 -0.5858  0.3811 -0.2053
  820MPD2    C112116   1.220   0.327  15.284  0.4648 -0.0957  0.3447
  820MPD2    C212117   1.260   0.200  15.308  0.4279  0.1535  0.1243
  820MPD2    C312118   1.392   0.162  15.288  0.2358 -0.2053  0.9922
  820MPD2    C412119   1.487   0.262  15.265  0.2256  0.0371 -0.0662
  820MPD2    C512120   1.439   0.389  15.235 -0.4108  0.6867 -0.5984
  820MPD2     H12121   1.189   0.123  15.338  1.4073 -0.8369 -0.1170
  820MPD2    H112122   1.592   0.241  15.252 -0.3562 -1.1859 -2.6590
  820MPD2    H212123   1.277   0.526  15.220 -0.1928 -0.0875 -2.2339
  820MPD2    H312124   1.512   0.465  15.209  0.8628 -0.6325 -0.9014
  820MPD2     N12125   1.443   0.032  15.302 -0.0339 -0.0781 -0.0587
  820MPD2    H512126   1.543   0.020  15.286  0.1935  0.9458  0.6122
  820MPD2    N112127   1.087   0.351  15.278  0.0734  0.3098 -0.8874
  820MPD2    H712128   1.029   0.268  15.268 -1.4958  1.7941 -4.2845
  821MPD2     C12129   0.960   1.198  13.507 -0.0800 -0.2119 -0.2990
  821MPD2    C112130   1.085   1.179  13.552 -0.0880 -0.4923 -0.2839
  821MPD2    C212131   1.193   1.226  13.484 -0.6033  0.7182 -0.8026
  821MPD2    C312132   1.174   1.310  13.371  0.6469  0.1134 -0.5410
  821MPD2    C412133   1.051   1.349  13.340  0.0387  0.1089 -0.0990
  821MPD2    C512134   0.941   1.294  13.412 -0.4165 -0.1614 -0.9762
  821MPD2     H12135   1.290   1.204  13.525 -0.8435 -0.4145 -0.8372
  821MPD2    H112136   1.038   1.409  13.251 -1.1389  0.1688  0.1127
  821MPD2    H212137   0.870   1.155  13.550 -0.3248 -0.7133 -1.3004
  821MPD2    H312138   0.836   1.311  13.390 -0.4549  2.0339  0.9263
  821MPD2     N12139   1.284   1.366  13.293  0.5704  0.0698 -0.8110
  821MPD2    H512140   1.256   1.443  13.233  0.5416  1.0961  0.5265
  821MPD2    N112141   1.111   1.098  13.668  0.0075 -0.1336 -0.1060
  821MPD2    H712142   1.206   1.064  13.672 -0.1070 -0.5527 -1.0756
  822MPD2     C12143   2.562   0.856  15.815 -0.1711 -0.7275 -0.0792
  822MPD2    C112144   2.607   0.862  15.939  0.2531 -0.0390  0.1498
  822MPD2    C212145   2.560   0.954  16.030  0.3936  0.1623 -0.2909
  822MPD2    C312146   2.460   1.044  15.996 -0.2931 -0.9666 -0.3758
  822MPD2    C412147   2.406   1.031  15.865  0.5455 -0.0632  0.2323
  822MPD2    C512148   2.468   0.946  15.778 -0.4903 -0.6800  0.2984
  822MPD2     H12149   2.613   0.956  16.124 -0.6916 -2.1418  0.3726
  822MPD2    H112150   2.318   1.084  15.829  0.6619 -0.6059 -0.8403
  822MPD2    H212151   2.609   0.797  15.737  2.3654  0.6037  0.4086
  822MPD2    H312152   2.433   0.952  15.676  1.5255 -4.1164 -0.5939
  822MPD2     N12153   2.419   1.132  16.097 -0.1324  0.0408  0.5698
  822MPD2    H512154   2.466   1.121  16.186 -2.1619  0.0400  1.6474
  822MPD2    N112155   2.715   0.784  15.983 -0.0244  0.4193  0.1874
  822MPD2    H712156   2.735   0.775  16.082 -1.2790  2.7073  0.6527
  823MPD2     C12157   2.100   1.271  16.860 -0.3975  0.8059 -0.3545
  823MPD2    C112158   2.173   1.212  16.758  0.1656  0.6313 -0.5600
  823MPD2    C212159   2.267   1.115  16.781  0.1160 -0.2662  0.7557
  823MPD2    C312160   2.271   1.058  16.908  0.2489 -0.4450  0.0129
  823MPD2    C412161   2.189   1.114  17.011  0.1202  0.4596  0.2815
  823MPD2    C512162   2.108   1.222  16.988 -0.0143  1.0526  0.0044
  823MPD2     H12163   2.315   1.064  16.698  0.6616  0.9042  0.3502
  823MPD2    H112164   2.196   1.073  17.111 -1.4869  0.4946  0.4027
  823MPD2    H212165   2.037   1.358  16.847  3.0664  3.3171 -0.2947
  823MPD2    H312166   2.046   1.263  17.067 -1.3743  0.1328 -0.5939
  823MPD2     N12167   2.358   0.952  16.931 -0.1926  0.2678 -0.7479
  823MPD2    H512168   2.336   0.908  17.019 -3.3626  2.4199 -0.4288
  823MPD2    N112169   2.156   1.263  16.623  0.7155 -0.1127  0.6153
  823MPD2    H712170   2.101   1.347  16.607  1.5275  0.4200  0.5649
  824MPD2     C12171   3.152   0.005  16.130 -0.2327 -0.1686 -0.1530
  824MPD2    C112172   3.182   0.110  16.045  0.0556 -0.0489  0.4395
  824MPD2    C212173   3.268   0.091  15.943  0.7011 -1.3381 -0.4098
  824MPD2    C312174   3.337   4.707  15.923  0.4734  0.4709 -0.4364
  824MPD2    C412175   3.315   4.609  16.014 -0.3987 -0.3877  0.2935
  824MPD2    C512176   3.217   4.622  16.114 -0.0370  0.5140 -0.2799
  824MPD2     H12177   3.293   0.171  15.874  0.2983 -1.2319 -0.4314
  824MPD2    H112178   3.371   4.517  16.019  0.7259  0.3542  1.5268
  824MPD2    H212179   3.081   0.018  16.210  0.4322 -1.6883  0.6855
  824MPD2    H312180   3.203   4.542  16.184 -1.0523  0.6583 -0.3228
  824MPD2     N12181   3.431   4.706  15.811  0.6269  0.1598  0.5430
  824MPD2    H512182   3.433   0.054  15.754 -0.4324 -1.1050 -1.3389
  824MPD2    N112183   3.121   0.235  16.068  0.1027 -0.2245 -0.3037
  824MPD2    H712184   3.069   0.249  16.155  0.4384 -1.3209  0.0749
  825MPD2     C12185   3.686   0.226  15.046 -0.1972 -0.3601  0.1803
  825MPD2    C112186   3.681   0.236  15.182 -0.0663 -0.1200 -0.2785
  825MPD2    C212187   3.696   0.363  15.236 -1.0509 -0.5761 -0.0049
  825MPD2    C312188   3.711   0.473  15.161 -0.0200  0.0366 -0.6364
  825MPD2    C412189   3.722   0.461  15.024  0.7071 -0.2868 -0.0792
  825MPD2    C512190   3.706   0.338  14.968 -0.4822  0.1152 -0.4098
  825MPD2     H12191   3.697   0.387  15.342 -0.9217  2.4710 -0.6806
  825MPD2    H112192   3.743   0.549  14.964  0.0395 -0.3479 -0.4087
  825MPD2    H212193   3.669   0.131  14.997 -0.2176 -0.4079  0.2785
  825MPD2    H312194   3.721   0.333  14.861 -1.1953 -2.5056 -0.3928
  825MPD2     N12195   3.725   0.604  15.213 -0.4985  0.2438 -0.3564
  825MPD2    H512196   3.777   0.662  15.149 -1.4853  2.5294  0.9124
  825MPD2    N112197   3.663   0.120  15.264  0.1855 -0.0305 -0.1138
  825MPD2    H712198   3.639   0.032  15.219 -0.2714  0.2968 -0.5156
  826MPD2     C12199   3.165   0.714  13.594  0.8971 -0.1379  0.2194
  826MPD2    C112200   3.121   0.700  13.720 -0.0833 -0.8551  0.3572
  826MPD2    C212201   2.989   0.739  13.741  0.5031 -0.2685  0.0017
  826MPD2    C312202   2.907   0.793  13.644  0.2127 -0.8154  0.3713
  826MPD2    C412203   2.958   0.807  13.520 -1.0353  0.2859  0.1789
  826MPD2    C512204   3.089   0.769  13.500 -0.1054  0.3517 -0.2712
  826MPD2     H12205   2.951   0.743  13.842 -1.7103  0.8052 -0.8773
  826MPD2    H112206   2.903   0.839  13.432  0.3434  0.7416 -0.5212
  826MPD2    H212207   3.268   0.701  13.563  1.3956 -0.9310  2.1631
  826MPD2    H312208   3.127   0.787  13.400  0.5041  0.2583 -0.0576
  826MPD2     N12209   2.770   0.826  13.664 -0.3283  0.0597  1.3279
  826MPD2    H512210   2.711   0.852  13.586 -1.0507 -0.3275  1.7451
  826MPD2    N112211   3.219   0.657  13.818  0.0372  0.1563 -0.3982
  826MPD2    H712212   3.311   0.635  13.781 -0.6776 -1.9584 -0.9439
  827MPD2     C12213   4.246   1.444   9.851 -0.0725 -0.2552 -0.3852
  827MPD2    C112214   4.169   1.359   9.923 -0.4071 -0.9691 -0.2226
  827MPD2    C212215   4.069   1.288   9.863 -0.2305  0.1124 -0.1555
  827MPD2    C312216   4.035   1.303   9.733 -0.4233 -0.0954 -0.8845
  827MPD2    C412217   4.105   1.389   9.663 -0.0034 -0.1109 -0.4348
  827MPD2    C512218   4.204   1.463   9.726 -0.3770 -0.4350  0.1482
  827MPD2     H12219   4.013   1.212   9.917  0.0663  0.4964  0.6874
  827MPD2    H112220   4.080   1.401   9.558 -1.2254  1.9918  0.1110
  827MPD2    H212221   4.330   1.501   9.890 -0.2687 -0.6993  0.6667
  827MPD2    H312222   4.249   1.537   9.661 -2.1092  1.6648  1.3319
  827MPD2     N12223   3.938   1.212   9.680  0.5779 -0.4025 -0.9887
  827MPD2    H512224   3.895   1.151   9.749  1.9647 -2.8043 -2.2594
  827MPD2    N112225   4.192   1.355  10.060 -0.2124  0.0468 -0.3927
  827MPD2    H712226   4.281   1.394  10.088  0.6725 -3.2644  1.5174
  828MPD2     C12227   2.134   0.843  12.670 -0.0561  0.7097  0.7831
  828MPD2    C112228   2.088   0.970  12.635 -0.3626  0.6291 -0.1854
  828MPD2    C212229   2.129   1.019  12.514 -0.3847 -0.1315  1.0075
  828MPD2    C312230   2.221   0.955  12.430 -0.4213 -0.5989 -0.6820
  828MPD2    C412231   2.244   0.823  12.456  0.5306  0.2293  1.4230
  828MPD2    C512232   2.201   0.772  12.578 -0.3388  0.2686  0.1309
  828MPD2     H12233   2.096   1.115  12.476 -1.7374 -0.4044  1.4672
  828MPD2    H112234   2.301   0.762  12.387 -1.6339 -3.1923  2.6958
  828MPD2    H212235   2.105   0.792  12.762 -0.2222  0.1479  0.4168
  828MPD2    H312236   2.227   0.669  12.602 -0.2922 -0.2523 -2.1386
  828MPD2     N12237   2.266   1.000  12.307 -0.8033 -0.9519 -0.3576
  828MPD2    H512238   2.326   0.936  12.256 -1.4813 -1.7944 -0.1026
  828MPD2    N112239   1.985   1.046  12.701 -0.5394  0.8624  0.0710
  828MPD2    H712240   1.945   1.128  12.655 -1.7330 -0.1679 -0.7382
  829MPD2     C12241   1.579   1.698  12.377  0.3661 -0.2686  0.5394
  829MPD2    C112242   1.486   1.684  12.482  0.1402 -0.1995  0.0740
  829MPD2    C212243   1.514   1.589  12.578 -0.0500  0.3620 -0.5132
  829MPD2    C312244   1.621   1.503  12.567  0.5817  0.1711 -0.0316
  829MPD2    C412245   1.706   1.510  12.452  0.3404 -0.1763 -0.0738
  829MPD2    C512246   1.685   1.605  12.364  0.1962 -0.9138  0.2220
  829MPD2     H12247   1.451   1.597  12.666  0.0346 -0.7805 -0.3465
  829MPD2    H112248   1.793   1.446  12.449  0.7026  0.3750 -1.4813
  829MPD2    H212249   1.563   1.777  12.305  0.5977  0.5461  1.3826
  829MPD2    H312250   1.758   1.621  12.285 -0.2819  0.4574  0.0604
  829MPD2     N12251   1.647   1.398  12.653  0.4317 -0.1955  0.7492
  829MPD2    H512252   1.726   1.337  12.632 -1.4948 -1.6871 -2.2614
  829MPD2    N112253   1.373   1.770  12.480 -0.0367  0.1877 -0.1187
  829MPD2    H712254   1.370   1.846  12.413  0.1188  0.4254  0.1476
  830MPD2     C12255   2.414   4.314  15.319  0.5286  0.0690  0.1813
  830MPD2    C112256   2.473   4.217  15.395  0.3200 -0.1738  0.1990
  830MPD2    C212257   2.549   4.124  15.319  0.4886  1.0043  0.2407
  830MPD2    C312258   2.564   4.141  15.179  0.2219 -0.4575  0.5327
  830MPD2    C412259   2.506   4.248  15.114  0.3111  0.1734 -0.8409
  830MPD2    C512260   2.432   4.334  15.187  0.1004  0.8722  0.3281
  830MPD2     H12261   2.608   4.049  15.371  0.3878  1.1671  0.5941
  830MPD2    H112262   2.498   4.260  15.006  2.7043 -1.3183 -1.1930
  830MPD2    H212263   2.349   4.386  15.368  0.2319 -0.6136  0.8051
  830MPD2    H312264   2.389   4.419  15.137 -0.9304 -0.2674 -0.7271
  830MPD2     N12265   2.653   4.064  15.097 -0.4319 -0.1554  0.2166
  830MPD2    H512266   2.682   4.106  15.009 -2.8580 -1.4158 -1.1886
  830MPD2    N112267   2.451   4.218  15.533 -0.8765 -0.2609 -0.5568
  830MPD2    H712268   2.410   4.303  15.572  0.9564 -0.0236  0.8658
  831MPD2     C12269   2.693   1.304  16.330 -0.1243  0.3953  1.1693
  831MPD2    C112270   2.730   1.180  16.279  0.6908  0.4579  0.0857
  831MPD2    C212271   2.681   1.056  16.338 -0.0012 -0.3226  0.1084
  831MPD2    C312272   2.574   1.075  16.423  0.0621 -0.3393  0.0741
  831MPD2    C412273   2.545   1.201  16.483  0.8300 -0.2376 -0.2527
  831MPD2    C512274   2.609   1.314  16.434  0.1414 -0.0329  0.6776
  831MPD2     H12275   2.718   0.962  16.299  0.3097 -0.5684  1.0045
  831MPD2    H112276   2.485   1.201  16.573 -1.8932 -0.9620 -2.0683
  831MPD2    H212277   2.739   1.392  16.287 -0.7985 -0.1674 -0.7196
  831MPD2    H312278   2.595   1.415  16.471  3.0469 -0.5174  3.0930
  831MPD2     N12279   2.488   0.965  16.456 -0.0366  0.5931 -0.5861
  831MPD2    H512280   2.409   0.981  16.518  2.2311  2.5976  1.8023
  831MPD2    N112281   2.810   1.184  16.157 -0.1482  0.5282  0.0142
  831MPD2    H712282   2.834   1.277  16.123  0.4559 -0.1034 -1.2751
  832MPD2     C12283   1.166   2.424  17.496 -0.3751 -0.0578  0.5006
  832MPD2    C112284   1.123   2.514  17.401  0.0743 -0.3121  0.0116
  832MPD2    C212285   0.999   2.481  17.347  0.0571  0.2247  0.7235
  832MPD2    C312286   0.915   2.383  17.393  1.1073 -0.1272  0.4625
  832MPD2    C412287   0.965   2.286  17.474  0.1874 -0.2600  0.1404
  832MPD2    C512288   1.091   2.309  17.529  0.3291  0.7189 -0.1520
  832MPD2     H12289   0.963   2.557  17.278  1.1085 -1.3732 -1.5622
  832MPD2    H112290   0.910   2.195  17.497  0.2431 -0.8828 -2.1374
  832MPD2    H212291   1.266   2.426  17.538  0.3961  0.3873 -1.3282
  832MPD2    H312292   1.126   2.239  17.604 -0.6472  0.2400 -0.1440
  832MPD2     N12293   0.781   2.366  17.346 -0.1945  0.2128 -0.3292
  832MPD2    H512294   0.726   2.292  17.388 -0.1141  0.2278 -0.1986
  832MPD2    N112295   1.208   2.624  17.368  0.1668 -0.9491 -0.1726
  832MPD2    H712296   1.295   2.630  17.419 -0.7103  2.0708  0.9630
  833MPD2     C12297   3.122   3.355  12.722 -0.4416 -0.6470  0.0006
  833MPD2    C112298   3.177   3.453  12.640  1.0293  0.2088  0.8088
  833MPD2    C212299   3.257   3.415  12.535 -0.5668  0.6986 -0.2653
  833MPD2    C312300   3.303   3.283  12.523 -0.1269  1.0216  0.3565
  833MPD2    C412301   3.278   3.195  12.628 -0.2732 -0.3513 -0.1582
  833MPD2    C512302   3.177   3.234  12.718  0.1031  0.5104 -0.2255
  833MPD2     H12303   3.277   3.485  12.455 -1.4926  1.5260  0.2349
  833MPD2    H112304   3.316   3.094  12.621  0.8792  0.2092 -1.9878
  833MPD2    H212305   3.052   3.377  12.802 -2.5779 -1.9984 -1.5110
  833MPD2    H312306   3.144   3.161  12.792 -2.9216 -2.0106 -4.0432
  833MPD2     N12307   3.378   3.239  12.405  0.7249 -0.4585  0.5748
  833MPD2    H512308   3.388   3.140  12.386 -1.5999 -0.3623 -1.1888
  833MPD2    N112309   3.133   3.583  12.667  0.3191 -0.4495  0.3236
  833MPD2    H712310   3.064   3.601  12.739  0.0988  1.3205 -0.3257
  834MPD2     C12311   2.905   2.781  11.754  0.0060  0.4650 -0.3864
  834MPD2    C112312   3.001   2.817  11.668 -0.1067  0.2612  0.6863
  834MPD2    C212313   3.093   2.908  11.714  0.2312  0.4377  0.8278
  834MPD2    C312314   3.092   2.967  11.838  0.9175 -0.5153 -0.1896
  834MPD2    C412315   2.977   2.946  11.913 -0.2477 -0.8323  0.1451
  834MPD2    C512316   2.892   2.847  11.871 -0.0316 -0.6586  0.3007
  834MPD2     H12317   3.169   2.942  11.645  0.2162 -0.7145  0.2442
  834MPD2    H112318   2.964   2.993  12.010  1.3623  1.6755 -0.8350
  834MPD2    H212319   2.824   2.716  11.724  0.2177  0.1234 -0.2183
  834MPD2    H312320   2.809   2.818  11.933 -0.0023  0.7807  1.0187
  834MPD2     N12321   3.188   3.057  11.880 -0.8508 -0.4469 -0.0447
  834MPD2    H512322   3.249   3.098  11.810 -1.0359 -1.4711 -0.8054
  834MPD2    N112323   2.999   2.752  11.545  0.4417 -0.1946  0.1445
  834MPD2    H712324   2.929   2.684  11.519  0.2071 -0.2199  0.8515
  835MPD2     C12325   2.703   1.835  11.175 -0.0215 -0.1298 -0.3733
  835MPD2    C112326   2.608   1.929  11.233 -0.3571  0.0306  0.6960
  835MPD2    C212327   2.632   1.996  11.346  0.1675 -0.0921 -0.2247
  835MPD2    C312328   2.746   1.967  11.422  0.1134 -0.2293  0.5820
  835MPD2    C412329   2.833   1.866  11.375  0.0715  0.7134  0.4864
  835MPD2    C512330   2.813   1.804  11.254  0.2498 -0.6104 -1.0767
  835MPD2     H12331   2.547   2.053  11.381  0.9973  0.6446  0.5945
  835MPD2    H112332   2.918   1.843  11.438  0.0790 -2.1624 -0.5901
  835MPD2    H212333   2.688   1.795  11.075  0.2568 -2.1757  0.4054
  835MPD2    H312334   2.895   1.744  11.216 -0.9314 -0.7142 -3.5000
  835MPD2     N12335   2.773   2.028  11.544 -0.2376 -0.3295 -0.4194
  835MPD2    H512336   2.841   1.976  11.599  0.1052  0.0351 -0.4976
  835MPD2    N112337   2.483   1.947  11.171  0.4120  0.6246  0.0014
  835MPD2    H712338   2.424   2.014  11.219  2.2981  1.9077  0.5532
  836MPD2     C12339   2.254   2.463  11.910 -0.0757  0.1016  0.7007
  836MPD2    C112340   2.311   2.376  11.993 -0.1776  0.2264 -0.9458
  836MPD2    C212341   2.240   2.331  12.106 -0.3012  0.3062  0.7032
  836MPD2    C312342   2.115   2.385  12.132 -0.1828 -0.3450 -1.2014
  836MPD2    C412343   2.068   2.487  12.054 -0.2415  0.4014 -0.3285
  836MPD2    C512344   2.132   2.517  11.940  1.2959  0.0464 -0.9107
  836MPD2     H12345   2.279   2.255  12.172 -1.0916 -0.0254  0.7842
  836MPD2    H112346   1.976   2.539  12.079 -1.6188 -1.9878 -0.4761
  836MPD2    H212347   2.304   2.500  11.821  0.1164  0.9204  1.1531
  836MPD2    H312348   2.087   2.584  11.868 -2.0907  0.3430  1.4751
  836MPD2     N12349   2.026   2.341  12.232  0.5499  0.5262  0.5685
  836MPD2    H512350   1.938   2.387  12.251  0.0900  0.2299 -0.8891
  836MPD2    N112351   2.431   2.311  11.950  0.4652  0.5244  0.5530
  836MPD2    H712352   2.450   2.314  11.850  2.4290  0.8228  0.9373
  837MPD2     C12353   1.296   1.225  10.876 -0.3292  0.3036 -0.0525
  837MPD2    C112354   1.173   1.263  10.828  0.1941  0.0879  0.3256
  837MPD2    C212355   1.141   1.395  10.850  0.0675 -0.3134  0.3420
  837MPD2    C312356   1.236   1.483  10.898  0.3353  0.0754 -0.3044
  837MPD2    C412357   1.369   1.441  10.932 -0.2078 -1.3611 -0.0862
  837MPD2    C512358   1.388   1.309  10.927  0.2973  0.8743 -0.1316
  837MPD2     H12359   1.042   1.433  10.829 -1.0270 -2.5913  1.4097
  837MPD2    H112360   1.446   1.504  10.975 -0.1280 -0.7139 -1.1778
  837MPD2    H212361   1.331   1.124  10.864 -2.1613 -0.1926 -1.2923
  837MPD2    H312362   1.481   1.261  10.956  0.5675  1.2081 -0.4413
  837MPD2     N12363   1.204   1.620  10.900 -0.3463 -0.2380 -0.0275
  837MPD2    H512364   1.129   1.646  10.836 -0.2244  0.7470  0.2238
  837MPD2    N112365   1.082   1.174  10.766  0.0889  0.3800 -0.0780
  837MPD2    H712366   0.991   1.216  10.748  1.6485  3.1113 -1.6693
  838MPD2     C12367   4.716   4.216  12.473 -0.4666  0.6601 -0.3286
  838MPD2    C112368   4.622   4.135  12.424  0.9292  0.2804 -0.3924
  838MPD2    C212369   4.512   4.106  12.500 -0.2493 -0.4561  0.3000
  838MPD2    C312370   4.487   4.162  12.626 -0.0576 -0.6203  0.8145
  838MPD2    C412371   4.588   4.256  12.671 -0.2498  0.6012 -0.6279
  838MPD2    C512372   4.699   4.279  12.598  0.0604  0.2695 -0.9036
  838MPD2     H12373   4.434   4.044  12.458 -0.4804  0.4192 -0.5355
  838MPD2    H112374   4.570   4.307  12.764  1.6430  0.5770 -0.2476
  838MPD2    H212375   0.075   4.238  12.424 -1.0230  3.1489 -0.3101
  838MPD2    H312376   0.045   4.331  12.646 -1.0218  0.4814  0.7135
  838MPD2     N12377   4.360   4.136  12.676  0.3996  0.4001  0.8442
  838MPD2    H512378   4.299   4.073  12.625 -1.6205  1.0335  2.4502
  838MPD2    N112379   4.629   4.071  12.300 -0.0095 -0.2534  0.4234
  838MPD2    H712380   4.546   4.014  12.283 -2.3804  3.0843  0.9452
  839MPD2     C12381   3.967   3.619  12.062 -0.1320 -0.6354 -1.0153
  839MPD2    C112382   4.037   3.598  11.941  0.2866 -0.4466 -0.5125
  839MPD2    C212383   4.158   3.664  11.923 -0.3476 -1.0659 -0.1216
  839MPD2    C312384   4.202   3.744  12.026 -0.1508  0.1219  0.0017
  839MPD2    C412385   4.123   3.773  12.133  0.4370 -0.2312  0.6554
  839MPD2    C512386   4.005   3.710  12.153  0.3715  0.0665  0.7383
  839MPD2     H12387   4.215   3.651  11.831  2.9009  1.8229  1.5094
  839MPD2    H112388   4.157   3.845  12.208 -1.2181  2.2252 -0.9566
  839MPD2    H212389   3.881   3.561  12.093  1.7826 -2.0254  1.6913
  839MPD2    H312390   3.947   3.730  12.242 -0.6907 -1.4055  0.3812
  839MPD2     N12391   4.315   3.826  12.026 -0.1506  0.1562 -0.1097
  839MPD2    H512392   4.332   3.888  12.105  0.4071 -0.9911  0.6759
  839MPD2    N112393   3.989   3.516  11.833  0.3135 -0.1088  0.5080
  839MPD2    H712394   4.040   3.520  11.745 -1.7711  0.8150 -0.6564
  840MPD2     C12395   0.067   1.183  10.600 -0.0048  0.0282 -0.0195
  840MPD2    C112396   4.710   1.276  10.558  0.1640  0.0588 -0.1918
  840MPD2    C212397   4.735   1.411  10.590 -0.4088  0.2449  0.3891
  840MPD2    C312398   0.122   1.451  10.640 -0.1705  0.9435  0.5867
  840MPD2    C412399   0.219   1.353  10.669  0.4153  0.1290 -0.4202
  840MPD2    C512400   0.192   1.223  10.642 -0.1499 -0.1702  0.2498
  840MPD2     H12401   4.657   1.485  10.577  1.0557  1.7606  0.3384
  840MPD2    H112402   0.317   1.386  10.703  1.2997 -0.7858 -2.1360
  840MPD2    H212403   0.051   1.076  10.593  0.3315  0.1081 -1.9755
  840MPD2    H312404   0.266   1.146  10.659  1.5466  1.5256  0.5617
  840MPD2     N12405   0.155   1.589  10.654 -0.0472 -0.5680  0.0631
  840MPD2    H512406   0.245   1.613  10.696 -0.3438  0.9928 -0.2001
  840MPD2    N112407   4.591   1.243  10.505 -0.3241  0.0921 -0.1841
  840MPD2    H712408   4.567   1.145  10.510 -2.0792  0.6170  1.7983
  841MPD2     C12409   4.601   1.648  14.287  0.3386 -0.5765 -0.4036
  841MPD2    C112410   4.653   1.536  14.346  0.0495  0.4761 -0.2437
  841MPD2    C212411   0.007   1.558  14.442 -0.2893 -0.1997 -0.2963
  841MPD2    C312412   0.056   1.686  14.470  0.4620  0.3172 -0.5189
  841MPD2    C412413   0.003   1.801  14.407  0.0545 -0.5194  0.5740
  841MPD2    C512414   4.645   1.779  14.305 -0.4750 -0.1403 -0.0898
  841MPD2     H12415   0.058   1.477  14.492  1.6177 -0.3440 -2.4305
  841MPD2    H112416   0.034   1.903  14.426 -0.0375 -0.3629 -0.0915
  841MPD2    H212417   4.529   1.641  14.206  1.2603 -0.1431 -1.2534
  841MPD2    H312418   4.592   1.858  14.253  1.1275 -1.0696 -3.1082
  841MPD2     N12419   0.155   1.692  14.575  0.4952  0.3040  0.0136
  841MPD2    H512420   0.170   1.602  14.619  0.0871 -0.4207 -1.3281
  841MPD2    N112421   4.616   1.408  14.308 -0.1692 -0.0693 -0.1941
  841MPD2    H712422   4.669   1.331  14.349 -0.8972 -0.6193 -0.2933
  842MPD2     C12423   0.104   2.575  17.086 -0.5306  0.0084  0.1658
  842MPD2    C112424   0.028   2.461  17.071 -0.3990 -0.4499 -0.1003
  842MPD2    C212425   0.022   2.361  17.162  0.1079 -0.0228  0.9985
  842MPD2    C312426   0.115   2.364  17.263  0.2383  1.0936 -0.6947
  842MPD2    C412427   0.183   2.481  17.282 -0.6848 -0.1237  0.3055
  842MPD2    C512428   0.175   2.592  17.199  0.0554 -0.4366 -0.4956
  842MPD2     H12429   4.683   2.284  17.146  0.6722 -0.5777  1.0698
  842MPD2    H112430   0.246   2.484  17.371 -0.0458  0.5583 -0.1733
  842MPD2    H212431   0.111   2.648  17.005  1.2065  2.1985  2.2899
  842MPD2    H312432   0.226   2.685  17.221 -0.4027 -0.6525  1.4972
  842MPD2     N12433   0.110   2.265  17.358 -1.0537 -0.5779  0.0833
  842MPD2    H512434   0.145   2.292  17.450 -0.2208  2.2501 -1.0747
  842MPD2    N112435   4.690   2.462  16.957 -0.2205 -0.0896  0.9667
  842MPD2    H712436   4.698   2.545  16.900  0.8457  0.7514  2.3687
  843MPD2     C12437   2.162   2.835   0.346 -0.4014 -0.7731 -0.2422
  843MPD2    C112438   2.287   2.777   0.383  0.8394 -0.3242 -0.1793
  843MPD2    C212439   2.401   2.842   0.337 -0.5320 -0.2312 -0.3490
  843MPD2    C312440   2.400   2.943   0.243  1.1964 -0.4525 -0.3203
  843MPD2    C412441   2.276   2.989   0.201  0.4322 -0.1261 -0.4761
  843MPD2    C512442   2.158   2.936   0.257 -0.1278 -0.4954 -0.2357
  843MPD2     H12443   2.500   2.830   0.379 -0.0677  0.1783 -1.3511
  843MPD2    H112444   2.262   3.062   0.123 -1.4145  0.9243  0.8437
  843MPD2    H212445   2.062   2.808   0.377 -0.7034  1.6888  0.8597
  843MPD2    H312446   2.062   2.973   0.223 -0.1832  2.4004  3.0740
  843MPD2     N12447   2.518   2.998   0.190  0.2026 -0.2981 -0.2575
  843MPD2    H512448   2.505   3.073   0.122  0.9581  0.4082  0.3741
  843MPD2    N112449   2.285   2.669   0.478 -0.1263  0.1093 -0.6114
  843MPD2    H712450   2.202   2.666   0.536 -0.7752  0.7318 -1.5009
  844MPD2     C12451   0.635   1.723  16.700  0.6482 -0.9038  0.3574
  844MPD2    C112452   0.636   1.846  16.637 -0.0204 -0.2708 -0.2025
  844MPD2    C212453   0.657   1.962  16.709  0.1803  0.3306  0.0773
  844MPD2    C312454   0.699   1.954  16.839  0.2410  0.2497 -0.1180
  844MPD2    C412455   0.702   1.831  16.898  0.1627 -0.4408  0.9435
  844MPD2    C512456   0.677   1.716  16.829  0.0631  0.1697 -0.5464
  844MPD2     H12457   0.667   2.058  16.658 -0.1423  0.6947  0.7022
  844MPD2    H112458   0.719   1.824  17.005 -0.5761 -2.1199  0.9456
  844MPD2    H212459   0.635   1.625  16.653  3.6037  0.1718 -1.9018
  844MPD2    H312460   0.674   1.622  16.882 -1.0327 -1.7501 -3.9741
  844MPD2     N12461   0.735   2.067  16.914  0.5186 -0.2687 -0.2172
  844MPD2    H512462   0.782   2.053  17.003  0.6484  2.0618  0.0823
  844MPD2    N112463   0.619   1.866  16.499 -0.0129 -0.2329  0.4308
  844MPD2    H712464   0.632   1.961  16.464 -2.0528  0.5282  1.7295
  845MPD2     C12465   0.888   3.151  16.888  0.2350  0.0756 -0.0887
  845MPD2    C112466   0.924   3.114  17.019  1.0446 -0.0598 -0.0576
  845MPD2    C212467   0.938   2.975  17.046 -0.0866 -0.0661  0.4493
  845MPD2    C312468   0.905   2.883  16.946  0.5605  0.6217 -0.0185
  845MPD2    C412469   0.863   2.928  16.818  0.0254  0.5117 -0.2592
  845MPD2    C512470   0.855   3.063  16.792 -0.5372  0.1088  0.0391
  845MPD2     H12471   0.966   2.947  17.147  1.2837  0.4250  0.2076
  845MPD2    H112472   0.831   2.864  16.736  0.1609  0.8566 -0.5828
  845MPD2    H212473   0.892   3.255  16.858  2.0461  0.1958  0.5764
  845MPD2    H312474   0.832   3.090  16.690  1.3047 -0.0687 -0.4288
  845MPD2     N12475   0.905   2.746  16.993  0.3935  0.3006  0.1709
  845MPD2    H512476   0.953   2.713  17.076  0.5341 -1.6799 -0.6786
  845MPD2    N112477   0.951   3.220  17.103  0.5641 -0.2654  0.2506
  845MPD2    H712478   0.916   3.310  17.071  0.3593 -1.2998 -2.3973
  846MPD2     C12479   2.786   3.243  14.237  1.4489 -0.5463 -0.2984
  846MPD2    C112480   2.655   3.232  14.213  0.0782  0.2156  0.2542
  846MPD2    C212481   2.561   3.199  14.310 -0.4397  0.0927 -0.1435
  846MPD2    C312482   2.609   3.173  14.437  0.3688 -0.2584 -0.1477
  846MPD2    C412483   2.744   3.177  14.460 -0.3687 -0.1343  0.2783
  846MPD2    C512484   2.835   3.210  14.364 -0.0355 -0.4382 -0.3433
  846MPD2     H12485   2.457   3.179  14.286 -0.6388  1.5192 -0.4419
  846MPD2    H112486   2.787   3.165  14.559  1.6282 -2.1767 -0.8609
  846MPD2    H212487   2.855   3.267  14.156  0.6843 -0.8243 -1.0319
  846MPD2    H312488   2.941   3.206  14.386  0.1789 -1.8822 -1.6225
  846MPD2     N12489   2.519   3.127  14.533 -0.1911  1.0208  0.3147
  846MPD2    H512490   2.419   3.143  14.522  0.3294  1.8474 -3.0869
  846MPD2    N112491   2.616   3.259  14.078  0.2114 -0.0815 -0.3334
  846MPD2    H712492   2.684   3.298  14.014 -0.0122  0.1743 -0.4149
  847MPD2     C12493   2.743   4.255  13.780  0.6096 -0.4393 -0.0785
  847MPD2    C112494   2.842   4.333  13.843  0.2162  0.3034  0.0785
  847MPD2    C212495   2.941   4.275  13.919  0.5317  0.0590  0.5841
  847MPD2    C312496   2.936   4.142  13.937  0.0530 -0.2884 -0.0913
  847MPD2    C412497   2.850   4.064  13.864  0.5184 -0.8282  0.7476
  847MPD2    C512498   2.751   4.118  13.781  0.5306  0.6023  0.0505
  847MPD2     H12499   3.014   4.322  13.984  0.3490  2.6634 -1.0941
  847MPD2    H112500   2.840   3.956  13.867  3.7221 -1.2002 -1.5416
  847MPD2    H212501   2.661   4.311  13.735  0.6308  0.2390  0.7269
  847MPD2    H312502   2.681   4.058  13.724 -0.1272  0.8419  0.6101
  847MPD2     N12503   3.030   4.081  14.027  0.6119  0.1199 -0.0576
  847MPD2    H512504   3.086   4.143  14.084  2.9943  0.2499 -2.5048
  847MPD2    N112505   2.836   4.472  13.856  0.4103  0.2288  0.3668
  847MPD2    H712506   2.903   4.516  13.917  0.1840 -1.2760  1.6932
  848MPD2     C12507   0.481   2.562  16.655  0.4256  0.0210  0.0453
  848MPD2    C112508   0.458   2.662  16.751  0.2025 -0.3270 -0.0958
  848MPD2    C212509   0.453   2.790  16.701  0.0618  0.7397 -0.2433
  848MPD2    C312510   0.452   2.819  16.568  0.2100  0.3126  0.2636
  848MPD2    C412511   0.472   2.716  16.478  0.4553 -0.8804  0.5623
  848MPD2    C512512   0.479   2.596  16.527 -0.0938 -0.1125 -0.1556
  848MPD2     H12513   0.420   2.869  16.768  1.6229  1.4419 -0.3054
  848MPD2    H112514   0.480   2.733  16.371  0.8861 -0.8849  0.5919
  848MPD2    H212515   0.495   2.457  16.679  1.1156  0.5851  2.1130
  848MPD2    H312516   0.494   2.517  16.454  0.6912 -1.0714  1.0423
  848MPD2     N12517   0.445   2.946  16.513  0.1420 -0.2455  0.2314
  848MPD2    H512518   0.420   2.961  16.416 -0.5274  2.7880  0.8710
  848MPD2    N112519   0.441   2.620  16.891 -0.3935  0.0657  0.6207
  848MPD2    H712520   0.453   2.686  16.968 -1.1480 -0.9020  1.5661
  849MPD2     C12521   4.208   2.220  14.918  0.4168  0.4820 -0.2210
  849MPD2    C112522   4.324   2.300  14.893  0.3500  0.7988 -0.3198
  849MPD2    C212523   4.429   2.293  14.987  0.1880 -0.5432 -0.7184
  849MPD2    C312524   4.409   2.214  15.098 -1.0662  0.0830 -0.2099
  849MPD2    C412525   4.295   2.146  15.120 -0.2443  0.0086  0.1265
  849MPD2    C512526   4.195   2.148  15.029 -0.2577 -0.4582  0.6685
  849MPD2     H12527   4.525   2.339  14.968 -0.2026  1.2508  1.6448
  849MPD2    H112528   4.271   2.080  15.203  2.1949 -1.6502 -0.4858
  849MPD2    H212529   4.126   2.231  14.848 -0.7223  0.1590  1.0716
  849MPD2    H312530   4.100   2.095  15.037 -0.9971  0.4546 -2.0987
  849MPD2     N12531   4.521   2.192  15.188 -0.6215  0.3999  0.8652
  849MPD2    H512532   4.508   2.122  15.260  1.5055 -1.5969 -0.6759
  849MPD2    N112533   4.337   2.367  14.769  0.2920  0.2819 -0.3565
  849MPD2    H712534   4.289   2.335  14.685 -0.4445 -3.1456  1.3393
  850MPD2     C12535   2.440   0.398  14.823  0.4620 -0.5074  0.4997
  850MPD2    C112536   2.526   0.354  14.921 -0.5290  0.4449 -0.3249
  850MPD2    C212537   2.653   0.399  14.926 -0.2117  0.0012 -0.0084
  850MPD2    C312538   2.712   0.474  14.822 -0.4554  0.1104 -0.0875
  850MPD2    C412539   2.630   0.511  14.725 -0.5836  0.0678 -0.1931
  850MPD2    C512540   2.496   0.480  14.726  0.3554  0.2259  0.2178
  850MPD2     H12541   2.706   0.377  15.018 -0.1268  2.1630  0.4644
  850MPD2    H112542   2.659   0.570  14.639  2.4731 -0.3618  0.5406
  850MPD2    H212543   2.333   0.379  14.816  0.6173 -0.3538 -2.4891
  850MPD2    H312544   2.437   0.520  14.644  0.5245  1.1973  0.5704
  850MPD2     N12545   2.847   0.510  14.811 -0.6220 -0.0450  0.0307
  850MPD2    H512546   2.870   0.567  14.730 -1.1919 -0.6730 -0.5677
  850MPD2    N112547   2.484   0.274  15.028 -0.1728  0.5750 -0.4882
  850MPD2    H712548   2.554   0.235  15.090  1.2107  0.4822 -2.1283
  851MPD2     C12549   2.776   4.515  15.578 -0.6047  0.5693 -0.1620
  851MPD2    C112550   2.738   4.531  15.447  0.0104  0.1658 -0.1353
  851MPD2    C212551   2.799   4.456  15.350  0.3677 -0.0799  0.2529
  851MPD2    C312552   2.886   4.353  15.389 -0.1558  0.1794 -0.0242
  851MPD2    C412553   2.930   4.338  15.518  0.8393 -0.8757 -0.0392
  851MPD2    C512554   2.874   4.422  15.613  0.0085 -0.3460  0.7987
  851MPD2     H12555   2.763   4.452  15.248  0.2251  1.8991  0.2364
  851MPD2    H112556   3.001   4.261  15.549  0.9952 -0.4844  0.5639
  851MPD2    H212557   2.728   4.570  15.659 -0.7093 -0.6545  0.6037
  851MPD2    H312558   2.903   4.409  15.716 -1.3372  0.7305  1.3099
  851MPD2     N12559   2.930   4.263  15.289 -0.5303 -0.4122  0.1794
  851MPD2    H512560   2.916   4.287  15.191  1.3133  0.3911  0.0997
  851MPD2    N112561   2.634   4.621  15.421 -0.3033 -0.8834 -0.6221
  851MPD2    H712562   2.582   4.656  15.501  1.5908  0.7396 -0.1068
  852MPD2     C12563   2.729   2.570  10.301 -0.4996 -0.4015 -0.0038
  852MPD2    C112564   2.683   2.572  10.429 -1.0069 -0.2023 -0.4224
  852MPD2    C212565   2.719   2.674  10.519 -0.3521 -0.2067 -0.3620
  852MPD2    C312566   2.811   2.769  10.481 -0.1719  0.2509  0.2658
  852MPD2    C412567   2.853   2.768  10.351  0.0964  0.3572 -0.0554
  852MPD2    C512568   2.813   2.670  10.257  0.3480  0.3433 -0.0379
  852MPD2     H12569   2.685   2.679  10.622  0.3323 -2.7008 -0.0007
  852MPD2    H112570   2.927   2.840  10.316  0.6436  1.0390  2.5225
  852MPD2    H212571   2.705   2.501  10.221 -0.0047  0.3972 -0.8556
  852MPD2    H312572   2.855   2.672  10.157  1.1947 -1.0753  0.2891
  852MPD2     N12573   2.840   2.870  10.577  0.1851  0.6461 -0.1810
  852MPD2    H512574   2.822   2.840  10.672 -0.4514  0.7940 -0.2568
  852MPD2    N112575   2.585   2.481  10.473 -0.1827 -0.4589  0.3552
  852MPD2    H712576   2.540   2.499  10.563 -0.9642  0.9252 -0.3178
  853MPD2     C12577   3.926   2.638  12.536  0.8189 -0.2480  0.4326
  853MPD2    C112578   3.882   2.761  12.481  0.8411 -1.1741  0.4810
  853MPD2    C212579   3.906   2.778  12.347  0.0989  0.5352  0.3106
  853MPD2    C312580   3.973   2.674  12.278  0.7631 -0.0774  0.3839
  853MPD2    C412581   4.004   2.554  12.330 -0.1559 -0.1973  0.1915
  853MPD2    C512582   3.980   2.537  12.458 -0.4526 -0.2197  0.7312
  853MPD2     H12583   3.869   2.867  12.296 -0.8610  0.3221  0.6373
  853MPD2    H112584   4.056   2.475  12.278 -0.1227 -0.7682  1.0905
  853MPD2    H212585   3.920   2.615  12.642 -1.4841  3.5842  1.1370
  853MPD2    H312586   4.010   2.441  12.498  1.6859  0.1877  0.1044
  853MPD2     N12587   3.994   2.707  12.136  0.1687  0.2235  0.5719
  853MPD2    H512588   3.954   2.796  12.110  3.1505  1.5274  0.4110
  853MPD2    N112589   3.820   2.851  12.572  0.0763 -0.0650  0.0657
  853MPD2    H712590   3.819   2.820  12.668  1.5113 -1.7530 -0.4630
  854MPD2     C12591   0.550   3.315  12.926 -0.4763 -0.4978  0.4624
  854MPD2    C112592   0.542   3.216  12.833  0.1907 -0.3135  0.4490
  854MPD2    C212593   0.618   3.100  12.847  0.8257  0.5486  0.0710
  854MPD2    C312594   0.701   3.089  12.955 -0.9290  0.8085 -0.3945
  854MPD2    C412595   0.704   3.183  13.046  0.7082 -0.8732 -0.5036
  854MPD2    C512596   0.634   3.302  13.037 -0.6316  0.4463 -0.1014
  854MPD2     H12597   0.608   3.019  12.775 -0.4510 -0.4923  1.4130
  854MPD2    H112598   0.775   3.166  13.126  0.4166  0.2499 -0.0112
  854MPD2    H212599   0.501   3.411  12.910  2.2555  0.4188 -2.4893
  854MPD2    H312600   0.646   3.389  13.100  0.0725  0.0720  0.2816
  854MPD2     N12601   0.771   2.976  12.993  0.4291 -0.1247 -0.6256
  854MPD2    H512602   0.818   2.981  13.082 -2.0151 -1.5989  0.7503
  854MPD2    N112603   0.447   3.234  12.719 -0.1207  0.4611  0.5215
  854MPD2    H712604   0.392   3.319  12.709 -0.3383 -0.0236 -2.5863
  855MPD2     C12605   1.161   2.811  13.725 -0.2512  0.2509 -0.1566
  855MPD2    C112606   1.149   2.688  13.680 -0.3892  0.5312 -0.1459
  855MPD2    C212607   1.109   2.675  13.550 -0.5639  0.1763  0.4694
  855MPD2    C312608   1.096   2.785  13.465  0.1039 -0.0671  1.1068
  855MPD2    C412609   1.099   2.907  13.519  0.0524  0.6385 -0.1372
  855MPD2    C512610   1.139   2.922  13.647 -0.0412 -0.3831 -0.2293
  855MPD2     H12611   1.094   2.574  13.513 -0.3211  0.9560 -1.7696
  855MPD2    H112612   1.080   2.996  13.460 -0.5323  0.4614 -0.2147
  855MPD2    H212613   1.199   2.846  13.820 -1.1977 -2.4149  1.1995
  855MPD2    H312614   1.144   3.019  13.695  0.0960 -0.8434  0.6908
  855MPD2     N12615   1.049   2.769  13.334  0.1592 -0.6242 -0.2193
  855MPD2    H512616   1.011   2.845  13.279  0.6281 -0.3557 -0.1709
  855MPD2    N112617   1.153   2.574  13.766 -0.4846 -0.1984  0.5919
  855MPD2    H712618   1.136   2.483  13.723 -2.6560 -0.1240  1.3070
  856MPD2     C12619   3.399   3.649  14.011 -0.3766  1.2718 -0.4301
  856MPD2    C112620   3.454   3.776  14.027  0.4449 -0.4128 -0.2680
  856MPD2    C212621   3.401   3.882  13.954 -0.3071  0.6433  0.2754
  856MPD2    C312622   3.298   3.856  13.861  0.4845 -0.8142  0.5331
  856MPD2    C412623   3.262   3.721  13.839 -0.1620  0.4852  0.3057
  856MPD2    C512624   3.311   3.616  13.916  0.2162 -0.2918 -0.3260
  856MPD2     H12625   3.446   3.980  13.966  0.1430  0.3760  0.7217
  856MPD2    H112626   3.183   3.698  13.769  0.7139 -0.7966 -0.2431
  856MPD2    H212627   3.431   3.564  14.071  0.4821  1.3725 -0.7368
  856MPD2    H312628   3.272   3.515  13.906  2.0485 -0.9359 -0.9428
  856MPD2     N12629   3.235   3.943  13.773  0.3449 -0.0926  0.5756
  856MPD2    H512630   3.157   3.905  13.720  1.9840 -0.8090 -1.3310
  856MPD2    N112631   3.566   3.798  14.113 -0.1262 -0.8181  0.0556
  856MPD2    H712632   3.596   3.894  14.121 -1.8282 -0.0200 -3.0608
  857MPD2     C12633   4.561   1.371  12.346 -0.6543  0.2895  0.1979
  857MPD2    C112634   4.639   1.305  12.437  0.3114 -0.6189  0.1540
  857MPD2    C212635   4.701   1.374  12.535  0.1022  0.2924  0.2612
  857MPD2    C312636   4.676   1.506  12.547 -0.4212 -0.0407  0.4891
  857MPD2    C412637   4.586   1.568  12.468 -0.1401  0.0903 -0.7715
  857MPD2    C512638   4.538   1.503  12.359  0.8563  0.4095 -0.0208
  857MPD2     H12639   0.033   1.327  12.605  0.2382 -0.0962 -0.1313
  857MPD2    H112640   4.561   1.670  12.493 -2.4322 -0.9534  1.2151
  857MPD2    H212641   4.521   1.307  12.268 -0.0886  0.8626 -0.5712
  857MPD2    H312642   4.480   1.560  12.288 -0.8641 -1.1430  0.1330
  857MPD2     N12643   0.012   1.569  12.651 -0.4124  0.5291  0.3172
  857MPD2    H512644   0.072   1.509  12.707 -0.1845  0.4109 -0.0560
  857MPD2    N112645   4.655   1.160  12.429 -0.1318 -0.3004  0.3694
  857MPD2    H712646   4.596   1.103  12.371  0.1261  0.1644 -0.3502
  858MPD2     C12647   0.795   0.165  16.475  0.2217 -0.0736 -0.2438
  858MPD2    C112648   0.927   0.130  16.480 -1.0074  0.2411 -0.3373
  858MPD2    C212649   1.009   0.208  16.561  0.4669  0.0364  0.0757
  858MPD2    C312650   0.967   0.322  16.630  0.3686 -0.1013  0.2786
  858MPD2    C412651   0.830   0.347  16.629  0.1121 -0.3892 -0.1183
  858MPD2    C512652   0.743   0.271  16.555  0.2254 -0.3102  0.1952
  858MPD2     H12653   1.110   0.171  16.575  1.2241  1.4384 -1.8019
  858MPD2    H112654   0.792   0.425  16.694 -1.1436 -1.6024  0.6082
  858MPD2    H212655   0.721   0.103  16.424 -0.1010  2.0588 -2.3709
  858MPD2    H312656   0.639   0.301  16.555  0.5992  1.0130  1.8563
  858MPD2     N12657   1.051   0.388  16.721 -0.4728 -0.3468  0.2642
  858MPD2    H512658   1.011   0.474  16.756  1.2811 -0.2970  2.1888
  858MPD2    N112659   0.976   0.020  16.402 -0.1466  0.6782 -0.7149
  858MPD2    H712660   0.905   4.723  16.337 -2.8586  0.7292  2.2892
  859MPD2     C12661   4.718   2.026  16.134 -0.3260  0.3664 -0.3616
  859MPD2    C112662   4.700   2.006  15.998 -0.2783  0.9555  1.2617
  859MPD2    C212663   4.711   1.877  15.944  0.1719 -0.1361 -0.0689
  859MPD2    C312664   4.720   1.765  16.026  0.1720 -0.3644  0.3843
  859MPD2    C412665   4.722   1.786  16.166 -0.1356 -0.0976  0.2639
  859MPD2    C512666   4.728   1.915  16.220 -0.9028 -0.0821  0.5638
  859MPD2     H12667   4.691   1.858  15.840  2.9676  2.0565 -1.0082
  859MPD2    H112668   4.731   1.704  16.236  0.8741 -1.9144 -1.9994
  859MPD2    H212669   4.735   2.123  16.181  2.7524 -0.2885 -0.1605
  859MPD2    H312670   0.003   1.923  16.327 -3.5479 -1.0052  0.9005
  859MPD2     N12671   0.010   1.632  15.978  0.0473 -0.2148  0.0741
  859MPD2    H512672   0.014   1.555  16.044 -1.1978 -1.1998 -1.0034
  859MPD2    N112673   4.686   2.121  15.927  0.7147 -0.6467 -0.0191
  859MPD2    H712674   4.685   2.202  15.989 -1.2054 -1.7173  1.3411
  860MPD2     C12675   1.744   3.280  11.779 -0.2996  0.7157 -0.2190
  860MPD2    C112676   1.717   3.159  11.834 -0.2157  0.7011  0.4215
  860MPD2    C212677   1.590   3.134  11.879 -0.0882 -0.4235 -0.1404
  860MPD2    C312678   1.493   3.220  11.886 -0.1461 -0.5580 -0.6720
  860MPD2    C412679   1.523   3.355  11.850 -0.2461  0.0243  0.7963
  860MPD2    C512680   1.645   3.377  11.789  0.1119  0.1697  0.1183
  860MPD2     H12681   1.570   3.030  11.903  1.8593 -1.6401 -3.7914
  860MPD2    H112682   1.467   3.442  11.884 -0.7350  0.2979 -0.7305
  860MPD2    H212683   1.844   3.310  11.749  0.1169  0.3768  0.8482
  860MPD2    H312684   1.658   3.481  11.764 -0.0284 -0.1833 -1.4882
  860MPD2     N12685   1.381   3.181  11.949 -0.2440 -0.5440  0.2322
  860MPD2    H512686   1.381   3.088  11.990 -1.8426 -0.3862  0.5762
  860MPD2    N112687   1.813   3.061  11.868 -0.6839 -0.6728 -0.2937
  860MPD2    H712688   1.768   2.978  11.905  1.3863 -2.0138 -0.8052
  861MPD2     C12689   0.167   0.398  11.526  0.0014  0.0761 -0.0443
  861MPD2    C112690   0.249   0.512  11.523 -0.0364  0.5217 -0.2037
  861MPD2    C212691   0.270   0.572  11.400  0.2740  0.0881  0.5613
  861MPD2    C312692   0.203   0.529  11.282  0.1923  0.7931 -0.4619
  861MPD2    C412693   0.117   0.420  11.295 -0.6032 -0.1165  0.4326
  861MPD2    C512694   0.099   0.359  11.413 -0.1160  1.3756 -0.2294
  861MPD2     H12695   0.337   0.658  11.396  0.0713  0.1989 -0.5102
  861MPD2    H112696   0.055   0.380  11.215 -1.1956  0.9181  0.3671
  861MPD2    H212697   0.146   0.355  11.624  0.6369  2.7104  1.2672
  861MPD2    H312698   0.033   0.275  11.434 -0.2636  1.1481 -1.5913
  861MPD2     N12699   0.215   0.596  11.155  0.6924 -0.6133 -0.3937
  861MPD2    H512700   0.145   0.574  11.085 -0.1210  1.7698 -0.3266
  861MPD2    N112701   0.323   0.557  11.629 -0.0846 -0.1668  0.0106
  861MPD2    H712702   0.374   0.644  11.616 -1.0852  0.6780  1.6305
  862MPD2     C12703   4.442   0.672  10.780 -0.2397  0.8338  0.1952
  862MPD2    C112704   4.478   0.686  10.914  0.0135  1.1157  0.4889
  862MPD2    C212705   4.410   0.612  11.010  0.2225 -0.5368  0.4337
  862MPD2    C312706   4.303   0.531  10.972  0.2872 -0.6828 -0.5049
  862MPD2    C412707   4.270   0.517  10.842 -0.6635 -0.2502 -0.0337
  862MPD2    C512708   4.335   0.586  10.747  0.3269 -0.0112  0.6585
  862MPD2     H12709   4.450   0.614  11.110  0.0492 -3.3083  0.5555
  862MPD2    H112710   4.181   0.458  10.821 -0.7609 -0.3520  0.6612
  862MPD2    H212711   4.493   0.723  10.699 -0.5144 -1.8728 -1.7049
  862MPD2    H312712   4.321   0.554  10.645  1.9582  0.4928  0.2765
  862MPD2     N12713   4.225   0.459  11.066 -0.5496  0.2541  0.3813
  862MPD2    H512714   4.141   0.416  11.028 -0.0745  0.6844 -1.1698
  862MPD2    N112715   4.583   0.765  10.954 -0.0046  0.1238 -0.8069
  862MPD2    H712716   4.613   0.749  11.050 -1.6523  1.2115 -0.1215
  863MPD2     C12717   4.067   4.021  16.368 -0.4731 -0.7755  0.2518
  863MPD2    C112718   4.037   3.953  16.487 -0.2555  0.2050  0.1583
  863MPD2    C212719   4.137   3.899  16.564 -0.4359  0.4410 -0.1647
  863MPD2    C312720   4.268   3.917  16.520  0.5281 -0.3692 -0.3848
  863MPD2    C412721   4.294   3.978  16.401 -0.0300 -0.1259  0.3495
  863MPD2    C512722   4.193   4.025  16.322  0.6386 -0.3184  0.3556
  863MPD2     H12723   4.103   3.850  16.655  1.9468 -0.3097  0.3265
  863MPD2    H112724   4.394   3.993  16.362 -0.0323  1.3304  0.8953
  863MPD2    H212725   3.991   4.067  16.306 -0.2886  0.9094  1.2909
  863MPD2    H312726   4.205   4.071  16.224 -0.5745  2.6226  1.5804
  863MPD2     N12727   4.373   3.863  16.598  0.0119 -0.6696 -0.0134
  863MPD2    H512728   4.470   3.886  16.577 -0.3119  1.2448  0.5651
  863MPD2    N112729   3.899   3.970  16.520  0.1104  0.0883 -0.0903
  863MPD2    H712730   3.850   4.011  16.441 -2.6609 -1.3177  0.8910
  864MPD2     C12731   4.568   0.080  17.139  0.0627  0.7087  0.0633
  864MPD2    C112732   4.617   0.009  17.032  0.1703  0.0845 -0.4791
  864MPD2    C212733   4.708   0.072  16.950 -0.0665  0.1506  0.0084
  864MPD2    C312734   0.023   0.197  16.982 -0.0596 -0.0089 -0.0344
  864MPD2    C412735   4.725   0.256  17.106 -0.0448  0.1628  0.5488
  864MPD2    C512736   4.627   0.196  17.183 -0.4459 -0.0160 -0.0855
  864MPD2     H12737   0.004   0.029  16.856  0.2559  2.1165 -0.7798
  864MPD2    H112738   0.031   0.353  17.131 -0.1233  0.2459  0.3514
  864MPD2    H212739   4.482   0.037  17.190 -0.4105  1.8855  0.2535
  864MPD2    H312740   4.594   0.245  17.274 -1.2176 -0.1231 -0.3091
  864MPD2     N12741   0.121   0.268  16.901  0.5670  0.9411  0.1377
  864MPD2    H512742   0.142   0.363  16.931  1.1616  1.1207 -0.8482
  864MPD2    N112743   4.578   4.610  17.020 -0.0363  0.7128 -0.4701
  864MPD2    H712744   4.492   4.593  17.071  0.1538 -1.9006 -1.0597
  865MPD2     C12745   0.030   0.677  16.124 -0.8517  0.1372 -0.2706
  865MPD2    C112746   0.054   0.572  16.212  0.1316  0.0771  0.4695
  865MPD2    C212747   0.065   0.601  16.345 -0.2022 -0.3176 -0.8152
  865MPD2    C312748   0.073   0.728  16.395  0.0588 -0.5287  0.2205
  865MPD2    C412749   0.039   0.830  16.310 -0.2991  0.2561 -0.1753
  865MPD2    C512750   0.022   0.809  16.176 -0.3043  0.1198 -0.6077
  865MPD2     H12751   0.067   0.519  16.417 -1.0927  1.2873  1.0318
  865MPD2    H112752   0.042   0.933  16.343  0.8070  0.3541 -0.5742
  865MPD2    H212753   0.025   0.669  16.016  0.6944  0.1464 -0.3424
  865MPD2    H312754   0.016   0.889  16.104 -1.2009  0.5454 -0.0661
  865MPD2     N12755   0.099   0.768  16.534 -0.5760  0.2735 -0.0281
  865MPD2    H512756   0.081   0.866  16.552 -0.4528 -0.0066  1.5598
  865MPD2    N112757   0.066   0.448  16.150 -0.0242  0.2186  0.1607
  865MPD2    H712758   0.066   0.446  16.048  2.5114  0.8013  0.1442
  866MPD2     C12759   1.235   0.573  11.330  0.1970  0.1178 -0.4607
  866MPD2    C112760   1.246   0.703  11.380  0.2110 -0.2214  0.5155
  866MPD2    C212761   1.137   0.786  11.402 -0.0494  0.5890  0.2722
  866MPD2    C312762   1.013   0.732  11.367  0.4343 -0.0173 -0.0172
  866MPD2    C412763   1.002   0.601  11.313 -0.0781  0.3190 -0.3386
  866MPD2    C512764   1.108   0.519  11.302 -0.5503  0.5561  0.6822
  866MPD2     H12765   1.151   0.885  11.443 -2.8683  1.2380 -0.3361
  866MPD2    H112766   0.912   0.556  11.271  0.1540 -0.0268 -0.4582
  866MPD2    H212767   1.328   0.519  11.337 -0.0845 -0.2426  0.4114
  866MPD2    H312768   1.101   0.417  11.266 -1.0861  0.7995  0.0884
  866MPD2     N12769   0.880   0.791  11.386  0.2197  0.2009  0.0837
  866MPD2    H512770   0.803   0.730  11.361  1.5807 -1.7694  0.7261
  866MPD2    N112771   1.376   0.741  11.418 -0.3387 -0.1413 -0.4812
  866MPD2    H712772   1.448   0.670  11.402  0.7883  1.5183 -2.8581
  867MPD2     C12773   3.313   0.739  16.228 -0.5054  0.5090  0.2218
  867MPD2    C112774   3.357   0.648  16.324 -0.4409 -0.5427  0.0468
  867MPD2    C212775   3.387   0.693  16.459  1.0159 -0.2321  0.1685
  867MPD2    C312776   3.347   0.819  16.499 -0.1417 -0.1408 -0.1576
  867MPD2    C412777   3.286   0.904  16.406 -0.3060 -0.0860 -0.0856
  867MPD2    C512778   3.265   0.866  16.272  0.5349 -0.1477 -0.2545
  867MPD2     H12779   3.442   0.620  16.517  2.5625  1.9202  1.3884
  867MPD2    H112780   3.260   1.000  16.449  0.6594 -0.2485  0.8452
  867MPD2    H212781   3.310   0.708  16.125 -1.7624  0.7618  0.1871
  867MPD2    H312782   3.225   0.945  16.210 -0.7258 -0.8371 -0.3116
  867MPD2     N12783   3.375   0.869  16.625 -0.4176 -0.5348 -0.5264
  867MPD2    H512784   3.336   0.960  16.646 -1.5986 -1.2746  0.5345
  867MPD2    N112785   3.366   0.512  16.284 -0.2826 -0.0247 -0.1918
  867MPD2    H712786   3.357   0.494  16.185 -1.5063 -0.7072  0.0477
  868MPD2     C12787   0.674   4.261  13.367  0.1382  0.4995  0.0745
  868MPD2    C112788   0.637   4.136  13.413  0.7764  0.6977  0.3049
  868MPD2    C212789   0.499   4.118  13.427  0.0566 -0.4001 -0.4859
  868MPD2    C312790   0.412   4.224  13.414 -0.1264 -0.8258  0.5707
  868MPD2    C412791   0.455   4.341  13.369 -0.1237 -0.1663  0.1424
  868MPD2    C512792   0.586   4.364  13.345 -0.6849 -0.2676 -0.3350
  868MPD2     H12793   0.469   4.017  13.450  0.5874 -0.5094 -0.2628
  868MPD2    H112794   0.389   4.424  13.345 -0.2643  0.1666  1.6605
  868MPD2    H212795   0.777   4.282  13.339  0.0887  1.5237  0.6456
  868MPD2    H312796   0.628   4.454  13.303 -1.5649  0.1059 -0.4072
  868MPD2     N12797   0.272   4.201  13.425 -0.2654 -0.1865 -0.1821
  868MPD2    H512798   0.245   4.106  13.448 -0.5688  0.5329  2.4079
  868MPD2    N112799   0.740   4.043  13.433 -0.5764 -0.3521 -0.3141
  868MPD2    H712800   0.828   4.066  13.390 -0.5419 -1.9211 -1.0899
  869MPD2     C12801   1.005   1.848   0.111  0.0946  0.4262  0.5025
  869MPD2    C112802   1.027   1.786   0.233 -0.5082 -0.1343 -0.2017
  869MPD2    C212803   1.086   1.862   0.339  0.5687  0.2577 -0.2607
  869MPD2    C312804   1.132   1.989   0.327 -0.6679  0.5153 -0.0409
  869MPD2    C412805   1.114   2.046   0.206  0.3427  0.6799  0.6550
  869MPD2    C512806   1.055   1.973   0.101  0.0394 -0.8437 -0.0108
  869MPD2     H12807   1.081   1.810   0.434  0.4070  0.9188  0.0926
  869MPD2    H112808   1.144   2.150   0.196  1.0970  0.5480  1.5550
  869MPD2    H212809   0.957   1.796   0.029  1.1143 -0.0884  0.2236
  869MPD2    H312810   1.054   2.027   0.007 -0.9680 -1.8042 -0.5429
  869MPD2     N12811   1.190   2.068   0.424 -0.0843 -0.3998 -0.8949
  869MPD2    H512812   1.195   2.166   0.398  0.0037  0.2519  1.6484
  869MPD2    N112813   0.976   1.648   0.249  0.1553  0.4764  0.2847
  869MPD2    H712814   0.935   1.616   0.162 -0.0567 -0.8063  0.8688
  870MPD2     C12815   1.989   1.163   1.992 -0.7099  0.2901  0.3414
  870MPD2    C112816   1.952   1.096   1.877  0.2661 -0.0346  0.2307
  870MPD2    C212817   1.979   1.166   1.767  0.5025 -0.7338 -0.2320
  870MPD2    C312818   2.002   1.303   1.764  0.1433 -0.0140 -0.2975
  870MPD2    C412819   2.034   1.369   1.881 -0.3678 -0.4941 -0.3159
  870MPD2    C512820   2.028   1.295   1.993 -0.3274 -0.0611  0.8162
  870MPD2     H12821   1.937   1.126   1.676  0.7484 -1.2030 -0.1373
  870MPD2    H112822   2.054   1.476   1.883  1.0473 -0.8333  2.6660
  870MPD2    H212823   1.984   1.119   2.091  0.1979 -2.4416 -0.8208
  870MPD2    H312824   2.074   1.342   2.079  0.2477 -2.2484  1.6868
  870MPD2     N12825   1.969   1.373   1.645  0.4371  0.3767 -0.4987
  870MPD2    H512826   1.908   1.326   1.579  0.1165 -0.9153  0.7063
  870MPD2    N112827   1.885   0.971   1.884 -0.4597  0.4075 -0.0680
  870MPD2    H712828   1.851   0.942   1.975  0.5124 -0.1622  0.1141
  871MPD2     C12829   2.647   0.545  16.357 -0.3509 -0.0638 -0.4010
  871MPD2    C112830   2.611   0.463  16.466 -0.8880 -0.3086 -0.0498
  871MPD2    C212831   2.576   0.327  16.439  0.5804 -0.1750 -0.4673
  871MPD2    C312832   2.573   0.275  16.307 -0.5976  0.0081 -0.0622
  871MPD2    C412833   2.593   0.366  16.204  0.7106 -0.4607  0.4297
  871MPD2    C512834   2.632   0.496  16.228 -0.3520  0.0993  0.0036
  871MPD2     H12835   2.558   0.248  16.511  0.8288 -0.1160 -0.3414
  871MPD2    H112836   2.602   0.326  16.103 -2.3424 -0.1665  0.0444
  871MPD2    H212837   2.676   0.647  16.380  0.1839 -0.2953 -0.0463
  871MPD2    H312838   2.653   0.568  16.150  0.2334 -1.1174 -0.9748
  871MPD2     N12839   2.558   0.135  16.287 -0.5031 -0.5965  0.4307
  871MPD2    H512840   2.542   0.082  16.373  0.1061 -0.9482  0.3281
  871MPD2    N112841   2.610   0.524  16.595  0.0747  0.1448 -0.0185
  871MPD2    H712842   2.663   0.610  16.607 -2.3972  1.6465  0.0982
  872MPD2     C12843   3.407   3.132  13.834  0.0530  0.4057  0.5615
  872MPD2    C112844   3.440   3.170  13.963 -0.2412  0.5475  0.4644
  872MPD2    C212845   3.355   3.123  14.061  0.0251 -0.8792  0.4200
  872MPD2    C312846   3.244   3.037  14.039  0.5357 -0.3540 -0.0177
  872MPD2    C412847   3.212   3.008  13.907  0.7597  0.6401 -0.3223
  872MPD2    C512848   3.297   3.047  13.811 -0.5051 -0.4746 -0.0745
  872MPD2     H12849   3.386   3.149  14.161 -1.1020  0.0449  0.5208
  872MPD2    H112850   3.129   2.945  13.878  1.5326  0.0737 -1.3080
  872MPD2    H212851   3.473   3.161  13.753  2.8612 -3.1017  1.5571
  872MPD2    H312852   3.286   3.021  13.706  0.5875 -0.5785 -0.1671
  872MPD2     N12853   3.162   2.999  14.146 -0.4492  0.4879  0.0816
  872MPD2    H512854   3.093   2.928  14.124 -1.6962  2.0817 -1.1759
  872MPD2    N112855   3.545   3.254  14.001 -0.0265 -0.0493 -0.6392
  872MPD2    H712856   3.549   3.279  14.100  1.3988 -2.8393 -0.0102
  873MPD2     C12857   0.012   3.093   0.649 -0.3095 -0.1958 -0.4368
  873MPD2    C112858   0.088   3.045   0.753 -0.0035  0.0568 -0.2520
  873MPD2    C212859   0.145   2.923   0.732 -0.0020 -0.4752  0.1113
  873MPD2    C312860   0.118   2.848   0.617  0.3869 -1.3904 -0.3104
  873MPD2    C412861   0.039   2.897   0.518 -0.6149  0.8356 -0.7821
  873MPD2    C512862   4.720   3.018   0.541 -0.2907 -0.4915  0.1818
  873MPD2     H12863   0.213   2.894   0.812  2.0184 -1.6323 -2.0301
  873MPD2    H112864   0.032   2.850   0.420 -0.2088 -1.4375  0.2764
  873MPD2    H212865   4.699   3.190   0.650 -0.2642 -0.1836  1.2735
  873MPD2    H312866   4.661   3.055   0.459  1.5636  0.5774 -0.6505
  873MPD2     N12867   0.173   2.725   0.592 -0.8717  0.0846  0.2009
  873MPD2    H512868   0.134   2.677   0.512 -2.2086  0.1989  0.7819
  873MPD2    N112869   0.096   3.126   0.863  0.5692 -0.1149  0.5214
  873MPD2    H712870   0.052   3.217   0.856 -0.0974 -0.5278 -0.5263
  874MPD2     C12871   4.420   2.959  16.321  0.1902 -0.8246  0.0624
  874MPD2    C112872   4.496   2.911  16.422  0.6116 -0.0852  0.2162
  874MPD2    C212873   4.618   2.971  16.458 -0.4120  0.5369  0.5962
  874MPD2    C312874   4.655   3.090  16.391 -0.3266  0.3278 -0.3401
  874MPD2    C412875   4.579   3.125  16.286 -0.6676 -0.5292  0.6843
  874MPD2    C512876   4.460   3.065  16.250  0.7902  1.4681  0.0218
  874MPD2     H12877   4.684   2.932  16.536 -0.7514 -0.6639  0.2908
  874MPD2    H112878   4.613   3.195  16.211 -1.3289  1.2795  2.0879
  874MPD2    H212879   4.331   2.910  16.284 -0.4728  0.0177  0.5175
  874MPD2    H312880   4.405   3.099  16.163  0.8375 -1.0170 -1.0016
  874MPD2     N12881   0.036   3.160  16.432  0.1132  0.3487 -0.3352
  874MPD2    H512882   0.087   3.122  16.511 -0.0100  1.8590  0.4664
  874MPD2    N112883   4.464   2.781  16.477  0.6515 -0.7426  0.4103
  874MPD2    H712884   4.393   2.735  16.421  0.6074 -1.9269  1.4470
  875MPD2     C12885   0.364   1.326  14.625  0.1039 -0.5098  0.6041
  875MPD2    C112886   0.439   1.442  14.592 -0.9554  0.7786 -0.6222
  875MPD2    C212887   0.512   1.503  14.685  0.1772 -0.6948  0.1108
  875MPD2    C312888   0.519   1.450  14.815 -0.8081  0.0572 -0.0955
  875MPD2    C412889   0.442   1.345  14.850 -0.3601 -0.0286  1.0593
  875MPD2    C512890   0.377   1.274  14.751 -0.2283 -0.1019 -0.2416
  875MPD2     H12891   0.574   1.589  14.665  0.6091 -0.5689  1.9384
  875MPD2    H112892   0.434   1.315  14.954  1.0557 -1.3181  0.8099
  875MPD2    H212893   0.299   1.280  14.551 -0.0447 -0.0087  0.4221
  875MPD2    H312894   0.308   1.197  14.785  1.4042 -1.9748 -1.2096
  875MPD2     N12895   0.588   1.512  14.922  0.5997  0.2693 -0.3540
  875MPD2    H512896   0.560   1.476  15.013 -0.5470  1.2039 -0.3378
  875MPD2    N112897   0.428   1.507  14.466  0.2684 -0.1834  0.1187
  875MPD2    H712898   0.481   1.592  14.451 -0.7851  0.3258 -0.6488
  876MPD2     C12899   4.510   2.402  16.206  0.0907  0.1796  0.3041
  876MPD2    C112900   4.620   2.465  16.274  0.5701 -0.3084  0.4120
  876MPD2    C212901   4.676   2.393  16.374 -0.1001  0.4410 -0.7044
  876MPD2    C312902   4.618   2.272  16.416 -0.2415 -0.2776 -0.5234
  876MPD2    C412903   4.515   2.212  16.348 -0.7228  0.0605 -0.2391
  876MPD2    C512904   4.461   2.283  16.241 -0.1203  0.1198  0.0469
  876MPD2     H12905   0.028   2.427  16.427  0.1394  2.7275 -2.5853
  876MPD2    H112906   4.476   2.112  16.364  1.8358 -0.4821  2.6314
  876MPD2    H212907   4.469   2.458  16.123 -0.5273 -0.7456 -0.0034
  876MPD2    H312908   4.386   2.246  16.173 -0.5622  0.7226  0.2107
  876MPD2     N12909   4.678   2.212  16.531  0.0167  0.0798  0.6492
  876MPD2    H512910   0.028   2.258  16.557 -0.8704  1.4105  1.2334
  876MPD2    N112911   4.658   2.594  16.226  0.1199 -0.0798 -0.0213
  876MPD2    H712912   4.639   2.617  16.129  2.5633  1.2357 -0.1884
  877MPD2     C12913   4.668   2.903  15.604  0.1113 -0.3735 -0.1565
  877MPD2    C112914   0.022   2.984  15.674  0.6901  0.0333  0.1422
  877MPD2    C212915   0.122   3.041  15.593 -0.6933 -0.6607 -0.8305
  877MPD2    C312916   0.145   2.999  15.459  0.6062  0.7133 -0.1296
  877MPD2    C412917   0.060   2.916  15.395  0.5838  0.2667  0.0579
  877MPD2    C512918   4.689   2.874  15.471  0.2820  0.0068 -0.2041
  877MPD2     H12919   0.182   3.119  15.639 -2.2352  0.9137 -1.4695
  877MPD2    H112920   0.061   2.896  15.289  0.4568 -1.5753  0.4104
  877MPD2    H212921   4.588   2.860  15.664  0.5302 -1.5671 -0.4506
  877MPD2    H312922   4.618   2.813  15.416 -0.3450 -1.3110  2.0521
  877MPD2     N12923   0.264   3.030  15.395 -0.6020  1.1366 -0.3669
  877MPD2    H512924   0.263   3.001  15.297  1.0590  0.7318 -0.2631
  877MPD2    N112925   0.021   3.005  15.812 -0.0061  0.5282 -0.0947
  877MPD2    H712926   0.103   3.050  15.849 -0.1928  1.5336 -0.8774
  878MPD2     C12927   4.210   2.074  13.855  0.2018 -0.8544 -0.0427
  878MPD2    C112928   4.324   2.147  13.848  0.7686 -0.0053 -0.2765
  878MPD2    C212929   4.372   2.209  13.962  1.0534  0.1950 -0.3228
  878MPD2    C312930   4.314   2.191  14.080  0.0360  0.3826 -0.5981
  878MPD2    C412931   4.200   2.119  14.089 -0.3685 -0.0231  0.2351
  878MPD2    C512932   4.140   2.070  13.978 -0.6893  0.9012  0.0018
  878MPD2     H12933   4.454   2.280  13.962  0.5828  0.7392  0.2244
  878MPD2    H112934   4.150   2.117  14.186 -0.6594  3.2407  0.1621
  878MPD2    H212935   4.163   2.031  13.768  1.5369 -1.6239 -0.3887
  878MPD2    H312936   4.058   2.001  13.990 -1.9305  2.1991 -1.0585
  878MPD2     N12937   4.378   2.250  14.190  0.1234 -0.5787  0.1550
  878MPD2    H512938   4.470   2.292  14.180  0.7628 -1.7425  1.2246
  878MPD2    N112939   4.377   2.173  13.729 -0.2620 -0.3449 -0.2030
  878MPD2    H712940   4.327   2.134  13.649 -0.4198 -2.1933  0.8134
  879MPD2     C12941   0.323   3.352  17.434  0.2522  0.5956 -0.8851
  879MPD2    C112942   0.248   3.437  17.351  0.6163  0.5562  0.2793
  879MPD2    C212943   0.163   3.371  17.263 -0.1397  0.0039  0.3567
  879MPD2    C312944   0.147   3.239  17.269  0.1794  0.3982 -0.7722
  879MPD2    C412945   0.218   3.158  17.356 -0.9380  0.3040  0.0983
  879MPD2    C512946   0.312   3.217  17.432  0.0387 -1.4177  0.7916
  879MPD2     H12947   0.104   3.420  17.186  0.8084  1.3303  0.4795
  879MPD2    H112948   0.216   3.050  17.370  1.5441  0.2856  0.3217
  879MPD2    H212949   0.396   3.392  17.504  0.0971 -0.2189 -0.2500
  879MPD2    H312950   0.361   3.154  17.505  0.1708 -2.1562  0.0649
  879MPD2     N12951   0.049   3.176  17.187  0.5744 -0.2857  0.4817
  879MPD2    H512952   4.730   3.238  17.128  1.1707 -0.7525 -0.5692
  879MPD2    N112953   0.280   3.575  17.367  0.3854 -0.2465 -0.1078
  879MPD2    H712954   0.331   3.608  17.448 -0.4522 -0.1774  0.3888
  880MPD2     C12955   1.679   0.400   0.901  0.4525 -0.7478 -0.0542
  880MPD2    C112956   1.665   0.436   0.771 -0.4663 -0.3087 -0.2308
  880MPD2    C212957   1.666   0.342   0.671 -0.0252 -0.0294 -0.6646
  880MPD2    C312958   1.691   0.207   0.698 -0.4514  0.3796  0.1724
  880MPD2    C412959   1.693   0.163   0.827  0.0888  0.1385  0.5211
  880MPD2    C512960   1.683   0.264   0.924 -0.3442  1.0432  0.3215
  880MPD2     H12961   1.655   0.368   0.567 -0.0900  1.0442 -0.3951
  880MPD2    H112962   1.686   0.059   0.858  1.4723 -0.3003 -0.6769
  880MPD2    H212963   1.672   0.469   0.984  0.7479 -1.4490  0.5534
  880MPD2    H312964   1.688   0.233   1.028  0.7723  0.3094  0.0560
  880MPD2     N12965   1.706   0.117   0.595  0.1727  0.3230  0.5887
  880MPD2    H512966   1.701   0.159   0.503  1.0883 -0.0608  0.3646
  880MPD2    N112967   1.638   0.572   0.752 -0.8362  0.2749 -0.2781
  880MPD2    H712968   1.603   0.625   0.831 -2.2942  0.2020 -0.8608
  881MPD2     C12969   1.667   1.428   0.064 -0.4436  0.0264 -0.5503
  881MPD2    C112970   1.615   1.301   0.024 -0.0520  0.3743  0.0786
  881MPD2    C212971   1.611   1.212   0.129  0.1736  0.7007  0.0096
  881MPD2    C312972   1.617   1.253   0.258  0.6009  0.2820  0.1625
  881MPD2    C412973   1.636   1.382   0.291 -0.0049  0.0133  0.3999
  881MPD2    C512974   1.660   1.475   0.192 -0.4052  0.1172  0.0704
  881MPD2     H12975   1.592   1.108   0.105  0.6777  0.3030  1.3295
  881MPD2    H112976   1.642   1.421   0.392 -2.6255  0.7297  0.2719
  881MPD2    H212977   1.689   1.501  17.729  1.1531 -0.5997 -0.6880
  881MPD2    H312978   1.683   1.579   0.209  0.2643 -0.1601  0.8839
  881MPD2     N12979   1.605   1.172   0.376  0.1568 -0.4263  0.1275
  881MPD2    H512980   1.612   1.222   0.464  1.1617 -1.0545  0.3973
  881MPD2    N112981   1.643   1.263  17.635 -0.0650 -0.0175  0.3844
  881MPD2    H712982   1.683   1.335  17.577  0.8262  0.7225  1.9121
  882MPD2     C12983   0.335   2.595  14.956 -0.1936  0.0571 -0.2243
  882MPD2    C112984   0.304   2.729  14.981 -0.0201 -0.0048  1.1934
  882MPD2    C212985   0.170   2.771  14.965 -0.0200  0.3432 -0.0875
  882MPD2    C312986   0.068   2.685  14.929 -0.6009  0.0558 -0.6823
  882MPD2    C412987   0.107   2.552  14.910 -0.4085 -0.2836 -0.2582
  882MPD2    C512988   0.237   2.513  14.919 -0.9686  0.0580 -0.1289
  882MPD2     H12989   0.143   2.876  14.964 -2.5614 -0.3118 -0.3729
  882MPD2    H112990   0.029   2.478  14.898 -0.1254 -0.8489  1.3940
  882MPD2    H212991   0.434   2.566  14.990 -0.1888 -0.2409 -0.4908
  882MPD2    H312992   0.258   2.408  14.906 -3.1167 -0.6913  2.4163
  882MPD2     N12993   4.669   2.723  14.914 -0.1284 -0.1086 -0.4339
  882MPD2    H512994   4.603   2.657  14.875  1.9924 -2.4308 -0.1238
  882MPD2    N112995   0.400   2.826  15.026  0.4249 -0.2662  0.3601
  882MPD2    H712996   0.497   2.795  15.027 -0.1652 -2.1185  0.9080
  883MPD2     C12997   1.843   2.976  16.503 -0.1088  0.1164 -0.3978
  883MPD2    C112998   1.867   3.077  16.413 -0.5161 -0.2682  0.0246
  883MPD2    C212999   1.937   3.182  16.454  0.6036  0.1774 -0.4810
  883MPD2    C313000   1.978   3.200  16.585 -0.7400  0.0015 -0.1922
  883MPD2    C413001   1.955   3.100  16.676 -0.4565 -0.1275 -0.5768
  883MPD2    C513002   1.888   2.988  16.629  0.5395  0.3410  0.1630
  883MPD2     H13003   1.959   3.265  16.389  1.2129 -0.5171 -1.1633
  883MPD2    H113004   1.982   3.115  16.780 -1.4071  0.2420 -0.3845
  883MPD2    H213005   1.801   2.880  16.475  1.0324 -0.6573  0.5261
  883MPD2    H313006   1.868   2.904  16.695 -1.5790  0.7976  0.0962
  883MPD2     N13007   2.061   3.315  16.625 -0.1618 -0.4977  0.3903
  883MPD2    H513008   2.095   3.367  16.545  0.8110  0.3420  1.3417
  883MPD2    N113009   1.808   3.090  16.282  1.0611 -0.4534  0.3603
  883MPD2    H713010   1.810   3.175  16.228 -0.4010 -1.8596 -1.8827
  884MPD2     C13011   4.169   3.975  14.877  0.8180 -0.1621  0.3477
  884MPD2    C113012   4.197   3.933  15.007  0.1181  0.1944 -0.1583
  884MPD2    C213013   4.083   3.928  15.092  1.5254 -0.1108  0.0278
  884MPD2    C313014   3.957   3.970  15.051 -0.3588  0.0224 -0.2356
  884MPD2    C413015   3.939   4.027  14.926 -0.1103  0.4787  0.6976
  884MPD2    C513016   4.051   4.027  14.845  0.4340 -0.6144 -0.3574
  884MPD2     H13017   4.100   3.895  15.194  0.7193 -1.0440 -0.1392
  884MPD2    H113018   3.843   4.061  14.890  0.3451  0.0005 -0.9616
  884MPD2    H213019   4.243   3.984  14.798  0.4553 -1.2020 -0.1236
  884MPD2    H313020   4.056   4.059  14.741 -0.0617  0.1786 -0.1396
  884MPD2     N13021   3.851   3.967  15.145  0.4294  0.4239 -0.1189
  884MPD2    H513022   3.868   3.909  15.227 -0.0550  0.7003  0.1742
  884MPD2    N113023   4.327   3.900  15.059 -0.0711  0.3078 -0.1553
  884MPD2    H713024   4.336   3.888  15.159  0.1288  1.0240 -0.0843
  885MPD2     C13025   1.908   3.242   0.228  0.4829  0.0462  0.2555
  885MPD2    C113026   2.023   3.315   0.226  0.6824  0.6051  0.1739
  885MPD2    C213027   2.039   3.409   0.120 -0.2271  0.0063  0.0336
  885MPD2    C313028   1.940   3.429   0.027  0.1154  0.1332  0.2439
  885MPD2    C413029   1.821   3.350   0.035  0.0869 -0.8368  0.0944
  885MPD2    C513030   1.812   3.250   0.130 -0.3472  0.3002 -0.3636
  885MPD2     H13031   2.128   3.471   0.120  1.0106 -1.8239 -2.9421
  885MPD2    H113032   1.736   3.361  17.710  1.8913 -0.9144 -2.2045
  885MPD2    H213033   1.907   3.154   0.292 -2.0270  0.6687  1.0858
  885MPD2    H313034   1.729   3.180   0.128 -0.0500 -0.1023  1.2802
  885MPD2     N13035   1.956   3.529  17.670 -0.0117  0.4283 -0.3971
  885MPD2    H513036   2.042   3.583  17.675 -0.7194  1.5365 -0.1714
  885MPD2    N113037   2.116   3.284   0.328 -0.1842 -0.5481 -0.3200
  885MPD2    H713038   2.095   3.206   0.389 -0.7451 -1.9925 -2.3613
  886MPD2     C13039   3.287   2.380  15.408  0.1094  0.5842 -0.3168
  886MPD2    C113040   3.409   2.384  15.472 -0.0349 -0.2482 -0.2531
  886MPD2    C213041   3.473   2.505  15.472 -0.2801 -0.1470  0.2172
  886MPD2    C313042   3.410   2.624  15.434  1.1587 -1.4545  0.6067
  886MPD2    C413043   3.286   2.616  15.382 -0.3130  0.5357 -0.2168
  886MPD2    C513044   3.230   2.497  15.362 -0.3792 -0.6443 -1.0495
  886MPD2     H13045   3.579   2.516  15.492  0.3774 -0.5664 -3.1419
  886MPD2    H113046   3.235   2.706  15.349 -1.6304  0.6889  2.2688
  886MPD2    H213047   3.220   2.295  15.413  2.0726 -0.8771  0.7901
  886MPD2    H313048   3.133   2.493  15.314 -0.6481 -2.6322 -0.3324
  886MPD2     N13049   3.484   2.749  15.431 -0.4721 -0.2284 -0.3230
  886MPD2    H513050   3.448   2.820  15.369 -1.9280  0.1651  0.9850
  886MPD2    N113051   3.474   2.271  15.517  0.2589 -0.5174 -0.1888
  886MPD2    H713052   3.555   2.289  15.575  0.4406  0.3122 -0.6973
  887MPD2     C13053   4.133   2.143  15.737  0.2023 -0.0551 -0.3251
  887MPD2    C113054   4.025   2.204  15.680  0.4565 -0.2006  0.3741
  887MPD2    C213055   4.037   2.335  15.654  0.0074 -0.4602  0.5254
  887MPD2    C313056   4.146   2.408  15.691 -0.6887 -0.6761  0.2812
  887MPD2    C413057   4.252   2.349  15.759  0.1643 -0.2665  0.6003
  887MPD2    C513058   4.246   2.215  15.776 -0.0871  0.3170 -0.4878
  887MPD2     H13059   3.955   2.386  15.606 -0.6807 -0.8313  1.3049
  887MPD2    H113060   4.338   2.401  15.800 -0.1005 -0.4605  1.4176
  887MPD2    H213061   4.127   2.035  15.746 -1.1581 -0.2610 -3.7740
  887MPD2    H313062   4.333   2.163  15.814  0.6513  1.9710  0.0559
  887MPD2     N13063   4.129   2.549  15.698 -0.0842  0.1029  0.0417
  887MPD2    H513064   4.042   2.592  15.666  0.3890  2.7087  2.2739
  887MPD2    N113065   3.901   2.140  15.656 -0.1299  0.4020  0.2219
  887MPD2    H713066   3.839   2.189  15.592  1.7871  1.6402 -0.7056
  888MPD2     C13067   1.502   2.290  15.350  0.3386 -0.5259 -0.3069
  888MPD2    C113068   1.501   2.324  15.487 -0.2691  0.3068 -0.3269
  888MPD2    C213069   1.507   2.457  15.520  0.1698  0.1407 -0.2885
  888MPD2    C313070   1.532   2.553  15.427  0.6498 -0.9277  0.3698
  888MPD2    C413071   1.532   2.520  15.294  0.2474  0.0578  0.3946
  888MPD2    C513072   1.521   2.389  15.260  0.7961  0.8899 -0.2645
  888MPD2     H13073   1.504   2.487  15.625 -2.3997  0.3363 -0.4123
  888MPD2    H113074   1.534   2.597  15.218  0.0170  1.0045  1.3483
  888MPD2    H213075   1.479   2.190  15.314 -0.3946 -0.3053 -0.4519
  888MPD2    H313076   1.510   2.372  15.153 -1.3362  0.2630  0.0564
  888MPD2     N13077   1.564   2.687  15.473 -0.3879  0.0951  0.7613
  888MPD2    H513078   1.550   2.705  15.571 -2.9730  0.2799  0.3468
  888MPD2    N113079   1.478   2.232  15.594  0.2053 -0.8050  0.9493
  888MPD2    H713080   1.472   2.263  15.690  2.1425 -1.7899  1.3848
  889MPD2     C13081   0.178   2.258  13.154  0.3032  0.5468 -0.0895
  889MPD2    C113082   0.107   2.157  13.222  0.0924 -0.0905  0.0800
  889MPD2    C213083   0.109   2.150  13.362  0.3858 -0.6271  0.1205
  889MPD2    C313084   0.201   2.240  13.432 -0.0377 -0.1264  0.4556
  889MPD2    C413085   0.270   2.336  13.363 -0.9879 -0.1685 -0.0762
  889MPD2    C513086   0.260   2.344  13.229  0.0140  0.2984  0.6146
  889MPD2     H13087   0.065   2.065  13.411  0.2764 -0.5134  0.2203
  889MPD2    H113088   0.338   2.408  13.408  0.1442 -2.8494  2.5339
  889MPD2    H213089   0.180   2.266  13.046  0.3893  1.4619 -0.0266
  889MPD2    H313090   0.324   2.415  13.178 -0.6974  1.7868  1.7918
  889MPD2     N13091   0.206   2.239  13.573 -0.2483 -0.3459 -0.0337
  889MPD2    H513092   0.138   2.177  13.616 -0.8927 -0.1177 -0.7274
  889MPD2    N113093   0.065   2.040  13.157  0.0127  0.0137  0.1273
  889MPD2    H713094   0.032   1.969  13.222 -1.3728  0.3425 -0.2091
  890MPD2     C13095   0.025   3.849  14.742  0.5033  0.1502  0.1854
  890MPD2    C113096   0.128   3.913  14.809  0.5424 -0.3669 -0.3747
  890MPD2    C213097   0.165   3.856  14.931 -0.0636 -0.1222  0.3439
  890MPD2    C313098   0.112   3.735  14.975 -0.4458  0.6813 -0.5405
  890MPD2    C413099   0.019   3.672  14.897 -0.3205  0.3769 -0.0243
  890MPD2    C513100   4.707   3.740  14.791 -0.2149 -0.1311  0.0493
  890MPD2     H13101   0.224   3.908  15.005 -0.2156  2.8074 -1.5899
  890MPD2    H113102   4.718   3.574  14.925  0.2394 -0.3305 -1.8287
  890MPD2    H213103   4.718   3.892  14.651  0.3509 -0.1472  0.1166
  890MPD2    H313104   4.616   3.712  14.739 -0.8719  0.5391  0.8496
  890MPD2     N13105   0.153   3.679  15.097 -0.8381  0.2652 -0.4750
  890MPD2    H513106   0.232   3.725  15.142  1.0521 -1.7294 -1.7118
  890MPD2    N113107   0.172   4.035  14.764  0.0546  0.8542  0.3805
  890MPD2    H713108   0.135   4.066  14.675  2.5438 -1.2975 -1.4143
  891MPD2     C13109   3.088   2.304  16.551 -0.2023  0.0877  1.0522
  891MPD2    C113110   3.004   2.281  16.658  0.6535  0.3404  0.3039
  891MPD2    C213111   3.065   2.232  16.772  0.1436 -0.1263  0.2540
  891MPD2    C313112   3.199   2.224  16.782  0.3763  0.5024 -1.0135
  891MPD2    C413113   3.281   2.257  16.675 -0.2111  0.6254 -0.1025
  891MPD2    C513114   3.221   2.309  16.563 -0.1850 -0.2396  0.4157
  891MPD2     H13115   3.011   2.204  16.862 -0.0135 -0.2373  0.1235
  891MPD2    H113116   3.389   2.259  16.685 -0.0296  0.4683 -1.8911
  891MPD2    H213117   3.047   2.333  16.455 -1.3495 -0.4927  1.3636
  891MPD2    H313118   3.287   2.338  16.482  0.7734  1.0304  1.6527
  891MPD2     N13119   3.253   2.173  16.906 -0.4399  0.1792 -0.0106
  891MPD2    H513120   3.182   2.161  16.978 -2.0101  1.1253 -1.4049
  891MPD2    N113121   2.867   2.309  16.643 -0.5131  0.0525  0.7938
  891MPD2    H713122   2.845   2.346  16.552  1.0343 -2.2136 -0.4987
  892MPD2     C13123   4.124   3.566  14.934  0.0882 -0.6196  0.2956
  892MPD2    C113124   4.041   3.466  14.976  0.4198  0.2025  0.2474
  892MPD2    C213125   4.093   3.343  15.004 -0.4459  0.1512 -0.2089
  892MPD2    C313126   4.221   3.318  14.963 -0.1173  0.3148  0.0871
  892MPD2    C413127   4.305   3.417  14.923  0.4051  0.7366 -0.4561
  892MPD2    C513128   4.255   3.541  14.911  0.2258  0.4018 -0.7584
  892MPD2     H13129   4.035   3.262  15.047 -0.2031 -0.2824 -0.6923
  892MPD2    H113130   4.408   3.403  14.893  0.1360 -1.7194 -0.1886
  892MPD2    H213131   4.093   3.668  14.913  2.7395  0.2279  0.4723
  892MPD2    H313132   4.321   3.618  14.872  0.1749  0.1249 -1.3837
  892MPD2     N13133   4.272   3.186  14.971 -0.0123 -0.0247 -0.6286
  892MPD2    H513134   4.370   3.166  14.953 -0.0341  2.5182 -3.5530
  892MPD2    N113135   3.901   3.496  15.008  0.3937 -0.2658  0.1393
  892MPD2    H713136   3.872   3.591  14.985 -1.6483 -1.0695 -0.6505
  893MPD2     C13137   0.666   1.434   1.769 -0.0035 -0.0924  0.3736
  893MPD2    C113138   0.685   1.486   1.642  0.2227  0.5622 -0.2296
  893MPD2    C213139   0.574   1.552   1.584 -0.6135  0.3104  0.1895
  893MPD2    C313140   0.465   1.577   1.658  0.1201 -0.2826  0.7790
  893MPD2    C413141   0.465   1.545   1.789 -0.1516  0.2014 -0.5280
  893MPD2    C513142   0.558   1.464   1.840 -0.0255 -0.0635  0.0848
  893MPD2     H13143   0.593   1.591   1.485  2.3377 -1.0996  0.1850
  893MPD2    H113144   0.388   1.586   1.853 -0.6373  0.3008 -1.1688
  893MPD2    H213145   0.741   1.371   1.815 -0.0116 -0.0264  0.4767
  893MPD2    H313146   0.545   1.419   1.938  0.7977  2.9220  1.5848
  893MPD2     N13147   0.351   1.647   1.604  0.4128 -0.4531 -0.5786
  893MPD2    H513148   0.281   1.674   1.673 -0.3303 -2.9517 -0.3538
  893MPD2    N113149   0.802   1.445   1.565  0.3277 -0.1610 -0.3036
  893MPD2    H713150   0.863   1.374   1.604  0.3333 -0.0294 -0.0671
  894MPD2     C13151   3.636   3.660   0.982  0.0771 -0.4070  0.0808
  894MPD2    C113152   3.605   3.794   1.005  0.8104 -0.5206 -0.6374
  894MPD2    C213153   3.628   3.879   0.899  0.2867  0.1884  0.4650
  894MPD2    C313154   3.674   3.834   0.777 -0.4675 -0.2979 -0.4514
  894MPD2    C413155   3.709   3.704   0.763 -1.2243  0.0746 -0.3742
  894MPD2    C513156   3.689   3.618   0.864  0.1450  0.4338 -0.7641
  894MPD2     H13157   3.605   3.984   0.915  0.3903  0.7240 -2.8886
  894MPD2    H113158   3.772   3.669   0.682 -0.4523  0.8471 -0.1127
  894MPD2    H213159   3.617   3.584   1.056  4.5045  0.6422  2.3208
  894MPD2    H313160   3.721   3.515   0.856 -0.1731  0.4777 -2.4554
  894MPD2     N13161   3.688   3.934   0.682  0.4350 -0.2286 -0.3859
  894MPD2    H513162   3.662   4.027   0.713 -0.3288 -0.1892 -1.1398
  894MPD2    N113163   3.548   3.838   1.124  0.1655 -0.0811  0.2072
  894MPD2    H713164   3.525   3.936   1.111  1.5517 -0.1795 -2.7704
  895MPD2     C13165   2.655   2.485  13.606 -0.2897 -0.1617  0.0712
  895MPD2    C113166   2.560   2.431  13.517  0.6409  0.4035 -0.2673
  895MPD2    C213167   2.578   2.310  13.463  0.1309 -0.5281  0.2276
  895MPD2    C313168   2.682   2.225  13.499 -0.8467  0.2294  0.2154
  895MPD2    C413169   2.772   2.267  13.590 -0.9420  0.3488 -0.3844
  895MPD2    C513170   2.757   2.395  13.645 -0.1953 -0.2719  0.3904
  895MPD2     H13171   2.502   2.274  13.395  0.7829  0.9379 -1.2939
  895MPD2    H113172   2.862   2.212  13.619 -1.1000  0.9535  1.2621
  895MPD2    H213173   2.658   2.583  13.651  1.0042  0.1341 -0.6754
  895MPD2    H313174   2.836   2.438  13.705  2.4649 -1.7333 -2.0761
  895MPD2     N13175   2.690   2.101  13.434  0.6978  0.1985  0.0339
  895MPD2    H513176   2.627   2.079  13.357 -0.4089  1.5728  0.5547
  895MPD2    N113177   2.436   2.491  13.496  0.4323 -0.6123  0.0570
  895MPD2    H713178   2.372   2.450  13.429  0.0839 -0.1690  0.1179
  896MPD2     C13179   0.556   4.638   2.031 -0.3494 -0.0281  0.0210
  896MPD2    C113180   0.609   4.661   1.904 -0.3252  0.7411 -0.3311
  896MPD2    C213181   0.516   4.670   1.804 -0.8446  0.2165  1.0555
  896MPD2    C313182   0.380   4.651   1.821 -0.3914 -0.3300  0.0232
  896MPD2    C413183   0.337   4.622   1.951 -0.4575 -0.3388 -0.2957
  896MPD2    C513184   0.423   4.617   2.052 -0.2868  0.3593 -0.2380
  896MPD2     H13185   0.547   4.689   1.702  0.5752  1.6244  1.7485
  896MPD2    H113186   0.233   4.599   1.973  0.0005 -1.5649  0.6025
  896MPD2    H213187   0.621   4.615   2.114 -1.8337 -2.0072  0.6362
  896MPD2    H313188   0.400   4.583   2.152  2.0043 -0.0666  0.1505
  896MPD2     N13189   0.292   4.640   1.709 -0.3493 -0.1042  0.0723
  896MPD2    H513190   0.327   4.645   1.614 -2.9489 -0.0658 -0.8828
  896MPD2    N113191   0.747   4.667   1.894 -0.2116 -0.1614 -0.0418
  896MPD2    H713192   0.803   4.639   1.974  0.9860 -0.9422 -1.1588
  897MPD2     C13193   1.686   2.244  11.273 -0.4653 -0.5182  0.0751
  897MPD2    C113194   1.617   2.179  11.163  0.7491  0.0134  0.1949
  897MPD2    C213195   1.484   2.138  11.180  0.1177 -0.2435  0.1190
  897MPD2    C313196   1.421   2.176  11.295  0.3620  0.6585  0.6223
  897MPD2    C413197   1.495   2.232  11.395 -0.2772 -0.8076 -0.2637
  897MPD2    C513198   1.625   2.265  11.390  0.1493  0.0562 -0.1565
  897MPD2     H13199   1.425   2.087  11.105  2.0165 -0.5355 -1.1661
  897MPD2    H113200   1.443   2.240  11.490  0.4350 -1.3489  0.1728
  897MPD2    H213201   1.787   2.277  11.254 -0.5828  0.5215  1.2270
  897MPD2    H313202   1.677   2.318  11.469  1.2615  1.0010 -1.5504
  897MPD2     N13203   1.284   2.137  11.306 -0.0699  0.0495  0.4287
  897MPD2    H513204   1.254   2.091  11.222  1.5748 -0.2774  0.0221
  897MPD2    N113205   1.689   2.165  11.039  0.3293  0.4307  0.0182
  897MPD2    H713206   1.782   2.207  11.034  0.0282  1.4350  2.7340
  898MPD2     C13207   4.266   2.600  17.564 -0.4425 -0.1318  0.1112
  898MPD2    C113208   4.254   2.713  17.637  0.3103  0.3971 -0.1659
  898MPD2    C213209   4.178   2.813  17.580 -0.6361  0.4641 -0.0662
  898MPD2    C313210   4.106   2.794  17.462 -0.9819 -0.4347 -0.0286
  898MPD2    C413211   4.121   2.680  17.389 -0.7399 -0.3165  0.3479
  898MPD2    C513212   4.202   2.581  17.445  0.2972 -0.6859  0.2454
  898MPD2     H13213   4.156   2.907  17.629  0.2094 -0.2593  1.7074
  898MPD2    H113214   4.087   2.659  17.289  0.4608 -2.0739  0.2941
  898MPD2    H213215   4.314   2.514  17.609  0.3944 -0.2691 -1.0164
  898MPD2    H313216   4.216   2.487  17.393 -2.6574 -0.9932  0.0054
  898MPD2     N13217   4.039   2.910  17.419 -0.2384 -0.0119 -1.1725
  898MPD2    H513218   4.038   2.984  17.488 -0.7046 -0.7252 -0.3990
  898MPD2    N113219   4.296   2.725   0.025  0.0034  0.4652 -0.0791
  898MPD2    H713220   4.268   2.811   0.072 -0.6475  0.2869 -0.1428
  899MPD2     C13221   4.276   3.223  17.006  0.4907  0.1416 -0.1625
  899MPD2    C113222   4.365   3.306  17.077  0.5289 -0.1717  0.5532
  899MPD2    C213223   4.408   3.258  17.199  0.3024 -0.1678 -0.1713
  899MPD2    C313224   4.371   3.131  17.240 -0.2434  0.6192 -0.5409
  899MPD2    C413225   4.301   3.050  17.164 -0.4110 -0.6618  0.7123
  899MPD2    C513226   4.242   3.097  17.051 -0.2717 -0.2087  1.4522
  899MPD2     H13227   4.469   3.320  17.264 -1.5578 -0.1064  1.5173
  899MPD2    H113228   4.259   2.954  17.195 -0.1369 -0.5163  1.5281
  899MPD2    H213229   4.237   3.257  16.911 -1.1462  1.0263  0.8214
  899MPD2    H313230   4.162   3.042  17.004  1.5660 -2.3934  0.9007
  899MPD2     N13231   4.382   3.087  17.373  0.4765 -0.7484 -0.3873
  899MPD2    H513232   4.366   2.987  17.380 -1.5432 -0.2963  1.3461
  899MPD2    N113233   4.413   3.418  17.009 -0.1291  0.0567 -0.5994
  899MPD2    H713234   4.356   3.449  16.930 -0.2291  1.6128  0.0752
  900MPD2     C13235   4.184   0.065  12.935 -0.0283  0.6217  0.2485
  900MPD2    C113236   4.110   4.682  12.907 -0.2775 -0.3377  0.0165
  900MPD2    C213237   4.017   4.686  12.807 -0.5858  0.2123  0.5158
  900MPD2    C313238   3.985   0.068  12.740  0.3558 -0.1513  0.7725
  900MPD2    C413239   4.063   0.177  12.765  0.3188 -0.3267 -0.1637
  900MPD2    C513240   4.158   0.173  12.862  0.5080 -0.0788  0.5917
  900MPD2     H13241   3.979   4.589  12.776  0.4487  0.2052 -0.7278
  900MPD2    H113242   4.042   0.274  12.720  2.2719  0.7188  1.1556
  900MPD2    H213243   4.265   0.062  13.007 -1.4525 -1.1792  1.7850
  900MPD2    H313244   4.197   0.274  12.874 -0.2999  0.4636 -1.4338
  900MPD2     N13245   3.883   0.067  12.641  0.0664  0.0310  0.2208
  900MPD2    H513246   3.840   4.711  12.631 -0.7931  0.4587  0.0166
  900MPD2    N113247   4.139   4.563  12.980 -0.0849  0.0407  0.1653
  900MPD2    H713248   4.220   4.558  13.042  0.0275 -0.6955 -0.0364
  901MPD2     C13249   3.753   3.637  13.469 -0.4206 -0.1684 -0.1221
  901MPD2    C113250   3.829   3.596  13.359 -0.2057 -0.7066  0.4259
  901MPD2    C213251   3.899   3.690  13.282  0.2645 -1.1138 -0.8341
  901MPD2    C313252   3.883   3.826  13.307 -0.1006 -0.0819  0.0899
  901MPD2    C413253   3.809   3.864  13.415 -0.3801  0.5472 -0.4982
  901MPD2    C513254   3.751   3.772  13.494  0.3801 -0.3733 -0.2071
  901MPD2     H13255   3.973   3.663  13.208  2.1286  1.2484  0.1612
  901MPD2    H113256   3.824   3.968  13.444 -0.6848  0.9033 -1.6326
  901MPD2    H213257   3.695   3.563  13.522 -0.2297  1.0325  1.7912
  901MPD2    H313258   3.694   3.802  13.581 -0.3687  2.4140 -1.6575
  901MPD2     N13259   3.963   3.917  13.232  0.2261  0.2851  0.6381
  901MPD2    H513260   4.025   3.877  13.163  2.1906 -2.3658  3.9544
  901MPD2    N113261   3.840   3.454  13.334 -0.1078 -0.0450  0.2022
  901MPD2    H713262   3.819   3.398  13.416 -0.0875 -1.3214 -0.6721
  902MPD2     C13263   2.638   2.828  13.413 -0.2542 -0.4723 -0.1583
  902MPD2    C113264   2.715   2.942  13.390 -0.1784  0.4939 -0.0496
  902MPD2    C213265   2.775   2.950  13.266 -0.1008  0.1022  0.8389
  902MPD2    C313266   2.740   2.871  13.158  0.5154 -0.2678 -0.0150
  902MPD2    C413267   2.656   2.766  13.182 -0.3466  0.3827 -0.2797
  902MPD2    C513268   2.599   2.745  13.306 -0.4249  0.3457 -0.7417
  902MPD2     H13269   2.843   3.032  13.244  2.3063 -2.3252 -0.6637
  902MPD2    H113270   2.612   2.703  13.106  0.1527 -2.1714  1.5359
  902MPD2    H213271   2.589   2.816  13.510 -0.8958  0.8279 -0.3238
  902MPD2    H313272   2.527   2.665  13.312  1.3793 -1.1896  0.6837
  902MPD2     N13273   2.790   2.878  13.030  0.8487 -0.8938  0.0690
  902MPD2    H513274   2.775   2.801  12.965  1.7379 -0.7580 -0.3059
  902MPD2    N113275   2.732   3.032  13.492 -0.3689  0.2917  0.0316
  902MPD2    H713276   2.708   2.985  13.579 -1.1391 -0.2013 -0.4459
  903MPD2     C13277   2.720   2.614  12.239 -0.0619  0.0907 -0.2507
  903MPD2    C113278   2.667   2.697  12.334  0.7726 -0.7328 -0.1359
  903MPD2    C213279   2.536   2.749  12.320 -0.3048  0.4624  0.4030
  903MPD2    C313280   2.471   2.734  12.201  0.8494 -0.5920 -0.4966
  903MPD2    C413281   2.535   2.661  12.104 -0.3481 -0.0038  0.0560
  903MPD2    C513282   2.652   2.597  12.119  0.8105 -1.2832  0.9415
  903MPD2     H13283   2.485   2.790  12.406 -0.4848 -0.2847  0.6506
  903MPD2    H113284   2.495   2.652  12.003  0.2974  1.0793 -0.2976
  903MPD2    H213285   2.821   2.573  12.248  0.2224  1.0032  0.8073
  903MPD2    H313286   2.709   2.538  12.049  1.5988  0.4390  0.1268
  903MPD2     N13287   2.349   2.791  12.182  0.1778  0.6100  0.6648
  903MPD2    H513288   2.307   2.840  12.261  0.6929  0.3017  1.1275
  903MPD2    N113289   2.750   2.729  12.444  0.2281  0.0655  0.3518
  903MPD2    H713290   2.842   2.686  12.433  0.1085 -0.2050  0.4056
  904MPD2     C13291   2.771   1.539  14.131 -0.3412 -0.5102  0.2112
  904MPD2    C113292   2.820   1.658  14.078 -0.3032 -0.4261  0.1662
  904MPD2    C213293   2.951   1.685  14.095  0.2601  0.2959  0.2252
  904MPD2    C313294   3.037   1.583  14.134  0.1201  0.4232  0.4337
  904MPD2    C413295   2.988   1.451  14.162  0.2751  0.2762  0.3403
  904MPD2    C513296   2.849   1.436  14.161 -0.1399 -0.1993 -0.4061
  904MPD2     H13297   2.996   1.778  14.061 -1.1166 -0.5014 -3.8835
  904MPD2    H113298   3.055   1.369  14.186  0.5771  0.5664  0.4946
  904MPD2    H213299   2.666   1.515  14.141 -0.5743 -0.5643 -2.3168
  904MPD2    H313300   2.805   1.339  14.180 -2.5260  1.0257  0.3297
  904MPD2     N13301   3.171   1.616  14.152 -0.0592  0.0528 -0.1345
  904MPD2    H513302   3.190   1.714  14.167  0.3257 -0.3073  1.6737
  904MPD2    N113303   2.741   1.755  14.018  0.7352  0.3055  0.1421
  904MPD2    H713304   2.777   1.845  13.989 -3.2407  1.7920 -0.1707
  905MPD2     C13305   2.147   1.663  13.522 -0.4834  0.0736  0.2326
  905MPD2    C113306   2.239   1.769  13.517 -0.2875 -0.3416  0.7556
  905MPD2    C213307   2.317   1.779  13.398  0.4520 -0.0656 -0.1572
  905MPD2    C313308   2.295   1.694  13.292 -0.2346  0.0137  0.1020
  905MPD2    C413309   2.186   1.619  13.291  0.1994  0.4009 -0.3975
  905MPD2    C513310   2.124   1.595  13.407  0.5615  0.5268 -0.1153
  905MPD2     H13311   2.409   1.833  13.416 -0.7240  1.2336  1.9573
  905MPD2    H113312   2.163   1.556  13.206  0.5248 -1.2813  0.7711
  905MPD2    H213313   2.077   1.644  13.602 -2.4831 -1.5455 -1.9177
  905MPD2    H313314   2.045   1.522  13.420  0.9602  0.4395  1.9176
  905MPD2     N13315   2.380   1.694  13.180  0.2803  0.4712  0.0080
  905MPD2    H513316   2.342   1.651  13.096  1.4056 -0.9110  0.2129
  905MPD2    N113317   2.279   1.832  13.635  0.2379 -0.5431  0.4015
  905MPD2    H713318   2.230   1.810  13.722 -1.7596  0.4982 -0.4562
  906MPD2     C13319   0.001   2.134  11.164 -0.0676 -0.2853  0.2983
  906MPD2    C113320   4.705   2.028  11.083 -0.3629  0.2079 -0.2309
  906MPD2    C213321   4.637   1.922  11.136  0.5631  0.2417  0.5353
  906MPD2    C313322   4.619   1.912  11.275  0.5936 -0.0453 -0.4315
  906MPD2    C413323   4.670   2.014  11.358 -0.4029  0.1506 -0.6100
  906MPD2    C513324   4.719   2.126  11.302 -0.2789  0.6662 -0.4717
  906MPD2     H13325   4.599   1.843  11.073  0.5310 -0.3363  1.2831
  906MPD2    H113326   4.658   2.018  11.466  0.5492  1.7688 -0.5725
  906MPD2    H213327   0.051   2.225  11.132 -0.4897  0.3469  1.4373
  906MPD2    H313328   0.012   2.210  11.364  0.8874 -0.8865  1.0996
  906MPD2     N13329   4.563   1.796  11.340  0.5101 -0.4473 -0.0055
  906MPD2    H513330   4.562   1.791  11.442 -0.2529  0.9317  0.0518
  906MPD2    N113331   0.001   2.020  10.946  0.3099  0.5735  0.5385
  906MPD2    H713332   4.719   1.937  10.889 -0.9033 -0.3253  2.2240
  907MPD2     C13333   3.736   1.203  15.825  0.6905  0.3716  0.1342
  907MPD2    C113334   3.794   1.082  15.810  0.0724 -0.2479 -0.4345
  907MPD2    C213335   3.852   1.022  15.922  0.0354  0.3541 -1.2151
  907MPD2    C313336   3.847   1.070  16.048 -0.3200  0.4002 -0.0237
  907MPD2    C413337   3.793   1.198  16.057  0.0610  0.0348 -0.1058
  907MPD2    C513338   3.736   1.262  15.951  0.1434 -0.4117 -0.1118
  907MPD2     H13339   3.893   0.927  15.890 -1.0876 -0.7714  0.7174
  907MPD2    H113340   3.793   1.250  16.152  0.7232 -0.8494  0.3794
  907MPD2    H213341   3.686   1.251  15.741 -1.4821 -1.1761  0.5583
  907MPD2    H313342   3.695   1.361  15.965  0.5803 -0.1528 -0.6510
  907MPD2     N13343   3.898   1.001  16.163  0.4052  0.0198  0.2633
  907MPD2    H513344   3.973   0.939  16.132  0.2114 -0.4408  0.7148
  907MPD2    N113345   3.801   1.013  15.689 -0.1223 -0.3554 -0.1050
  907MPD2    H713346   3.840   0.920  15.683  1.3100  0.2688 -0.4673
  908MPD2     C13347   1.450   1.650  10.170 -0.4908  0.2677  0.4181
  908MPD2    C113348   1.464   1.609  10.306 -0.2469 -0.2191  0.7675
  908MPD2    C213349   1.508   1.701  10.403  0.0855 -0.5580  0.3247
  908MPD2    C313350   1.553   1.829  10.368  0.0673 -0.1367 -0.1548
  908MPD2    C413351   1.538   1.858  10.228  0.0476  0.1965  0.2199
  908MPD2    C513352   1.491   1.773  10.128 -0.9052  0.1245 -0.0920
  908MPD2     H13353   1.526   1.676  10.506 -0.3694  2.3029  1.1244
  908MPD2    H113354   1.559   1.958  10.193  0.3501  0.1680  0.3173
  908MPD2    H213355   1.424   1.575  10.096  0.5709  2.0951 -1.7967
  908MPD2    H313356   1.484   1.797  10.023  0.7020 -0.3036 -0.2924
  908MPD2     N13357   1.599   1.911  10.467  0.0100 -0.3581 -0.2710
  908MPD2    H513358   1.583   1.877  10.561 -1.1921 -0.7763 -0.6287
  908MPD2    N113359   1.435   1.470  10.331 -0.1977  0.7419 -0.0928
  908MPD2    H713360   1.434   1.411  10.249  0.8727  0.3458  0.1754
  909MPD2     C13361   1.503   4.464  11.529  0.9076 -0.5385 -0.1329
  909MPD2    C113362   1.585   4.545  11.601 -0.1610 -0.3739 -0.4310
  909MPD2    C213363   1.549   4.575  11.734  0.3523 -0.5042 -0.2065
  909MPD2    C313364   1.431   4.532  11.794 -0.0728  0.9745  0.8495
  909MPD2    C413365   1.358   4.445  11.722  0.4953 -0.9984  0.6151
  909MPD2    C513366   1.395   4.405  11.593  0.2544  0.2812  0.1589
  909MPD2     H13367   1.612   4.646  11.786 -0.2005 -0.3785  0.2809
  909MPD2    H113368   1.264   4.411  11.765 -1.0685  1.2276 -1.0579
  909MPD2    H213369   1.521   4.435  11.426  1.3761  1.1485 -0.5331
  909MPD2    H313370   1.317   4.348  11.544 -0.5702  0.9824  0.6755
  909MPD2     N13371   1.393   4.576  11.926  0.4091  0.3857  0.1214
  909MPD2    H513372   1.469   4.622  11.976  0.9704  0.0209 -0.3919
  909MPD2    N113373   1.689   4.613  11.545  0.0017 -0.3496  0.1532
  909MPD2    H713374   1.737   4.680  11.604 -0.5289 -1.2604  1.6123
  910MPD2     C13375   2.764   1.492  15.799  0.3168 -0.1379 -0.1071
  910MPD2    C113376   2.890   1.491  15.747  0.5129  0.1271 -0.3165
  910MPD2    C213377   2.903   1.511  15.613 -0.0203 -0.2212 -0.1951
  910MPD2    C313378   2.800   1.541  15.523 -0.3397 -0.8188  0.3841
  910MPD2    C413379   2.675   1.545  15.578  0.2764  0.6009 -0.7935
  910MPD2    C513380   2.662   1.517  15.713 -0.1789 -0.3342  0.3782
  910MPD2     H13381   3.001   1.517  15.566  0.2653 -0.2846  0.3987
  910MPD2    H113382   2.593   1.568  15.511  1.1176  3.5869 -0.8121
  910MPD2    H213383   2.749   1.492  15.907  1.9716 -2.2185  0.1086
  910MPD2    H313384   2.561   1.525  15.751 -0.2681  0.6101 -0.0606
  910MPD2     N13385   2.811   1.571  15.386  0.6155 -0.4277 -0.3826
  910MPD2    H513386   2.728   1.575  15.328 -1.1865 -3.5913  2.0153
  910MPD2    N113387   3.007   1.451  15.820  0.3996  0.2613 -0.2334
  910MPD2    H713388   3.093   1.444  15.767 -0.1708  0.7328 -1.2227
  911MPD2     C13389   1.069   2.116  16.698  0.3988 -0.1765 -0.2232
  911MPD2    C113390   1.163   2.209  16.743  0.5015  0.0151  0.1273
  911MPD2    C213391   1.138   2.349  16.717 -0.1598 -0.2132 -0.1405
  911MPD2    C313392   1.018   2.389  16.659 -0.0155 -0.1088 -0.4328
  911MPD2    C413393   0.932   2.297  16.619  0.3222 -0.4029  0.2922
  911MPD2    C513394   0.957   2.164  16.632 -0.2896  0.0088 -0.3092
  911MPD2     H13395   1.207   2.429  16.739  0.1651 -0.0008 -1.9759
  911MPD2    H113396   0.837   2.318  16.571 -0.6743 -0.5136  2.1918
  911MPD2    H213397   1.079   2.010  16.717  2.8144 -0.4318 -3.1056
  911MPD2    H313398   0.886   2.091  16.595 -0.8282  0.0270  0.7038
  911MPD2     N13399   0.987   2.519  16.622  0.7276  0.2147  0.2364
  911MPD2    H513400   0.900   2.530  16.572  0.1098  0.1460  1.2900
  911MPD2    N113401   1.283   2.150  16.801  0.7507 -0.1840 -0.0731
  911MPD2    H713402   1.285   2.049  16.812  1.4971 -0.2400 -0.7363
  912MPD2     C13403   0.601   2.571  16.024 -0.5036 -0.1876  0.2078
  912MPD2    C113404   0.668   2.525  16.140  0.9670 -0.0582  0.8786
  912MPD2    C213405   0.690   2.392  16.157 -0.4701  0.0848  0.0238
  912MPD2    C313406   0.657   2.297  16.058  0.3494 -0.2902  0.3012
  912MPD2    C413407   0.590   2.345  15.949 -0.2271 -0.1451  0.0754
  912MPD2    C513408   0.572   2.479  15.930  0.0630  0.2698  0.5371
  912MPD2     H13409   0.733   2.352  16.249  0.9857  0.8104 -0.3316
  912MPD2    H113410   0.575   2.283  15.862  1.4968 -2.0516  1.1476
  912MPD2    H213411   0.587   2.677  16.009  1.4500 -0.0354 -0.5441
  912MPD2    H313412   0.541   2.525  15.837 -1.6175 -2.1009 -0.0572
  912MPD2     N13413   0.673   2.159  16.098 -0.6311  0.3591  0.3740
  912MPD2    H513414   0.720   2.140  16.186 -2.6699 -3.8709  0.5492
  912MPD2    N113415   0.712   2.629  16.224 -0.2897  0.5033  0.5508
  912MPD2    H713416   0.703   2.723  16.188 -1.3490  0.2728  0.2303
  913MPD2     C13417   2.117   3.192  10.362 -0.2593  0.4214  0.1937
  913MPD2    C113418   2.028   3.279  10.412  0.1337  0.3322  0.7797
  913MPD2    C213419   2.056   3.416  10.404 -0.2286  0.7257  0.5223
  913MPD2    C313420   2.174   3.457  10.344 -0.7026  0.2914 -0.0945
  913MPD2    C413421   2.265   3.359  10.308  0.2006  0.5135 -0.2215
  913MPD2    C513422   2.237   3.228  10.315 -1.0377 -0.6398  0.0772
  913MPD2     H13423   1.979   3.489  10.425 -1.8579 -1.3306  1.6453
  913MPD2    H113424   2.361   3.386  10.265  0.9284 -0.3555  0.8790
  913MPD2    H213425   2.097   3.087  10.378 -2.2331  0.6074 -1.0203
  913MPD2    H313426   2.310   3.150  10.294  0.3966  0.7337 -0.0203
  913MPD2     N13427   2.203   3.594  10.317  0.5551  0.4221 -0.7481
  913MPD2    H513428   2.294   3.605  10.274  0.5487 -0.1053 -0.9008
  913MPD2    N113429   1.913   3.219  10.469 -0.2061 -0.3952 -0.1512
  913MPD2    H713430   1.908   3.120  10.450 -0.6876 -0.1692 -1.1902
  914MPD2     C13431   3.969   3.585  12.571  0.0860 -0.3017  0.2651
  914MPD2    C113432   3.982   3.636  12.697  0.4130  0.1756 -0.2763
  914MPD2    C213433   3.996   3.540  12.797  0.2835  0.0424  0.3240
  914MPD2    C313434   3.986   3.401  12.772 -0.4128 -0.1414 -0.3530
  914MPD2    C413435   3.969   3.355  12.647 -0.8136  0.4629  0.4622
  914MPD2    C513436   3.969   3.451  12.551  0.1062  0.3827 -0.2688
  914MPD2     H13437   4.013   3.565  12.901  1.2112 -0.4486  0.2810
  914MPD2    H113438   3.965   3.252  12.613 -1.1803  0.1010  1.5810
  914MPD2    H213439   3.965   3.645  12.480  1.8231 -2.0522 -0.9795
  914MPD2    H313440   3.975   3.417  12.448 -1.3461 -1.8585  0.3891
  914MPD2     N13441   3.993   3.313  12.883 -0.5239 -0.0967 -0.3234
  914MPD2    H513442   3.961   3.358  12.968  1.6331  0.2989  0.2766
  914MPD2    N113443   3.975   3.776  12.717 -0.1705 -0.3290 -0.1441
  914MPD2    H713444   3.952   3.830  12.634 -1.0111  0.5563  0.6682
  915MPD2     C13445   2.360   3.783  15.896  0.0353 -0.1704  0.3600
  915MPD2    C113446   2.227   3.814  15.882 -0.8431  1.2500  0.0193
  915MPD2    C213447   2.161   3.876  15.984 -0.2305 -0.1177 -0.3966
  915MPD2    C313448   2.229   3.910  16.101  0.1815 -0.2384  0.5639
  915MPD2    C413449   2.356   3.857  16.123  0.4780 -0.3624  0.2808
  915MPD2    C513450   2.423   3.797  16.019 -0.1921 -1.6271  0.6151
  915MPD2     H13451   2.057   3.905  15.972 -0.3153  0.8374  2.6848
  915MPD2    H113452   2.413   3.872  16.214 -1.8394  1.5659  1.4140
  915MPD2    H213453   2.415   3.729  15.820  0.8572  1.3301 -0.1289
  915MPD2    H313454   2.529   3.772  16.025  0.3964  0.9605  0.8825
  915MPD2     N13455   2.167   3.982  16.209  0.8716  0.6585 -0.9987
  915MPD2    H513456   2.200   3.964  16.303  1.1625  1.3018 -0.9794
  915MPD2    N113457   2.161   3.776  15.755  0.2119 -0.0657 -0.6277
  915MPD2    H713458   2.226   3.745  15.684  0.7467  1.7723 -0.9275
  916MPD2     C13459   0.278   2.352  16.277  0.1125 -0.2492  0.4892
  916MPD2    C113460   0.295   2.215  16.278  0.2800  0.7260  0.2524
  916MPD2    C213461   0.295   2.146  16.159 -0.0378  0.5852  0.2933
  916MPD2    C313462   0.282   2.209  16.039 -0.7763  0.1294  0.3188
  916MPD2    C413463   0.262   2.344  16.034  0.7846 -1.0990  0.2179
  916MPD2    C513464   0.265   2.408  16.156 -0.2530  0.0485 -0.1052
  916MPD2     H13465   0.315   2.039  16.167  1.6855  0.9133  0.4855
  916MPD2    H113466   0.235   2.398  15.944  2.1592 -1.4355 -0.4032
  916MPD2    H213467   0.275   2.401  16.373 -2.9719  0.9506 -0.2245
  916MPD2    H313468   0.230   2.511  16.158 -0.0628  0.0939  0.6394
  916MPD2     N13469   0.301   2.130  15.927  0.0182  0.0825  0.7863
  916MPD2    H513470   0.327   2.033  15.941  0.1204  0.0753  0.5369
  916MPD2    N113471   0.289   2.149  16.405  0.7100  0.3604  0.0288
  916MPD2    H713472   0.279   2.213  16.483 -2.5825 -0.4058  0.2123
  917MPD2     C13473   0.419   4.534  11.643  0.8863 -0.4089  0.5428
  917MPD2    C113474   0.365   4.510  11.767  0.4262  0.0401 -0.1098
  917MPD2    C213475   0.296   4.608  11.835  0.6701  0.3332  0.3561
  917MPD2    C313476   0.268   4.730  11.777 -1.0509 -0.1777 -0.1923
  917MPD2    C413477   0.328   0.024  11.657 -0.6752 -0.4176  0.1057
  917MPD2    C513478   0.404   4.663  11.588 -0.1115 -0.6067 -0.0645
  917MPD2     H13479   0.263   4.585  11.936 -1.3802  0.7065 -0.2309
  917MPD2    H113480   0.315   0.116  11.601 -1.0571 -1.5416 -1.6297
  917MPD2    H213481   0.481   4.465  11.588  3.8605  2.1732  0.6744
  917MPD2    H313482   0.452   4.685  11.494  1.7138  0.5899  1.1444
  917MPD2     N13483   0.181   0.089  11.837  0.3417 -0.4435 -0.3550
  917MPD2    H513484   0.184   0.185  11.805 -3.7961 -0.4324 -0.7131
  917MPD2    N113485   0.396   4.389  11.828 -0.1938 -0.2709 -0.2466
  917MPD2    H713486   0.383   4.389  11.928 -0.7353 -0.3734 -0.3200
  918MPD2     C13487   0.717   4.277  12.593  0.1317 -0.2611 -0.0058
  918MPD2    C113488   0.804   4.248  12.490 -0.6987 -0.5211  0.5269
  918MPD2    C213489   0.742   4.210  12.369  0.1806  0.1129  0.0392
  918MPD2    C313490   0.606   4.194  12.354 -0.7626 -0.6803 -0.2182
  918MPD2    C413491   0.527   4.214  12.468  0.1436 -0.2731  0.0685
  918MPD2    C513492   0.587   4.256  12.581  0.5043 -0.3284 -0.3993
  918MPD2     H13493   0.809   4.196  12.285 -0.6145  1.7337 -0.8551
  918MPD2    H113494   0.420   4.202  12.458  0.1341  0.5258 -0.7879
  918MPD2    H213495   0.755   4.306  12.690 -1.7142  0.7954  0.3813
  918MPD2    H313496   0.518   4.273  12.664 -1.7537 -1.1387 -2.1003
  918MPD2     N13497   0.553   4.155  12.229 -0.0937 -0.2755 -0.6480
  918MPD2    H513498   0.613   4.165  12.148  2.1832 -0.1565  1.0710
  918MPD2    N113499   0.944   4.244  12.517 -0.1742  0.1047  0.3720
  918MPD2    H713500   0.971   4.270  12.612 -4.0264  2.1688  0.9090
  919MPD2     C13501   0.868   3.311  11.789  0.2666 -0.6297  0.8938
  919MPD2    C113502   0.901   3.201  11.704 -0.4743  0.1154  0.2964
  919MPD2    C213503   0.951   3.226  11.576  0.1535 -0.1708  0.3641
  919MPD2    C313504   0.979   3.360  11.537  0.0418  0.0639  1.2006
  919MPD2    C413505   0.957   3.460  11.625 -0.1646  0.0570  0.0287
  919MPD2    C513506   0.897   3.436  11.744 -0.0133 -0.2123 -0.8090
  919MPD2     H13507   0.974   3.140  11.514  0.0875  1.5483 -2.0510
  919MPD2    H113508   0.980   3.565  11.610  0.5242 -0.0402  0.3813
  919MPD2    H213509   0.819   3.300  11.885 -0.0403  0.5508  0.8755
  919MPD2    H313510   0.885   3.515  11.817 -0.7020 -0.3842 -0.7350
  919MPD2     N13511   1.041   3.394  11.412 -0.1555 -0.0056  0.5100
  919MPD2    H513512   1.061   3.493  11.403  0.2215 -0.1337 -0.0323
  919MPD2    N113513   0.891   3.065  11.737 -0.0877  0.3518  0.8465
  919MPD2    H713514   0.927   3.000  11.667 -0.1464 -0.8499  1.9329
  920MPD2     C13515   0.544   3.340  10.589 -0.0111  0.2004  0.5484
  920MPD2    C113516   0.546   3.265  10.704  0.3939 -0.9548 -0.1416
  920MPD2    C213517   0.660   3.253  10.783 -0.2512  0.4761 -0.2951
  920MPD2    C313518   0.769   3.329  10.759  0.8353 -0.0803  0.1898
  920MPD2    C413519   0.771   3.404  10.640  0.0961 -0.1720 -0.3551
  920MPD2    C513520   0.661   3.404  10.555  0.0612  0.0054  0.4000
  920MPD2     H13521   0.650   3.199  10.877 -1.1978 -1.8241 -1.7216
  920MPD2    H113522   0.858   3.464  10.616  0.5409  0.5795  3.1802
  920MPD2    H213523   0.465   3.352  10.516 -0.1099 -2.2161  0.2619
  920MPD2    H313524   0.668   3.472  10.470 -1.2961 -0.6046 -0.2031
  920MPD2     N13525   0.871   3.334  10.856 -0.3655 -0.1610 -0.3586
  920MPD2    H513526   0.850   3.289  10.944  1.2033  2.1736  1.2052
  920MPD2    N113527   0.429   3.191  10.732  0.9839 -0.1769  0.4515
  920MPD2    H713528   0.432   3.122  10.807  0.4100  0.5691  1.1513
  921MPD2     C13529   2.201   2.317  17.159  0.2987  0.3411 -0.1532
  921MPD2    C113530   2.197   2.254  17.036  0.2133 -0.6768  0.7014
  921MPD2    C213531   2.076   2.193  17.007  0.7849  0.4512 -0.0029
  921MPD2    C313532   1.963   2.202  17.090 -0.2711 -0.5053  0.4336
  921MPD2    C413533   1.972   2.258  17.216 -0.2413 -0.5677  0.8624
  921MPD2    C513534   2.099   2.300  17.254 -0.1328  0.1544  0.6931
  921MPD2     H13535   2.071   2.143  16.911  3.2494 -2.1649  1.2262
  921MPD2    H113536   1.883   2.272  17.278 -0.2221  0.9180  0.5480
  921MPD2    H213537   2.292   2.360  17.199 -0.5674  0.4986  1.6607
  921MPD2    H313538   2.100   2.354  17.348  2.3937  1.2219  0.0758
  921MPD2     N13539   1.840   2.141  17.058  0.4092 -0.3975  0.6619
  921MPD2    H513540   1.766   2.131  17.127  0.6163  1.8310  1.2099
  921MPD2    N113541   2.304   2.279  16.947  0.6545 -0.1085 -0.2154
  921MPD2    H713542   2.389   2.316  16.988  2.8380 -2.7596 -2.3814
  922MPD2     C13543   2.789   4.463  17.592  0.1251 -0.5886  0.1467
  922MPD2    C113544   2.721   4.581  17.570  0.1028  0.0294  0.2426
  922MPD2    C213545   2.613   4.578  17.486 -0.1648 -0.5395 -0.0155
  922MPD2    C313546   2.564   4.464  17.428 -0.0666  0.0862 -0.0007
  922MPD2    C413547   2.639   4.349  17.446  0.9486  0.1921 -0.0599
  922MPD2    C513548   2.754   4.345  17.527 -0.6274  0.2480  0.5699
  922MPD2     H13549   2.565   4.671  17.459  0.7745 -0.1971 -0.5142
  922MPD2    H113550   2.618   4.261  17.387  0.5025 -0.8495  1.6293
  922MPD2    H213551   2.872   4.460  17.661  2.2944 -1.1749 -2.4783
  922MPD2    H313552   2.797   4.251  17.557  0.6055  0.0123 -1.8766
  922MPD2     N13553   2.452   4.472  17.345  0.3049 -0.3311 -0.0918
  922MPD2    H513554   2.414   4.566  17.339 -1.7534 -1.1901 -0.4040
  922MPD2    N113555   2.762   4.692  17.644  0.0513  0.1044  0.3039
  922MPD2    H713556   2.840   4.677  17.707 -0.1131  1.1679  0.7659
  923MPD2     C13557   4.434   1.168   8.899 -0.0810  0.0271 -0.0780
  923MPD2    C113558   4.482   1.277   8.969  0.0862  0.0376  0.3067
  923MPD2    C213559   4.555   1.257   9.080  0.4154  0.7095  0.9707
  923MPD2    C313560   4.562   1.129   9.137  0.2944 -0.2063  0.1905
  923MPD2    C413561   4.506   1.023   9.071  0.0327 -0.0218 -0.4034
  923MPD2    C513562   4.446   1.039   8.955 -0.2536  0.4628 -0.4565
  923MPD2     H13563   4.603   1.342   9.127 -1.0488  0.8370  2.2362
  923MPD2    H113564   4.507   0.921   9.107 -0.5063  0.0280 -0.2530
  923MPD2    H213565   4.375   1.184   8.810 -1.7600  0.3300  1.0781
  923MPD2    H313566   4.392   0.956   8.910  0.9983  0.1859 -1.4409
  923MPD2     N13567   4.620   1.100   9.264  0.6405 -0.2047  0.2680
  923MPD2    H513568   4.601   1.007   9.301  0.6910  0.3787  1.7385
  923MPD2    N113569   4.468   1.407   8.914  0.5233  0.7579 -0.2518
  923MPD2    H713570   4.425   1.397   8.822  0.6960 -0.6695 -0.1782
  924MPD2     C13571   4.113   0.206  16.680  0.4880 -0.3850  0.0340
  924MPD2    C113572   4.056   0.243  16.556 -0.3334  0.0047 -0.2495
  924MPD2    C213573   4.080   0.368  16.513  0.1409 -0.1549  0.0357
  924MPD2    C313574   4.150   0.463  16.582  1.1087  0.1836  0.2425
  924MPD2    C413575   4.209   0.422  16.699  0.5529 -0.2945 -0.1896
  924MPD2    C513576   4.201   0.295  16.742  1.4749 -0.4977  0.3656
  924MPD2     H13577   4.045   0.397  16.415 -0.5774  0.7731  0.5610
  924MPD2    H113578   4.269   0.491  16.757  0.6919 -2.0510  1.7830
  924MPD2    H213579   4.093   0.120  16.743 -2.4718  0.6570  0.5227
  924MPD2    H313580   4.248   0.273  16.837  1.3547  2.0276  0.9887
  924MPD2     N13581   4.175   0.591  16.532 -0.1968  0.2640  0.7038
  924MPD2    H513582   4.227   0.656  16.590 -1.7808  1.2766  0.9774
  924MPD2    N113583   3.962   0.157  16.501 -0.9007  0.3983 -0.2195
  924MPD2    H713584   3.962   0.063  16.539  0.5219  0.1849 -0.7720
  925MPD2     C13585   2.964   3.130  15.005  0.3823 -0.3473 -0.0038
  925MPD2    C113586   2.894   3.027  14.947  0.0491 -0.0363  0.1623
  925MPD2    C213587   2.774   2.987  15.002 -0.3301 -0.5433 -0.8260
  925MPD2    C313588   2.725   3.047  15.122 -0.1178  1.1849 -0.7007
  925MPD2    C413589   2.785   3.158  15.164 -0.3005  0.2318 -0.0245
  925MPD2    C513590   2.908   3.194  15.115 -0.5867  0.0719 -0.0575
  925MPD2     H13591   2.717   2.905  14.959  0.3473 -1.7032  0.4988
  925MPD2    H113592   2.745   3.205  15.253 -2.6655  0.4364 -1.2056
  925MPD2    H213593   3.055   3.167  14.958 -1.5315  0.8696 -2.7211
  925MPD2    H313594   2.970   3.271  15.160 -0.9936  1.2251 -1.4865
  925MPD2     N13595   2.615   2.991  15.193  0.2389 -0.9201 -0.1809
  925MPD2    H513596   2.594   3.034  15.282 -0.0688 -0.0639 -0.6605
  925MPD2    N113597   2.925   2.966  14.824 -0.6116 -0.0945  0.6967
  925MPD2    H713598   2.852   2.902  14.795  0.2056 -0.2544 -1.0063
  926MPD2     C13599   1.400   1.557  13.642  0.1281 -0.2928 -0.1041
  926MPD2    C113600   1.291   1.605  13.572  0.3083 -0.1951  0.5480
  926MPD2    C213601   1.310   1.695  13.470 -0.0729 -0.1708 -0.2714
  926MPD2    C313602   1.436   1.739  13.434 -0.4666 -0.3621 -0.7235
  926MPD2    C413603   1.542   1.683  13.502  0.4627  1.0439 -0.6231
  926MPD2    C513604   1.526   1.600  13.607  0.4179 -0.3210  0.0642
  926MPD2     H13605   1.230   1.723  13.402 -0.3897  0.8045  0.5145
  926MPD2    H113606   1.640   1.722  13.477  1.3100 -0.3811  0.5178
  926MPD2    H213607   1.405   1.487  13.724 -2.2674 -1.2465 -0.7731
  926MPD2    H313608   1.618   1.568  13.655 -0.2087 -2.4279 -0.1272
  926MPD2     N13609   1.463   1.826  13.332  0.3162 -0.1846  0.1123
  926MPD2    H513610   1.561   1.849  13.320 -0.2925  2.2838 -0.3053
  926MPD2    N113611   1.158   1.569  13.603 -0.3376  0.1242 -0.0882
  926MPD2    H713612   1.086   1.615  13.548 -0.4418 -3.0882 -2.7057
  927MPD2     C13613   1.156   3.691   0.090 -0.5117 -1.3160 -0.6095
  927MPD2    C113614   1.217   3.809   0.098 -0.4429 -0.1663 -0.1739
  927MPD2    C213615   1.217   3.885  17.720  0.7701 -0.1133  0.3273
  927MPD2    C313616   1.150   3.843  17.607 -0.2497  0.0283  0.0501
  927MPD2    C413617   1.080   3.726  17.609  0.5348  0.4178  0.1072
  927MPD2    C513618   1.081   3.652  17.725  0.0992  0.6320  0.4746
  927MPD2     H13619   1.273   3.977  17.708  0.3286  0.0300 -0.7027
  927MPD2    H113620   1.030   3.691  17.520  1.5502 -0.3523 -0.1613
  927MPD2    H213621   1.144   3.638   0.184  2.3231 -1.0970 -0.1326
  927MPD2    H313622   1.022   3.561  17.719 -0.4474  0.8316  2.9109
  927MPD2     N13623   1.175   3.910  17.489 -0.2480  0.0036  0.0134
  927MPD2    H513624   1.239   3.988  17.489  0.5487 -0.6597  1.4616
  927MPD2    N113625   1.278   3.850   0.217 -0.1025  0.1053 -0.4037
  927MPD2    H713626   1.283   3.778   0.289  0.0754  2.9106  2.3511
  928MPD2     C13627   4.165   1.691   1.349  0.2059 -0.6542 -0.0663
  928MPD2    C113628   4.282   1.766   1.355  0.4618 -0.1615  0.3448
  928MPD2    C213629   4.351   1.795   1.239 -0.0751  0.4920  0.8027
  928MPD2    C313630   4.308   1.751   1.118  0.3645  0.1928 -0.2896
  928MPD2    C413631   4.200   1.675   1.108 -0.2347 -0.4950 -0.0282
  928MPD2    C513632   4.128   1.647   1.225  0.1231  0.6259 -0.4272
  928MPD2     H13633   4.435   1.863   1.250  0.7879 -0.4064 -0.2154
  928MPD2    H113634   4.158   1.653   1.010 -0.3913  1.8566 -0.4955
  928MPD2    H213635   4.105   1.669   1.437  1.1470  0.2078  0.7800
  928MPD2    H313636   4.043   1.580   1.218  1.4498 -1.1672  0.7980
  928MPD2     N13637   4.370   1.785   0.990 -0.1923  0.1804  0.5569
  928MPD2    H513638   4.325   1.743   0.910 -0.8867 -1.3760  1.7523
  928MPD2    N113639   4.317   1.812   1.481 -0.1206 -0.5264  0.1392
  928MPD2    H713640   4.257   1.777   1.555 -2.4549  0.5744 -1.2250
  929MPD2     C13641   4.440   1.831  10.264  0.4719 -0.4593  0.7518
  929MPD2    C113642   4.335   1.740  10.280 -0.4047  0.5083 -0.0739
  929MPD2    C213643   4.250   1.702  10.176  0.6312 -0.2920 -0.1057
  929MPD2    C313644   4.267   1.769  10.058  0.0344  0.5583 -1.0984
  929MPD2    C413645   4.373   1.860  10.044 -0.5679 -0.4053 -0.2745
  929MPD2    C513646   4.463   1.894  10.144 -0.1670  0.3515  1.1066
  929MPD2     H13647   4.166   1.639  10.201 -0.8946  2.2031  1.0616
  929MPD2    H113648   4.395   1.914   9.953 -0.0490 -1.6200 -0.8763
  929MPD2    H213649   4.508   1.854  10.344  0.4057 -4.9553  2.1317
  929MPD2    H313650   4.545   1.962  10.126 -1.2168  0.8197 -1.9524
  929MPD2     N13651   4.175   1.765   9.948  0.4295 -0.1731 -0.2464
  929MPD2    H513652   4.189   1.824   9.866 -1.2650 -0.6767 -0.8866
  929MPD2    N113653   4.327   1.693  10.410  0.0977 -0.9464  0.5964
  929MPD2    H713654   4.396   1.733  10.473  1.1207  0.1829 -1.2180
  930MPD2     C13655   1.401   4.189  14.722  0.0457  0.4619  0.7018
  930MPD2    C113656   1.320   4.227  14.615  0.0349  1.2154 -0.4174
  930MPD2    C213657   1.231   4.135  14.556  0.0971 -0.1713 -0.3236
  930MPD2    C313658   1.229   4.004  14.611  0.2189  0.2295  0.0631
  930MPD2    C413659   1.324   3.961  14.705  0.4607  0.0333  0.4574
  930MPD2    C513660   1.406   4.054  14.765 -0.2333  0.0058  0.3353
  930MPD2     H13661   1.171   4.149  14.467  0.2386  1.0967 -0.2262
  930MPD2    H113662   1.324   3.860  14.744 -0.5851 -1.0559 -2.3797
  930MPD2    H213663   1.478   4.258  14.756  0.4061 -0.1969  1.2321
  930MPD2    H313664   1.471   4.027  14.847 -0.6168 -2.5902 -0.2208
  930MPD2     N13665   1.150   3.899  14.554 -0.0519  0.2539 -0.3603
  930MPD2    H513666   1.185   3.807  14.577  0.8176  0.8968  0.8722
  930MPD2    N113667   1.340   4.352  14.551  0.7063  0.2911 -0.6733
  930MPD2    H713668   1.401   4.422  14.591 -0.4424  0.7095  0.3488
  931MPD2     C13669   1.687   3.454   0.508  0.3007 -0.0840  0.3618
  931MPD2    C113670   1.595   3.528   0.579 -0.0313 -0.1514 -0.5014
  931MPD2    C213671   1.534   3.473   0.691 -0.4790 -0.7019 -0.2319
  931MPD2    C313672   1.546   3.341   0.721 -0.4041  0.3377  0.3587
  931MPD2    C413673   1.640   3.270   0.644 -0.1515 -0.1961 -0.3120
  931MPD2    C513674   1.710   3.327   0.543 -0.3930  0.1398  0.5302
  931MPD2     H13675   1.457   3.529   0.743 -2.4711 -2.2627 -1.5079
  931MPD2    H113676   1.659   3.168   0.675  1.6765  0.2649  0.0474
  931MPD2    H213677   1.757   3.504   0.442 -1.8376  0.8818 -1.1784
  931MPD2    H313678   1.786   3.279   0.484 -1.1019  0.7364 -0.8699
  931MPD2     N13679   1.483   3.272   0.827 -0.2523  0.1557 -0.4957
  931MPD2    H513680   1.505   3.175   0.846  0.2614  0.4983  0.6819
  931MPD2    N113681   1.571   3.661   0.544  1.0917  0.7646  0.5171
  931MPD2    H713682   1.587   3.673   0.444 -0.5754 -1.8846 -0.0922
  932MPD2     C13683   3.111   2.048  11.335 -0.2502  0.4804  0.2718
  932MPD2    C113684   3.117   2.167  11.407 -0.0372  0.5981 -0.4014
  932MPD2    C213685   3.168   2.175  11.533  0.5369  0.4194  0.5902
  932MPD2    C313686   3.237   2.066  11.583  1.0138 -0.1922 -0.4682
  932MPD2    C413687   3.221   1.950  11.519 -0.2481  0.4067  0.4409
  932MPD2    C513688   3.173   1.943  11.387 -0.1610 -0.4658  0.6491
  932MPD2     H13689   3.173   2.268  11.589 -0.2297  0.3446  0.7859
  932MPD2    H113690   3.259   1.863  11.572  0.1571  1.4647  1.8599
  932MPD2    H213691   3.064   2.038  11.238 -0.2123 -1.8455  0.4994
  932MPD2    H313692   3.172   1.851  11.331 -1.3705  0.6397 -1.1539
  932MPD2     N13693   3.295   2.057  11.708 -0.7344  0.1716  0.4923
  932MPD2    H513694   3.350   1.975  11.732  2.1919  1.8711 -0.5293
  932MPD2    N113695   3.082   2.293  11.361  0.4559 -0.0177 -0.5047
  932MPD2    H713696   3.079   2.364  11.433  2.6550  0.4875 -0.9119
  933MPD2     C13697   4.095   2.386   2.062 -0.6348  0.4478  0.4937
  933MPD2    C113698   4.072   2.324   1.940 -0.6866  0.1898  0.0055
  933MPD2    C213699   3.952   2.338   1.884  0.1049 -0.2884  0.4952
  933MPD2    C313700   3.852   2.411   1.941  0.5557  0.5691 -0.0738
  933MPD2    C413701   3.878   2.471   2.062 -0.0807  0.0666  0.3204
  933MPD2    C513702   3.993   2.452   2.131 -0.0145 -0.3119  0.8129
  933MPD2     H13703   3.933   2.288   1.790  0.4565 -0.8941  0.7452
  933MPD2    H113704   3.794   2.519   2.110 -0.0322 -0.5371  0.9954
  933MPD2    H213705   4.196   2.387   2.102 -0.6848 -2.1915  0.6828
  933MPD2    H313706   4.004   2.496   2.229 -1.3496 -1.2575  1.3919
  933MPD2     N13707   3.721   2.409   1.883  0.2687  0.5831 -0.1897
  933MPD2    H513708   3.709   2.359   1.796 -2.7797  1.3169 -0.1713
  933MPD2    N113709   4.178   2.247   1.894 -0.3629 -0.5635 -0.1122
  933MPD2    H713710   4.255   2.244   1.960 -0.6279  0.4197  0.2425
  934MPD2     C13711   4.387   4.409   1.756  0.4476  0.1599 -0.0255
  934MPD2    C113712   4.510   4.347   1.736  0.0862 -0.7889 -0.7885
  934MPD2    C213713   4.545   4.288   1.622  0.2965  0.1078  0.0351
  934MPD2    C313714   4.456   4.306   1.509  0.0770 -0.5922 -0.9532
  934MPD2    C413715   4.338   4.369   1.522  0.3266  0.6768  0.1272
  934MPD2    C513716   4.298   4.416   1.650 -0.3279  0.4234  0.1724
  934MPD2     H13717   4.636   4.229   1.616  0.9102  0.8004  2.6186
  934MPD2    H113718   4.260   4.378   1.447 -0.7647 -2.0586  0.9212
  934MPD2    H213719   4.367   4.466   1.846  1.5980  0.7220 -0.1320
  934MPD2    H313720   4.205   4.468   1.666 -0.2840  0.0355  1.7029
  934MPD2     N13721   4.491   4.255   1.380 -0.0604 -0.0732 -0.6156
  934MPD2    H513722   4.422   4.265   1.307  0.8658 -0.8077 -1.5903
  934MPD2    N113723   4.608   4.333   1.829  0.4111  0.4750 -0.1617
  934MPD2    H713724   4.698   4.294   1.801  0.6248  0.6612  0.2778
  935MPD2     C13725   0.391   3.531   1.052  0.5707  0.0591  0.5983
  935MPD2    C113726   0.283   3.527   0.967  0.0884 -0.6233  0.8023
  935MPD2    C213727   0.195   3.636   0.976 -0.5617 -0.6633  0.5672
  935MPD2    C313728   0.204   3.727   1.087 -1.0214  0.2900  0.0717
  935MPD2    C413729   0.313   3.713   1.173  0.2931  0.3546 -0.3925
  935MPD2    C513730   0.413   3.624   1.146 -0.3096  0.4690  0.3732
  935MPD2     H13731   0.114   3.638   0.903 -1.7678 -1.0730  1.8907
  935MPD2    H113732   0.328   3.784   1.253  0.4556  0.8745 -0.8818
  935MPD2    H213733   0.476   3.465   1.036 -0.4811 -1.5499  1.6447
  935MPD2    H313734   0.491   3.624   1.221 -1.7635  0.3431  1.8959
  935MPD2     N13735   0.108   3.833   1.116 -0.0508 -0.3250 -0.0283
  935MPD2    H513736   0.130   3.895   1.193 -0.1534 -1.3836  0.8520
  935MPD2    N113737   0.267   3.431   0.868  0.0617  0.1028 -0.2231
  935MPD2    H713738   0.186   3.461   0.815 -0.0187  3.4267  1.8077
  936MPD2     C13739   2.480   1.395  12.197 -0.3033 -0.0808  0.1636
  936MPD2    C113740   2.541   1.290  12.262 -0.6531  0.3210 -0.0761
  936MPD2    C213741   2.661   1.231  12.204 -0.4454 -0.5040 -0.1462
  936MPD2    C313742   2.726   1.290  12.103  1.2216 -0.0520  0.1622
  936MPD2    C413743   2.651   1.384  12.029 -0.7964 -0.4318  0.9998
  936MPD2    C513744   2.540   1.438  12.083 -0.5532 -0.6820  0.0130
  936MPD2     H13745   2.706   1.144  12.251  1.0538 -0.5214 -1.6216
  936MPD2    H113746   2.682   1.426  11.934 -2.9894  0.1231  0.5313
  936MPD2    H213747   2.389   1.446  12.227 -0.3536  0.8208 -1.5258
  936MPD2    H313748   2.499   1.521  12.027 -1.6529 -0.9915  0.3577
  936MPD2     N13749   2.856   1.241  12.071  0.3778 -0.3611 -0.1173
  936MPD2    H513750   2.883   1.159  12.125  1.2987  0.2548  0.3637
  936MPD2    N113751   2.493   1.243  12.385 -0.1733  0.4013  0.4179
  936MPD2    H713752   2.522   1.149  12.407  0.1848  0.8826  2.0044
  937MPD2     C13753   1.417   2.570  11.722  0.3126  0.5882  0.1373
  937MPD2    C113754   1.366   2.702  11.724  0.8689 -0.0770  0.0920
  937MPD2    C213755   1.423   2.799  11.638  0.0993  0.6679 -0.9112
  937MPD2    C313756   1.523   2.765  11.551 -0.0011  0.1903  0.2739
  937MPD2    C413757   1.570   2.640  11.546  0.8461 -0.4267  0.1560
  937MPD2    C513758   1.517   2.545  11.627  0.9626 -0.3611 -0.2552
  937MPD2     H13759   1.381   2.898  11.633 -1.2476  0.2525  2.6584
  937MPD2    H113760   1.643   2.608  11.472  1.4401  2.6740 -0.5963
  937MPD2    H213761   1.360   2.489  11.767 -1.1549 -0.4247 -3.5920
  937MPD2    H313762   1.543   2.440  11.623  2.3370 -0.0991  1.5453
  937MPD2     N13763   1.574   2.878  11.474  0.6463 -0.0886 -0.0025
  937MPD2    H513764   1.538   2.972  11.486 -2.4435 -0.9869 -2.1291
  937MPD2    N113765   1.237   2.731  11.775  0.0923  0.3473  0.3892
  937MPD2    H713766   1.189   2.814  11.741 -0.6706 -0.4872 -0.6054
  938MPD2     C13767   4.201   4.034   0.338  0.2504  0.3077  0.3331
  938MPD2    C113768   4.226   4.064   0.469 -0.7131 -0.4770 -0.3779
  938MPD2    C213769   4.171   3.986   0.569  0.1844  0.1176  0.2699
  938MPD2    C313770   4.128   3.856   0.537  0.4411 -0.5507  0.1076
  938MPD2    C413771   4.123   3.814   0.404  0.7482 -0.7023  0.1905
  938MPD2    C513772   4.154   3.905   0.310 -0.5360 -0.1952  0.0036
  938MPD2     H13773   4.187   4.020   0.670 -3.4602 -0.2888  1.0069
  938MPD2    H113774   4.102   3.711   0.378 -0.3928 -1.0069  2.3299
  938MPD2    H213775   4.215   4.108   0.260 -1.1079 -0.5663 -0.7361
  938MPD2    H313776   4.172   3.879   0.207  2.1339  1.8778 -0.0451
  938MPD2     N13777   4.087   3.766   0.633  0.2848 -0.3581  0.6716
  938MPD2    H513778   4.054   3.681   0.589 -1.4335  0.6734 -0.0299
  938MPD2    N113779   4.291   4.183   0.510 -0.0962  0.0510  0.4498
  938MPD2    H713780   4.295   4.202   0.609 -0.1086  2.5239 -0.0077
  939MPD2     C13781   0.865   0.416   1.063  0.3363  0.3651 -0.0161
  939MPD2    C113782   0.958   0.516   1.038 -0.6060 -0.2227  0.0346
  939MPD2    C213783   1.011   0.535   0.912 -0.8381 -0.6543  0.4190
  939MPD2    C313784   0.951   0.463   0.811  0.1054 -0.0395  1.0006
  939MPD2    C413785   0.845   0.371   0.831 -0.0654  0.2775 -0.6279
  939MPD2    C513786   0.811   0.335   0.963  0.2904  0.1844  0.4893
  939MPD2     H13787   1.091   0.603   0.882 -0.4037 -0.7314  1.4134
  939MPD2    H113788   0.802   0.318   0.747 -0.5958  0.6952 -0.6137
  939MPD2    H213789   0.822   0.400   1.161 -2.1082  1.3314 -0.9294
  939MPD2    H313790   0.738   0.259   0.988  0.7489 -0.9610 -1.6448
  939MPD2     N13791   0.997   0.492   0.682 -0.2959  0.0634  0.1581
  939MPD2    H513792   1.073   0.558   0.667 -0.6127  0.5039  0.5116
  939MPD2    N113793   1.000   0.589   1.156 -0.3474 -0.8155  0.0590
  939MPD2    H713794   0.948   0.571   1.241 -0.9497  0.3327 -0.0669
  940MPD2     C13795   3.305   1.509  13.129 -0.4127  0.1536 -0.1389
  940MPD2    C113796   3.425   1.461  13.183  0.5336 -0.1166  0.0247
  940MPD2    C213797   3.516   1.401  13.091  0.2598 -0.0530  0.2277
  940MPD2    C313798   3.493   1.403  12.955 -0.4006 -0.2251  0.0076
  940MPD2    C413799   3.377   1.467  12.905  0.1444  0.7011  0.0195
  940MPD2    C513800   3.286   1.515  12.996 -0.1202 -0.5519 -0.2086
  940MPD2     H13801   3.601   1.355  13.139  0.0139  0.4936  1.1903
  940MPD2    H113802   3.361   1.478  12.799  1.0775 -0.1652 -0.2102
  940MPD2    H213803   3.229   1.546  13.197  0.8166 -1.3543  2.0697
  940MPD2    H313804   3.208   1.579  12.957  0.4018  1.0412  1.3714
  940MPD2     N13805   3.583   1.356  12.862  0.1552  0.0157 -0.2332
  940MPD2    H513806   3.558   1.364  12.764  0.8583 -1.7837 -0.5641
  940MPD2    N113807   3.470   1.451  13.321  0.4208 -0.0362  0.2580
  940MPD2    H713808   3.561   1.408  13.335  0.6084  0.1954 -0.2852
  941MPD2     C13809   3.183   0.485   9.826  0.4043 -0.6946 -0.3509
  941MPD2    C113810   3.262   0.399   9.903  0.1168 -0.3472  0.3127
  941MPD2    C213811   3.202   0.322  10.000  0.2103 -0.3372  0.4416
  941MPD2    C313812   3.063   0.315  10.009  0.6918  0.2968  0.5673
  941MPD2    C413813   2.987   0.401   9.936  0.2713 -0.6800 -0.5578
  941MPD2    C513814   3.047   0.484   9.844 -0.1988 -0.3454  0.3325
  941MPD2     H13815   3.262   0.261  10.067  1.8605 -0.1216 -0.8388
  941MPD2    H113816   2.880   0.412   9.951 -0.1580 -1.1571 -3.2565
  941MPD2    H213817   3.229   0.541   9.745 -1.7556 -2.2156 -2.6393
  941MPD2    H313818   2.987   0.550   9.781 -1.8579 -0.9199  1.3003
  941MPD2     N13819   2.999   0.243  10.112  1.0151  0.0042 -0.1380
  941MPD2    H513820   2.907   0.267  10.146  1.0622  0.0943 -0.0734
  941MPD2    N113821   3.403   0.378   9.894  0.1267 -0.4300  0.3590
  941MPD2    H713822   3.453   0.324   9.963 -0.8696 -0.8615  0.7360
  942MPD2     C13823   3.153   1.650   9.872  0.4034 -0.3316 -0.2876
  942MPD2    C113824   3.069   1.681   9.768 -0.3404 -0.0072  0.3443
  942MPD2    C213825   3.121   1.692   9.638  0.2481 -0.7798 -0.0607
  942MPD2    C313826   3.249   1.641   9.606  0.4952  0.3940  0.0474
  942MPD2    C413827   3.328   1.612   9.714  0.1284  0.2135 -0.0397
  942MPD2    C513828   3.285   1.620   9.845  0.3756  0.1062  0.8003
  942MPD2     H13829   3.049   1.707   9.558 -0.4888  0.1134  0.7740
  942MPD2    H113830   3.429   1.578   9.694  0.7653  2.0374  0.0445
  942MPD2    H213831   3.120   1.641   9.975  1.0647 -2.2189 -0.2320
  942MPD2    H313832   3.348   1.588   9.927  0.5733 -4.6189 -1.1938
  942MPD2     N13833   3.308   1.646   9.477 -1.0493 -0.4813  0.7384
  942MPD2    H513834   3.403   1.615   9.463 -1.2734 -0.2891 -1.2134
  942MPD2    N113835   2.933   1.711   9.788 -0.2909  0.0733 -0.2431
  942MPD2    H713836   2.876   1.742   9.710 -3.4763 -2.7340  0.9739
  943MPD2     C13837   2.084   0.801  10.413 -0.1027  1.3472  0.5717
  943MPD2    C113838   2.044   0.685  10.459 -0.3328 -0.0177  0.3718
  943MPD2    C213839   1.964   0.675  10.573  0.2458  0.4670  0.2237
  943MPD2    C313840   1.943   0.789  10.645  0.7917  0.0863 -0.1397
  943MPD2    C413841   1.990   0.910  10.598 -0.4800 -0.5706 -0.3658
  943MPD2    C513842   2.043   0.922  10.473  0.5434  0.0297 -0.3051
  943MPD2     H13843   1.916   0.582  10.602 -3.2783  1.6484 -1.8451
  943MPD2    H113844   1.957   0.993  10.660 -1.1243  0.5180 -2.1795
  943MPD2    H213845   2.149   0.813  10.328 -1.4673  0.8368 -0.5496
  943MPD2    H313846   2.081   1.020  10.447 -2.7250  1.7643  1.5049
  943MPD2     N13847   1.879   0.767  10.769  0.2196 -0.0643  0.8095
  943MPD2    H513848   1.828   0.684  10.796  0.2964 -0.8463 -1.5105
  943MPD2    N113849   2.082   0.571  10.387 -0.3783  0.0337  0.4183
  943MPD2    H713850   2.162   0.587  10.327 -0.1412 -0.6000  0.5626
  944MPD2     C13851   1.933   3.592  11.008 -0.4194 -0.1120 -0.3625
  944MPD2    C113852   2.031   3.517  11.058  0.4415 -0.6639 -0.2722
  944MPD2    C213853   2.042   3.502  11.198  0.2023 -0.4238 -0.6246
  944MPD2    C313854   1.945   3.559  11.282 -0.6071  0.2689 -0.0861
  944MPD2    C413855   1.835   3.619  11.223 -0.0020  0.2406  0.6466
  944MPD2    C513856   1.835   3.638  11.089 -0.5846 -0.4867  0.3115
  944MPD2     H13857   2.133   3.460  11.240 -0.1051 -0.4448  0.0117
  944MPD2    H113858   1.757   3.664  11.284  0.3758  1.2717  0.3725
  944MPD2    H213859   1.920   3.621  10.904  0.7480  0.6169 -0.3108
  944MPD2    H313860   1.749   3.678  11.037 -0.1352  0.7563  0.5074
  944MPD2     N13861   1.963   3.547  11.425 -0.1622  0.0813  0.5957
  944MPD2    H513862   2.027   3.475  11.459  0.7052 -0.4578 -2.1902
  944MPD2    N113863   2.125   3.481  10.962  0.3307 -0.5408  0.2746
  944MPD2    H713864   2.118   3.514  10.866 -3.3608 -0.9304  0.4328
    1TMC1    C113865   0.478   4.487  14.308 -0.7428  0.0210  0.7263
    1TMC1    C213866   0.414   4.461  14.191 -0.6871 -0.2119  0.4290
    1TMC1    C313867   0.424   4.330  14.141  0.5103  0.8068  0.2399
    1TMC1    C413868   0.567   4.401  14.366  0.1434  0.2422  0.4241
    1TMC1    C513869   0.586   4.283  14.300 -0.2905  0.3156  0.4167
    1TMC1    C613870   0.511   4.240  14.195 -0.2775  0.1046  0.8259
    1TMC1     C13871   0.455   4.617  14.369  0.6867 -0.1824  0.2978
    1TMC1     O13872   0.517   4.636  14.474 -0.7767 -0.4579  0.0473
    1TMC1     H13873   0.369   4.541  14.135 -0.1027  1.2396  2.0328
    1TMC1    H113874   0.621   4.425  14.457  1.8127  3.7346 -1.5144
    1TMC1    H213875   0.527   4.140  14.154 -1.8734  0.5480 -0.9010
    1TMC1    C713876   0.671   4.181  14.355  0.2978 -0.7981  0.7234
    1TMC1    C813877   0.384   4.319  14.000 -0.5364  0.5043 -0.4336
    1TMC1    O113878   0.652   4.059  14.358  0.3606 -0.5053 -0.2736
    1TMC1    O213879   0.432   4.243  13.918  0.3995  0.3544  0.2147
    1TMC1    O313880   0.772   4.252  14.410  0.0183 -0.2786 -0.0562
    1TMC1    H313881   0.792   4.333  14.359 -1.7579  0.5195  0.4990
    1TMC1    O513882   0.256   4.359  13.999  0.2923  0.1461  0.0545
    1TMC1    H513883   0.228   4.404  14.082  0.2719  0.5055 -0.1483
    2MPD2     C13884   0.220   0.333  14.443 -0.1397  0.4312  0.3583
    2MPD2    C113885   0.174   0.281  14.331 -0.1914  0.3238  0.4230
    2MPD2    C213886   0.211   0.156  14.294  0.4357 -0.4000 -1.4879
    2MPD2    C313887   0.300   0.076  14.365  0.4793 -0.1170 -0.6033
    2MPD2    C413888   0.340   0.130  14.484 -0.2392 -0.5359  0.8931
    2MPD2    C513889   0.303   0.256  14.522  0.6452  0.4881  0.1993
    2MPD2     H13890   0.164   0.120  14.203 -1.1716 -2.0876  0.0169
    2MPD2    H113891   0.395   0.066  14.553 -1.5644 -2.3124  0.3119
    2MPD2    H213892   0.204   0.438  14.461 -3.7118  0.3770 -2.4514
    2MPD2    H313893   0.322   0.292  14.623  0.3025  1.4866 -0.0955
    2MPD2     N13894   0.350   4.692  14.317  0.9809 -0.4527  0.0164
    2MPD2    H513895   0.297   4.652  14.240  0.2124  0.2133  0.2015
    2MPD2    N113896   0.088   0.361  14.258 -0.5241  0.1338  0.1458
    2MPD2    H713897   0.050   0.433  14.318 -0.4710  0.9469 -0.7833
    3TMC2    C113898   4.670   0.429  14.084  0.3109  0.1896  0.4120
    3TMC2    C213899   4.587   0.495  14.169  0.2628 -0.3396 -0.7466
    3TMC2    C313900   4.495   0.576  14.111  0.1858 -0.3180  0.0682
    3TMC2    C413901   4.665   0.456  13.949  0.0610  0.1433  1.3817
    3TMC2    C513902   4.574   0.549  13.898  0.8853 -0.3336 -0.4928
    3TMC2    C613903   4.490   0.612  13.983  0.7236 -0.3319 -0.0165
    3TMC2     C13904   0.047   0.344  14.127  0.1735  0.4164 -0.2425
    3TMC2     O13905   0.108   0.275  14.045  0.6020 -0.0917 -0.1718
    3TMC2     H13906   4.585   0.476  14.276 -0.3335  0.7211 -0.5673
    3TMC2    H113907   4.732   0.408  13.878 -0.6765  1.7626 -0.4037
    3TMC2    H213908   4.408   0.672  13.946  0.4401 -0.5428  0.2580
    3TMC2    C713909   4.555   0.549  13.753  0.0146 -1.0236  0.1080
    3TMC2    C813910   4.395   0.623  14.194 -0.0141  0.6224  0.1995
    3TMC2    O113911   4.606   0.458  13.687 -0.2407  0.2049  0.0784
    3TMC2    O213912   4.345   0.733  14.199 -0.7715 -0.2018  0.0266
    3TMC2    O513913   4.344   0.513  14.258 -1.0824 -0.4003 -0.3249
    3TMC2    H513914   4.388   0.425  14.264 -3.2525 -1.4616  0.2558
    4TMC2    C113915   4.175   1.417  13.453 -0.4438 -1.2698 -0.6329
    4TMC2    C213916   4.149   1.428  13.320 -0.1822  0.3693 -0.9158
    4TMC2    C313917   4.223   1.345  13.238 -0.5200  0.0656  0.3481
    4TMC2    C413918   4.261   1.318  13.504  0.2516  0.2937  0.0897
    4TMC2    C513919   4.323   1.234  13.416 -0.2137  0.5259 -0.4828
    4TMC2    C613920   4.304   1.242  13.280 -0.1976  0.6554  0.0982
    4TMC2     C13921   4.095   1.487  13.551  0.0142 -0.0643  0.5202
    4TMC2     O13922   4.119   1.458  13.668 -0.2297 -0.2327 -0.6258
    4TMC2     H13923   4.078   1.497  13.276  0.6238  1.7112 -0.0982
    4TMC2    H113924   4.279   1.306  13.610  0.2868 -1.5786 -0.1191
    4TMC2    H213925   4.356   1.171  13.216  0.1408  0.2085  0.8623
    4TMC2    C713926   4.391   1.120  13.471  0.8619 -0.5379 -0.3843
    4TMC2    C813927   4.217   1.380  13.100  0.1780 -0.3636  1.0771
    4TMC2    O113928   4.441   1.128  13.580 -0.0585 -0.2359  0.3146
    4TMC2    O213929   4.166   1.486  13.066 -0.6251  0.5975 -0.1207
    4TMC2    O513930   4.231   1.270  13.021 -0.0383 -0.1948  0.1472
    4TMC2    H513931   4.247   1.184  13.065 -3.4797  0.2180  2.2061
    5MPD2     C13932   3.724   1.813  13.669 -0.5958  0.3551 -0.0806
    5MPD2    C113933   3.697   1.757  13.548 -0.2643 -0.4912 -0.3627
    5MPD2    C213934   3.788   1.669  13.486 -0.0221  0.3302  0.2971
    5MPD2    C313935   3.900   1.629  13.558  0.6962 -0.7109 -0.1884
    5MPD2    C413936   3.915   1.667  13.692  0.7138 -0.0347  0.3069
    5MPD2    C513937   3.829   1.755  13.742 -1.1085 -0.1602  0.1996
    5MPD2     H13938   3.778   1.627  13.387  1.4250 -0.9196  0.6938
    5MPD2    H113939   3.988   1.631  13.764  0.2853 -2.0949 -0.2677
    5MPD2    H213940   3.657   1.877  13.725  1.1051  0.5110  1.8079
    5MPD2    H313941   3.841   1.799  13.841 -0.1086  0.3724 -0.1639
    5MPD2     N13942   3.991   1.553  13.490  0.1239  0.4584  0.1589
    5MPD2    H513943   3.978   1.540  13.390  0.3736  0.5527  0.1146
    5MPD2    N113944   3.578   1.805  13.495  0.7656  0.4064  0.3031
    5MPD2    H713945   3.535   1.875  13.554 -0.6715  1.8721 -2.4500
    6MPD1     C13946   3.293   3.478  13.142  0.3120 -0.2190 -0.4623
    6MPD1    C113947   3.348   3.417  13.252  0.1404 -0.5436  0.1104
    6MPD1    C213948   3.299   3.290  13.284  0.6580  0.6480  0.2155
    6MPD1    C313949   3.194   3.232  13.214 -0.8937 -0.2000 -0.0999
    6MPD1    C413950   3.159   3.292  13.099 -0.5996 -0.2868  0.5130
    6MPD1    C513951   3.205   3.409  13.069 -0.2104  0.3466  0.6203
    6MPD1     H13952   3.339   3.239  13.371  0.0722 -0.7342 -0.3317
    6MPD1    H113953   3.088   3.243  13.033 -1.0805  0.8764  0.1732
    6MPD1    H213954   3.321   3.576  13.106 -1.8567  1.7506  3.1647
    6MPD1    H313955   3.152   3.464  12.992 -1.3221  0.5890  1.5559
    6MPD1     N13956   3.149   3.105  13.251 -0.0051 -0.6880  0.0029
    6MPD1    H513957   3.103   3.052  13.178 -2.6715 -0.7894  1.7516
    6MPD1    N113958   3.468   3.460  13.307  1.2541  0.0015 -0.6880
    6MPD1    H613959   3.481   3.560  13.293  0.4884  0.2393  0.2456
    6MPD1    H713960   3.473   3.439  13.407  2.5265 -2.0082 -1.1828
    7MPD2     C13961   3.133   2.440  13.793  0.9321  0.1440 -0.2221
    7MPD2    C113962   3.097   2.437  13.659  0.3135  0.1988 -0.0868
    7MPD2    C213963   3.105   2.316  13.593 -0.1135  0.5067  0.3631
    7MPD2    C313964   3.172   2.208  13.645 -0.0040  0.1262  0.5907
    7MPD2    C413965   3.218   2.206  13.774  0.2795 -0.8809  0.0009
    7MPD2    C513966   3.187   2.323  13.848 -0.8035 -0.0255  0.1048
    7MPD2     H13967   3.076   2.322  13.489 -2.3053  1.4707  1.0415
    7MPD2    H113968   3.269   2.120  13.815 -0.4840 -0.9593  0.7870
    7MPD2    H213969   3.142   2.527  13.858 -3.3043  0.1550  0.3731
    7MPD2    H313970   3.226   2.317  13.949 -1.7936  0.3726  0.5060
    7MPD2     N13971   3.214   2.094  13.574  0.8944  0.6547 -0.0728
    7MPD2    H513972   3.272   2.025  13.620  0.0705 -0.8935 -1.3397
    7MPD2    N113973   3.036   2.545  13.590 -1.2142 -0.2560 -0.0079
    7MPD2    H713974   3.011   2.525  13.494  0.2902 -0.6368 -0.3196
    8TMC3    C113975   3.208   1.943  13.389 -0.0821 -0.0231  0.9953
    8TMC3    C213976   3.335   1.903  13.426 -0.9518 -0.2178  0.6634
    8TMC3    C313977   3.415   1.844  13.330  0.1286 -1.2136 -0.5860
    8TMC3    C413978   3.176   1.944  13.256  0.2136  0.0251  0.4897
    8TMC3    C513979   3.264   1.905  13.155 -0.4851 -0.4551  0.5916
    8TMC3    C613980   3.389   1.851  13.195 -0.2962 -0.1045  0.0010
    8TMC3     C13981   3.172   2.070  13.445  0.5845 -0.8294  0.2498
    8TMC3     O13982   3.108   2.139  13.364  0.0462  0.4271 -0.0814
    8TMC3     H13983   3.372   1.920  13.526  2.6215 -2.6989 -0.2182
    8TMC3    H113984   3.076   1.967  13.223  1.5228  1.5536 -2.4159
    8TMC3    H213985   3.464   1.838  13.117  1.5519  0.9702  1.5783
    8TMC3    C713986   3.291   2.007  13.058 -0.7469  0.7788 -0.1795
    8TMC3    C813987   3.543   1.791  13.365 -0.0653  0.2103  0.0909
    8TMC3    O113988   3.346   1.976  12.953 -0.1237  0.1449  0.0335
    8TMC3    O213989   3.607   1.747  13.273 -0.0379 -0.6285  0.4250
    9TMC3    C113990   3.123   2.908  13.388 -0.3938  0.0591  0.3469
    9TMC3    C213991   3.106   2.828  13.280  0.4292  0.0747 -0.5090
    9TMC3    C313992   3.021   2.724  13.293 -0.2678  0.4299 -0.2351
    9TMC3    C413993   3.086   2.871  13.516  1.0458  0.9342  0.4207
    9TMC3    C513994   2.994   2.767  13.533  0.2066 -0.1179  0.6959
    9TMC3    C613995   2.954   2.701  13.417 -0.2757  0.7401  0.6155
    9TMC3     C13996   3.169   3.050  13.379 -0.0703 -0.1779 -0.1217
    9TMC3     O13997   3.202   3.095  13.486 -0.9420 -0.1173  0.4311
    9TMC3     H13998   3.167   2.845  13.192 -2.3914 -1.7296 -2.8050
    9TMC3    H113999   3.107   2.930  13.604 -1.7982  1.1942  0.9234
    9TMC3    H214000   2.876   2.627  13.433 -0.4991  1.0522  0.9339
    9TMC3    C714001   3.040   2.675  13.638 -1.0762 -0.4975  0.3588
    9TMC3    C814002   3.056   2.591  13.242  0.0623  0.0688 -0.0190
    9TMC3    O114003   3.104   2.724  13.729  0.2402 -0.1919 -0.7646
    9TMC3    O214004   3.018   2.501  13.318  0.1528 -0.1612 -0.4658
   10MPD2     C14005   3.299   2.276  12.909 -0.4939 -0.3138 -0.2991
   10MPD2    C114006   3.236   2.254  13.035  0.4915 -0.2170  0.5691
   10MPD2    C214007   3.181   2.360  13.108 -0.5417  0.1113 -0.4895
   10MPD2    C314008   3.185   2.486  13.055  0.3961 -0.1582 -0.0832
   10MPD2    C414009   3.242   2.504  12.933  0.0159 -0.9509 -0.1840
   10MPD2    C514010   3.298   2.402  12.859  0.3374 -0.5425 -0.4094
   10MPD2     H14011   3.141   2.343  13.208  0.5513 -0.0134 -0.0796
   10MPD2    H114012   3.241   2.605  12.891  0.3322 -1.3406 -1.1256
   10MPD2    H214013   3.353   2.195  12.862 -2.0924 -1.8681  0.5214
   10MPD2    H314014   3.331   2.421  12.757  0.2282 -0.0381 -0.3542
   10MPD2     N14015   3.134   2.596  13.133 -0.2082  0.0871  0.0551
   10MPD2    H514016   3.151   2.688  13.094 -0.7332 -0.0859 -0.5741
   10MPD2    N114017   3.243   2.128  13.107  0.1782 -0.1976 -0.4839
   10MPD2    H714018   3.196   2.123  13.197  1.5195 -2.7403  0.0835
   11MPD2     C14019   4.437   0.613  13.479  0.2464 -0.4412 -0.3062
   11MPD2    C114020   4.468   0.698  13.578  0.5545 -0.3915 -0.3426
   11MPD2    C214021   4.442   0.828  13.552  0.8627  0.3029 -0.3101
   11MPD2    C314022   4.377   0.874  13.436 -0.0728 -0.3061  0.3825
   11MPD2    C414023   4.334   0.783  13.340  0.6302  0.2461  0.0239
   11MPD2    C514024   4.381   0.655  13.357 -0.3923 -0.2748  0.6134
   11MPD2     H14025   4.472   0.898  13.629  0.1219  1.0558 -0.6994
   11MPD2    H114026   4.288   0.813  13.246  0.9681  1.7323  0.3196
   11MPD2    H214027   4.468   0.512  13.500 -1.5216 -0.7668  0.7329
   11MPD2    H314028   4.359   0.585  13.277  0.1279 -1.4824  1.5111
   11MPD2     N14029   4.361   1.009  13.396  0.1578 -0.3393 -0.4036
   11MPD2    H514030   4.313   1.026  13.308  1.5782  0.4673 -1.0073
   11MPD2    N114031   4.508   0.669  13.710  0.2506 -0.7092  0.2738
   11MPD2    H714032   4.488   0.735  13.784 -0.3779 -1.1929  0.5338
    1MPD1     C14033   2.066   2.672  16.781  0.5450 -0.2617  0.9031
    1MPD1    C114034   2.128   2.637  16.899 -0.0491 -0.1301  0.3527
    1MPD1    C214035   2.266   2.644  16.908 -0.5384 -0.3084 -0.7888
    1MPD1    C314036   2.343   2.670  16.798 -0.0227 -0.7995  0.2542
    1MPD1    C414037   2.281   2.702  16.681  0.1539 -0.2850  0.2372
    1MPD1    C514038   2.145   2.706  16.672 -0.1209 -0.1660 -0.8883
    1MPD1     H14039   2.298   2.622  17.010 -1.1117  1.3386 -0.2499
    1MPD1    H114040   2.329   2.737  16.591 -0.9870  0.4212 -0.0955
    1MPD1    H214041   1.960   2.661  16.760  0.8082  0.8241 -1.0063
    1MPD1    H314042   2.097   2.725  16.576  0.5367  2.0199 -0.7877
    1MPD1     N14043   2.483   2.661  16.800 -0.3939  0.7800 -0.1201
    1MPD1    H514044   2.534   2.654  16.713 -0.3566  1.7264 -0.1786
    1MPD1    N114045   2.049   2.612  17.009 -1.2435  0.0837 -0.2549
    1MPD1    H614046   2.093   2.534  17.058 -0.4412  1.7293  1.6532
    1MPD1    H714047   1.954   2.585  16.985 -0.5513 -1.8500 -0.8349
    2MPD1     C14048   3.490   2.436  17.204  0.3799 -0.5457 -0.2507
    2MPD1    C114049   3.498   2.481  17.075  0.0151  0.5486 -0.0502
    2MPD1    C214050   3.380   2.486  17.002 -0.4646  0.0869  0.1353
    2MPD1    C314051   3.258   2.478  17.067 -0.5444 -0.0553  0.2863
    2MPD1    C414052   3.251   2.451  17.199  0.0406 -0.0432  0.2901
    2MPD1    C514053   3.368   2.423  17.265  0.4598 -0.1303 -0.2298
    2MPD1     H14054   3.387   2.508  16.896  0.1044 -0.6531  0.0195
    2MPD1    H114055   3.157   2.445  17.254 -0.9740 -0.3032 -1.4821
    2MPD1    H214056   3.580   2.433  17.264 -0.2593  1.6303  0.7956
    2MPD1    H314057   3.377   2.399  17.370  0.9674  3.4749  0.5664
    2MPD1     N14058   3.143   2.494  16.987 -0.3088 -0.3189  0.2146
    2MPD1    H514059   3.174   2.496  16.891  0.4568  1.7547  0.5000
    2MPD1    N114060   3.626   2.497  17.016 -0.6338  0.3319 -0.5964
    2MPD1    H614061   3.611   2.567  16.943  0.0194  0.4321 -0.6364
    2MPD1    H714062   3.698   2.529  17.081 -0.5728 -1.3687  0.1412
    3TMC3    C114063   2.916   2.536  16.918 -0.3936 -0.1532 -0.5076
    3TMC3    C214064   2.961   2.574  16.788 -0.6229  0.3586 -0.2692
    3TMC3    C314065   2.872   2.633  16.702  0.2549  0.7362  0.5517
    3TMC3    C414066   2.790   2.570  16.957 -0.3314  0.0030 -0.6288
    3TMC3    C514067   2.705   2.621  16.864  0.0428 -0.4764 -0.5670
    3TMC3    C614068   2.739   2.660  16.735  0.2827 -0.0083  0.2741
    3TMC3     C14069   3.005   2.509  17.022 -0.7043 -0.1963  0.3043
    3TMC3     O14070   2.955   2.496  17.135 -0.5121  0.2462 -0.4674
    3TMC3     H14071   3.058   2.541  16.753 -1.1403  0.3265 -1.6583
    3TMC3    H114072   2.754   2.539  17.054  3.0881  0.4748  0.7885
    3TMC3    H214073   2.675   2.700  16.657  0.7600 -1.6347 -0.9542
    3TMC3    C714074   2.567   2.641  16.907  0.4147  0.0944  0.0607
    3TMC3    C814075   2.895   2.643  16.555  0.2318  0.3442 -0.3292
    3TMC3    O114076   2.544   2.634  17.029 -0.1708 -0.3242 -0.1334
    3TMC3    O214077   2.796   2.646  16.479  0.2686  0.1319 -0.0771
    4MPD1     C14078   3.178   2.708  16.152  0.6973 -0.2521  0.2438
    4MPD1    C114079   3.049   2.735  16.168  0.4778  0.3641  0.6967
    4MPD1    C214080   3.002   2.716  16.289  0.6187 -0.1694  0.3358
    4MPD1    C314081   3.076   2.652  16.389  0.6674  0.0375 -0.5410
    4MPD1    C414082   3.215   2.637  16.379 -0.4024 -0.3851 -0.2528
    4MPD1    C514083   3.258   2.657  16.253  0.3505 -0.1015 -0.0191
    4MPD1     H14084   2.903   2.751  16.313  2.0844  1.5454  3.8940
    4MPD1    H114085   3.288   2.598  16.449 -1.7693 -0.4088  1.1523
    4MPD1    H214086   3.226   2.733  16.059  0.9028  0.9426  0.6721
    4MPD1    H314087   3.357   2.631  16.218  0.2021 -1.0146  0.2454
    4MPD1     N14088   3.028   2.633  16.517  0.0683 -0.2353 -0.4272
    4MPD1    H514089   3.087   2.621  16.599 -1.2160 -1.2818  0.3394
    4MPD1    N114090   2.980   2.806  16.069 -0.2333  0.0879 -0.1281
    4MPD1    H614091   2.879   2.797  16.058 -0.1850  0.7736 -1.1133
    4MPD1    H714092   3.014   2.779  15.977 -1.5041  0.0859 -0.6075
    1TCq1    O114093   3.938   2.274  11.449  0.2233 -0.3418  0.4373
    1TCq1    C114094   4.059   2.319  11.478  0.0705 -1.3692 -0.1007
    1TCq1    O214095   4.154   2.322  11.401  0.2997 -0.1410 -1.2065
    1TCq1    C214096   4.068   2.311  11.626  0.5156 -1.0063  0.0484
    1TCq1    C314097   3.952   2.329  11.699  1.0000  0.3190  0.4778
    1TCq1    C414098   3.971   2.328  11.835  0.7976 -0.3730 -0.2141
    1TCq1    C514099   4.063   2.237  11.883 -0.0520  0.4253 -0.2143
    1TCq1    C614100   4.170   2.203  11.805 -0.4282  0.0281  0.0428
    1TCq1    C714101   4.186   2.257  11.680 -0.4899  0.4285 -0.2834
    1TCq1    C814102   4.292   2.185  11.881 -0.1720  0.7457 -0.2082
    1TCq1    O414103   4.290   2.205  12.003 -0.1923 -0.0380 -0.2393
    1TCq1    C914104   3.863   2.377  11.924 -0.1710 -0.1679 -0.0739
    1TCq1    O514105   3.847   2.302  12.030 -0.1343 -0.1057  0.0160
    1TCq1    O614106   3.789   2.460  11.876  0.5230  0.3851  0.3556
    1TCq1    H114107   3.894   2.221  11.520 -1.3741  0.7521  0.2627
    1TCq1    H214108   3.871   2.390  11.659  1.3608  0.0020 -0.7179
    1TCq1    H314109   4.065   2.215  11.990 -2.7273  1.2282  0.0087
    1TCq1    H414110   4.275   2.258  11.619 -0.3860  0.9526 -0.1292
    2MPD1     C14111   0.049   2.054  11.924 -0.3409 -0.0898 -0.0666
    2MPD1    C114112   0.014   2.034  11.797  0.0363  0.2943  0.4580
    2MPD1    C214113   4.616   2.051  11.758 -0.5648 -0.7392 -0.8178
    2MPD1    C314114   4.529   2.112  11.851  0.7506  0.4308 -0.0089
    2MPD1    C414115   4.568   2.127  11.983  0.3153  0.4713 -0.2231
    2MPD1    C514116   4.696   2.093  12.013  0.5434 -0.1334 -1.3882
    2MPD1     H14117   4.581   2.050  11.655  1.2686 -0.8660 -1.4340
    2MPD1    H114118   4.514   2.174  12.065 -2.7189 -0.0891 -1.9014
    2MPD1    H214119   0.143   2.027  11.969  0.3821 -1.0834 -2.1716
    2MPD1    H314120   4.732   2.106  12.114 -1.9123 -0.1357 -0.5272
    2MPD1     N14121   4.397   2.142  11.803  0.1797  0.6158 -0.5119
    2MPD1    H514122   4.371   2.105  11.712 -0.8613  0.8460 -0.3089
    2MPD1    N114123   0.118   2.030  11.698 -0.0523 -0.4007 -0.0367
    2MPD1    H614124   0.203   1.977  11.719 -1.6746 -3.2690 -0.6185
    2MPD1    H714125   0.081   1.994  11.610 -2.0090 -0.5554  0.8487
    1TMC1    C114126   2.963   2.220   1.041  0.3693  0.2131  0.4930
    1TMC1    C214127   2.865   2.131   0.997  0.1276  0.8936 -0.5983
    1TMC1    C314128   2.847   2.019   1.070 -0.4089  0.1783 -0.2696
    1TMC1    C414129   3.039   2.198   1.155  0.0676  0.0713  0.0502
    1TMC1    C514130   3.015   2.079   1.218  0.4113 -0.2313 -0.1003
    1TMC1    C614131   2.923   1.988   1.179  0.1286  0.4910 -0.4096
    1TMC1     C14132   3.013   2.325   0.945  0.2533 -0.3363 -0.4002
    1TMC1     O14133   3.126   2.370   0.974 -0.1750  0.2136 -0.4279
    1TMC1     H14134   2.820   2.129   0.898 -2.8188  0.8702  0.7416
    1TMC1    H114135   3.106   2.270   1.198 -0.5966 -0.5042  2.0292
    1TMC1    H214136   2.903   1.898   1.237 -2.3527 -0.3177 -2.5222
    1TMC1    C714137   3.139   2.030   1.277 -0.2754  0.2122 -0.2175
    1TMC1    C814138   2.749   1.921   1.021  0.5157  0.0120  0.3306
    1TMC1    O114139   3.153   1.914   1.296 -0.3945 -0.1599 -0.5447
    1TMC1    O214140   2.728   1.900   0.902  0.0931  0.1046 -0.0582
    1TMC1    O314141   3.192   2.130   1.356 -0.1781  0.3058  0.8259
    1TMC1    H314142   3.142   2.215   1.353 -1.3206 -0.4260 -1.0328
    1TMC1    O514143   2.676   1.884   1.124 -0.1594 -0.2991  0.1920
    1TMC1    H514144   2.671   1.960   1.185 -1.2142  0.2383 -0.5661
    2MPD1     C14145   3.009   2.636   0.542 -0.1024  0.8190  0.5593
    2MPD1    C114146   2.880   2.621   0.579 -0.1774 -0.1955 -0.1980
    2MPD1    C214147   2.854   2.527   0.682  1.2405 -0.0181 -0.3565
    2MPD1    C314148   2.955   2.453   0.743  0.0819 -0.8921  0.1310
    2MPD1    C414149   3.086   2.475   0.707  0.5610 -0.2053 -0.8779
    2MPD1    C514150   3.109   2.564   0.609 -0.5174 -0.6031 -0.2838
    2MPD1     H14151   2.755   2.510   0.724  0.8936 -0.1744 -1.2490
    2MPD1    H114152   3.166   2.418   0.753  0.4249  1.2584  1.1433
    2MPD1    H214153   3.038   2.707   0.466 -1.0595  1.1834  0.5369
    2MPD1    H314154   3.212   2.579   0.578  0.2003  0.4778  2.5858
    2MPD1     N14155   2.921   2.366   0.847  1.0649 -0.3121 -0.8649
    2MPD1    H514156   2.828   2.327   0.858  1.0403  0.4420  1.6480
    2MPD1    N114157   2.782   2.708   0.527 -0.0983 -0.1241  0.3866
    2MPD1    H614158   2.794   2.754   0.437  3.7708 -0.8459  0.5613
    2MPD1    H714159   2.685   2.677   0.530 -0.2166 -0.1364 -3.0251
    1MPD1     C14160   0.425   1.961  11.442 -0.0407  1.0034  1.2279
    1MPD1    C114161   0.321   2.015  11.378  0.3720  0.2706 -0.4362
    1MPD1    C214162   0.326   2.150  11.365 -0.8019  0.4544  0.9894
    1MPD1    C314163   0.416   2.226  11.432 -0.3781 -0.5059  0.5553
    1MPD1    C414164   0.511   2.172  11.508  0.2604  1.3142 -0.7604
    1MPD1    C514165   0.513   2.038  11.516  0.1066  0.3150 -0.5745
    1MPD1     H14166   0.252   2.207  11.310  1.1687  0.3194 -1.7762
    1MPD1    H114167   0.602   2.217  11.549  1.3399 -3.2679  1.8471
    1MPD1    H214168   0.437   1.856  11.468  2.9483  0.6618 -1.5853
    1MPD1    H314169   0.585   1.987  11.579 -0.5216 -0.4531 -0.4791
    1MPD1     N14170   0.396   2.366  11.423 -0.1650 -0.1315  0.5683
    1MPD1    H514171   0.320   2.388  11.359  0.8912  0.5030 -0.4702
    1MPD1    N114172   0.238   1.935  11.294  0.1455  0.1913 -0.0979
    1MPD1    H614173   0.149   1.986  11.291  0.5466  0.9175  0.2036
    1MPD1    H714174   0.213   1.841  11.325  0.0105  0.8460  1.8162
    2MPD1     C14175   4.533   2.974  10.856 -0.5047  0.0110  0.3482
    2MPD1    C114176   4.664   2.990  10.887 -0.8978  0.0597  0.4268
    2MPD1    C214177   0.013   2.886  10.851  0.1695 -0.2306  0.7724
    2MPD1    C314178   4.696   2.761  10.808  0.5692 -0.1537  0.0012
    2MPD1    C414179   4.558   2.752  10.783 -0.4520  0.0367 -0.2134
    2MPD1    C514180   4.479   2.860  10.806  0.4447  0.4137 -0.2612
    2MPD1     H14181   0.119   2.904  10.865 -0.0757  0.0851  2.1947
    2MPD1    H114182   4.510   2.663  10.746  0.0484 -0.1401 -0.4412
    2MPD1    H214183   4.462   3.052  10.877  0.1783  0.8449 -0.4568
    2MPD1    H314184   4.376   2.852  10.775 -0.4978 -0.9264  3.1549
    2MPD1     N14185   0.033   2.639  10.786  0.0716 -0.8501  0.1473
    2MPD1    H514186   4.721   2.552  10.762 -2.7449  1.0295 -1.1094
    2MPD1    N114187   4.711   3.117  10.917  0.6460 -0.0521  0.0584
    2MPD1    H614188   4.653   3.173  10.979 -1.3309 -2.1633  0.1236
    2MPD1    H714189   0.055   3.097  10.976 -0.8855  0.1344  2.1925
    3MPD1     C14190   0.019   2.085  10.109 -0.4238  0.6368  0.2561
    3MPD1    C114191   4.700   2.212  10.143  0.7327 -0.4479 -0.6119
    3MPD1    C214192   0.022   2.286  10.241 -0.5654 -0.3077  0.7229
    3MPD1    C314193   0.137   2.240  10.303  0.3017  0.2682 -0.5523
    3MPD1    C414194   0.193   2.115  10.269 -0.2551  0.1534 -0.4987
    3MPD1    C514195   0.137   2.039  10.170 -0.0902 -0.0982 -0.1651
    3MPD1     H14196   4.717   2.379  10.280  0.9231  0.8999 -0.6115
    3MPD1    H114197   0.283   2.078  10.317  0.4801 -0.3314 -2.2624
    3MPD1    H214198   4.712   2.020  10.034  0.0061  2.5942 -1.6722
    3MPD1    H314199   0.184   1.947  10.137  1.3402  0.5299  0.1371
    3MPD1     N14200   0.185   2.304  10.422 -0.4573  0.3420  0.1322
    3MPD1    H514201   0.143   2.394  10.443  0.5186  1.1850 -1.4977
    3MPD1    N114202   4.585   2.251  10.071  0.2734 -0.3758  0.1757
    3MPD1    H614203   4.580   2.230   9.971  0.3340  1.3595 -0.1991
    3MPD1    H714204   4.553   2.345  10.091 -1.9043 -1.0490 -0.1669
    4MPD2     C14205   0.676   2.794  10.852 -0.1488  0.4893 -1.1395
    4MPD2    C114206   0.742   2.834  10.968 -0.5329 -0.1334 -1.0374
    4MPD2    C214207   0.852   2.913  10.956 -0.1583  0.4719 -0.0733
    4MPD2    C314208   0.898   2.960  10.832 -0.1396 -0.1343  0.3410
    4MPD2    C414209   0.819   2.933  10.722  0.5807 -0.3907  0.6475
    4MPD2    C514210   0.717   2.843  10.733  0.6835 -0.3049  0.0218
    4MPD2     H14211   0.899   2.952  11.046 -0.9454 -1.1025  1.0237
    4MPD2    H114212   0.851   2.955  10.620  2.5738 -3.8530  0.5162
    4MPD2    H214213   0.595   2.723  10.859  0.8241 -0.4402  0.6882
    4MPD2    H314214   0.675   2.807  10.640 -4.1251 -0.3407  2.1862
    4MPD2     N14215   1.016   3.035  10.809  0.5454 -0.2009 -0.2289
    4MPD2    H514216   1.013   3.086  10.721  1.6337 -2.6599 -1.7122
    4MPD2    N114217   0.693   2.812  11.100 -0.1017  0.8081 -0.7079
    4MPD2    H714218   0.738   2.866  11.174 -3.3070  0.3522  1.5864
    5TMC3    C114219   0.521   2.745  11.264 -0.1590 -0.3194  0.0490
    5TMC3    C214220   0.457   2.628  11.299  0.1866 -0.0209 -0.5392
    5TMC3    C314221   0.451   2.602  11.437  0.2832  0.2043  0.0220
    5TMC3    C414222   0.567   2.838  11.351 -1.0290  0.2170  0.5328
    5TMC3    C514223   0.575   2.799  11.481  0.1307  0.4825  0.2870
    5TMC3    C614224   0.507   2.689  11.527  0.4101  0.0663 -0.7934
    5TMC3     C14225   0.577   2.742  11.133  0.9111 -0.4200 -0.2162
    5TMC3     O14226   0.504   2.686  11.052 -0.0971  0.0484 -1.2386
    5TMC3     H14227   0.429   2.554  11.225  3.0567 -2.9482  1.2846
    5TMC3    H114228   0.617   2.927  11.314 -0.0804 -1.1596 -1.5564
    5TMC3    H214229   0.506   2.665  11.632  0.7864  1.3353 -0.5007
    5TMC3    C714230   0.708   2.809  11.523 -0.2849  0.2886  0.0933
    5TMC3    C814231   0.473   2.466  11.475 -1.1340 -0.3237  0.3380
    5TMC3    O114232   0.768   2.912  11.510 -0.4619 -0.3225 -0.6073
    5TMC3    O214233   0.577   2.459  11.537  0.2041  0.5347  0.3563
    6TMC3    C114234   0.225   2.497  10.774 -0.0078 -0.4095  0.6762
    6TMC3    C214235   0.210   2.440  10.651  0.3510 -0.7395 -0.4968
    6TMC3    C314236   0.319   2.373  10.595  0.5630  1.0037 -0.2779
    6TMC3    C414237   0.350   2.493  10.835  0.2959 -0.0384  0.0265
    6TMC3    C514238   0.450   2.424  10.774 -0.3149  0.6305  0.6039
    6TMC3    C614239   0.435   2.359  10.659 -0.1737 -0.5879  0.0878
    6TMC3     C14240   0.171   2.627  10.795 -0.4909  0.4987 -0.4283
    6TMC3     O14241   0.248   2.718  10.826  0.0782 -0.2386 -0.4313
    6TMC3     H14242   0.107   2.427  10.620  0.3918  1.1182 -1.4214
    6TMC3    H114243   0.359   2.544  10.930  1.8901  1.4380 -0.9351
    6TMC3    H214244   0.522   2.324  10.603  0.6017  2.0783 -0.3402
    6TMC3    C714245   0.579   2.431  10.827  0.0745  0.1275 -0.5459
    6TMC3    C814246   0.301   2.279  10.486 -0.1094 -0.2462  0.7140
    6TMC3    O114247   0.670   2.431  10.746 -0.7513 -0.0357 -0.5523
    6TMC3    O214248   0.388   2.193  10.466  0.1790  0.0462 -0.2019
    7MPD2     C14249   1.132   2.511  11.510  0.0724 -0.2662 -0.0667
    7MPD2    C114250   1.107   2.632  11.445 -0.4850  0.2461  0.3839
    7MPD2    C214251   0.978   2.686  11.463  0.5777  0.0347 -0.0503
    7MPD2    C314252   0.882   2.628  11.541 -0.6595 -0.4415  0.2613
    7MPD2    C414253   0.903   2.509  11.595  0.1748  0.1308 -0.5349
    7MPD2    C514254   1.028   2.457  11.589  0.3478 -0.3976 -0.4452
    7MPD2     H14255   0.950   2.782  11.419 -0.8982  0.4958  1.8688
    7MPD2    H114256   0.838   2.454  11.663  2.7389 -1.2708  0.7644
    7MPD2    H214257   1.224   2.458  11.486 -0.4724 -1.1061 -0.3034
    7MPD2    H314258   1.046   2.364  11.642 -0.3080 -0.1188  0.2715
    7MPD2     N14259   0.748   2.680  11.553 -0.0576  0.4310  0.2474
    7MPD2    H514260   0.678   2.609  11.572  0.6404 -0.3039  0.0748
    7MPD2    N114261   1.197   2.673  11.341 -0.1821 -0.0850 -0.2068
    7MPD2    H714262   1.279   2.619  11.318  0.5881  1.8590 -1.9943
    8TMC3    C114263   1.236   2.803  11.145 -0.1254 -0.0911 -0.1415
    8TMC3    C214264   1.231   2.681  11.085 -0.9592  0.2335  0.2331
    8TMC3    C314265   1.186   2.672  10.957 -0.5435  0.5077 -0.0891
    8TMC3    C414266   1.201   2.919  11.075 -0.0690 -0.1281 -0.4195
    8TMC3    C514267   1.157   2.907  10.944  0.4846 -0.5028  0.0166
    8TMC3    C614268   1.156   2.784  10.879  0.3329  0.3522 -0.8462
    8TMC3     C14269   1.182   2.798  11.280  1.2121  0.8882  0.5029
    8TMC3     O14270   1.139   2.897  11.326 -0.2642  0.4977  0.0479
    8TMC3     H14271   1.273   2.592  11.131  0.8304  1.1694  0.4040
    8TMC3    H114272   1.200   3.008  11.137  0.8233  0.0688 -0.6964
    8TMC3    H214273   1.120   2.773  10.777  0.7140 -0.2845 -0.9110
    8TMC3    C714274   1.124   3.036  10.889 -0.1153  0.1976 -0.8438
    8TMC3    C814275   1.086   2.565  10.943 -0.2158 -0.2093  0.3377
    8TMC3    O114276   1.217   3.113  10.865  0.1808 -0.3656  0.1366
    8TMC3    O214277   1.019   2.568  10.843  0.5232  0.2161  0.5514
    9MPD2     C14278   0.908   2.427  11.237  0.1107 -0.7796  0.0960
    9MPD2    C114279   0.922   2.466  11.104 -0.8078 -0.4646  0.3702
    9MPD2    C214280   0.816   2.460  11.013  0.4110  0.0969 -0.5022
    9MPD2    C314281   0.693   2.422  11.053  0.1130 -0.2487  0.0898
    9MPD2    C414282   0.671   2.406  11.189 -0.2584  0.8922  0.2449
    9MPD2    C514283   0.777   2.391  11.275  0.0282 -0.0756  0.3815
    9MPD2     H14284   0.815   2.507  10.915  3.5917 -1.5637 -1.3487
    9MPD2    H114285   0.570   2.378  11.217 -0.1823  1.9119  1.5255
    9MPD2    H214286   0.988   2.424  11.311 -0.6119 -0.0782  0.8960
    9MPD2    H314287   0.760   2.362  11.378  0.0387  0.9028  0.6582
    9MPD2     N14288   0.580   2.409  10.960 -0.0379  0.0619  0.3813
    9MPD2    H514289   0.492   2.383  11.004 -0.7458  1.9565  0.0904
    9MPD2    N114290   1.049   2.517  11.064 -0.5978  0.6406  0.4188
    9MPD2    H714291   1.106   2.547  11.143  2.7664 -0.9786 -1.4057
    1MPD1     C14292   4.539   0.659  16.845  0.1702  0.5673 -0.2613
    1MPD1    C114293   4.521   0.713  16.724 -0.8406  0.4217 -0.3473
    1MPD1    C214294   4.511   0.622  16.619 -0.2328 -0.7968  0.3488
    1MPD1    C314295   4.513   0.488  16.642 -0.2123  0.2872  0.0552
    1MPD1    C414296   4.541   0.439  16.770 -0.3756  0.0204 -0.7471
    1MPD1    C514297   4.555   0.527  16.870 -0.3737 -0.1711 -0.1429
    1MPD1     H14298   4.494   0.665  16.521 -1.4253 -0.2403  0.8043
    1MPD1    H114299   4.548   0.331  16.782 -1.6135  0.1106  0.8784
    1MPD1    H214300   4.541   0.727  16.930 -1.3616 -1.7588  1.6241
    1MPD1    H314301   4.565   0.493  16.972  3.3934  0.9888 -0.1513
    1MPD1     N14302   4.495   0.391  16.544 -0.0034 -0.4446 -0.4621
    1MPD1    H514303   4.499   0.291  16.562 -2.1490 -0.2861  0.8677
    1MPD1    N114304   4.500   0.849  16.709  0.3069  0.0050 -0.8767
    1MPD1    H614305   4.517   0.887  16.616  1.1209 -1.2187 -1.2264
    1MPD1    H714306   4.543   0.900  16.786 -1.3345 -1.5804  1.0654
    2TMC2    C114307   4.468   0.182  16.137  0.4861  0.2752  0.7993
    2TMC2    C214308   4.423   0.063  16.203  0.5206  0.3137  0.1483
    2TMC2    C314309   4.364   0.080  16.321  0.2767  0.6051 -0.3258
    2TMC2    C414310   4.480   0.301  16.203  0.2417  0.3466 -0.2523
    2TMC2    C514311   4.443   0.302  16.330  0.5015 -0.6657  0.3492
    2TMC2    C614312   4.375   0.202  16.383  0.1802 -0.4988  0.3147
    2TMC2     C14313   4.523   0.186  15.997 -0.4588  0.2128 -0.5615
    2TMC2     O14314   4.592   0.285  15.974  0.4555 -0.5699 -0.5972
    2TMC2     H14315   4.430   4.699  16.162  2.0448  0.0786  0.9638
    2TMC2    H114316   4.525   0.388  16.156 -1.0155 -0.1272 -2.3339
    2TMC2    H214317   4.345   0.210  16.487 -1.3126 -1.0471 -0.0650
    2TMC2    C714318   4.463   0.419  16.408 -0.3659 -0.4723 -0.0903
    2TMC2    C814319   4.331   4.693  16.398 -0.2746  0.0219  0.3782
    2TMC2    O114320   4.477   0.522  16.349 -0.4363 -0.6138 -0.2671
    2TMC2    O214321   4.353   4.677  16.516  0.0176  0.1639  0.2835
    2TMC2    O514322   4.238   4.632  16.329 -0.2290  0.0109 -0.2860
    2TMC2    H514323   4.191   4.688  16.263 -0.8266 -0.1099  0.0391
    3MPD1     C14324   4.653   4.728  15.546 -0.0922 -0.8510 -0.0586
    3MPD1    C114325   4.558   4.647  15.599 -0.2249  0.4248  0.3288
    3MPD1    C214326   4.520   4.671  15.729 -0.9038 -0.2064 -0.1994
    3MPD1    C314327   4.559   0.052  15.794 -0.1433 -0.3584 -0.0689
    3MPD1    C414328   4.654   0.133  15.744  1.1423 -0.2448 -0.3498
    3MPD1    C514329   4.694   0.102  15.619 -0.2129 -0.0463 -0.5638
    3MPD1     H14330   4.453   4.600  15.776  0.4355 -2.1326 -1.1939
    3MPD1    H114331   4.683   0.228  15.787 -0.3661 -0.6460  1.5496
    3MPD1    H214332   4.681   4.714  15.443 -1.3285 -1.6076 -0.2976
    3MPD1    H314333   0.014   0.175  15.563  1.2080 -0.1992  0.6402
    3MPD1     N14334   4.499   0.068  15.923  0.2500  0.0703 -0.4476
    3MPD1    H514335   4.447   4.726  15.962  0.2444  1.0535  1.5622
    3MPD1    N114336   4.522   4.526  15.536  0.1372  0.3115  0.5517
    3MPD1    H614337   4.428   4.499  15.566  0.1569 -0.8810 -0.4688
    3MPD1    H714338   4.518   4.548  15.437  2.4324 -0.0934  0.3791
    1TMC1    C114339   2.757   0.579  12.930  0.0522 -0.4113  0.7225
    1TMC1    C214340   2.754   0.526  13.055 -0.0169 -0.9705 -0.2252
    1TMC1    C314341   2.657   0.579  13.144 -0.0747  0.0373  0.0950
    1TMC1    C414342   2.669   0.666  12.880  0.3180  0.6735 -0.0192
    1TMC1    C514343   2.572   0.702  12.969  0.1951 -0.3770 -0.6110
    1TMC1    C614344   2.570   0.675  13.103  0.3440 -0.3246  0.1473
    1TMC1     C14345   2.872   0.576  12.847 -0.5678 -0.1200 -0.4080
    1TMC1     O14346   2.852   0.607  12.728  0.4341  0.1804 -0.3614
    1TMC1     H14347   2.809   0.435  13.078  0.0762 -1.2073 -1.3693
    1TMC1    H114348   2.670   0.705  12.779  1.1149 -0.2663 -0.3763
    1TMC1    H214349   2.493   0.708  13.172  0.5735  2.5486 -1.0021
    1TMC1    C714350   2.447   0.760  12.915  0.8696 -0.0248  0.3760
    1TMC1    C814351   2.620   0.523  13.265 -0.5559  0.0403  0.0956
    1TMC1    O114352   2.386   0.850  12.970  0.1510 -0.0186 -0.1433
    1TMC1    O214353   2.509   0.527  13.317  0.2083 -0.3078  0.2581
    1TMC1    O314354   2.403   0.680  12.815  0.0942  0.4045  0.4598
    1TMC1    H314355   2.454   0.597  12.826 -0.3694  0.1535  0.6894
    1TMC1    O514356   2.731   0.526  13.340 -0.1806  0.3629 -0.5027
    1TMC1    H514357   2.808   0.548  13.284  1.5821  0.8715  2.1410
    2MPD2     C14358   3.131   0.598  12.737 -0.3243  0.0401  0.1225
    2MPD2    C114359   3.108   0.576  12.879 -0.6074 -0.4298  0.5388
    2MPD2    C214360   3.207   0.587  12.976 -0.7668 -0.3755  0.6545
    2MPD2    C314361   3.334   0.620  12.944 -0.2271  0.2491  0.7982
    2MPD2    C414362   3.360   0.623  12.804 -0.0243 -0.7051 -0.3241
    2MPD2    C514363   3.267   0.603  12.714 -0.3435 -0.7625  0.1842
    2MPD2     H14364   3.183   0.599  13.081 -0.0978 -0.6138  0.8343
    2MPD2    H114365   3.462   0.635  12.770  0.0664 -1.7203 -0.4232
    2MPD2    H214366   3.063   0.617  12.654 -0.8286  1.3943  0.8355
    2MPD2    H314367   3.296   0.614  12.611 -5.1007  0.8341 -0.9942
    2MPD2     N14368   3.418   0.641  13.054 -0.0059 -0.3837  0.0784
    2MPD2    H514369   3.389   0.615  13.148 -2.3282  2.6564  0.1901
    2MPD2    N114370   2.977   0.563  12.927 -0.5223 -0.3377  0.3603
    2MPD2    H714371   2.965   0.565  13.028  0.3496  0.5149  0.4450
    3TCq1    O114372   3.994   0.880  13.231 -0.1094 -0.0141  0.4004
    3TCq1    C114373   3.949   0.765  13.303 -0.2860 -0.1233  0.9069
    3TCq1    O214374   4.014   0.717  13.394  0.3328  0.6666  0.4345
    3TCq1    C214375   3.803   0.764  13.302  0.1340  0.7002 -0.4743
    3TCq1    C314376   3.752   0.728  13.424 -0.1236  0.6232  0.0054
    3TCq1    C414377   3.625   0.674  13.422  0.3582 -0.3903 -0.1252
    3TCq1    C514378   3.562   0.665  13.295  0.1605  0.0707  0.5075
    3TCq1    C614379   3.621   0.696  13.175 -0.4036 -0.4923 -0.0311
    3TCq1    C714380   3.741   0.756  13.177  0.1640 -0.1058 -0.6995
    3TCq1    C814381   3.550   0.684  13.046  0.2204 -0.5407 -0.3276
    3TCq1    O414382   3.599   0.745  12.951 -0.6227 -0.9715 -0.7077
    3TCq1    C914383   3.570   0.633  13.549 -0.3225 -0.3605  0.3626
    3TCq1    O514384   3.631   0.691  13.647 -0.0904 -0.5364 -0.4383
    3TCq1    O614385   3.460   0.571  13.547 -0.6548 -0.1337  0.1719
    3TCq1    H114386   3.920   0.912  13.175  0.3841 -0.3070 -0.4174
    3TCq1    H214387   3.816   0.742  13.510 -1.0152  2.2828  0.4146
    3TCq1    H314388   3.464   0.620  13.300  1.1296 -2.1894 -0.8945
    3TCq1    H414389   3.802   0.771  13.088 -1.4380 -1.3207 -1.9892
    1MPD2     C14390   3.571   1.758  14.759  0.1091 -0.1036 -0.2293
    1MPD2    C114391   3.468   1.658  14.759 -0.2418  0.1565  1.0215
    1MPD2    C214392   3.464   1.571  14.866  0.3325  0.0342  0.1182
    1MPD2    C314393   3.561   1.566  14.961 -0.6686 -0.0102  0.6240
    1MPD2    C414394   3.658   1.663  14.960 -0.5063  0.0815 -1.2100
    1MPD2    C514395   3.663   1.756  14.858 -0.0527  0.4532  0.1675
    1MPD2     H14396   3.387   1.494  14.874  1.0911 -0.7403  0.0222
    1MPD2    H114397   3.729   1.671  15.042 -1.4576 -0.9775 -0.2799
    1MPD2    H214398   3.582   1.839  14.689  0.3431 -1.1481 -1.3982
    1MPD2    H314399   3.734   1.838  14.864  0.6204  0.0118 -2.0922
    1MPD2     N14400   3.533   1.484  15.072 -0.3743  0.5734 -0.5917
    1MPD2    H514401   3.441   1.442  15.070  0.1074 -0.5051 -0.4327
    1MPD2    N114402   3.374   1.664  14.654  0.3034  1.0243 -0.3753
    1MPD2    H714403   3.383   1.737  14.584  2.8325  1.2769  0.2428
    2TMC3    C114404   3.167   1.614  14.546  0.0374  0.4707 -0.3063
    2TMC3    C214405   3.062   1.517  14.535 -0.2955 -1.3489 -0.5095
    2TMC3    C314406   2.925   1.560  14.539  0.1703 -0.0902 -0.2009
    2TMC3    C414407   3.130   1.747  14.552 -0.4218 -0.0875  0.3790
    2TMC3    C514408   2.997   1.784  14.551  0.1046  0.5211  0.2978
    2TMC3    C614409   2.888   1.695  14.541  0.7967  0.1441 -0.7941
    2TMC3     C14410   3.264   1.581  14.646  0.1057  0.6284  0.0197
    2TMC3     O14411   3.226   1.479  14.702  0.1626 -0.0344  0.0281
    2TMC3     H14412   3.087   1.412  14.523 -2.3425 -1.8080 -0.8815
    2TMC3    H114413   3.205   1.825  14.557  2.1891 -2.5044 -0.9892
    2TMC3    H214414   2.784   1.724  14.549 -0.6386 -4.7699 -1.2446
    2TMC3    C714415   2.955   1.924  14.533  0.0426 -0.0271 -0.0563
    2TMC3    C814416   2.866   1.495  14.655  0.0525 -0.1654  0.5780
    2TMC3    O114417   2.851   1.931  14.474  0.7895 -0.3371 -0.0531
    2TMC3    O214418   2.757   1.543  14.691  0.0056  0.0746 -0.0509
    3TCq1    O114419   3.395   2.779  15.118  0.0919  0.2866 -0.0288
    3TCq1    C114420   3.365   2.867  15.020  0.5212 -0.7446  0.1099
    3TCq1    O214421   3.275   2.945  15.036 -0.0680 -0.1673  0.0785
    3TCq1    C214422   3.395   2.798  14.900  0.0811 -0.2962 -0.4094
    3TCq1    C314423   3.512   2.730  14.898  0.1171  0.3855 -0.3386
    3TCq1    C414424   3.525   2.618  14.831  1.1112 -0.0568 -0.3592
    3TCq1    C514425   3.410   2.566  14.770  0.7441  0.1129 -0.6978
    3TCq1    C614426   3.298   2.640  14.766 -0.8127  0.3068  1.0859
    3TCq1    C714427   3.289   2.754  14.830  0.0700  0.7097 -0.2765
    3TCq1    C814428   3.184   2.591  14.698 -1.0244 -0.0920  0.0594
    3TCq1    O414429   3.083   2.658  14.682  0.4482  0.2340 -0.2208
    3TCq1    C914430   3.645   2.542  14.834 -0.0735  0.0010 -0.0983
    3TCq1    O514431   3.752   2.599  14.882 -0.3844 -0.0801 -0.2923
    3TCq1    O614432   3.644   2.449  14.753  0.0139  0.6669 -0.7242
    3TCq1    H114433   3.429   2.691  15.092 -0.8632 -0.4091  1.1143
    3TCq1    H214434   3.598   2.754  14.960  0.4062  0.2651 -0.6952
    3TCq1    H314435   3.434   2.476  14.714 -2.1959 -1.8100  1.1111
    3TCq1    H414436   3.191   2.800  14.844 -0.0034  0.6244 -0.5095
    4MPD2     C14437   3.001   2.433  14.540  0.7631  0.8602 -0.0361
    4MPD2    C114438   3.098   2.377  14.617  0.0466  0.9880 -0.4104
    4MPD2    C214439   3.118   2.242  14.619 -0.8295 -0.2772 -0.5333
    4MPD2    C314440   3.023   2.159  14.554  0.4456  0.0330  0.4594
    4MPD2    C414441   2.914   2.220  14.491 -0.3152  0.5242 -0.0166
    4MPD2    C514442   2.916   2.353  14.477 -0.5094 -0.0579  0.1793
    4MPD2     H14443   3.208   2.203  14.665 -0.1347 -1.0206 -2.5286
    4MPD2    H114444   2.848   2.155  14.434 -0.5649 -0.2835  1.2068
    4MPD2    H214445   3.008   2.536  14.508 -3.2243  0.4541 -2.1953
    4MPD2    H314446   2.847   2.403  14.410 -0.9483 -0.3123  0.4389
    4MPD2     N14447   3.047   2.017  14.571  0.5186 -0.2997 -0.3197
    4MPD2    H514448   3.125   1.984  14.628  0.6615 -1.4334 -1.1607
    4MPD2    N114449   3.193   2.463  14.682  0.1433  0.7037 -0.2388
    4MPD2    H714450   3.272   2.421  14.730  0.1518 -2.4519 -2.9828
    5TMC2    C114451   3.302   1.337  15.292 -0.5063  0.3081  0.2157
    5TMC2    C214452   3.267   1.408  15.401  0.3993 -0.4692 -0.2025
    5TMC2    C314453   3.364   1.484  15.454 -0.3621 -0.4703 -0.1734
    5TMC2    C414454   3.430   1.336  15.240  0.7184 -0.6776  0.0048
    5TMC2    C514455   3.523   1.420  15.289 -0.1981  0.9435  0.5099
    5TMC2    C614456   3.489   1.497  15.392  0.4382  0.2825  0.2869
    5TMC2     C14457   3.219   1.362  15.175  0.5605 -0.2334  0.5988
    5TMC2     O14458   3.278   1.398  15.079 -0.1079  0.1715 -0.2877
    5TMC2     H14459   3.161   1.421  15.419  0.1831 -3.8710  0.9511
    5TMC2    H114460   3.455   1.277  15.153 -1.1380 -0.4900 -0.6409
    5TMC2    H214461   3.552   1.582  15.415  2.1306 -0.9093  0.1132
    5TMC2    C714462   3.594   1.496  15.191 -0.0100  0.2629 -0.1391
    5TMC2    C814463   3.330   1.539  15.586  0.7095 -0.2356 -0.2077
    5TMC2    O114464   3.684   1.570  15.226 -0.4231 -0.3995 -0.7548
    5TMC2    O214465   3.219   1.533  15.639 -0.0937  0.2308 -0.1701
    5TMC2    O514466   3.447   1.508  15.654  0.1829 -0.1268 -0.1822
    5TMC2    H514467   3.519   1.487  15.591  0.4571 -0.2483  0.1741
    6MPD2     C14468   2.790   1.345  14.898  1.3316  0.1988  0.3048
    6MPD2    C114469   2.915   1.382  14.863  0.2551  0.2817 -0.1983
    6MPD2    C214470   3.009   1.372  14.966  0.1266  0.7347 -0.0708
    6MPD2    C314471   2.984   1.340  15.095  0.1290  0.6597  0.4387
    6MPD2    C414472   2.850   1.295  15.124  0.2439  0.5863  0.1130
    6MPD2    C514473   2.759   1.306  15.025  0.4490  0.1396 -0.5646
    6MPD2     H14474   3.112   1.386  14.934 -0.0996  2.1550 -0.1445
    6MPD2    H114475   2.812   1.272  15.223 -0.7929  1.0409 -0.1801
    6MPD2    H214476   2.712   1.355  14.824 -0.2750  2.2584  2.2715
    6MPD2    H314477   2.655   1.278  15.039  0.1995  1.6248  0.4634
    6MPD2     N14478   3.082   1.338  15.193 -0.0228  0.5882  0.1804
    6MPD2    H514479   3.055   1.314  15.288 -0.1283  1.2090  0.3098
    6MPD2    N114480   2.950   1.425  14.735 -0.3540 -0.5715 -0.6495
    6MPD2    H714481   3.050   1.439  14.723 -0.1692 -2.0303 -0.8037
  945NH3     N114482   0.915   1.673  14.532 -0.7808 -0.3284 -0.4057
  945NH3     H214483   0.876   1.678  14.626  0.4648  0.5165  0.0607
  945NH3     H314484   0.853   1.604  14.491 -0.3104 -1.9319  1.5643
  945NH3     H414485   0.887   1.763  14.495 -2.7122 -0.4717  0.6974
  946SOD     NA14486   3.887   3.436  16.541  0.2197  0.9060  0.6789
  947SOD     NA14487   4.404   2.161  12.461 -0.5406 -0.3671 -0.0262
  948SOD     NA14488   1.046   0.912  12.566 -0.0117  0.1019  0.5373
  949SOD     NA14489   3.203   0.682   9.388 -0.3529  0.3281 -0.3606
  950SOD     NA14490   0.677   4.436   9.788  0.1025 -0.2135 -0.2543
  951SOD     NA14491   4.296   1.811   3.460  0.0512 -0.1834 -0.2072
  952SOD     NA14492   1.898   2.685  14.161 -0.1144 -0.1629 -0.0861
  953SOD     NA14493   3.311   1.597  16.780  0.0178  0.4968  0.0893
  954SOL     OW14494   3.628   4.201   7.467 -0.2628 -0.2731  0.7347
  954SOL    HW114495   3.580   4.218   7.548 -2.1006 -0.4558 -0.3226
  954SOL    HW214496   3.620   4.107   7.453  2.9417 -0.4820  0.1896
  955SOL     OW14497   3.455   1.721   2.929  0.5772 -0.8738  0.0744
  955SOL    HW114498   3.388   1.685   2.987  1.7596 -1.1671  1.2541
  955SOL    HW214499   3.489   1.790   2.987 -2.1266  0.1095  0.4965
  956SOL     OW14500   2.236   3.364   8.564  0.2562  0.2189 -0.0307
  956SOL    HW114501   2.147   3.359   8.527 -0.2897 -0.4786  1.3873
  956SOL    HW214502   2.289   3.428   8.517  0.6795 -0.4505 -0.4666
  957SOL     OW14503   0.359   4.188  10.528 -0.6206  0.0096  0.3084
  957SOL    HW114504   0.349   4.112  10.471  1.8306  0.3389 -0.5942
  957SOL    HW214505   0.455   4.180  10.528 -0.6296 -0.0444  0.9861
  958SOL     OW14506   2.302   0.368   2.834 -0.2807  0.2658  0.0827
  958SOL    HW114507   2.304   0.458   2.866  1.2311  0.0862  0.5021
  958SOL    HW214508   2.208   0.350   2.827 -0.0652 -1.3506  1.3441
  959SOL     OW14509   2.786   4.656   5.069 -0.3057  0.1029 -0.3330
  959SOL    HW114510   2.719   4.680   5.133  0.9937 -3.3784  2.3113
  959SOL    HW214511   2.852   4.618   5.127 -2.0276 -2.2745  0.0833
  960SOL     OW14512   3.446   1.959   8.523  0.0383  0.3784 -0.1326
  960SOL    HW114513   3.410   1.948   8.611 -1.9667 -0.8272 -1.1194
  960SOL    HW214514   3.387   1.905   8.471 -0.2759 -0.1511  0.7839
  961SOL     OW14515   3.472   4.509  12.837 -0.2053 -0.5868 -0.1133
  961SOL    HW114516   3.460   4.525  12.744  1.1317  1.2249  0.0310
  961SOL    HW214517   3.558   4.468  12.831 -0.0160 -0.1515 -0.3656
  962SOL     OW14518   0.615   0.625  16.634 -0.1114 -0.2438  0.7581
  962SOL    HW114519   0.656   0.580  16.560  1.3112  0.2653  1.2378
  962SOL    HW214520   0.574   0.695  16.584 -1.7053 -1.9584 -0.3303
  963SOL     OW14521   4.052   1.438   6.234 -0.0074  0.4686 -0.2207
  963SOL    HW114522   4.140   1.411   6.259 -0.6971 -2.0319 -0.5395
  963SOL    HW214523   4.049   1.429   6.139 -1.3890 -0.7761 -0.0668
  964SOL     OW14524   4.513   4.209   9.433  0.2705  0.4343 -0.0613
  964SOL    HW114525   4.501   4.236   9.342 -0.1553 -0.9330 -0.4188
  964SOL    HW214526   4.590   4.265   9.445  1.5368 -0.9582 -1.6940
  965SOL     OW14527   4.335   3.979   7.933  0.1910 -0.1470 -0.0496
  965SOL    HW114528   4.349   4.019   8.019 -1.5696  0.8859 -0.2477
  965SOL    HW214529   4.257   4.022   7.898  0.4748  1.3062  1.1200
  966SOL     OW14530   3.005   0.172   5.962  0.1520  0.1432 -0.0993
  966SOL    HW114531   3.044   0.230   5.897  2.6791 -1.1237  0.2745
  966SOL    HW214532   3.065   0.180   6.036  0.9012  3.5888 -1.0891
  967SOL     OW14533   4.656   0.269   3.037  0.2341  0.3353 -0.3415
  967SOL    HW114534   4.594   0.301   2.972 -3.4555  1.9073  3.8713
  967SOL    HW214535   4.597   0.218   3.093  0.3559  2.4960  1.7718
  968SOL     OW14536   3.712   3.748   4.154  0.2613 -0.2701 -0.2207
  968SOL    HW114537   3.621   3.719   4.163 -0.9979  3.4725 -0.8188
  968SOL    HW214538   3.698   3.842   4.152  0.7702 -0.2256 -1.3605
  969SOL     OW14539   2.807   0.141  10.663 -0.1084 -0.1365 -0.1723
  969SOL    HW114540   2.882   0.182  10.620  0.4583  1.8567  2.7249
  969SOL    HW214541   2.850   0.131  10.747 -0.6471 -0.8538  0.0165
  970SOL     OW14542   2.097   1.472   2.325  0.9100 -0.0821  0.1913
  970SOL    HW114543   2.186   1.463   2.357  0.0259 -0.3166  2.6211
  970SOL    HW214544   2.099   1.555   2.278 -0.8538 -0.0783  0.1108
  971SOL     OW14545   0.873   2.489  15.790 -0.7048 -0.6379 -0.3317
  971SOL    HW114546   0.818   2.509  15.714  1.8305  0.2132 -1.9591
  971SOL    HW214547   0.935   2.425  15.755 -0.0492  0.8193 -1.8707
  972SOL     OW14548   3.596   2.924   8.726 -0.7076 -0.0531  0.5675
  972SOL    HW114549   3.641   2.853   8.772 -2.0843  0.3773  2.5560
  972SOL    HW214550   3.506   2.919   8.759 -1.1692 -1.8245 -0.9772
  973SOL     OW14551   1.492   1.758   8.764 -0.1719 -0.3728 -0.5921
  973SOL    HW114552   1.514   1.683   8.709  1.4580 -2.0419  2.3904
  973SOL    HW214553   1.471   1.710   8.844  1.6689 -0.6693 -0.2903
  974SOL     OW14554   3.443   0.539   6.162  0.0986 -0.3897 -0.2495
  974SOL    HW114555   3.511   0.528   6.094  0.6393 -1.5853  0.4771
  974SOL    HW214556   3.376   0.584   6.111  0.5101 -1.5342 -1.7988
  975SOL     OW14557   2.321   4.509   9.585 -0.4836 -0.1045  0.3293
  975SOL    HW114558   2.315   4.485   9.492 -0.8745 -1.7817  0.7848
  975SOL    HW214559   2.243   4.471   9.626 -0.7034 -1.8670 -1.6890
  976SOL     OW14560   4.103   3.699   5.583  0.3662 -0.1452  0.0514
  976SOL    HW114561   4.009   3.688   5.600  0.7353 -1.1604  1.4702
  976SOL    HW214562   4.122   3.791   5.602  2.5578 -0.2657 -1.6100
  977SOL     OW14563   0.739   0.635  10.665  0.7614 -0.1270 -0.5085
  977SOL    HW114564   0.705   0.562  10.715  2.2145 -1.3421 -1.2817
  977SOL    HW214565   0.775   0.694  10.731 -0.0626 -1.9714  1.5622
  978SOL     OW14566   4.265   4.322   7.225 -0.2270  0.2906 -0.3003
  978SOL    HW114567   4.236   4.325   7.317  1.1537 -0.8853  0.1765
  978SOL    HW214568   4.225   4.402   7.192  4.6039  2.4783 -0.9021
  979SOL     OW14569   2.648   3.678   6.122  0.6705  0.1296  0.4044
  979SOL    HW114570   2.555   3.697   6.108  0.2408 -0.4229  2.5124
  979SOL    HW214571   2.673   3.633   6.041  1.3518  0.8517  0.2128
  980SOL     OW14572   3.326   2.066   2.088  0.2061  0.5414  0.5075
  980SOL    HW114573   3.234   2.090   2.089  0.1440  0.3590 -0.7482
  980SOL    HW214574   3.322   1.975   2.119 -1.8496 -0.0021 -1.3495
  981SOL     OW14575   1.423   4.562  17.329  0.5120  0.0884  0.2826
  981SOL    HW114576   1.328   4.561  17.331  0.5173 -1.4020 -0.0903
  981SOL    HW214577   1.431   4.613  17.249 -0.6831  1.3581  0.9716
  982SOL     OW14578   0.355   4.390   9.168  0.2515 -0.1198  0.1696
  982SOL    HW114579   0.393   4.434   9.244  2.9540 -0.3143 -1.0712
  982SOL    HW214580   0.395   4.447   9.102  0.5768  0.6134  1.0053
  983SOL     OW14581   0.863   1.576  16.386  0.1239  0.4980 -0.2045
  983SOL    HW114582   0.957   1.578  16.406 -0.2518  1.5476  1.4806
  983SOL    HW214583   0.826   1.533  16.463  0.9368 -1.1288 -0.7114
  984SOL     OW14584   2.515   0.525   6.622 -0.0000  0.0589  0.3167
  984SOL    HW114585   2.425   0.555   6.638 -0.1407 -0.8505  1.2742
  984SOL    HW214586   2.533   0.493   6.711  1.6139  0.6484  0.1899
  985SOL     OW14587   2.540   0.457   8.925  0.2178 -0.3993  0.4453
  985SOL    HW114588   2.516   0.489   9.012  1.4892  0.6064  0.4219
  985SOL    HW214589   2.511   0.366   8.927  0.4728 -0.4355  2.5659
  986SOL     OW14590   2.275   1.797   9.080  0.3204  0.4077  0.0010
  986SOL    HW114591   2.296   1.746   9.001  2.9620  2.2543 -0.4634
  986SOL    HW214592   2.315   1.740   9.145 -2.1733  0.8186  1.8982
  987SOL     OW14593   4.526   4.691  10.012 -0.6387 -0.0071  0.2263
  987SOL    HW114594   4.454   4.645  10.054 -0.5294 -0.4755 -0.0910
  987SOL    HW214595   4.498   4.703   9.921 -0.7340 -0.5130  0.1906
  988SOL     OW14596   2.063   2.074  12.005 -0.3553 -0.0211  0.5046
  988SOL    HW114597   1.968   2.077  12.017 -0.0251  0.1879  2.8709
  988SOL    HW214598   2.098   2.118  12.082 -2.4088  3.2796 -0.4542
  989SOL     OW14599   0.732   3.834  17.352 -0.2772  0.0460 -0.0138
  989SOL    HW114600   0.682   3.885  17.415 -0.1798  0.2206 -0.0794
  989SOL    HW214601   0.822   3.849  17.382  0.1764 -2.7578  0.0257
  990SOL     OW14602   0.159   2.936  13.698  0.6255  0.3481 -0.3442
  990SOL    HW114603   0.137   2.966  13.787 -0.1921 -0.6524 -0.2172
  990SOL    HW214604   0.230   2.877  13.722 -0.8005 -0.1750  2.5383
  991SOL     OW14605   3.384   4.700   7.870 -0.1161  0.4216  0.5965
  991SOL    HW114606   3.446   4.640   7.830 -1.1290  0.3860 -0.9525
  991SOL    HW214607   3.297   4.665   7.848  0.0327  0.2513  0.2867
  992SOL     OW14608   0.920   0.717   6.635 -0.4226  0.3326  0.3218
  992SOL    HW114609   0.936   0.775   6.710 -0.8912 -0.1309  0.7769
  992SOL    HW214610   0.915   0.781   6.564 -0.0067  2.2133  1.9896
  993SOL     OW14611   3.902   1.951   0.217 -0.8251  0.2310 -0.1367
  993SOL    HW114612   3.883   2.045   0.213 -1.1998  0.2272  1.3536
  993SOL    HW214613   3.974   1.931   0.157 -0.2915 -0.4843  0.7311
  994SOL     OW14614   2.043   3.037   1.296  0.2013 -0.0960  0.3959
  994SOL    HW114615   2.088   2.987   1.228 -0.6458  0.8262 -0.8449
  994SOL    HW214616   1.973   2.973   1.309 -1.1324  1.1065 -0.8444
  995SOL     OW14617   2.920   0.176   7.920 -0.2812 -0.4467 -0.0356
  995SOL    HW114618   2.877   0.182   7.835  0.3809 -0.4148 -0.3709
  995SOL    HW214619   2.869   0.107   7.962 -0.6306 -0.8190 -1.0639
  996SOL     OW14620   3.664   2.545   4.847 -0.9748 -0.2015 -0.0807
  996SOL    HW114621   3.614   2.567   4.926  0.0083 -1.7129  0.9526
  996SOL    HW214622   3.617   2.576   4.770  0.0558  1.7138  0.0529
  997SOL     OW14623   1.714   1.478  16.631 -0.1373 -0.0426 -0.5259
  997SOL    HW114624   1.659   1.510  16.560 -1.2151 -0.6550  0.0387
  997SOL    HW214625   1.685   1.388  16.640 -0.9977  0.1370 -1.5963
  998SOL     OW14626   3.145   0.294   5.393  0.4873 -0.2640 -0.0423
  998SOL    HW114627   3.090   0.228   5.434  1.3803  0.3492  2.1510
  998SOL    HW214628   3.070   0.342   5.359  1.0803 -1.2070 -2.6531
  999SOL     OW14629   3.274   1.949   5.540  0.4540 -1.1243  0.4523
  999SOL    HW114630   3.230   1.870   5.509  0.0985 -0.7130 -0.0863
  999SOL    HW214631   3.208   2.018   5.541  1.8565  0.2216  0.7207
 1000SOL     OW14632   1.788   0.591   5.775 -0.0438 -0.3506  0.8034
 1000SOL    HW114633   1.730   0.638   5.715  1.8794  1.3987  0.2863
 1000SOL    HW214634   1.782   0.657   5.845  1.8394 -0.4182  1.0381
 1001SOL     OW14635   4.458   1.975   5.981  0.2876  0.4539 -0.8159
 1001SOL    HW114636   4.468   1.884   5.955 -5.1227 -0.5754  0.7687
 1001SOL    HW214637   4.415   2.009   5.902  0.8345  0.3068 -1.1834
 1002SOL     OW14638   1.052   0.577  17.363 -0.0807 -0.5286  0.1593
 1002SOL    HW114639   1.044   0.672  17.355 -1.6883 -0.6769  0.1217
 1002SOL    HW214640   0.992   0.565  17.437 -3.1704  0.9105 -2.1480
 1003SOL     OW14641   3.751   0.482  11.175 -0.3681 -0.1307  0.2992
 1003SOL    HW114642   3.749   0.407  11.234 -2.3249  0.6229  1.2023
 1003SOL    HW214643   3.813   0.537  11.222 -1.2083  3.2347 -2.5838
 1004SOL     OW14644   4.459   3.996  11.459 -0.2336  0.0015  0.3357
 1004SOL    HW114645   4.477   4.056  11.387  1.6143 -3.2508 -1.9231
 1004SOL    HW214646   4.538   4.023  11.508 -1.4753  2.0556  1.1809
 1005SOL     OW14647   0.383   0.476   2.683 -0.0582  0.3706 -0.3936
 1005SOL    HW114648   0.443   0.486   2.757  0.6551 -1.7506 -0.6939
 1005SOL    HW214649   0.305   0.426   2.708 -0.6200  1.2935 -0.2898
 1006SOL     OW14650   1.259   2.195   2.746 -1.2194 -0.0962 -0.5270
 1006SOL    HW114651   1.338   2.161   2.787 -2.8107 -4.0061 -0.7017
 1006SOL    HW214652   1.219   2.117   2.706 -0.5257 -0.0455 -1.3377
 1007SOL     OW14653   1.663   1.301   3.850 -0.7641  0.7477  0.3144
 1007SOL    HW114654   1.637   1.244   3.922 -0.6826  0.4189  0.0807
 1007SOL    HW214655   1.635   1.388   3.880 -0.2892  1.0393 -0.0899
 1008SOL     OW14656   1.149   4.608  10.461  0.0717 -0.1114  0.5344
 1008SOL    HW114657   1.121   4.524  10.423 -0.2643  1.5338 -2.8700
 1008SOL    HW214658   1.184   4.656  10.386  0.1207  2.1340  2.0162
 1009SOL     OW14659   3.127   3.408  11.517 -0.5532  0.2260  0.1911
 1009SOL    HW114660   3.176   3.490  11.502 -1.0957  0.6775  0.8629
 1009SOL    HW214661   3.097   3.439  11.603  1.3476 -0.3774  1.0634
 1010SOL     OW14662   0.985   3.828   7.005 -0.3082  0.6689 -0.3493
 1010SOL    HW114663   0.947   3.914   7.021 -1.5672  0.1550 -0.5410
 1010SOL    HW214664   1.046   3.814   7.077  0.4764  0.6092 -1.0314
 1011SOL     OW14665   0.389   0.730   9.030  0.3058 -0.0897  0.1964
 1011SOL    HW114666   0.342   0.707   9.109  3.3387  1.3805  2.4516
 1011SOL    HW214667   0.461   0.786   9.062  0.1996 -0.8479  1.7493
 1012SOL     OW14668   2.312   4.645   7.602 -0.3772 -0.4428 -0.2682
 1012SOL    HW114669   2.312   4.556   7.637  0.6507 -0.8000 -1.1675
 1012SOL    HW214670   2.223   4.651   7.568 -0.5696  1.6052  0.5957
 1013SOL     OW14671   1.267   3.420   3.345  0.1661 -0.1570  0.0917
 1013SOL    HW114672   1.209   3.373   3.285  0.1321 -2.6623  2.1058
 1013SOL    HW214673   1.344   3.420   3.287  0.2704  0.2581  0.2289
 1014SOL     OW14674   4.659   3.187   4.725  0.1339  0.5059 -0.4111
 1014SOL    HW114675   4.607   3.253   4.680 -1.5283 -0.7655 -0.3518
 1014SOL    HW214676   4.720   3.236   4.781  0.1548 -0.4509  0.3956
 1015SOL     OW14677   3.335   4.191  15.886  0.2952 -0.0998 -0.1439
 1015SOL    HW114678   3.422   4.202  15.925 -1.3592  0.9324  3.2102
 1015SOL    HW214679   3.354   4.109  15.841  0.8352 -0.0502 -0.0076
 1016SOL     OW14680   4.321   4.493   4.297 -0.0647 -0.1268 -0.6163
 1016SOL    HW114681   4.385   4.447   4.351 -0.2476  1.2235  0.7588
 1016SOL    HW214682   4.262   4.524   4.366 -0.0725  0.2970 -0.8173
 1017SOL     OW14683   3.243   3.613   8.486  0.0442 -0.3573  0.2004
 1017SOL    HW114684   3.250   3.522   8.458  1.3260  0.7262 -2.9294
 1017SOL    HW214685   3.269   3.659   8.407  0.6532 -0.0905  0.5499
 1018SOL     OW14686   2.460   0.326   8.272  0.4882  0.6420  0.0768
 1018SOL    HW114687   2.382   0.363   8.231  0.7365 -0.2801 -1.2444
 1018SOL    HW214688   2.509   0.289   8.198  1.4376 -0.9806  1.5182
 1019SOL     OW14689   3.804   2.810   3.359  0.1466 -0.6519  0.4519
 1019SOL    HW114690   3.865   2.884   3.361 -0.8545  0.1555  2.2749
 1019SOL    HW214691   3.762   2.818   3.274 -0.4183 -0.0369  0.7822
 1020SOL     OW14692   1.027   1.743  16.998 -0.0203 -0.5032 -0.0626
 1020SOL    HW114693   1.008   1.788  17.080  0.1782  1.8473 -1.2973
 1020SOL    HW214694   0.982   1.799  16.934 -3.1250 -2.3801  0.4624
 1021SOL     OW14695   3.280   1.291  14.442 -0.7880 -0.6126 -0.1790
 1021SOL    HW114696   3.354   1.250  14.397 -0.7593 -0.1691 -0.5364
 1021SOL    HW214697   3.212   1.263  14.381 -2.7079  0.3151  1.5371
 1022SOL     OW14698   3.046   2.699   2.740  0.6102 -0.0520  0.1164
 1022SOL    HW114699   3.038   2.788   2.772  0.8988 -0.6320  1.8128
 1022SOL    HW214700   3.112   2.706   2.672  0.5684 -2.6532 -0.2112
 1023SOL     OW14701   2.367   0.559   3.110 -0.0769  0.1289 -0.1391
 1023SOL    HW114702   2.340   0.629   3.051 -0.7850 -0.7976 -0.9150
 1023SOL    HW214703   2.298   0.555   3.176  0.9964 -0.5192  0.9596
 1024SOL     OW14704   0.384   2.475   3.272 -0.0332  0.5494  0.2629
 1024SOL    HW114705   0.445   2.453   3.202  0.9254  1.6959  0.7469
 1024SOL    HW214706   0.380   2.387   3.309 -3.4584  0.4118 -0.4665
 1025SOL     OW14707   4.482   0.857   2.923 -0.2186  0.4516  0.2272
 1025SOL    HW114708   4.487   0.792   2.852  0.1336  0.4769  0.2331
 1025SOL    HW214709   4.530   0.796   2.978 -0.7793 -1.8590 -1.8224
 1026SOL     OW14710   3.876   4.474  16.165  0.2134 -0.2502 -0.6837
 1026SOL    HW114711   3.786   4.476  16.134 -0.5617  0.5913  1.6150
 1026SOL    HW214712   3.928   4.446  16.090  0.7301  1.3472 -0.9318
 1027SOL     OW14713   3.778   0.279   7.167 -0.5630  0.4373 -0.9197
 1027SOL    HW114714   3.703   0.239   7.123  0.0872  1.1445 -2.6778
 1027SOL    HW214715   3.742   0.350   7.221 -0.2353 -1.3455  1.6279
 1028SOL     OW14716   1.423   2.089   3.195  0.4001  0.2617  0.4122
 1028SOL    HW114717   1.362   2.155   3.228  0.5558  0.3378  0.5467
 1028SOL    HW214718   1.496   2.089   3.256  0.8121  1.4002 -0.0894
 1029SOL     OW14719   1.138   1.911   4.340 -0.4180 -0.1341  0.2995
 1029SOL    HW114720   1.095   1.848   4.398  0.7500 -0.8986  0.3375
 1029SOL    HW214721   1.112   1.989   4.388 -0.6970 -0.5982  0.9104
 1030SOL     OW14722   0.406   4.403   2.469  0.8270  0.0850  0.0817
 1030SOL    HW114723   0.329   4.347   2.458 -0.3893  1.7724 -0.0190
 1030SOL    HW214724   0.462   4.352   2.528  1.7843  0.0374 -0.8654
 1031SOL     OW14725   3.326   1.074  15.522 -0.1390 -0.2994 -0.3324
 1031SOL    HW114726   3.343   1.073  15.616  0.8422 -1.1387 -0.5129
 1031SOL    HW214727   3.258   1.141  15.526  0.4368  0.2530  0.1787
 1032SOL     OW14728   3.088   0.759   1.406 -0.4901 -0.0476 -0.2282
 1032SOL    HW114729   3.154   0.732   1.470 -1.2211 -0.5207  0.3286
 1032SOL    HW214730   3.073   0.668   1.380 -2.6481  0.4362 -0.7045
 1033SOL     OW14731   2.474   2.840  10.110 -0.0763  0.1165 -0.5659
 1033SOL    HW114732   2.505   2.769  10.054  1.2316  0.0741  0.2153
 1033SOL    HW214733   2.398   2.866  10.058  1.2554  0.7769 -2.2205
 1034SOL     OW14734   1.673   0.721   6.834  0.4615  0.4419  0.5809
 1034SOL    HW114735   1.742   0.658   6.813 -1.5962 -1.3349 -0.8969
 1034SOL    HW214736   1.674   0.781   6.759 -1.0654 -0.7102 -0.3616
 1035SOL     OW14737   3.739   1.326  17.353  0.6967  0.0273 -0.1970
 1035SOL    HW114738   3.766   1.235  17.345 -1.2826 -0.3892 -1.9769
 1035SOL    HW214739   3.820   1.365  17.388  0.5236 -0.0715  0.3213
 1036SOL     OW14740   1.243   0.287   8.855 -0.6962 -0.2454  0.0471
 1036SOL    HW114741   1.262   0.234   8.932 -0.4659 -1.4293 -0.8205
 1036SOL    HW214742   1.155   0.320   8.872 -0.8157 -0.0372 -0.9440
 1037SOL     OW14743   2.489   1.829   8.676 -0.1806 -1.1607 -0.2726
 1037SOL    HW114744   2.509   1.813   8.584  1.2114 -0.8329 -0.0245
 1037SOL    HW214745   2.568   1.872   8.707 -0.6750 -0.1270 -0.4766
 1038SOL     OW14746   0.490   2.113  11.082 -0.3780 -0.2885 -0.7104
 1038SOL    HW114747   0.456   2.060  11.154 -2.4227  1.4316 -0.4202
 1038SOL    HW214748   0.578   2.076  11.077 -0.8287 -1.4679 -0.0536
 1039SOL     OW14749   1.709   3.611   0.912 -0.1101 -0.5803  0.3226
 1039SOL    HW114750   1.646   3.662   0.861  1.5128  0.1952 -0.8994
 1039SOL    HW214751   1.649   3.548   0.952 -2.7148  0.5140 -1.8490
 1040SOL     OW14752   2.745   0.205   7.666  0.1034 -0.6392  0.2109
 1040SOL    HW114753   2.726   0.297   7.686  1.7781 -0.6022  1.6058
 1040SOL    HW214754   2.658   0.186   7.701 -0.1100 -0.0889 -0.0152
 1041SOL     OW14755   4.597   1.320  13.724 -0.4518  0.2364 -0.3258
 1041SOL    HW114756   4.542   1.254  13.682 -0.8479 -0.6476  1.5781
 1041SOL    HW214757   4.525   1.376  13.752 -0.6631  0.3143 -1.0268
 1042SOL     OW14758   3.243   2.199   8.762 -0.1890 -0.3912  0.2307
 1042SOL    HW114759   3.324   2.250   8.760 -0.1938 -0.4323 -1.0361
 1042SOL    HW214760   3.189   2.262   8.809 -0.0141 -0.2115  0.1940
 1043SOL     OW14761   3.655   1.946   6.201  0.3604 -0.3270 -0.5329
 1043SOL    HW114762   3.653   1.942   6.106  0.9015  1.1443 -0.6063
 1043SOL    HW214763   3.748   1.962   6.216  0.7515 -0.8417 -2.4890
 1044SOL     OW14764   0.239   3.811   5.337 -0.4611  0.6162 -0.3652
 1044SOL    HW114765   0.295   3.871   5.287  0.2773 -1.3384 -1.8901
 1044SOL    HW214766   0.160   3.808   5.283 -0.9970 -1.7746  0.5991
 1045SOL     OW14767   0.962   0.972   9.135  0.5559  0.8200 -0.2519
 1045SOL    HW114768   0.981   0.968   9.229 -0.2127 -3.6087 -0.2836
 1045SOL    HW214769   1.036   1.027   9.111  1.6383 -0.8626 -0.7711
 1046SOL     OW14770   4.142   1.715  14.783  0.3204  0.1859  0.1383
 1046SOL    HW114771   4.083   1.736  14.856  1.0206 -1.3842  1.1452
 1046SOL    HW214772   4.079   1.682  14.719 -1.1683  0.1193  1.6362
 1047SOL     OW14773   1.328   3.675   4.760  0.7774  0.0144  0.5546
 1047SOL    HW114774   1.308   3.762   4.727  0.5030 -0.4797 -0.5971
 1047SOL    HW214775   1.267   3.676   4.834  1.2657  1.5884  0.9322
 1048SOL     OW14776   0.221   3.594  12.098  0.3244 -0.7083  0.7337
 1048SOL    HW114777   0.193   3.642  12.177  2.1352  2.3800 -0.4936
 1048SOL    HW214778   0.210   3.671  12.042 -0.7870 -1.8607 -0.6349
 1049SOL     OW14779   2.518   0.782  12.570  0.1817 -0.1197 -0.1430
 1049SOL    HW114780   2.438   0.784  12.623 -0.4278 -0.5942 -1.0597
 1049SOL    HW214781   2.545   0.690  12.562  2.1309  0.5367 -1.0691
 1050SOL     OW14782   2.349   4.533   9.328 -0.0509 -0.3333  0.2768
 1050SOL    HW114783   2.288   4.511   9.257  0.7026  0.4629 -0.6069
 1050SOL    HW214784   2.344   4.626   9.307 -0.3716 -0.5015 -0.4186
 1051SOL     OW14785   3.193   2.721   6.444 -0.2295 -0.4034 -0.3884
 1051SOL    HW114786   3.116   2.681   6.485 -0.0782  0.9092  1.1884
 1051SOL    HW214787   3.263   2.660   6.468 -0.7210 -1.2323 -1.0280
 1052SOL     OW14788   4.664   3.225   2.573 -0.3984  0.1627 -0.2984
 1052SOL    HW114789   0.016   3.186   2.577 -0.6778 -0.6255 -1.8754
 1052SOL    HW214790   4.677   3.309   2.616 -0.1472 -0.2886  0.5174
 1053SOL     OW14791   1.946   3.868   5.811  0.4213 -0.5751 -0.5091
 1053SOL    HW114792   1.996   3.911   5.880 -0.7252  1.9868 -1.2681
 1053SOL    HW214793   2.017   3.833   5.756 -2.4533 -2.9587 -2.6943
 1054SOL     OW14794   2.252   0.840   7.376 -0.2487 -0.0701  0.1176
 1054SOL    HW114795   2.184   0.894   7.416 -0.4568  0.2520 -0.6683
 1054SOL    HW214796   2.195   0.780   7.328 -0.3082  0.1997 -0.1519
 1055SOL     OW14797   3.545   0.678  17.077 -0.3627  0.2954  0.1143
 1055SOL    HW114798   3.452   0.693  17.061 -0.7137 -1.7004  0.2827
 1055SOL    HW214799   3.547   0.591  17.038 -1.8167  0.3920 -0.1880
 1056SOL     OW14800   3.768   4.553  12.593 -0.1607  0.0607  0.2130
 1056SOL    HW114801   3.772   4.502  12.674 -1.6137 -1.8187 -0.8938
 1056SOL    HW214802   3.679   4.524  12.572 -1.3440  2.3255  2.1000
 1057SOL     OW14803   3.241   1.192   5.928  0.3354 -0.5339 -0.2905
 1057SOL    HW114804   3.297   1.247   5.873  1.2575  0.6804  1.8365
 1057SOL    HW214805   3.249   1.105   5.890 -0.5633 -0.5826 -0.3673
 1058SOL     OW14806   0.113   3.552   6.726  0.3881  0.4880  0.4422
 1058SOL    HW114807   0.029   3.518   6.755  0.3081  1.0039  0.8260
 1058SOL    HW214808   0.156   3.575   6.809  0.4746  2.3665 -0.1180
 1059SOL     OW14809   2.477   1.608   6.078 -0.3917 -0.0682  0.2712
 1059SOL    HW114810   2.545   1.664   6.117  0.7639 -1.3568  0.1056
 1059SOL    HW214811   2.527   1.535   6.041  0.4495 -0.1220  1.5233
 1060SOL     OW14812   3.540   1.314   0.438 -0.2219 -0.2649  0.3758
 1060SOL    HW114813   3.458   1.268   0.422 -0.5406  0.8979 -1.3771
 1060SOL    HW214814   3.607   1.255   0.404 -0.5102  0.7894 -2.0603
 1061SOL     OW14815   2.173   1.987  11.784  0.0001  0.3732 -0.2467
 1061SOL    HW114816   2.089   1.943  11.776 -1.0670  2.1691  1.3574
 1061SOL    HW214817   2.157   2.019  11.873  1.3367 -0.4243  0.2919
 1062SOL     OW14818   2.856   3.181   1.104  0.5103 -0.2536 -0.4838
 1062SOL    HW114819   2.870   3.241   1.177 -0.6543 -0.4997 -0.0643
 1062SOL    HW214820   2.897   3.096   1.121  0.6467 -0.3662 -1.3366
 1063SOL     OW14821   2.723   1.486   7.924 -0.0652  0.2995 -0.6354
 1063SOL    HW114822   2.812   1.450   7.915 -0.1238 -0.4499  1.5786
 1063SOL    HW214823   2.728   1.566   7.872 -2.6228  1.0172  0.2369
 1064SOL     OW14824   3.648   3.900   7.062 -0.8823 -0.1780  0.3126
 1064SOL    HW114825   3.739   3.903   7.034 -0.5294 -0.0078  1.5016
 1064SOL    HW214826   3.657   3.836   7.132 -0.4372  1.6063  1.8777
 1065SOL     OW14827   4.601   3.208   2.140 -0.5149 -0.8638  0.0634
 1065SOL    HW114828   4.662   3.273   2.107  0.4678 -1.8288 -0.0357
 1065SOL    HW214829   4.661   3.161   2.198  2.5574  1.9435 -0.8676
 1066SOL     OW14830   1.466   0.202  13.979  0.2841 -0.4453  0.4277
 1066SOL    HW114831   1.380   0.229  14.011  0.5667  0.9159  0.0681
 1066SOL    HW214832   1.476   0.269  13.911  1.6317  0.3013  1.3534
 1067SOL     OW14833   1.296   1.949   2.378  0.6739 -0.1742 -0.2442
 1067SOL    HW114834   1.290   1.856   2.355 -0.9468  0.2761 -1.6344
 1067SOL    HW214835   1.276   1.934   2.470  1.8319 -1.3659 -0.1875
 1068SOL     OW14836   0.595   0.273   2.036 -0.2231  0.3112  0.2730
 1068SOL    HW114837   0.552   0.250   1.954 -1.8458 -2.8018  1.9665
 1068SOL    HW214838   0.550   0.224   2.105 -1.5652  0.2575 -0.6366
 1069SOL     OW14839   4.280   3.345   4.066 -0.0835  0.1891  0.4892
 1069SOL    HW114840   4.205   3.356   4.124 -0.2538  1.2728  0.0639
 1069SOL    HW214841   4.342   3.326   4.136 -0.9682 -0.1912  1.1734
 1070SOL     OW14842   2.586   4.363   1.662  0.0025 -0.4886 -0.0933
 1070SOL    HW114843   2.542   4.442   1.632 -0.3413 -0.7617 -0.3077
 1070SOL    HW214844   2.518   4.297   1.649  0.2301 -0.7281 -0.0735
 1071SOL     OW14845   4.022   1.802   4.672  0.3311 -0.6596  0.0309
 1071SOL    HW114846   4.100   1.767   4.628 -1.2539 -2.8741 -1.0563
 1071SOL    HW214847   4.012   1.880   4.617  0.3868  0.0186  0.9988
 1072SOL     OW14848   3.300   2.826   0.507 -0.7023  0.1937 -0.0530
 1072SOL    HW114849   3.315   2.749   0.453  0.6829  1.1304 -0.9997
 1072SOL    HW214850   3.254   2.885   0.447  0.7668  0.8747 -0.5166
 1073SOL     OW14851   1.181   0.717   5.203 -0.3750  0.5157 -0.6114
 1073SOL    HW114852   1.159   0.681   5.289  0.6366  0.0549 -0.5463
 1073SOL    HW214853   1.255   0.773   5.226  0.5978 -0.0652 -2.2983
 1074SOL     OW14854   4.165   4.323   4.618  0.0213  0.2107  0.9335
 1074SOL    HW114855   4.072   4.320   4.640  0.2205 -0.8260  1.6195
 1074SOL    HW214856   4.164   4.404   4.567 -0.1923  0.0661  0.7132
 1075SOL     OW14857   0.648   3.899  16.715 -0.0431  0.1286 -1.0672
 1075SOL    HW114858   0.726   3.862  16.756  0.6808  0.7006 -1.9261
 1075SOL    HW214859   0.586   3.869  16.781  1.2329 -0.5033 -0.1610
 1076SOL     OW14860   0.557   2.961  13.935  0.7225  0.1089 -0.4052
 1076SOL    HW114861   0.562   3.057  13.934  2.6252  0.0186  1.4797
 1076SOL    HW214862   0.473   2.948  13.980 -0.1322  1.9173 -1.4576
 1077SOL     OW14863   2.419   0.409   6.396  0.3150 -0.3332 -0.6923
 1077SOL    HW114864   2.453   0.446   6.477 -1.7350  1.3641 -0.6277
 1077SOL    HW214865   2.469   0.327   6.392  0.6118 -0.1041 -1.5892
 1078SOL     OW14866   2.239   1.157   3.143  0.3985  0.1045 -0.3625
 1078SOL    HW114867   2.214   1.203   3.063  0.3859  0.2519 -0.2751
 1078SOL    HW214868   2.252   1.072   3.102  3.2043 -0.6120  2.0186
 1079SOL     OW14869   3.357   3.954  10.874  0.7766 -0.5284 -0.1965
 1079SOL    HW114870   3.432   3.981  10.821 -0.3573  3.1340  0.0422
 1079SOL    HW214871   3.363   4.014  10.948 -1.0821 -0.0608 -0.4164
 1080SOL     OW14872   1.549   0.885   2.275 -0.0912  0.4606 -0.5290
 1080SOL    HW114873   1.497   0.965   2.274  2.0003  1.7977  1.8843
 1080SOL    HW214874   1.502   0.841   2.203  1.7412  0.9728 -2.0229
 1081SOL     OW14875   2.127   1.488   7.171  0.0714 -0.3377  0.4959
 1081SOL    HW114876   2.063   1.557   7.193 -1.4774 -2.0058  1.2436
 1081SOL    HW214877   2.152   1.516   7.083 -1.6863 -0.2428  0.0120
 1082SOL     OW14878   3.376   1.296   8.606 -0.8520 -0.2631 -0.2245
 1082SOL    HW114879   3.375   1.336   8.693  3.5429  0.8785 -0.6922
 1082SOL    HW214880   3.282   1.292   8.587 -1.0243 -2.2432  0.9756
 1083SOL     OW14881   0.084   4.061   6.770 -0.1302 -0.2524 -0.4309
 1083SOL    HW114882   0.037   4.108   6.839  1.0193  2.6108 -1.6051
 1083SOL    HW214883   0.170   4.103   6.765  0.3582 -1.1636  0.3420
 1084SOL     OW14884   4.474   1.064  14.825 -0.0952  0.0620  0.1000
 1084SOL    HW114885   4.421   1.008  14.882 -0.8222  0.6523 -0.0022
 1084SOL    HW214886   4.467   1.141  14.881  2.2184  0.8274 -0.6530
 1085SOL     OW14887   0.146   4.535  10.919 -0.0942 -0.3223  0.1442
 1085SOL    HW114888   0.201   4.611  10.940  2.2397 -2.0843  0.4263
 1085SOL    HW214889   0.171   4.471  10.986 -0.2057 -0.1446  0.3556
 1086SOL     OW14890   0.885   2.967   7.972 -0.0160  0.7130 -0.2127
 1086SOL    HW114891   0.956   2.932   8.026  0.2511  1.9003  0.2180
 1086SOL    HW214892   0.917   2.949   7.884  1.1367 -0.3497  0.4302
 1087SOL     OW14893   0.127   3.093  16.683 -0.0158  0.0749 -0.1416
 1087SOL    HW114894   0.179   3.142  16.747 -1.9705  0.8611  0.8370
 1087SOL    HW214895   0.117   3.007  16.724 -0.6605 -0.2754 -1.0449
 1088SOL     OW14896   3.519   3.495  15.681  0.2117 -0.2054  0.0772
 1088SOL    HW114897   3.485   3.506  15.592  1.5915 -0.2469 -0.4562
 1088SOL    HW214898   3.485   3.410  15.707  2.7616 -0.7950  1.5445
 1089SOL     OW14899   0.441   2.253   2.572  0.0070  0.6668 -0.4432
 1089SOL    HW114900   0.367   2.314   2.562 -0.8397 -0.3617 -0.4815
 1089SOL    HW214901   0.415   2.226   2.660  0.7984 -1.1769 -0.7925
 1090SOL     OW14902   2.070   3.303   9.551  0.0424 -0.4008  0.0850
 1090SOL    HW114903   2.028   3.265   9.474  0.8070 -0.3134 -0.3737
 1090SOL    HW214904   2.134   3.236   9.573  0.7349  0.0622 -0.5372
 1091SOL     OW14905   1.725   1.700   9.619  0.2384 -0.5779  0.1654
 1091SOL    HW114906   1.774   1.773   9.582 -0.8709 -0.5454 -1.2363
 1091SOL    HW214907   1.799   1.640   9.629 -0.3248 -1.1119  1.1654
 1092SOL     OW14908   0.103   2.736  12.478 -0.1964 -0.2025  0.2158
 1092SOL    HW114909   0.083   2.784  12.398 -0.1044  2.8749  2.0443
 1092SOL    HW214910   0.128   2.811  12.531 -1.9158 -1.3026  2.5751
 1093SOL     OW14911   0.542   1.393  16.483 -0.1484 -0.2131 -0.2144
 1093SOL    HW114912   0.526   1.487  16.482  2.3457  0.2706  2.9333
 1093SOL    HW214913   0.638   1.388  16.491  0.0975  2.2366 -1.8824
 1094SOL     OW14914   1.556   1.519   8.439  0.3026  0.5675  0.6660
 1094SOL    HW114915   1.510   1.435   8.436 -0.1455  0.8129  0.6611
 1094SOL    HW214916   1.563   1.519   8.535  0.7948 -0.2971  0.6301
 1095SOL     OW14917   4.147   1.154   4.104  0.1246  0.1652  0.4698
 1095SOL    HW114918   4.102   1.083   4.151  0.0655 -0.5841 -0.7234
 1095SOL    HW214919   4.195   1.093   4.048 -0.0811 -0.1472  0.6322
 1096SOL     OW14920   0.228   1.482   0.464 -0.0145  0.3369  0.6071
 1096SOL    HW114921   0.233   1.472   0.559  2.3572 -1.1168  0.3105
 1096SOL    HW214922   0.277   1.563   0.453  0.0560  0.2476  0.2716
 1097SOL     OW14923   2.657   1.008   8.982 -0.1204  0.1383  0.2240
 1097SOL    HW114924   2.737   1.029   8.933 -0.0750 -3.5138 -1.2582
 1097SOL    HW214925   2.672   0.917   9.009 -0.5077 -0.0084 -0.0626
 1098SOL     OW14926   2.156   0.278   1.896  0.2885  0.5812  0.4623
 1098SOL    HW114927   2.196   0.364   1.883  2.4578 -0.7669 -1.8678
 1098SOL    HW214928   2.142   0.264   1.990 -0.8256  0.2997  0.2571
 1099SOL     OW14929   3.519   4.520   5.615  0.2530  0.7337 -0.1111
 1099SOL    HW114930   3.590   4.547   5.673  1.8706 -0.3411 -1.5656
 1099SOL    HW214931   3.463   4.485   5.684  1.5186  0.2526  0.6714
 1100SOL     OW14932   3.802   2.060   6.514  0.3310  0.1265 -0.0624
 1100SOL    HW114933   3.886   2.105   6.514 -0.2678  1.2699  1.8590
 1100SOL    HW214934   3.743   2.120   6.560 -1.1125 -0.0545 -1.6696
 1101SOL     OW14935   0.802   1.927   6.517 -0.2611  0.1737  0.1605
 1101SOL    HW114936   0.888   1.909   6.480 -1.5401  1.6791 -3.5364
 1101SOL    HW214937   0.815   1.916   6.611 -0.4407  0.5173  0.2240
 1102SOL     OW14938   3.017   2.376   6.993 -0.5351  0.1201  0.4828
 1102SOL    HW114939   3.111   2.394   6.983 -0.4847 -0.5306 -0.2211
 1102SOL    HW214940   2.992   2.452   7.046 -0.3667 -0.2149  1.0518
 1103SOL     OW14941   3.098   3.250   5.376 -0.1618  0.4751  0.4320
 1103SOL    HW114942   3.049   3.311   5.430  0.7532  0.7327  0.9586
 1103SOL    HW214943   3.178   3.232   5.425 -1.4144 -0.4268  2.1213
 1104SOL     OW14944   4.479   1.866  15.608  0.5817 -0.0296 -0.1646
 1104SOL    HW114945   4.531   1.926  15.660 -0.3698 -0.3605  1.1581
 1104SOL    HW214946   4.446   1.805  15.674  1.5932  0.3458  0.6773
 1105SOL     OW14947   1.268   1.623  12.909 -0.1344  0.1806 -0.8186
 1105SOL    HW114948   1.257   1.639  12.815  0.6886 -0.0801 -0.9597
 1105SOL    HW214949   1.360   1.643  12.929  0.2726 -2.0784 -0.4321
 1106SOL     OW14950   3.641   3.876  11.403  0.1188  0.1110 -0.1150
 1106SOL    HW114951   3.649   3.871  11.308 -1.1149  3.9194 -0.4033
 1106SOL    HW214952   3.728   3.905  11.429  0.9545  0.9470 -3.8268
 1107SOL     OW14953   1.568   4.425   3.437 -0.0273  0.2960 -0.0889
 1107SOL    HW114954   1.657   4.395   3.459  0.6121  2.1776 -0.1002
 1107SOL    HW214955   1.584   4.514   3.406  1.1113  0.2674  0.4058
 1108SOL     OW14956   4.230   1.939   5.530 -0.1762 -1.0855 -0.3692
 1108SOL    HW114957   4.318   1.922   5.566 -0.1172 -0.9478 -0.4476
 1108SOL    HW214958   4.261   1.990   5.455  0.9866  1.2495  1.6780
 1109SOL     OW14959   1.287   0.146   9.085 -0.3976  0.2941 -0.6539
 1109SOL    HW114960   1.245   0.166   9.169 -0.6594 -1.6416 -0.3233
 1109SOL    HW214961   1.287   0.050   9.090 -0.3902  0.4564  2.3938
 1110SOL     OW14962   0.683   0.915   8.783 -0.1780  0.3499 -0.5259
 1110SOL    HW114963   0.658   0.957   8.866 -0.2419  0.5898 -0.6663
 1110SOL    HW214964   0.727   0.990   8.743 -0.2037  0.2922 -0.6606
 1111SOL     OW14965   2.390   2.328   8.058 -0.3171 -0.5618  0.0246
 1111SOL    HW114966   2.411   2.397   7.994 -0.6380 -0.8995 -0.4447
 1111SOL    HW214967   2.346   2.375   8.128 -0.9587 -2.6620  1.0334
 1112SOL     OW14968   2.565   2.307   3.929  0.0453  0.0980 -0.1196
 1112SOL    HW114969   2.505   2.348   3.867  0.0360  2.2029  1.2589
 1112SOL    HW214970   2.634   2.272   3.873 -0.2117  1.4609 -1.2919
 1113SOL     OW14971   0.780   1.010  12.348 -0.5970  0.2302  0.3506
 1113SOL    HW114972   0.745   0.922  12.351  0.3877 -0.2398 -2.2846
 1113SOL    HW214973   0.756   1.039  12.260 -0.2731  1.2415  0.5944
 1114SOL     OW14974   2.218   1.301   4.391  0.7372 -0.0115  0.1254
 1114SOL    HW114975   2.169   1.233   4.344  0.2031 -0.7340  1.7204
 1114SOL    HW214976   2.205   1.276   4.483  2.2691  3.4919  1.2797
 1115SOL     OW14977   3.528   4.624   9.252 -0.2209 -0.6645 -0.0273
 1115SOL    HW114978   3.527   4.628   9.156 -0.0376 -0.5318 -0.0237
 1115SOL    HW214979   3.584   4.548   9.268  1.3178  0.2706 -0.9634
 1116SOL     OW14980   0.386   0.489   6.225  0.3097 -0.5975 -0.2219
 1116SOL    HW114981   0.379   0.394   6.213  0.2166 -0.7303  0.8431
 1116SOL    HW214982   0.308   0.499   6.280  0.8474  1.0222  0.2293
 1117SOL     OW14983   3.127   2.499  11.756  0.3628 -0.2942 -0.0841
 1117SOL    HW114984   3.166   2.412  11.753 -1.4095 -1.1510  1.6101
 1117SOL    HW214985   3.189   2.548  11.810 -0.3386 -1.0217  1.4008
 1118SOL     OW14986   2.438   0.005  17.252  0.2248 -0.1779 -0.1502
 1118SOL    HW114987   2.487   0.086  17.242  3.4850 -2.1197  0.1800
 1118SOL    HW214988   2.355   0.042  17.283  0.2226 -0.3214  0.0176
 1119SOL     OW14989   0.246   1.602  12.401  0.1783 -0.0227  0.4286
 1119SOL    HW114990   0.151   1.612  12.402  0.2497  0.3865  3.2812
 1119SOL    HW214991   0.273   1.647  12.481  1.4022 -0.6833  0.4056
 1120SOL     OW14992   3.245   0.293  10.961 -0.3557 -0.1275  0.7048
 1120SOL    HW114993   3.246   0.197  10.963  0.6012 -0.1548 -0.5141
 1120SOL    HW214994   3.163   0.317  11.003 -1.3060 -1.7102 -0.2491
 1121SOL     OW14995   2.122   0.215   4.679 -0.0724  0.0106 -0.1596
 1121SOL    HW114996   2.173   0.143   4.642  0.6844  0.4868 -0.0282
 1121SOL    HW214997   2.164   0.215   4.765  1.4661  5.3185 -0.9052
 1122SOL     OW14998   4.310   4.714   1.982 -0.0618 -0.4795  0.5020
 1122SOL    HW114999   4.404   4.700   1.996  0.5501 -0.2350 -3.2817
 1122SOL    HW215000   4.310   0.073   1.981  0.4847 -0.4954 -1.7536
 1123SOL     OW15001   3.546   3.291   6.016 -0.3421  0.4080 -0.3790
 1123SOL    HW115002   3.543   3.221   6.081 -2.0026 -1.3170 -2.3415
 1123SOL    HW215003   3.640   3.289   5.999 -0.1163  0.4752  0.8421
 1124SOL     OW15004   3.069   4.586   8.145  0.6850 -0.4939 -0.1753
 1124SOL    HW115005   3.099   4.511   8.094  2.8574  0.2453  0.0177
 1124SOL    HW215006   3.051   4.541   8.228  1.7436 -1.8154 -0.6448
 1125SOL     OW15007   2.307   3.365   3.011  0.0433  0.3727  0.0071
 1125SOL    HW115008   2.400   3.349   2.993  0.3871  0.1820  1.9587
 1125SOL    HW215009   2.268   3.389   2.927  2.5880  1.4581 -0.8745
 1126SOL     OW15010   4.092   3.972   7.478 -0.2546 -0.2524  0.7347
 1126SOL    HW115011   4.150   3.933   7.543 -0.9237 -2.9863 -0.3131
 1126SOL    HW215012   4.146   3.962   7.399 -1.3309  0.1942 -0.0545
 1127SOL     OW15013   1.647   3.763  16.430  0.0123  0.1476 -0.2502
 1127SOL    HW115014   1.579   3.698  16.448 -1.2955  1.4839 -0.4134
 1127SOL    HW215015   1.654   3.789  16.522 -3.8507 -1.6163  0.5623
 1128SOL     OW15016   4.199   2.599   5.427 -0.4976  0.2976 -0.4963
 1128SOL    HW115017   4.144   2.604   5.505 -1.0204  1.7164 -0.9768
 1128SOL    HW215018   4.130   2.596   5.361 -1.4411  1.5875  0.4394
 1129SOL     OW15019   3.079   3.045  16.209 -0.0808 -0.1771 -0.4036
 1129SOL    HW115020   3.055   2.985  16.139 -1.2335 -1.3852  1.0310
 1129SOL    HW215021   2.996   3.092  16.217  0.6370  1.1659 -0.7470
 1130SOL     OW15022   3.920   0.025   3.683  0.1855 -0.6618 -0.3166
 1130SOL    HW115023   3.985   0.061   3.744 -0.8656 -1.8464  1.5091
 1130SOL    HW215024   3.929   0.083   3.608  1.9547  1.0775  1.2527
 1131SOL     OW15025   0.744   3.744   1.439  0.3600 -0.3610  0.4764
 1131SOL    HW115026   0.738   3.838   1.451  0.5191 -0.4416  1.1854
 1131SOL    HW215027   0.687   3.702   1.504 -1.5745  1.1407 -0.2581
 1132SOL     OW15028   3.584   2.090   6.996  0.2045  0.2372 -0.2777
 1132SOL    HW115029   3.540   2.091   7.081 -0.9496 -0.2463 -0.8654
 1132SOL    HW215030   3.606   2.183   6.990  0.0154  0.3418  0.5754
 1133SOL     OW15031   1.637   1.776   5.176  0.4647  0.6226 -0.1323
 1133SOL    HW115032   1.704   1.717   5.209 -1.4005 -0.0050  2.5335
 1133SOL    HW215033   1.677   1.812   5.097  1.3336 -1.4579 -0.6162
 1134SOL     OW15034   1.460   1.351  11.969 -0.0100  0.1466 -0.2992
 1134SOL    HW115035   1.521   1.291  11.927  0.5506  0.3905  0.1697
 1134SOL    HW215036   1.381   1.317  11.927 -1.2056 -1.6185  3.2996
 1135SOL     OW15037   1.590   2.602   3.541  0.2934  0.3862  0.5152
 1135SOL    HW115038   1.577   2.673   3.478  0.1346  1.3988  1.6897
 1135SOL    HW215039   1.641   2.645   3.610 -3.4810  2.0181  2.3023
 1136SOL     OW15040   0.923   4.262   4.056  0.3932 -0.0870 -0.0800
 1136SOL    HW115041   0.916   4.280   4.150  3.1658 -0.9430  0.2822
 1136SOL    HW215042   0.855   4.324   4.029  0.2346 -0.6862 -1.0149
 1137SOL     OW15043   0.993   1.497   3.384 -0.1862 -0.0988  0.0595
 1137SOL    HW115044   1.011   1.590   3.399 -4.4039  0.3967  1.9718
 1137SOL    HW215045   0.905   1.515   3.352  0.5491  1.7345 -0.9967
 1138SOL     OW15046   1.481   3.010  10.121 -0.8919 -0.1523  0.3221
 1138SOL    HW115047   1.419   2.944  10.153 -1.3054 -0.2002 -0.5768
 1138SOL    HW215048   1.447   3.008  10.032  1.7561 -1.7380 -0.6587
 1139SOL     OW15049   2.194   2.218  13.059  0.0800  0.3062 -0.8108
 1139SOL    HW115050   2.157   2.221  12.972  3.8322 -2.1507 -2.5078
 1139SOL    HW215051   2.165   2.134  13.094  2.3785 -0.5020 -0.8213
 1140SOL     OW15052   1.233   3.731   2.145 -0.7378  0.0144 -0.7771
 1140SOL    HW115053   1.197   3.791   2.079 -1.9309  0.4407  0.2672
 1140SOL    HW215054   1.171   3.659   2.148 -2.4432  1.5002 -0.0726
 1141SOL     OW15055   1.298   3.333  10.128  0.2839  0.1530  0.5265
 1141SOL    HW115056   1.312   3.351  10.220 -1.1391  1.2167  0.5313
 1141SOL    HW215057   1.336   3.246  10.122 -0.4803  0.0756 -3.3200
 1142SOL     OW15058   2.981   3.610   9.453  0.3615  0.4813  0.6261
 1142SOL    HW115059   2.941   3.523   9.460 -0.7584  1.0568  1.2436
 1142SOL    HW215060   3.013   3.628   9.541 -0.4706 -2.9499  1.6479
 1143SOL     OW15061   4.517   4.349  15.757 -0.6468  0.0926  0.5016
 1143SOL    HW115062   4.539   4.423  15.701 -1.2500  0.5814  0.9195
 1143SOL    HW215063   4.603   4.309  15.766  0.1015  1.6223  0.0535
 1144SOL     OW15064   1.559   0.768   4.632  0.5190 -0.1423 -0.0975
 1144SOL    HW115065   1.587   0.854   4.662 -0.2832  0.2687 -0.5339
 1144SOL    HW215066   1.571   0.718   4.713 -0.5239  1.8989  1.3117
 1145SOL     OW15067   1.577   1.217   5.197  0.6036  0.5501  0.5016
 1145SOL    HW115068   1.634   1.272   5.143 -0.3304  1.4953  0.4591
 1145SOL    HW215069   1.623   1.205   5.280 -0.0762  0.8203  0.9186
 1146SOL     OW15070   1.804   1.811  11.505 -0.0371 -0.2833 -0.1518
 1146SOL    HW115071   1.737   1.838  11.442 -0.4383 -3.3340 -0.9972
 1146SOL    HW215072   1.808   1.898  11.546  0.4725 -0.3710 -0.0197
 1147SOL     OW15073   4.090   2.053   4.025 -0.0661  0.0884 -0.1279
 1147SOL    HW115074   4.156   2.005   3.974  1.1685 -0.3498  1.8755
 1147SOL    HW215075   4.055   2.103   3.951 -1.5922 -0.0470  0.5122
 1148SOL     OW15076   0.662   1.844  12.882 -0.1519 -0.4324  0.5364
 1148SOL    HW115077   0.719   1.894  12.823  0.5420 -0.3047  1.3215
 1148SOL    HW215078   0.721   1.774  12.908  0.1723 -0.8045 -1.2045
 1149SOL     OW15079   1.075   1.156  12.150 -0.3533 -0.1409 -0.3634
 1149SOL    HW115080   0.991   1.139  12.107 -0.4593  1.3639 -0.7157
 1149SOL    HW215081   1.109   1.067  12.161 -0.5082 -0.1465  0.0646
 1150SOL     OW15082   3.984   4.252   2.453  0.0467  0.1773  0.5246
 1150SOL    HW115083   4.033   4.257   2.371  0.2753 -1.1556  0.5896
 1150SOL    HW215084   3.984   4.157   2.458  0.6688  0.1557  0.1329
 1151SOL     OW15085   2.181   3.625   4.244 -0.2725 -0.4024 -0.2573
 1151SOL    HW115086   2.237   3.587   4.176  0.9422  0.5740  0.1882
 1151SOL    HW215087   2.133   3.693   4.197 -1.2159 -1.2772 -0.5329
 1152SOL     OW15088   4.093   2.404   1.061  0.5133 -0.0803 -0.4314
 1152SOL    HW115089   4.108   2.444   1.147 -2.6936  3.1459 -1.3616
 1152SOL    HW215090   4.161   2.455   1.016  0.0554  1.6552  0.8520
 1153SOL     OW15091   4.616   3.166  13.824  0.5559 -0.1096 -0.2968
 1153SOL    HW115092   4.702   3.129  13.845  0.9086  2.6800  3.3004
 1153SOL    HW215093   4.572   3.172  13.909  0.9082  0.9194 -0.1842
 1154SOL     OW15094   2.832   0.136   7.439  0.0505 -0.0058  0.3668
 1154SOL    HW115095   2.921   0.170   7.429 -0.6188  1.0723 -1.8253
 1154SOL    HW215096   2.815   0.166   7.529  1.4113 -3.1036  1.6526
 1155SOL     OW15097   0.541   3.878   7.762  0.3847 -0.2340  0.3092
 1155SOL    HW115098   0.519   3.936   7.836 -1.0458  1.9766 -1.8234
 1155SOL    HW215099   0.497   3.800   7.795  1.8583  0.6029  4.3163
 1156SOL     OW15100   4.070   3.979   4.942  0.0392 -0.5165 -0.4889
 1156SOL    HW115101   4.016   3.958   4.865 -0.9205 -1.9018  0.5588
 1156SOL    HW215102   4.006   3.988   5.013 -0.6169 -3.6584 -0.6465
 1157SOL     OW15103   1.304   2.558   5.148  0.2005 -0.1746  0.2714
 1157SOL    HW115104   1.397   2.571   5.130 -0.4389  2.0252 -1.5737
 1157SOL    HW215105   1.295   2.614   5.225  1.8700 -1.3881  1.3461
 1158SOL     OW15106   3.399   4.306  14.001 -0.2544  0.2751  0.2487
 1158SOL    HW115107   3.305   4.316  14.017 -0.5989 -1.1076 -0.9529
 1158SOL    HW215108   3.395   4.233  13.940  0.4592 -0.8864  1.6155
 1159SOL     OW15109   2.011   1.893  15.382  0.0522  0.1553  0.5610
 1159SOL    HW115110   1.938   1.851  15.335  0.5697  0.7209 -0.7330
 1159SOL    HW215111   1.968   1.972  15.414  0.8838  1.3311 -1.2563
 1160SOL     OW15112   2.686   1.100   2.826 -0.1898 -0.2242 -0.2592
 1160SOL    HW115113   2.697   1.175   2.768 -0.3230 -0.1948 -0.2465
 1160SOL    HW215114   2.683   1.026   2.766 -0.4904  0.5204 -1.1552
 1161SOL     OW15115   3.279   3.790   8.709 -0.1747 -0.2053 -0.5847
 1161SOL    HW115116   3.372   3.791   8.687  0.2583 -2.2223  1.1718
 1161SOL    HW215117   3.239   3.743   8.635  0.6596 -0.4662 -0.8630
 1162SOL     OW15118   2.600   1.469   8.363  0.2922 -0.3277 -0.3758
 1162SOL    HW115119   2.537   1.460   8.435 -1.6945 -1.6685 -2.3089
 1162SOL    HW215120   2.581   1.397   8.304 -2.8729  1.8940 -2.0739
 1163SOL     OW15121   1.900   2.664   9.465 -0.2389  0.3309  0.0542
 1163SOL    HW115122   1.885   2.757   9.482 -0.7352  0.5797 -1.7176
 1163SOL    HW215123   1.995   2.664   9.452 -0.3536 -2.1483 -0.8821
 1164SOL     OW15124   3.378   2.487   7.864  0.3724  0.1183 -0.1340
 1164SOL    HW115125   3.290   2.457   7.886  1.2323 -1.1681  1.5123
 1164SOL    HW215126   3.407   2.419   7.804 -1.4198 -0.2353 -0.5838
 1165SOL     OW15127   4.665   4.183  15.485  0.1063 -0.1010  0.5942
 1165SOL    HW115128   4.698   4.256  15.431 -1.1871  1.6329  2.1571
 1165SOL    HW215129   4.571   4.179  15.468 -0.0889  1.2594  1.2930
 1166SOL     OW15130   3.060   1.028  15.174 -0.3532 -0.1310  0.4460
 1166SOL    HW115131   3.095   1.068  15.094 -2.4415 -0.1974 -0.5086
 1166SOL    HW215132   3.096   0.941  15.158 -0.7506  0.0617 -1.4838
 1167SOL     OW15133   2.389   4.183  14.290 -0.3171 -0.4599 -0.4447
 1167SOL    HW115134   2.456   4.148  14.232 -2.2669  1.6878 -3.9887
 1167SOL    HW215135   2.375   4.269  14.251 -3.5394 -1.0106 -0.5180
 1168SOL     OW15136   3.836   3.915   6.586 -0.2931  0.2405  0.2107
 1168SOL    HW115137   3.779   3.858   6.638  2.7996 -3.2439 -0.2005
 1168SOL    HW215138   3.921   3.870   6.585 -1.9960 -3.0844  2.9636
 1169SOL     OW15139   1.578   2.632  16.277  0.1900  0.0573 -0.1297
 1169SOL    HW115140   1.512   2.662  16.340  2.0176  0.8067  1.4107
 1169SOL    HW215141   1.623   2.712  16.252 -2.2711  1.0866 -1.3163
 1170SOL     OW15142   2.129   4.662   3.907 -0.4194 -0.0791  0.7236
 1170SOL    HW115143   2.068   4.621   3.969 -0.5177 -0.2053  0.5430
 1170SOL    HW215144   2.158   4.587   3.856 -1.2688  0.4113 -0.4591
 1171SOL     OW15145   3.340   0.236   8.196  0.1889  0.2738  0.2169
 1171SOL    HW115146   3.346   0.143   8.172  0.2142  0.2299  0.3931
 1171SOL    HW215147   3.259   0.227   8.247 -0.3956  1.2396 -0.5339
 1172SOL     OW15148   0.275   0.374   6.669 -0.1239 -0.2235 -0.4415
 1172SOL    HW115149   0.304   0.355   6.759 -2.0217 -1.8881 -0.1662
 1172SOL    HW215150   0.224   0.453   6.684  0.1723 -0.3102  1.0379
 1173SOL     OW15151   0.525   3.908   5.968 -0.4259 -0.5194 -0.1005
 1173SOL    HW115152   0.484   3.826   5.995  2.3773 -1.2592  1.9414
 1173SOL    HW215153   0.457   3.943   5.911  0.0425  0.1600 -0.2488
 1174SOL     OW15154   2.497   0.306  13.487  0.0953 -0.2916 -0.5089
 1174SOL    HW115155   2.541   0.312  13.571 -0.3587 -0.0728 -0.2878
 1174SOL    HW215156   2.527   0.388  13.447 -0.2648  0.1810  0.1850
 1175SOL     OW15157   1.136   1.687  14.376  0.3937 -0.1407 -0.0802
 1175SOL    HW115158   1.052   1.681  14.422  0.5543 -0.9522  0.0943
 1175SOL    HW215159   1.125   1.767  14.324 -2.4461  0.7814  1.8850
 1176SOL     OW15160   0.920   2.732   4.730  0.3904 -0.1532 -0.4651
 1176SOL    HW115161   0.969   2.712   4.809 -0.1782  0.8528  0.1400
 1176SOL    HW215162   0.833   2.743   4.767  0.0494  1.8764 -1.8181
 1177SOL     OW15163   3.669   3.445  10.127  0.2752 -0.1918  0.1941
 1177SOL    HW115164   3.640   3.500  10.200  2.2277  1.6044 -0.3807
 1177SOL    HW215165   3.739   3.504  10.098 -0.2801  1.3494  1.9709
 1178SOL     OW15166   0.283   0.167  10.846  0.1510  0.2665 -0.3284
 1178SOL    HW115167   0.368   0.184  10.887  0.2024  0.1738 -0.3974
 1178SOL    HW215168   0.295   0.182  10.753 -2.4314  0.3376 -0.6700
 1179SOL     OW15169   0.825   2.266   5.425 -0.2851  0.2349 -0.0579
 1179SOL    HW115170   0.776   2.329   5.372 -1.3461  0.0016  0.6532
 1179SOL    HW215171   0.843   2.189   5.370  0.5804  1.0688 -0.9464
 1180SOL     OW15172   0.898   2.140  16.274 -0.3832  0.2219  0.4313
 1180SOL    HW115173   0.960   2.208  16.247 -0.3226  0.5593  1.4304
 1180SOL    HW215174   0.963   2.072  16.292 -1.5554 -0.7457  1.0716
 1181SOL     OW15175   2.702   0.312   5.121  0.8346  0.4912  0.0810
 1181SOL    HW115176   2.751   0.314   5.038 -1.2851  0.8911 -1.1743
 1181SOL    HW215177   2.777   0.285   5.174 -0.4067 -0.9273  1.1050
 1182SOL     OW15178   4.393   2.413   7.439 -0.1527 -0.8794  0.0226
 1182SOL    HW115179   4.379   2.438   7.348 -1.3719 -2.9386 -0.3343
 1182SOL    HW215180   4.343   2.332   7.434 -0.9596 -0.4778  1.7767
 1183SOL     OW15181   3.789   3.281  13.551  0.3205 -0.1191  0.2293
 1183SOL    HW115182   3.868   3.305  13.599  0.3212  1.5566 -0.6084
 1183SOL    HW215183   3.726   3.273  13.622 -0.0814 -3.6198 -0.5319
 1184SOL     OW15184   2.760   1.660   0.523 -0.1200 -0.0434 -0.5056
 1184SOL    HW115185   2.672   1.626   0.505 -0.5334 -0.6784  2.7589
 1184SOL    HW215186   2.777   1.641   0.615  1.6850 -1.8608 -1.2278
 1185SOL     OW15187   2.501   4.056   4.202 -0.4231  0.2049 -0.3903
 1185SOL    HW115188   2.414   4.018   4.192 -0.1753 -0.9697  1.8344
 1185SOL    HW215189   2.493   4.097   4.288 -1.2140  0.1745 -0.4496
 1186SOL     OW15190   3.470   2.780  12.220 -0.1174 -0.1199  0.4762
 1186SOL    HW115191   3.497   2.693  12.192 -0.0818  0.2602 -0.6418
 1186SOL    HW215192   3.388   2.795  12.174 -0.5476  0.4870  1.4386
 1187SOL     OW15193   1.086   0.122   7.143  0.1742 -0.0743  0.2067
 1187SOL    HW115194   1.012   0.139   7.201  1.0569  1.3432  0.8804
 1187SOL    HW215195   1.150   0.170   7.195 -0.0185 -0.8049  1.1328
 1188SOL     OW15196   2.045   4.226   8.406 -0.2370 -0.3917 -0.1391
 1188SOL    HW115197   2.010   4.199   8.491  0.0514 -0.8721 -0.1738
 1188SOL    HW215198   2.024   4.150   8.351 -2.0384  0.7321 -0.9936
 1189SOL     OW15199   3.606   1.140   7.119  0.1658 -0.4579  0.1757
 1189SOL    HW115200   3.685   1.187   7.144 -0.2685 -1.0360  2.5844
 1189SOL    HW215201   3.601   1.172   7.029 -2.0289  0.8309  0.7574
 1190SOL     OW15202   1.944   0.683   6.460  0.0731 -0.5659 -0.0285
 1190SOL    HW115203   1.888   0.729   6.522  1.0190 -0.7506  0.9764
 1190SOL    HW215204   1.883   0.616   6.430  0.8251 -0.9183 -0.7599
 1191SOL     OW15205   4.326   2.520   6.447 -0.9003  0.0404  0.0467
 1191SOL    HW115206   4.405   2.467   6.439 -0.7797  0.3717 -0.9201
 1191SOL    HW215207   4.363   2.601   6.484  2.1065 -1.4009  0.1145
 1192SOL     OW15208   1.943   1.544   9.588  0.2489  0.1109 -0.5354
 1192SOL    HW115209   2.003   1.469   9.590  1.0894  0.7955 -0.2765
 1192SOL    HW215210   1.988   1.601   9.650 -2.4005  1.7260 -0.0787
 1193SOL     OW15211   3.255   0.930   1.896 -0.1096  0.1507 -0.0420
 1193SOL    HW115212   3.197   0.912   1.822 -1.8360  1.5583  1.0007
 1193SOL    HW215213   3.337   0.900   1.856 -1.5035 -1.3924 -1.7387
 1194SOL     OW15214   0.784   1.087  13.262 -0.0130  0.4089 -0.1462
 1194SOL    HW115215   0.735   1.006  13.274 -2.8223  2.0012 -0.8791
 1194SOL    HW215216   0.760   1.133  13.342  3.9329  1.0517  0.6782
 1195SOL     OW15217   0.967   3.596   2.546  0.0523  0.5007  0.1839
 1195SOL    HW115218   0.893   3.576   2.603  0.4706 -0.7565  0.2984
 1195SOL    HW215219   1.022   3.651   2.602 -0.9430  0.8297  0.8462
 1196SOL     OW15220   0.542   2.930   0.823  0.7032  0.2838 -0.2852
 1196SOL    HW115221   0.518   2.954   0.734 -0.6624 -0.9067 -0.2350
 1196SOL    HW215222   0.512   2.839   0.827 -0.5618  0.7309  0.6272
 1197SOL     OW15223   1.128   1.509   1.715 -0.0285 -0.0239  0.0766
 1197SOL    HW115224   1.074   1.498   1.793  0.1230 -1.9223 -0.0880
 1197SOL    HW215225   1.102   1.586   1.665 -0.3777  1.3798  2.3967
 1198SOL     OW15226   4.239   2.608   2.839  0.0129  0.4526 -0.0986
 1198SOL    HW115227   4.252   2.682   2.780 -1.3000  0.9126  0.1800
 1198SOL    HW215228   4.291   2.535   2.804 -0.1698 -0.4055  1.4038
 1199SOL     OW15229   0.060   0.141   2.022  0.1544 -0.0760 -0.1996
 1199SOL    HW115230   4.704   0.123   2.040  0.4546 -1.6071 -0.1866
 1199SOL    HW215231   0.081   0.063   1.969 -2.3859  1.3180 -3.2537
 1200SOL     OW15232   4.308   1.154   8.061  0.4941  0.6306 -0.0002
 1200SOL    HW115233   4.288   1.209   7.986  0.0253  0.3361 -0.0883
 1200SOL    HW215234   4.389   1.194   8.094 -0.3460  0.0556  2.7551
 1201SOL     OW15235   2.871   2.322   2.896 -0.2347 -0.6241 -0.3462
 1201SOL    HW115236   2.877   2.320   2.991 -0.0815  1.6354 -0.3260
 1201SOL    HW215237   2.949   2.366   2.862  0.8187 -0.9527  1.6545
 1202SOL     OW15238   1.733   1.868   6.997  0.6653  0.2377  0.8269
 1202SOL    HW115239   1.717   1.910   7.082 -2.0356 -1.1379  0.9960
 1202SOL    HW215240   1.643   1.840   6.979  0.5238  0.6344  0.9130
 1203SOL     OW15241   1.333   2.699   4.740  0.0541  0.3470  0.5434
 1203SOL    HW115242   1.386   2.703   4.660  1.8397 -0.2537  1.6966
 1203SOL    HW215243   1.299   2.610   4.730 -1.2402  1.1474 -2.1479
 1204SOL     OW15244   1.453   2.629  17.551 -0.1698 -0.1191 -0.0002
 1204SOL    HW115245   1.450   2.712  17.599  2.2779 -0.1326  0.1942
 1204SOL    HW215246   1.469   2.573  17.627  0.4060  0.0264 -0.0134
 1205SOL     OW15247   3.467   2.302   5.175 -0.2150 -0.6141  0.1136
 1205SOL    HW115248   3.401   2.306   5.106  1.1184  0.0184 -1.1483
 1205SOL    HW215249   3.546   2.301   5.120 -0.9525  0.1128 -0.9693
 1206SOL     OW15250   4.483   4.288   8.355  0.0848 -0.5408 -0.7656
 1206SOL    HW115251   4.489   4.383   8.354 -1.4671 -0.4676 -3.1184
 1206SOL    HW215252   4.554   4.257   8.411 -0.7599 -1.6608 -0.2952
 1207SOL     OW15253   4.006   1.910  15.303  0.6075 -0.8486  0.1073
 1207SOL    HW115254   3.945   1.850  15.346  0.6955 -0.9069  0.1507
 1207SOL    HW215255   4.008   1.890  15.210 -2.6891 -0.1167 -0.1315
 1208SOL     OW15256   4.321   0.538   4.240  0.1921 -0.0407  0.3786
 1208SOL    HW115257   4.280   0.575   4.161 -3.6939 -1.1700  1.8388
 1208SOL    HW215258   4.295   0.605   4.303  0.1121  0.7946 -0.5246
 1209SOL     OW15259   3.053   0.992   6.791 -0.0170 -0.4391  0.5606
 1209SOL    HW115260   3.128   1.031   6.836 -0.6550 -0.4944  1.6857
 1209SOL    HW215261   2.995   1.066   6.775  0.0482 -0.4261  0.3850
 1210SOL     OW15262   0.665   3.005   4.964 -0.3817 -0.3924 -0.2339
 1210SOL    HW115263   0.657   3.092   4.926 -2.5182  0.2017  1.5511
 1210SOL    HW215264   0.720   3.031   5.038 -0.5371 -1.4984  0.2741
 1211SOL     OW15265   3.112   2.232   8.377 -0.7259 -0.1805 -0.0554
 1211SOL    HW115266   3.061   2.151   8.376  0.5780 -0.9985 -1.1484
 1211SOL    HW215267   3.068   2.289   8.440 -0.0962 -1.5510  1.6286
 1212SOL     OW15268   4.543   2.038   8.595 -0.4019 -0.0013 -0.6753
 1212SOL    HW115269   4.464   2.053   8.543  0.4493  2.4257 -1.2517
 1212SOL    HW215270   4.589   1.982   8.532  0.3711  0.4680 -0.5306
 1213SOL     OW15271   2.223   0.406   2.394 -0.6990 -0.1944 -0.6703
 1213SOL    HW115272   2.165   0.481   2.404 -0.2581 -0.0809  1.1409
 1213SOL    HW215273   2.305   0.441   2.360 -1.7198  2.0009 -0.8392
 1214SOL     OW15274   0.305   2.720   2.418  0.1918  0.1489 -0.0951
 1214SOL    HW115275   0.252   2.787   2.375  0.7477  0.3468 -0.4755
 1214SOL    HW215276   0.355   2.711   2.337  2.6595  1.5729  1.2833
 1215SOL     OW15277   4.160   1.689   5.358  0.1360  0.0895  0.1488
 1215SOL    HW115278   4.247   1.665   5.327  1.0107  2.3591  0.8321
 1215SOL    HW215279   4.160   1.784   5.372 -0.9950 -0.2282  2.3130
 1216SOL     OW15280   1.368   3.293   6.710  0.0202  0.4614 -0.2779
 1216SOL    HW115281   1.284   3.294   6.665  0.7846  0.4728 -1.6960
 1216SOL    HW215282   1.423   3.356   6.663 -0.0691  0.2438 -0.6775
 1217SOL     OW15283   2.466   0.800   4.606 -0.2738  0.0299 -0.0325
 1217SOL    HW115284   2.528   0.750   4.553  1.0182  0.3770  1.1316
 1217SOL    HW215285   2.424   0.728   4.652  0.7845 -0.0290  0.8524
 1218SOL     OW15286   4.053   2.035   8.485  0.1195  0.2243 -0.2263
 1218SOL    HW115287   4.133   1.983   8.486  1.1815  1.8159 -2.2921
 1218SOL    HW215288   3.992   1.964   8.468  0.2568 -0.3512  1.6583
 1219SOL     OW15289   3.281   1.269   6.586  0.8162  0.1193 -0.3804
 1219SOL    HW115290   3.288   1.306   6.498  0.8157  1.4237  0.1706
 1219SOL    HW215291   3.371   1.263   6.618  1.0916 -2.7002 -1.6830
 1220SOL     OW15292   1.836   2.364   8.889 -0.9943  0.3185  0.5356
 1220SOL    HW115293   1.811   2.430   8.953  0.4391 -0.7507  2.1832
 1220SOL    HW215294   1.818   2.410   8.806 -1.9192  0.9417  1.0806
 1221SOL     OW15295   4.084   1.873   3.361 -0.3178 -0.6103 -0.2720
 1221SOL    HW115296   4.021   1.838   3.423 -0.6833  0.0479 -0.2670
 1221SOL    HW215297   4.059   1.825   3.282 -1.0936 -3.1535  1.5280
 1222SOL     OW15298   1.428   0.802   0.192  0.1982 -0.2054 -0.0576
 1222SOL    HW115299   1.483   0.727   0.173 -1.0506 -1.4860  1.3890
 1222SOL    HW215300   1.482   0.881   0.197  1.8906 -1.3224 -0.9220
 1223SOL     OW15301   3.969   3.374   1.457  0.0095  0.2681  0.0199
 1223SOL    HW115302   3.951   3.444   1.394 -1.0004  1.3444  1.4815
 1223SOL    HW215303   3.882   3.334   1.449 -0.2335  0.8965 -0.5076
 1224SOL     OW15304   3.613   2.287  12.815 -0.0862  0.1262  0.1116
 1224SOL    HW115305   3.607   2.223  12.886 -0.8659  0.8664  0.7123
 1224SOL    HW215306   3.552   2.257  12.748  0.4548 -0.8779  0.0776
 1225SOL     OW15307   1.778   1.029   8.923 -0.1476  0.0365 -0.4438
 1225SOL    HW115308   1.849   0.965   8.926 -1.5356 -1.5319 -1.1162
 1225SOL    HW215309   1.805   1.092   8.857 -0.3593 -0.6639 -1.1966
 1226SOL     OW15310   1.671   2.014   6.092  0.0187  0.2706  0.4009
 1226SOL    HW115311   1.654   2.108   6.088 -1.3529 -0.0365 -1.0825
 1226SOL    HW215312   1.766   2.023   6.084 -0.1887 -0.9049 -3.6664
 1227SOL     OW15313   3.865   2.789  13.086  0.7003 -0.3122  0.2696
 1227SOL    HW115314   3.883   2.835  13.004 -0.8460  1.4145  0.8760
 1227SOL    HW215315   3.887   2.700  13.061 -3.8113 -1.4300  0.1749
 1228SOL     OW15316   3.926   0.906  14.168 -0.1100  0.3706 -0.6080
 1228SOL    HW115317   3.917   0.827  14.114 -1.6733  0.4827 -0.5277
 1228SOL    HW215318   3.885   0.971  14.111  0.5793  2.5556  1.3853
 1229SOL     OW15319   4.623   1.706  15.215 -0.5562  0.5450 -0.1652
 1229SOL    HW115320   4.533   1.727  15.192 -0.7246  0.0117  0.0188
 1229SOL    HW215321   4.624   1.611  15.211  0.6843  0.6459 -1.9436
 1230SOL     OW15322   2.375   2.894   9.347 -0.1017  0.3462 -0.2984
 1230SOL    HW115323   2.444   2.960   9.355 -1.3075  1.3562  1.7279
 1230SOL    HW215324   2.427   2.814   9.346 -0.9485 -0.1922 -0.6109
 1231SOL     OW15325   3.290   3.849  12.966  0.2901  0.4230 -0.2200
 1231SOL    HW115326   3.353   3.820  13.032  0.5071 -2.0386 -1.4758
 1231SOL    HW215327   3.206   3.823  13.003  1.4062 -3.4485 -0.4064
 1232SOL     OW15328   4.378   1.469  13.802  0.2240  0.6469  0.0299
 1232SOL    HW115329   4.295   1.458  13.756  0.0108 -0.7929  0.7472
 1232SOL    HW215330   4.364   1.540  13.864 -0.5221  2.0718 -1.7909
 1233SOL     OW15331   1.150   4.607   7.224  0.5056  0.4648  0.4975
 1233SOL    HW115332   1.126   4.687   7.178 -1.8840  1.4861  3.5058
 1233SOL    HW215333   1.205   4.567   7.157 -0.4432 -0.9291  0.5468
 1234SOL     OW15334   2.239   4.649   2.590 -0.2121  0.1474 -0.4431
 1234SOL    HW115335   2.314   4.601   2.554 -0.4605 -0.1391 -0.5765
 1234SOL    HW215336   2.205   4.574   2.638  2.8556 -1.3410 -0.5555
 1235SOL     OW15337   0.443   2.136   3.100  0.3705  0.3563 -0.1558
 1235SOL    HW115338   0.506   2.208   3.093  1.1427 -0.0350  2.7596
 1235SOL    HW215339   0.406   2.152   3.014  0.6897  2.0935  0.0411
 1236SOL     OW15340   1.251   1.792   1.502  0.1189  0.2861 -0.1287
 1236SOL    HW115341   1.338   1.793   1.543  1.4706 -0.1196 -2.9977
 1236SOL    HW215342   1.269   1.754   1.417  1.5528  3.6687 -1.3368
 1237SOL     OW15343   3.354   3.888   9.795  0.0894  0.2204 -0.4277
 1237SOL    HW115344   3.278   3.946   9.805  0.0839 -0.2326  2.1648
 1237SOL    HW215345   3.422   3.940   9.838  0.3031 -0.1960 -0.2572
 1238SOL     OW15346   4.223   2.224   2.530  0.5350  0.2011  0.1034
 1238SOL    HW115347   4.141   2.181   2.557  0.3269  1.5068  1.5798
 1238SOL    HW215348   4.234   2.190   2.441  1.7055 -0.2604  0.4214
 1239SOL     OW15349   2.628   2.057  14.429  0.4599 -0.2001  0.1538
 1239SOL    HW115350   2.590   2.026  14.511 -0.3518  1.0130  0.2266
 1239SOL    HW215351   2.710   2.013  14.449  1.4873  0.8898 -1.6436
 1240SOL     OW15352   1.794   1.063  16.590 -0.2239  0.0887 -0.1873
 1240SOL    HW115353   1.831   1.113  16.518  0.5414 -1.5536 -0.9276
 1240SOL    HW215354   1.736   1.133  16.620 -1.1103 -0.0044 -1.7013
 1241SOL     OW15355   0.639   0.009   1.052  0.4401  0.5324 -0.1420
 1241SOL    HW115356   0.638   4.688   1.129 -0.2625  0.3246 -0.3042
 1241SOL    HW215357   0.570   0.074   1.061 -0.4886 -0.4094 -0.4685
 1242SOL     OW15358   2.372   3.506   6.897 -0.2550 -0.0761 -0.3873
 1242SOL    HW115359   2.446   3.552   6.938  1.1107 -1.5473 -1.2063
 1242SOL    HW215360   2.353   3.438   6.962 -0.2720  0.5031  0.2198
 1243SOL     OW15361   3.375   4.108  11.081 -0.0397  0.4442 -0.3573
 1243SOL    HW115362   3.461   4.148  11.087  0.8007 -1.3509 -0.6063
 1243SOL    HW215363   3.323   4.167  11.135 -0.9747 -1.6225  1.0021
 1244SOL     OW15364   2.042   1.772   4.836 -0.7009  0.0533  0.1498
 1244SOL    HW115365   1.983   1.718   4.888  0.7855  0.4981  2.3003
 1244SOL    HW215366   2.041   1.725   4.753  0.6520  1.2666 -0.5583
 1245SOL     OW15367   1.409   2.984   1.280 -0.1287 -0.3296 -0.0519
 1245SOL    HW115368   1.349   3.036   1.332  0.4627 -2.0404  2.3478
 1245SOL    HW215369   1.391   2.896   1.313  0.0351 -0.6280 -0.7585
 1246SOL     OW15370   2.382   2.852   3.266 -0.4400  0.2569 -0.3675
 1246SOL    HW115371   2.306   2.910   3.273 -0.2571  0.6384 -1.6151
 1246SOL    HW215372   2.424   2.879   3.347  2.1054  1.8978 -2.2350
 1247SOL     OW15373   3.689   2.357   7.070  0.1876  0.7831 -0.7901
 1247SOL    HW115374   3.607   2.354   7.119 -0.0900 -0.1438 -1.3076
 1247SOL    HW215375   3.734   2.441   7.078  0.1433  0.8091 -0.8111
 1248SOL     OW15376   0.599   0.581   2.392 -0.2941 -0.3470  0.0454
 1248SOL    HW115377   0.560   0.634   2.461  3.8529  2.0798  0.5093
 1248SOL    HW215378   0.523   0.598   2.336  0.4234  0.3319 -0.7222
 1249SOL     OW15379   4.677   0.131   8.708 -0.2749 -0.2480 -0.4675
 1249SOL    HW115380   4.653   0.187   8.634 -1.2496  0.1102  0.1242
 1249SOL    HW215381   4.637   0.046   8.687 -0.2602 -0.6846  1.2535
 1250SOL     OW15382   3.184   4.141   8.636  0.1833  0.1300  0.2940
 1250SOL    HW115383   3.112   4.095   8.594 -0.6264  1.0226  0.7000
 1250SOL    HW215384   3.257   4.108   8.583 -1.0046 -0.9237 -0.6707
 1251SOL     OW15385   3.462   0.389   5.526 -0.0927 -0.3414  0.7764
 1251SOL    HW115386   3.520   0.384   5.450 -0.4069 -0.8213  0.5626
 1251SOL    HW215387   3.386   0.409   5.472  1.0653  0.2730 -0.6206
 1252SOL     OW15388   4.113   4.012   9.012  0.2769  0.4866 -0.1686
 1252SOL    HW115389   4.142   4.092   8.967 -0.0468  0.3683 -0.5877
 1252SOL    HW215390   4.066   4.042   9.090  1.8478  1.0699  0.5590
 1253SOL     OW15391   1.337   2.970   7.168  0.2321 -0.3004  0.1300
 1253SOL    HW115392   1.273   2.901   7.186 -0.9282  0.6591 -0.3737
 1253SOL    HW215393   1.356   2.966   7.074  0.4813 -2.2407  0.2677
 1254SOL     OW15394   0.458   3.903  10.623  0.1688 -0.7033 -0.1276
 1254SOL    HW115395   0.385   3.846  10.599 -1.0895  0.4400  0.9335
 1254SOL    HW215396   0.395   3.973  10.644  0.2031 -0.4988 -0.7183
 1255SOL     OW15397   3.869   1.249   8.488 -0.3817  1.0432  0.2103
 1255SOL    HW115398   3.927   1.208   8.552 -0.7493 -0.1212 -0.2074
 1255SOL    HW215399   3.886   1.342   8.499  0.6590  0.8463  0.2500
 1256SOL     OW15400   1.909   3.526   5.431  0.5871  0.2555  0.1227
 1256SOL    HW115401   1.890   3.611   5.390 -2.3734 -1.3997 -1.9682
 1256SOL    HW215402   1.854   3.522   5.510 -0.2869  0.2845 -0.4835
 1257SOL     OW15403   3.526   0.111   7.044 -1.1730  0.1362 -0.0995
 1257SOL    HW115404   3.528   0.078   6.954  1.0124  1.0270 -0.3752
 1257SOL    HW215405   3.572   0.043   7.093  1.5360  1.5366 -0.7444
 1258SOL     OW15406   0.354   0.974  17.162  0.1171 -0.0328  0.5299
 1258SOL    HW115407   0.444   1.005  17.150 -1.0935  3.6742  0.9070
 1258SOL    HW215408   0.354   0.914  17.088 -0.8222  1.9023 -1.0191
 1259SOL     OW15409   1.620   0.287   8.547  0.2355 -0.1585 -0.2895
 1259SOL    HW115410   1.525   0.283   8.558  0.1328  0.3668 -0.9454
 1259SOL    HW215411   1.655   0.198   8.558  0.4094 -0.1909 -1.1062
 1260SOL     OW15412   1.059   4.654   3.258 -0.1653  0.2140  0.2937
 1260SOL    HW115413   1.066   4.561   3.237  0.5972  0.2571  0.3625
 1260SOL    HW215414   1.016   4.686   3.178  1.3383  0.5949 -0.3644
 1261SOL     OW15415   3.059   2.721   5.502 -0.0143  0.3751  0.2243
 1261SOL    HW115416   3.023   2.715   5.590 -0.1275  0.5278  0.1883
 1261SOL    HW215417   3.077   2.815   5.491 -2.9744  0.6027 -2.7486
 1262SOL     OW15418   0.757   3.266   3.809 -0.2981 -0.2300  0.0009
 1262SOL    HW115419   0.841   3.227   3.832  0.8784  2.7104  0.7230
 1262SOL    HW215420   0.733   3.313   3.889  0.0180 -0.5471  0.2830
 1263SOL     OW15421   3.861   1.224   1.918  0.1821  0.0083 -0.2371
 1263SOL    HW115422   3.925   1.230   1.989  0.1417 -2.6652  0.0279
 1263SOL    HW215423   3.854   1.317   1.897 -1.1129 -0.1756 -0.6494
 1264SOL     OW15424   2.771   1.293   9.166  0.6127  0.3775  0.5291
 1264SOL    HW115425   2.803   1.221   9.111 -1.0735  2.0637 -2.7209
 1264SOL    HW215426   2.740   1.247   9.244  1.0393  0.9007  1.0020
 1265SOL     OW15427   2.156   3.446   0.637  0.6510  0.2779 -0.4776
 1265SOL    HW115428   2.156   3.351   0.648 -0.3722  0.2740 -0.5111
 1265SOL    HW215429   2.093   3.468   0.706  1.3311 -3.2799  1.2658
 1266SOL     OW15430   1.751   3.799   3.546 -0.1161 -0.3048 -0.6476
 1266SOL    HW115431   1.705   3.776   3.465  1.5738 -2.6827 -0.9511
 1266SOL    HW215432   1.758   3.711   3.584  0.7813 -0.3394 -0.8788
 1267SOL     OW15433   2.481   2.363  17.576 -0.1606 -0.4726 -0.6943
 1267SOL    HW115434   2.529   2.413  17.642  0.5463 -2.0928  0.0405
 1267SOL    HW215435   2.456   2.433  17.517  1.0378 -0.2825 -0.9719
 1268SOL     OW15436   1.530   2.183   4.719  0.0311  0.2402  0.3643
 1268SOL    HW115437   1.525   2.091   4.693 -1.0636  0.0175  1.3615
 1268SOL    HW215438   1.599   2.185   4.785  0.5525 -1.8092 -0.1282
 1269SOL     OW15439   0.352   4.684  11.050 -0.3829 -0.4062 -0.3856
 1269SOL    HW115440   0.315   0.017  11.106 -0.9867 -1.2251  0.2267
 1269SOL    HW215441   0.408   4.631  11.107 -2.3556 -1.2565  0.7648
 1270SOL     OW15442   3.562   1.320   5.456  0.2775 -0.1624 -0.3920
 1270SOL    HW115443   3.556   1.398   5.400  1.4365  0.0230 -0.2617
 1270SOL    HW215444   3.590   1.365   5.535  2.0060 -0.6893 -0.7087
 1271SOL     OW15445   2.104   3.298  15.444 -0.2069  0.0294 -0.0053
 1271SOL    HW115446   2.012   3.284  15.423  0.8030 -2.7635 -2.5895
 1271SOL    HW215447   2.118   3.254  15.528 -1.2360  0.3112  0.3071
 1272SOL     OW15448   4.069   1.053   8.930 -0.0888  0.0384  0.0480
 1272SOL    HW115449   4.005   1.114   8.966 -0.1998  0.8672 -1.5520
 1272SOL    HW215450   4.130   1.054   9.003 -0.4665  1.1176  0.3528
 1273SOL     OW15451   1.137   4.227   7.690  0.2496 -0.3809  0.1249
 1273SOL    HW115452   1.065   4.255   7.633  1.4918  2.1347 -0.1784
 1273SOL    HW215453   1.086   4.215   7.770  1.0552  0.2411  0.7236
 1274SOL     OW15454   0.008   2.548   6.971 -0.0987  0.2894 -0.0530
 1274SOL    HW115455   4.681   2.591   6.913 -0.9543 -1.2751 -0.2970
 1274SOL    HW215456   0.054   2.621   7.012 -2.2578 -0.1004  3.0789
 1275SOL     OW15457   0.661   3.314   8.528 -0.0534 -0.1037 -0.0977
 1275SOL    HW115458   0.745   3.358   8.514 -0.8676  2.4136  2.8781
 1275SOL    HW215459   0.694   3.224   8.532  0.4161 -0.0435 -2.5787
 1276SOL     OW15460   0.308   3.689  13.626  0.0950  0.1128  0.4259
 1276SOL    HW115461   0.236   3.626  13.618  0.1797  0.1354 -0.4496
 1276SOL    HW215462   0.305   3.718  13.717 -0.2895  2.4386 -0.3333
 1277SOL     OW15463   1.614   4.720  16.581  0.0310  0.2079  0.2937
 1277SOL    HW115464   1.702   4.709  16.546 -0.9846  0.5530 -2.4178
 1277SOL    HW215465   1.618   4.673  16.664  2.5269  0.0630  0.0946
 1278SOL     OW15466   4.115   3.803   5.214 -0.3812 -0.0842  0.1645
 1278SOL    HW115467   4.207   3.789   5.237 -0.2525 -0.9174 -0.8780
 1278SOL    HW215468   4.118   3.895   5.186 -1.5214 -0.3805 -0.9010
 1279SOL     OW15469   4.446   3.309   2.389  0.0192 -0.1973  0.1999
 1279SOL    HW115470   4.529   3.284   2.430 -0.1542 -2.1958 -0.6771
 1279SOL    HW215471   4.453   3.284   2.297  1.0282  0.3304  0.1287
 1280SOL     OW15472   2.946   4.200   1.691  0.0768  0.0448  0.2201
 1280SOL    HW115473   2.892   4.142   1.743 -0.7112  0.2601 -0.3518
 1280SOL    HW215474   2.991   4.146   1.626  0.8744 -1.3621  1.9407
 1281SOL     OW15475   2.780   3.297  17.154 -0.8433  0.1689  0.1715
 1281SOL    HW115476   2.716   3.281  17.085 -0.2905  0.6687 -0.4631
 1281SOL    HW215477   2.721   3.286  17.228 -0.7549 -0.3034  0.1704
 1282SOL     OW15478   1.434   0.376  10.039 -0.0002 -0.0458 -0.3712
 1282SOL    HW115479   1.347   0.399  10.006 -2.2400 -1.1474  4.7604
 1282SOL    HW215480   1.423   0.374  10.134  0.3191 -0.8310 -0.3515
 1283SOL     OW15481   4.241   1.790   4.492 -0.4613 -0.0007  0.0693
 1283SOL    HW115482   4.277   1.735   4.423  1.5937 -0.7332  1.7305
 1283SOL    HW215483   4.226   1.866   4.436  2.6346  1.2197  0.8452
 1284SOL     OW15484   1.364   2.778   5.783  0.1050  0.4542  0.4015
 1284SOL    HW115485   1.416   2.818   5.713 -0.8863  0.1263 -0.5260
 1284SOL    HW215486   1.310   2.712   5.739 -0.5109  1.1990  0.0401
 1285SOL     OW15487   3.659   0.425   8.062  0.5916  0.0926  0.1647
 1285SOL    HW115488   3.597   0.383   8.002  0.5116  0.4433  0.0042
 1285SOL    HW215489   3.732   0.365   8.045 -0.7740 -2.3531  2.7935
 1286SOL     OW15490   4.677   3.626   3.417  0.1099  0.3011 -0.3334
 1286SOL    HW115491   4.637   3.576   3.346 -1.7242 -0.8451  1.5013
 1286SOL    HW215492   0.032   3.646   3.393  0.1821  2.0413  1.4299
 1287SOL     OW15493   2.674   3.525   3.938 -0.3535 -0.1398  0.2101
 1287SOL    HW115494   2.618   3.516   3.861 -1.5918 -1.5402  1.2809
 1287SOL    HW215495   2.759   3.535   3.896 -0.0451  1.2238  1.1420
 1288SOL     OW15496   2.184   0.778  17.353  0.5228 -0.1355  0.2353
 1288SOL    HW115497   2.108   0.763  17.296  1.2095  0.8398 -0.9386
 1288SOL    HW215498   2.251   0.719  17.318  0.5357 -0.6893  1.2030
 1289SOL     OW15499   3.414   1.856   6.635 -0.7035  0.6186  0.4702
 1289SOL    HW115500   3.452   1.878   6.549 -1.6546  1.5445  0.2834
 1289SOL    HW215501   3.485   1.867   6.698  0.6335 -0.0051 -0.9262
 1290SOL     OW15502   1.476   4.205   4.950  0.3564  0.2546 -0.0107
 1290SOL    HW115503   1.525   4.203   4.867 -2.5652  1.1820 -1.7715
 1290SOL    HW215504   1.518   4.133   4.996 -0.4314  0.1051  0.4644
 1291SOL     OW15505   2.397   4.366   4.629 -0.4209  0.0163 -0.4575
 1291SOL    HW115506   2.378   4.323   4.712  2.1222 -0.1451  0.0417
 1291SOL    HW215507   2.467   4.423   4.662  0.7743 -1.4778 -0.3943
 1292SOL     OW15508   0.876   0.763  12.200 -0.3648 -0.2135 -0.1287
 1292SOL    HW115509   0.931   0.689  12.172  2.2212  0.9652  1.8468
 1292SOL    HW215510   0.912   0.842  12.161  1.7479 -0.8467  0.5016
 1293SOL     OW15511   4.650   3.890   4.403  0.2263  0.3829  0.1801
 1293SOL    HW115512   4.643   3.848   4.317 -0.6625  1.4977 -0.2899
 1293SOL    HW215513   4.564   3.932   4.404  0.4166  0.7642  1.0149
 1294SOL     OW15514   0.236   1.265   4.866 -0.9013  0.0335 -0.0495
 1294SOL    HW115515   0.288   1.185   4.858  2.2244  2.3783 -2.8693
 1294SOL    HW215516   0.298   1.335   4.886 -1.6300  1.0674 -1.4330
 1295SOL     OW15517   1.246   3.108   7.548 -0.4847  0.0044  0.4402
 1295SOL    HW115518   1.155   3.136   7.543 -0.2745  1.2005  3.6094
 1295SOL    HW215519   1.262   3.088   7.640  0.7677  0.4692  0.3192
 1296SOL     OW15520   3.220   2.421   9.123 -0.0089 -0.4876  0.1671
 1296SOL    HW115521   3.265   2.462   9.197  0.5853 -0.5512 -0.1545
 1296SOL    HW215522   3.131   2.431   9.156  0.7391  1.3662  1.6278
 1297SOL     OW15523   2.981   0.078  14.878  0.1232  0.0549  0.0434
 1297SOL    HW115524   2.909   0.127  14.917 -0.6553 -1.5526  0.6335
 1297SOL    HW215525   2.986   4.729  14.923 -2.5075 -0.8030 -1.2994
 1298SOL     OW15526   2.471   1.979   9.011 -0.1268  0.6608  0.2046
 1298SOL    HW115527   2.397   1.919   9.003 -0.5548  1.4489 -1.7753
 1298SOL    HW215528   2.473   1.996   9.105 -0.5939  3.7044 -0.3414
 1299SOL     OW15529   4.181   0.670   6.201 -0.0688  0.5097  0.0076
 1299SOL    HW115530   4.093   0.635   6.212  0.0775  0.3211  0.5832
 1299SOL    HW215531   4.175   0.764   6.217 -1.8971  0.3616  0.1824
 1300SOL     OW15532   1.870   0.602   2.951  0.4192  0.6874 -0.6817
 1300SOL    HW115533   1.882   0.686   2.906  2.3187  0.3326 -0.8152
 1300SOL    HW215534   1.776   0.588   2.942  0.1519  2.2047 -0.3215
 1301SOL     OW15535   2.045   4.379   6.462  0.5762  0.0781  0.0472
 1301SOL    HW115536   2.028   4.440   6.390  1.4911 -0.3163 -0.4941
 1301SOL    HW215537   2.052   4.431   6.542 -0.0092 -0.3937  0.4040
 1302SOL     OW15538   1.993   0.515   9.822 -0.6504  0.9199  0.1105
 1302SOL    HW115539   2.034   0.460   9.755  1.7906  2.5025  0.3071
 1302SOL    HW215540   2.063   0.579   9.836 -0.9577  1.2986 -0.0834
 1303SOL     OW15541   4.278   0.986  14.491 -0.0552  0.4194 -0.2585
 1303SOL    HW115542   4.188   0.953  14.492  0.7790 -1.8053  1.7832
 1303SOL    HW215543   4.281   0.997  14.396 -2.1173  1.7714 -0.1640
 1304SOL     OW15544   2.048   2.416   2.013  0.4133  0.0277  0.1646
 1304SOL    HW115545   2.091   2.501   2.028  0.4349 -0.0132  0.3294
 1304SOL    HW215546   2.038   2.418   1.918 -0.0533  2.5361  0.2741
 1305SOL     OW15547   4.205   3.487   6.511  0.2532  0.4338  0.3454
 1305SOL    HW115548   4.116   3.489   6.475 -0.1106  1.6598  1.2966
 1305SOL    HW215549   4.202   3.411   6.569  2.5716  0.2883  0.2668
 1306SOL     OW15550   0.415   4.556   2.774 -0.3700  0.3399  0.1432
 1306SOL    HW115551   0.467   4.598   2.842  2.8144 -2.9795 -0.2363
 1306SOL    HW215552   0.479   4.509   2.721 -1.9992  1.0205 -2.4005
 1307SOL     OW15553   1.478   2.528  14.608 -0.7111  0.6193 -0.0846
 1307SOL    HW115554   1.458   2.456  14.668 -0.2039  1.6835  1.3823
 1307SOL    HW215555   1.404   2.514  14.549 -1.6421  2.4281  0.6809
 1308SOL     OW15556   4.510   4.408  14.610  0.0262  0.4301  0.1192
 1308SOL    HW115557   4.448   4.454  14.552  0.3879  0.5459 -0.1720
 1308SOL    HW215558   4.589   4.430  14.561  0.7107  0.0084  1.0609
 1309SOL     OW15559   0.329   0.991  16.158 -0.2307 -0.7889  0.5518
 1309SOL    HW115560   0.269   1.060  16.187 -0.0335  0.0909 -1.1756
 1309SOL    HW215561   0.296   0.972  16.071  1.6933  0.1382 -0.3787
 1310SOL     OW15562   3.802   3.698   5.549  0.0973  0.3282  0.2045
 1310SOL    HW115563   3.804   3.791   5.572 -2.3629  0.2769  0.6446
 1310SOL    HW215564   3.720   3.689   5.501 -1.1520  2.3751  1.9403
 1311SOL     OW15565   3.691   2.295  16.831 -0.6895 -0.1499  0.5777
 1311SOL    HW115566   3.612   2.241  16.821 -0.0075 -1.3073  1.3501
 1311SOL    HW215567   3.660   2.358  16.895  1.0468  1.6603 -0.3500
 1312SOL     OW15568   3.839   4.608   3.469 -0.1995  0.4010 -0.1910
 1312SOL    HW115569   3.758   4.563   3.447  0.5794 -1.3468  0.5053
 1312SOL    HW215570   3.838   4.634   3.561  0.5659  0.1952 -0.1239
 1313SOL     OW15571   2.554   2.689  13.908 -0.1655  0.3486 -0.4232
 1313SOL    HW115572   2.503   2.680  13.827  0.5281  1.3247 -0.9642
 1313SOL    HW215573   2.485   2.676  13.973  1.1177 -0.0019  0.8565
 1314SOL     OW15574   3.974   0.459   4.551 -0.9525 -0.1491  0.1743
 1314SOL    HW115575   4.010   0.472   4.463 -0.3146 -1.0034  0.2979
 1314SOL    HW215576   3.923   0.379   4.539 -0.6928 -0.1106 -1.1076
 1315SOL     OW15577   4.623   3.524   2.910 -0.5898  0.1658  0.4391
 1315SOL    HW115578   4.657   3.478   2.833 -0.5013 -0.0371  0.6006
 1315SOL    HW215579   4.624   3.614   2.877  2.6074 -0.4648 -1.2872
 1316SOL     OW15580   0.966   1.154   3.164  0.5018 -0.2127 -0.3206
 1316SOL    HW115581   0.967   1.199   3.249  2.1886  1.3299 -1.1630
 1316SOL    HW215582   1.060   1.150   3.144  0.8457 -1.5246  1.4965
 1317SOL     OW15583   3.981   4.191   7.579  0.0599 -0.3131  0.9531
 1317SOL    HW115584   3.921   4.203   7.506  0.4495  2.1202  1.0524
 1317SOL    HW215585   4.017   4.114   7.535  1.4555  0.3099  0.9920
 1318SOL     OW15586   0.598   3.097   5.991 -0.5502 -0.4951 -0.4428
 1318SOL    HW115587   0.508   3.064   5.986 -0.6990 -0.2041  0.3100
 1318SOL    HW215588   0.588   3.173   6.048 -2.2644  0.4033 -1.9496
 1319SOL     OW15589   1.400   3.419   2.776  0.2487 -0.3479 -0.5163
 1319SOL    HW115590   1.453   3.442   2.699  1.6721 -0.3382  0.4577
 1319SOL    HW215591   1.364   3.334   2.751 -0.5288 -0.4702  1.0351
 1320SOL     OW15592   2.301   2.779   2.047  0.4159 -0.0008 -0.0517
 1320SOL    HW115593   2.376   2.807   2.100  1.8801 -3.4699 -0.3007
 1320SOL    HW215594   2.222   2.819   2.083  0.3190 -0.4435  0.2148
 1321SOL     OW15595   0.969   3.419   6.803 -0.0555 -0.6790  0.0371
 1321SOL    HW115596   1.015   3.342   6.836  0.9236 -0.7278 -1.4417
 1321SOL    HW215597   0.925   3.374   6.731  3.2379 -0.8602 -1.8782
 1322SOL     OW15598   1.591   4.264   1.439 -0.1839  0.2431 -0.9298
 1322SOL    HW115599   1.527   4.321   1.480  0.3177 -0.5879  1.0156
 1322SOL    HW215600   1.534   4.187   1.428 -0.8634  0.7614 -1.0074
 1323SOL     OW15601   4.561   1.910   9.781  0.6800 -0.3307 -0.2059
 1323SOL    HW115602   4.550   1.818   9.802 -0.9586 -0.3481 -1.1745
 1323SOL    HW215603   4.542   1.919   9.687 -0.3449 -1.8628 -0.1420
 1324SOL     OW15604   1.030   4.574   4.815 -0.0049 -0.1484  0.3197
 1324SOL    HW115605   1.043   4.606   4.905  2.7131 -1.4845  0.4228
 1324SOL    HW215606   0.978   4.495   4.824  1.2709 -1.0522 -0.2846
 1325SOL     OW15607   1.822   4.089   1.260 -0.5965 -0.1442 -0.4461
 1325SOL    HW115608   1.792   4.091   1.169 -1.0679  3.1764 -0.2150
 1325SOL    HW215609   1.820   3.995   1.277 -0.6262  0.0166  0.4088
 1326SOL     OW15610   1.254   1.835  15.510  0.6064  0.2164  0.0482
 1326SOL    HW115611   1.202   1.873  15.439 -1.6053 -1.5936  0.6829
 1326SOL    HW215612   1.269   1.748  15.475 -0.9089  0.0685 -0.2553
 1327SOL     OW15613   0.782   0.608   8.561 -0.4159  0.4104 -0.2095
 1327SOL    HW115614   0.822   0.621   8.647  0.4552 -2.4046 -0.1671
 1327SOL    HW215615   0.850   0.646   8.504  1.3384 -0.7244  1.1245
 1328SOL     OW15616   1.487   2.178   2.487 -0.0174  0.7235 -0.0266
 1328SOL    HW115617   1.523   2.136   2.564 -2.3701 -1.0333  0.1301
 1328SOL    HW215618   1.552   2.247   2.474  1.0780 -0.4072 -0.5595
 1329SOL     OW15619   2.675   3.890   4.072  0.4561 -0.4173  0.4697
 1329SOL    HW115620   2.618   3.956   4.112 -0.8218 -1.1241 -0.1569
 1329SOL    HW215621   2.629   3.873   3.989  1.7886 -0.2766 -0.2977
 1330SOL     OW15622   1.796   1.679  15.335 -0.0056  0.8963  0.2280
 1330SOL    HW115623   1.798   1.649  15.244  1.9452 -0.2164  0.6570
 1330SOL    HW215624   1.847   1.615  15.383  1.2449  2.8810  1.5564
 1331SOL     OW15625   1.299   2.481  14.395  0.1964 -0.1691  0.1769
 1331SOL    HW115626   1.356   2.550  14.360  0.0941  0.6089  1.5165
 1331SOL    HW215627   1.220   2.495  14.344  1.0105 -0.4821 -1.1514
 1332SOL     OW15628   1.739   0.910  15.104  0.2802  0.1721  0.3546
 1332SOL    HW115629   1.782   0.825  15.112  1.5238  0.8252  0.5986
 1332SOL    HW215630   1.656   0.898  15.151  2.1798  1.4990  4.0835
 1333SOL     OW15631   1.325   0.928   4.522  0.5695  0.1098 -0.4788
 1333SOL    HW115632   1.416   0.916   4.549  1.3628  0.3761 -3.0169
 1333SOL    HW215633   1.330   0.983   4.443  1.8926 -0.7366 -0.9767
 1334SOL     OW15634   1.280   0.665  10.172 -0.0015 -0.6970  0.5508
 1334SOL    HW115635   1.320   0.750  10.188  1.3617 -1.2256 -0.0246
 1334SOL    HW215636   1.190   0.695  10.188 -0.3976 -1.8432  0.4742
 1335SOL     OW15637   2.761   4.477  11.253 -0.3716 -0.1082 -0.1611
 1335SOL    HW115638   2.780   4.400  11.200  1.8412  1.3351 -1.4800
 1335SOL    HW215639   2.694   4.442  11.311 -0.2568  0.5409  0.3608
 1336SOL     OW15640   1.149   1.461   3.103 -0.5508 -0.3670  0.8439
 1336SOL    HW115641   1.168   1.542   3.055 -2.0781 -0.1637  0.5645
 1336SOL    HW215642   1.085   1.502   3.161  0.4065 -0.8815  2.2422
 1337SOL     OW15643   0.980   3.201   7.536 -0.3821 -0.4990  0.5461
 1337SOL    HW115644   0.936   3.153   7.466 -1.2968 -1.4201  1.7563
 1337SOL    HW215645   0.915   3.240   7.595 -2.3123 -1.0215 -1.2564
 1338SOL     OW15646   3.078   1.758   3.380  0.0560 -0.2365  0.3499
 1338SOL    HW115647   3.060   1.827   3.443 -1.7040 -1.7175  1.4792
 1338SOL    HW215648   3.074   1.672   3.423  2.2965 -0.1658  0.6898
 1339SOL     OW15649   3.311   4.646   3.460  0.1422  0.0316  0.1630
 1339SOL    HW115650   3.258   4.576   3.497  0.8310 -1.1605 -1.0969
 1339SOL    HW215651   3.264   4.714   3.509  0.2012  0.4725 -0.3982
 1340SOL     OW15652   0.424   0.509   2.184 -0.0904  0.1400 -0.0342
 1340SOL    HW115653   0.412   0.540   2.095 -0.3699 -1.6737 -0.6080
 1340SOL    HW215654   0.372   0.429   2.191  0.3815 -0.1030  0.7929
 1341SOL     OW15655   0.407   3.162   4.989 -0.4872  0.1902  0.3968
 1341SOL    HW115656   0.431   3.122   4.905  1.6589  1.6638  0.3026
 1341SOL    HW215657   0.379   3.086   5.039 -0.0810 -0.1347  0.1227
 1342SOL     OW15658   4.383   0.470  13.008 -0.4382 -0.3248  0.5364
 1342SOL    HW115659   4.444   0.527  13.057 -1.8765  0.5283  1.3278
 1342SOL    HW215660   4.366   0.408  13.079 -3.1283  1.7305  1.7171
 1343SOL     OW15661   4.100   1.034   7.712  0.3677 -0.1204  0.3137
 1343SOL    HW115662   4.175   1.047   7.655  1.4151  0.7755  1.8904
 1343SOL    HW215663   4.143   0.989   7.785  0.1211  1.8137  1.6686
 1344SOL     OW15664   1.973   4.379   8.986 -0.5531  0.5571  0.2624
 1344SOL    HW115665   1.936   4.462   8.959  2.5026  1.9403  0.2961
 1344SOL    HW215666   1.927   4.307   8.943 -2.4149  1.9595 -0.0492
 1345SOL     OW15667   4.368   1.015   6.025 -0.5589  0.2969  0.2438
 1345SOL    HW115668   4.276   1.029   6.047 -0.9337  0.7682 -1.6812
 1345SOL    HW215669   4.357   1.007   5.930 -1.2524  1.7180  0.2057
 1346SOL     OW15670   2.295   4.631  17.555  0.7268 -0.3655  0.2591
 1346SOL    HW115671   2.333   4.566  17.615  0.7106  0.0818  0.7552
 1346SOL    HW215672   2.368   4.693  17.560  1.6483 -1.4166 -0.1809
 1347SOL     OW15673   2.107   4.234   1.594 -0.4327  0.3698 -0.1947
 1347SOL    HW115674   2.024   4.187   1.608  1.5716 -3.4672 -1.1365
 1347SOL    HW215675   2.079   4.323   1.575 -1.6561  0.8026  3.6077
 1348SOL     OW15676   4.447   4.315   9.966 -0.5820 -0.6642  0.3181
 1348SOL    HW115677   4.422   4.368   9.891 -2.3436 -2.6334 -0.4727
 1348SOL    HW215678   4.382   4.348  10.028 -1.5031 -0.8007 -0.5883
 1349SOL     OW15679   1.819   3.017   5.590  0.4199 -0.6266 -0.0579
 1349SOL    HW115680   1.788   3.104   5.563 -0.6324 -1.4896 -1.6762
 1349SOL    HW215681   1.900   3.039   5.636  0.3874  0.4478 -0.5179
 1350SOL     OW15682   1.147   3.522   8.431 -0.5034 -0.3288 -0.5507
 1350SOL    HW115683   1.218   3.461   8.450 -0.3589 -0.6919 -2.2494
 1350SOL    HW215684   1.198   3.598   8.402 -1.0711  0.3335  0.1780
 1351SOL     OW15685   2.512   3.787   9.303  0.3152  0.2014 -0.1013
 1351SOL    HW115686   2.583   3.790   9.367  1.9096  1.9429 -1.9501
 1351SOL    HW215687   2.530   3.709   9.250 -2.4495 -0.1630 -0.5010
 1352SOL     OW15688   2.585   1.991  15.913 -0.0817 -0.0141 -0.0985
 1352SOL    HW115689   2.525   1.939  15.859  3.0332 -2.1007 -1.5450
 1352SOL    HW215690   2.641   2.025  15.843 -0.4609 -0.5206 -0.6523
 1353SOL     OW15691   0.135   4.490   8.307 -0.1408  0.5073 -0.0912
 1353SOL    HW115692   0.066   4.482   8.240 -0.0038 -0.6153 -0.0963
 1353SOL    HW215693   0.111   4.433   8.380  1.7299  0.5824  0.5649
 1354SOL     OW15694   3.023   0.262   9.155 -0.4740  0.1062 -0.0403
 1354SOL    HW115695   2.984   0.247   9.241  0.1714 -2.6031 -0.2298
 1354SOL    HW215696   3.115   0.245   9.177 -1.0649 -2.0141  0.7950
 1355SOL     OW15697   4.674   4.628  11.093  0.6319 -0.0263  0.4566
 1355SOL    HW115698   4.696   4.719  11.075 -3.0014  0.5151 -1.1977
 1355SOL    HW215699   0.015   4.593  11.049  1.1015  1.2909  0.2349
 1356SOL     OW15700   0.216   3.106   8.029  0.8882 -0.2455 -0.5963
 1356SOL    HW115701   0.293   3.077   8.077  0.4651  0.7166  0.6692
 1356SOL    HW215702   0.151   3.036   8.033 -0.6200  1.1771 -0.1784
 1357SOL     OW15703   3.119   1.333   6.107  0.0963  0.1353  0.2802
 1357SOL    HW115704   3.073   1.251   6.126  0.3848  0.0685  0.6772
 1357SOL    HW215705   3.162   1.306   6.026  0.6512  3.5769 -0.5768
 1358SOL     OW15706   3.432   4.161  13.451  0.2752 -0.0466 -0.7226
 1358SOL    HW115707   3.486   4.178  13.528  2.0015  1.9600 -2.3488
 1358SOL    HW215708   3.402   4.249  13.429 -0.6330 -0.3339 -0.6038
 1359SOL     OW15709   1.267   1.308   0.906 -0.1255  0.1889  0.3171
 1359SOL    HW115710   1.226   1.365   0.842 -1.9375  0.8127  2.0643
 1359SOL    HW215711   1.260   1.228   0.854  0.4669 -2.0546  3.7049
 1360SOL     OW15712   2.379   0.998   8.430  0.2350 -0.3766 -0.2124
 1360SOL    HW115713   2.392   0.903   8.422 -0.0373 -0.4565  0.3089
 1360SOL    HW215714   2.323   1.013   8.354 -1.2665  0.1079  0.9908
 1361SOL     OW15715   0.741   2.922  16.120 -0.6672 -0.5413  0.0983
 1361SOL    HW115716   0.820   2.950  16.075  1.0737 -0.5476  3.1777
 1361SOL    HW215717   0.712   2.997  16.172  2.6911  1.3406 -0.7339
 1362SOL     OW15718   3.414   4.382   5.295  0.4211  0.8450  0.9845
 1362SOL    HW115719   3.361   4.452   5.259  0.6356  0.5126  0.0150
 1362SOL    HW215720   3.488   4.382   5.233  1.6486  1.7451  2.4561
 1363SOL     OW15721   0.843   4.402   2.486  0.5299 -0.0453  0.4010
 1363SOL    HW115722   0.877   4.364   2.406 -2.5329 -0.2180 -0.8265
 1363SOL    HW215723   0.776   4.461   2.450  0.2603 -2.2707 -2.7611
 1364SOL     OW15724   1.455   1.589   8.994  0.7285 -0.6718  0.9573
 1364SOL    HW115725   1.460   1.588   9.089 -0.3353  0.8615  1.0227
 1364SOL    HW215726   1.480   1.501   8.967  2.1954 -0.1288  0.5598
 1365SOL     OW15727   0.033   3.485  14.439  0.0553  0.7459  0.5679
 1365SOL    HW115728   4.704   3.545  14.403 -0.8366 -1.1859 -1.0592
 1365SOL    HW215729   0.109   3.523  14.396 -0.3895 -1.2898 -1.9936
 1366SOL     OW15730   1.449   1.126   2.630  0.0305  0.3858 -0.4361
 1366SOL    HW115731   1.409   1.080   2.704 -0.4211  0.3839 -0.6830
 1366SOL    HW215732   1.541   1.102   2.640  0.1297  0.7945 -0.3621
 1367SOL     OW15733   1.391   2.733   9.501 -0.5597 -0.6820 -0.2112
 1367SOL    HW115734   1.465   2.692   9.457 -1.9809 -1.6296 -1.7103
 1367SOL    HW215735   1.411   2.822   9.472 -3.7425 -0.5457 -1.9594
 1368SOL     OW15736   1.869   0.380   8.812  0.8641  0.0485 -0.2019
 1368SOL    HW115737   1.894   0.409   8.899 -1.0373 -1.4596  0.8595
 1368SOL    HW215738   1.841   0.292   8.836 -2.9436  0.6392 -2.5041
 1369SOL     OW15739   3.750   4.345  14.733  0.2004 -0.2126  0.0678
 1369SOL    HW115740   3.820   4.293  14.694  1.2891 -0.8327  2.8697
 1369SOL    HW215741   3.776   4.348  14.825 -0.8518  0.6472  0.3439
 1370SOL     OW15742   4.587   1.394   2.519  0.3160  0.2247 -0.5365
 1370SOL    HW115743   4.651   1.370   2.586  0.1364 -0.8061 -0.7450
 1370SOL    HW215744   4.519   1.424   2.580  0.3504 -0.1351 -0.3229
 1371SOL     OW15745   4.147   4.692   4.754 -0.2232  0.4395 -0.5948
 1371SOL    HW115746   4.081   0.027   4.753 -2.4489 -1.6969 -3.2066
 1371SOL    HW215747   4.122   4.633   4.825 -0.3131 -0.4341 -1.3586
 1372SOL     OW15748   3.518   1.849  15.289 -0.2949  0.0743 -0.1307
 1372SOL    HW115749   3.449   1.861  15.354  0.0534 -0.8801  0.4165
 1372SOL    HW215750   3.487   1.783  15.228 -0.8318 -0.5182  0.7766
 1373SOL     OW15751   0.503   0.251  17.336  0.6582  0.4021  0.2754
 1373SOL    HW115752   0.481   0.279  17.247  0.0462 -0.4469  0.1567
 1373SOL    HW215753   0.575   0.191  17.315  0.8849 -0.3359  3.1960
 1374SOL     OW15754   1.523   3.550  17.690  0.6947 -0.4083  0.1534
 1374SOL    HW115755   1.614   3.557  17.663  1.1217 -0.0135  1.7054
 1374SOL    HW215756   1.485   3.610  17.626 -1.0242 -2.6516 -0.9407
 1375SOL     OW15757   3.664   2.420   6.697  1.0684  0.4084 -0.0801
 1375SOL    HW115758   3.633   2.329   6.698  4.0688 -0.6104  0.1808
 1375SOL    HW215759   3.743   2.408   6.750  0.0637 -2.0448  0.8526
 1376SOL     OW15760   2.823   1.915   6.334  0.1462  0.4049 -0.0783
 1376SOL    HW115761   2.738   1.944   6.368 -0.6372  0.2011 -1.8667
 1376SOL    HW215762   2.837   1.856   6.407  0.4387  1.3466  0.6277
 1377SOL     OW15763   3.053   4.232   6.823 -0.1473  0.1176 -0.0206
 1377SOL    HW115764   2.964   4.267   6.818 -0.0599  0.2484 -0.6435
 1377SOL    HW215765   3.109   4.309   6.810  0.0449  0.4688  2.8319
 1378SOL     OW15766   0.967   2.023   2.268 -0.3311  0.2598 -0.3060
 1378SOL    HW115767   0.994   1.933   2.283 -1.2369 -0.0080 -0.2792
 1378SOL    HW215768   0.972   2.062   2.355  1.5643  1.6922 -1.0591
 1379SOL     OW15769   0.273   0.200   1.262 -0.1729 -0.1899 -0.4232
 1379SOL    HW115770   0.207   0.264   1.232 -0.8198 -0.3458  0.6629
 1379SOL    HW215771   0.331   0.193   1.186  0.3831  3.1252 -0.3197
 1380SOL     OW15772   3.274   1.827   1.514  0.2431  0.3468  0.1225
 1380SOL    HW115773   3.243   1.858   1.429 -0.0568 -0.0901  0.0729
 1380SOL    HW215774   3.305   1.743   1.481 -1.2716 -0.5842  1.0525
 1381SOL     OW15775   0.220   1.421   5.229 -0.0723 -0.0506 -0.1003
 1381SOL    HW115776   0.141   1.475   5.224 -0.8205 -1.0309  1.4167
 1381SOL    HW215777   0.180   1.338   5.255  0.0022  0.3865  1.4089
 1382SOL     OW15778   1.256   1.567  16.026  0.3443 -0.2884  0.4898
 1382SOL    HW115779   1.346   1.571  15.993 -0.4310  0.0836 -1.5620
 1382SOL    HW215780   1.220   1.590  15.941 -1.1587 -1.0794  0.9163
 1383SOL     OW15781   4.420   0.382   4.884  0.0270 -0.2276 -0.3774
 1383SOL    HW115782   4.403   0.405   4.793  0.6677  0.9764 -0.1986
 1383SOL    HW215783   4.333   0.379   4.924  0.6943  0.3812  1.1513
 1384SOL     OW15784   2.935   1.548   1.689 -0.1453 -0.2465  0.2894
 1384SOL    HW115785   2.973   1.619   1.636  0.0451 -1.4018 -1.1314
 1384SOL    HW215786   2.891   1.501   1.618  1.2873 -0.4809 -0.4419
 1385SOL     OW15787   2.507   2.729  12.851  0.3971  0.0836  0.1638
 1385SOL    HW115788   2.543   2.716  12.764 -0.1621  0.1273 -0.0741
 1385SOL    HW215789   2.466   2.814  12.836 -1.0100 -0.2283  2.1548
 1386SOL     OW15790   0.920   4.585   3.701 -0.1488  0.2616  0.4446
 1386SOL    HW115791   0.975   4.601   3.779  0.6411 -3.6006  0.6967
 1386SOL    HW215792   0.865   4.662   3.691 -1.4279 -0.8796 -1.2816
 1387SOL     OW15793   3.293   1.371   6.325 -0.3264  0.6539  0.0041
 1387SOL    HW115794   3.358   1.313   6.285 -1.4070  0.5833 -1.6617
 1387SOL    HW215795   3.225   1.368   6.257 -0.6129 -2.6425  0.4435
 1388SOL     OW15796   1.938   3.557   6.816 -0.1253  0.0932 -0.5628
 1388SOL    HW115797   1.847   3.588   6.824  0.0609  0.5720 -0.3310
 1388SOL    HW215798   1.943   3.494   6.888 -0.2693  0.5597 -0.1398
 1389SOL     OW15799   1.477   3.409  17.321  0.1411 -0.5890 -0.3057
 1389SOL    HW115800   1.555   3.380  17.369  1.8406  2.3601 -1.3414
 1389SOL    HW215801   1.466   3.335  17.261  0.4972 -0.3505 -0.6676
 1390SOL     OW15802   3.435   3.496   8.112  0.0943 -0.0274 -0.2769
 1390SOL    HW115803   3.484   3.417   8.088  1.1417  0.6224 -0.2521
 1390SOL    HW215804   3.464   3.567   8.054 -1.7785  0.0176 -1.1396
 1391SOL     OW15805   4.454   4.553  12.900 -0.7424  0.1299  0.3273
 1391SOL    HW115806   4.410   4.483  12.852  1.3412 -1.6056  0.9216
 1391SOL    HW215807   4.504   4.594  12.830  1.7171 -1.0879  1.3657
 1392SOL     OW15808   2.632   4.177   6.265 -0.4429  0.1781  0.3947
 1392SOL    HW115809   2.662   4.089   6.246  0.3999  1.1757 -2.9118
 1392SOL    HW215810   2.578   4.157   6.341  0.0478  0.1496  0.7378
 1393SOL     OW15811   0.203   2.621   5.229  0.2639  0.1992 -0.1682
 1393SOL    HW115812   0.248   2.563   5.290 -0.1107  1.0560  0.9273
 1393SOL    HW215813   0.278   2.666   5.189 -1.4010  1.6817 -1.6134
 1394SOL     OW15814   1.362   0.045   8.034 -0.6043  0.3489 -0.2627
 1394SOL    HW115815   1.361   4.686   8.035  2.1635  0.2765 -2.6981
 1394SOL    HW215816   1.308   0.065   8.111 -1.1941  1.7519 -1.0310
 1395SOL     OW15817   1.981   3.836  12.274 -0.6950  0.5877  0.2012
 1395SOL    HW115818   1.981   3.744  12.298  1.1439  0.7298  0.6965
 1395SOL    HW215819   1.927   3.821  12.196 -2.4185 -1.2274  1.7404
 1396SOL     OW15820   2.923   0.150   5.240 -0.1317  0.4603  0.4861
 1396SOL    HW115821   2.945   0.108   5.157  1.2907  1.6884  0.2326
 1396SOL    HW215822   2.928   0.094   5.318 -0.5895  0.3438  0.4287
 1397SOL     OW15823   3.273   1.482   5.125 -0.0686  0.4603  0.7052
 1397SOL    HW115824   3.297   1.568   5.160 -0.4775  0.1166  1.8176
 1397SOL    HW215825   3.346   1.423   5.142 -1.1105 -0.6375  1.3778
 1398SOL     OW15826   0.367   4.133   6.761  0.1070  0.0321 -0.2237
 1398SOL    HW115827   0.410   4.148   6.677  2.8617 -0.7455  1.0746
 1398SOL    HW215828   0.434   4.171   6.817  0.8218 -2.5148  0.6259
 1399SOL     OW15829   4.058   3.369   8.998  0.8226 -0.0009  0.5001
 1399SOL    HW115830   3.973   3.351   8.959 -0.1646  4.2793  0.7698
 1399SOL    HW215831   4.076   3.295   9.056  3.1890 -0.8950 -1.3748
 1400SOL     OW15832   3.646   0.527   5.984 -0.1130 -0.2415  0.1853
 1400SOL    HW115833   3.740   0.517   6.001 -0.8169 -3.8242  1.9517
 1400SOL    HW215834   3.633   0.484   5.899  2.8375  1.9401 -1.3821
 1401SOL     OW15835   3.122   3.327   3.292  0.1436  0.2909  0.1766
 1401SOL    HW115836   3.107   3.352   3.383 -1.4322 -0.5627  0.1487
 1401SOL    HW215837   3.198   3.378   3.264  1.6208 -2.3425 -0.5446
 1402SOL     OW15838   3.971   1.127   6.854  0.0657  0.1343  0.2446
 1402SOL    HW115839   3.902   1.068   6.883 -1.0244  0.4100 -1.8200
 1402SOL    HW215840   3.933   1.167   6.776  1.7720  0.2696 -0.5193
 1403SOL     OW15841   2.846   3.038   4.996 -0.7411  0.3911  0.2227
 1403SOL    HW115842   2.839   3.122   4.950  1.5533  0.3616 -0.1862
 1403SOL    HW215843   2.937   3.019   4.972 -0.5139  1.7614  0.0416
 1404SOL     OW15844   1.969   1.675   3.020 -1.1769  0.0497  0.8114
 1404SOL    HW115845   2.042   1.736   3.031 -0.3575 -0.8069  0.2042
 1404SOL    HW215846   2.023   1.599   2.997 -3.6446 -2.0840  1.9625
 1405SOL     OW15847   3.800   2.419  15.932 -0.5505  0.2747 -0.4539
 1405SOL    HW115848   3.886   2.377  15.922 -1.6032 -2.0172  0.3240
 1405SOL    HW215849   3.792   2.469  16.013  0.7179  0.3587 -0.3681
 1406SOL     OW15850   4.645   1.769   5.694 -0.4757 -0.1270  0.3336
 1406SOL    HW115851   4.706   1.696   5.679 -0.1210  0.2988 -0.3056
 1406SOL    HW215852   4.590   1.728   5.760 -0.9127 -1.6347 -0.9653
 1407SOL     OW15853   0.507   0.886  14.568 -0.1614 -0.3099 -0.3777
 1407SOL    HW115854   0.602   0.892  14.562  0.0769 -3.0556  0.3188
 1407SOL    HW215855   0.488   0.905  14.660 -1.6587 -0.4197 -0.6682
 1408SOL     OW15856   2.271   3.811   2.735  0.3884  0.7736  0.1367
 1408SOL    HW115857   2.316   3.890   2.765 -2.9626  2.2509  1.3300
 1408SOL    HW215858   2.203   3.842   2.674  0.7972  1.2142 -0.0978
 1409SOL     OW15859   1.742   0.973   6.992  0.0015  0.1178  0.2090
 1409SOL    HW115860   1.819   1.023   6.968 -0.9207  0.4091 -2.2148
 1409SOL    HW215861   1.720   0.913   6.920 -0.0601  1.3991 -0.8406
 1410SOL     OW15862   0.230   0.841   7.763 -0.1617  0.1112 -0.4570
 1410SOL    HW115863   0.221   0.932   7.791 -0.1669 -0.7286  2.2457
 1410SOL    HW215864   0.297   0.823   7.828 -0.1798  0.5714 -0.3072
 1411SOL     OW15865   0.498   3.646   7.189  0.3462 -0.0490 -0.1555
 1411SOL    HW115866   0.549   3.723   7.162 -3.0015  2.6352  1.2778
 1411SOL    HW215867   0.522   3.641   7.282  1.3099 -3.0771 -0.5542
 1412SOL     OW15868   2.357   3.220   3.748 -0.0502  0.0483  0.2003
 1412SOL    HW115869   2.314   3.134   3.747 -0.0728  0.0901 -1.6178
 1412SOL    HW215870   2.286   3.259   3.800 -0.9149  0.0484 -0.9850
 1413SOL     OW15871   1.195   0.620   6.253 -1.3504 -0.9029 -0.1168
 1413SOL    HW115872   1.192   0.678   6.329  0.9186 -0.4549 -0.3561
 1413SOL    HW215873   1.282   0.583   6.267 -0.6860  0.7535  0.1711
 1414SOL     OW15874   3.121   0.418   8.661  0.1838  0.0727  0.1671
 1414SOL    HW115875   3.189   0.462   8.609  0.0438 -0.4143 -0.4347
 1414SOL    HW215876   3.072   0.494   8.691  0.7847  0.8553 -0.8182
 1415SOL     OW15877   0.911   0.025   1.024 -0.2655 -0.1399  0.4301
 1415SOL    HW115878   0.816   0.037   1.016  0.0990  1.8395 -0.8850
 1415SOL    HW215879   0.912   4.712   1.106  0.1427  0.1884  0.6191
 1416SOL     OW15880   2.450   4.606   1.661 -0.1775 -0.1095  0.1576
 1416SOL    HW115881   2.516   4.676   1.667 -0.5724 -0.0062  3.2899
 1416SOL    HW215882   2.369   4.653   1.678  0.5741  2.2704 -2.7313
 1417SOL     OW15883   1.014   1.862  14.162 -0.0901 -0.3805  0.0549
 1417SOL    HW115884   1.026   1.926  14.092 -0.5580 -1.0339 -0.6216
 1417SOL    HW215885   1.038   1.916  14.237 -0.6840  2.9317 -2.1267
 1418SOL     OW15886   4.292   3.010   2.314  0.0210  0.2831 -0.7011
 1418SOL    HW115887   4.217   3.059   2.347  0.6446  2.4113 -2.4769
 1418SOL    HW215888   4.236   2.943   2.275 -1.4210  1.4491 -0.6215
 1419SOL     OW15889   1.316   4.116  10.209 -0.3189 -0.0309 -0.6200
 1419SOL    HW115890   1.274   4.033  10.184  0.1177 -1.2220  2.5924
 1419SOL    HW215891   1.379   4.081  10.271 -2.1513 -0.2904  1.0975
 1420SOL     OW15892   0.229   4.463   3.980  0.2727  0.2618 -0.4200
 1420SOL    HW115893   0.171   4.435   4.051  0.5241 -1.6673 -0.9751
 1420SOL    HW215894   0.242   4.556   3.998 -1.8571  0.2361  1.2179
 1421SOL     OW15895   2.247   4.036   7.275  0.3961 -0.2105  0.2047
 1421SOL    HW115896   2.167   4.064   7.318  0.2632  0.3523 -0.4134
 1421SOL    HW215897   2.236   4.083   7.193 -0.3379  0.9406  0.9628
 1422SOL     OW15898   1.825   0.374  15.246 -0.2019 -0.2633 -0.0854
 1422SOL    HW115899   1.889   0.407  15.183 -0.9854  0.8901 -0.2814
 1422SOL    HW215900   1.797   0.445  15.304  1.4240  1.1357 -1.0179
 1423SOL     OW15901   4.414   2.459  12.022  0.4061 -0.4125  0.2586
 1423SOL    HW115902   4.397   2.365  12.009  0.4404 -0.4767  0.6772
 1423SOL    HW215903   4.326   2.492  12.040  0.8943  0.1548  1.6685
 1424SOL     OW15904   4.094   2.350  14.601  0.3773  0.1999  0.2703
 1424SOL    HW115905   4.060   2.400  14.675  0.7007 -1.9968  1.9344
 1424SOL    HW215906   4.096   2.416  14.532 -1.9159 -0.6318 -0.6095
 1425SOL     OW15907   4.457   2.105   4.355  0.5424  0.1454  0.4174
 1425SOL    HW115908   4.509   2.055   4.418 -0.1144 -1.8752 -0.6773
 1425SOL    HW215909   4.373   2.062   4.343 -0.1685  1.4448  0.6828
 1426SOL     OW15910   1.113   3.614   9.718  0.1051  0.2893 -0.2640
 1426SOL    HW115911   1.157   3.563   9.785 -0.1335  0.8372  0.3094
 1426SOL    HW215912   1.040   3.557   9.696  1.4394 -1.3547 -0.4194
 1427SOL     OW15913   0.646   2.072   9.284 -0.0027  0.1605  0.1889
 1427SOL    HW115914   0.733   2.076   9.322 -0.3157  0.2785  0.9056
 1427SOL    HW215915   0.647   1.991   9.233 -1.1287 -0.3068  0.8986
 1428SOL     OW15916   1.223   1.966   5.761  0.4958 -0.7379  0.1399
 1428SOL    HW115917   1.316   1.987   5.773  0.3990 -1.5554  2.2505
 1428SOL    HW215918   1.173   2.047   5.754  3.0683  0.8470  0.0440
 1429SOL     OW15919   2.889   3.585   1.900 -0.0847  0.3841  0.5847
 1429SOL    HW115920   2.864   3.523   1.832 -2.1922  1.6174  0.2682
 1429SOL    HW215921   2.984   3.573   1.896  0.0660  0.9487  2.1929
 1430SOL     OW15922   2.467   4.400   3.842 -0.4682 -0.2414 -0.5930
 1430SOL    HW115923   2.379   4.379   3.873 -1.2352  0.4142 -2.3210
 1430SOL    HW215924   2.445   4.439   3.757  0.0432  0.5263 -0.3746
 1431SOL     OW15925   2.122   4.726   9.648  0.1470 -0.3886 -0.6549
 1431SOL    HW115926   2.207   4.683   9.643  0.5250  0.2463  0.3003
 1431SOL    HW215927   2.069   4.666   9.699  0.3693  1.0271  1.2232
 1432SOL     OW15928   3.623   4.503   8.056  0.7220  0.3567  0.4778
 1432SOL    HW115929   3.533   4.479   8.030  0.5260  0.3323  1.1867
 1432SOL    HW215930   3.642   4.566   7.986 -1.1386 -0.4122 -0.7391
 1433SOL     OW15931   4.185   0.346   5.045  1.2229 -0.6153  0.0021
 1433SOL    HW115932   4.258   0.309   5.095 -0.4233  1.0457  3.5547
 1433SOL    HW215933   4.116   0.288   5.077 -0.1090  2.1285  2.0917
 1434SOL     OW15934   3.251   0.064   6.108 -0.0246 -0.4447  0.7850
 1434SOL    HW115935   3.330   0.090   6.061 -0.6087  0.1562  0.1288
 1434SOL    HW215936   3.254   4.705   6.110  0.2192 -0.4125  2.0096
 1435SOL     OW15937   1.125   1.989  16.317  0.5927 -0.2618 -0.0323
 1435SOL    HW115938   1.119   1.909  16.265 -0.1220  0.6302 -1.3230
 1435SOL    HW215939   1.192   1.967  16.382 -0.9762 -2.0395  0.9807
 1436SOL     OW15940   2.792   4.152   6.016  0.6711 -0.4430 -0.4323
 1436SOL    HW115941   2.772   4.058   6.025 -2.3541  0.1078 -1.3177
 1436SOL    HW215942   2.769   4.163   5.924 -0.4524  1.6900  0.1116
 1437SOL     OW15943   2.733   4.037   0.394 -0.0944  0.1567 -0.1417
 1437SOL    HW115944   2.680   4.064   0.469  0.5255  2.0953 -0.4283
 1437SOL    HW215945   2.769   4.121   0.367  1.4307 -0.5069 -0.1573
 1438SOL     OW15946   1.571   4.183   9.741 -0.5875 -0.0024 -0.5120
 1438SOL    HW115947   1.533   4.097   9.727 -0.5440 -0.2812  1.0374
 1438SOL    HW215948   1.523   4.206   9.821 -0.6080  0.5300 -0.6773
 1439SOL     OW15949   2.842   0.709   2.129 -0.2490  0.2168 -0.3402
 1439SOL    HW115950   2.837   0.737   2.038  0.0857 -1.1200 -0.7660
 1439SOL    HW215951   2.926   0.752   2.149  0.2532 -0.9165 -0.0012
 1440SOL     OW15952   3.895   0.094   9.967 -0.0996  0.7993  0.0051
 1440SOL    HW115953   3.839   0.076  10.043  1.8953  0.5952  1.4161
 1440SOL    HW215954   3.885   0.012   9.919  1.0871  0.9936 -0.5619
 1441SOL     OW15955   0.155   0.904   2.818 -0.2201 -0.4299  0.7883
 1441SOL    HW115956   0.244   0.937   2.814  0.2688 -1.5742  1.9639
 1441SOL    HW215957   0.104   0.975   2.780  1.1970 -0.3952 -1.0136
 1442SOL     OW15958   2.754   1.213   4.782  0.2792  0.4178 -0.3228
 1442SOL    HW115959   2.693   1.171   4.843  1.1580  0.4224  0.5491
 1442SOL    HW215960   2.696   1.229   4.708  0.4042 -2.4423 -1.0404
 1443SOL     OW15961   3.434   1.436   0.672  0.0864  0.8553  0.3620
 1443SOL    HW115962   3.398   1.516   0.633  1.7092  1.3286 -0.1623
 1443SOL    HW215963   3.456   1.383   0.595 -0.2132  0.3631  0.6179
 1444SOL     OW15964   1.243   3.010  13.128 -0.1932  0.0355  0.0061
 1444SOL    HW115965   1.298   3.057  13.066 -0.7500  2.4637  1.3639
 1444SOL    HW215966   1.312   2.950  13.155  1.7409  1.9030 -0.7627
 1445SOL     OW15967   2.617   4.356  11.005  0.3548 -0.0188 -0.1822
 1445SOL    HW115968   2.588   4.442  11.033  0.7217  0.3157 -0.8252
 1445SOL    HW215969   2.686   4.370  10.940  0.0961  0.6717 -0.3085
 1446SOL     OW15970   3.409   4.368   2.332 -0.1557 -0.9510 -0.3566
 1446SOL    HW115971   3.444   4.454   2.307 -1.1557 -1.3457 -3.1514
 1446SOL    HW215972   3.322   4.398   2.359 -0.2655 -1.0219 -0.6373
 1447SOL     OW15973   3.540   1.573   6.850  0.0346 -0.1434  0.4438
 1447SOL    HW115974   3.505   1.662   6.850  0.5503  0.0552 -0.8707
 1447SOL    HW215975   3.575   1.574   6.939  1.8141  0.7652 -0.2622
 1448SOL     OW15976   4.344   3.703   2.022  0.6258  0.3146 -0.7952
 1448SOL    HW115977   4.335   3.611   1.998  0.1998 -0.6046  2.8841
 1448SOL    HW215978   4.266   3.733   1.975  1.0633  1.2689 -0.9213
 1449SOL     OW15979   3.944   1.491  15.236 -0.2899 -0.0669  0.2598
 1449SOL    HW115980   3.964   1.495  15.329  0.2112 -3.1930  0.2881
 1449SOL    HW215981   3.848   1.500  15.231 -0.1649  1.0498 -0.1167
 1450SOL     OW15982   4.437   4.631   3.289 -0.1227  0.1321 -0.4716
 1450SOL    HW115983   4.487   4.687   3.349 -0.1846 -2.8197  2.2908
 1450SOL    HW215984   4.453   4.665   3.201 -1.0263  1.7125 -0.0229
 1451SOL     OW15985   2.207   3.939   1.538 -0.0712 -0.4011 -0.1751
 1451SOL    HW115986   2.234   4.027   1.563 -0.5445  0.1638 -1.6735
 1451SOL    HW215987   2.264   3.891   1.598  0.3981 -0.3419 -0.5739
 1452SOL     OW15988   2.543   4.000   5.929  0.2622 -0.4031  0.4370
 1452SOL    HW115989   2.543   3.973   5.837 -0.0013  0.4706  0.1832
 1452SOL    HW215990   2.503   3.923   5.969  0.2708 -0.3221  0.6000
 1453SOL     OW15991   3.020   1.793  12.982  0.6682  0.1906 -0.6279
 1453SOL    HW115992   3.012   1.769  12.890  0.0888  1.6437 -0.9368
 1453SOL    HW215993   2.961   1.868  12.983 -0.5925 -0.8155  1.8522
 1454SOL     OW15994   2.501   2.068   8.229 -0.7461  0.4894 -0.0541
 1454SOL    HW115995   2.423   2.014   8.219  0.3474 -0.9748 -0.7000
 1454SOL    HW215996   2.471   2.114   8.307 -1.8767 -1.2339  0.5351
 1455SOL     OW15997   1.138   0.841   2.149  0.4459  0.4410 -0.0493
 1455SOL    HW115998   1.131   0.890   2.067 -0.1919  0.2931 -0.0845
 1455SOL    HW215999   1.073   0.772   2.136  1.7877 -1.1797  1.7983
 1456SOL     OW16000   4.112   1.067   5.533 -0.1295  0.2717 -0.3291
 1456SOL    HW116001   4.183   1.105   5.481  0.7738  0.0404  0.7315
 1456SOL    HW216002   4.093   0.988   5.482  0.8412  0.0458 -0.3346
 1457SOL     OW16003   2.873   2.237   8.812  0.4291  0.2084 -0.4615
 1457SOL    HW116004   2.901   2.183   8.886  0.5451 -2.7437 -2.6564
 1457SOL    HW216005   2.883   2.322   8.855  2.8910  0.7436 -2.0959
 1458SOL     OW16006   2.121   0.414  15.825 -0.1806 -0.2582 -0.8551
 1458SOL    HW116007   2.212   0.424  15.797  0.4041 -0.6212  0.9030
 1458SOL    HW216008   2.100   0.328  15.790  1.3383 -0.5536 -1.0370
 1459SOL     OW16009   0.724   1.855   5.826  0.0330 -0.0079  0.5626
 1459SOL    HW116010   0.714   1.777   5.881 -3.6413  0.5200  0.6502
 1459SOL    HW216011   0.820   1.849   5.828 -0.1721 -2.4515  2.7296
 1460SOL     OW16012   1.314   1.882  16.872  0.1750 -0.1730 -0.0888
 1460SOL    HW116013   1.347   1.868  16.960 -2.7023  0.6307  1.1028
 1460SOL    HW216014   1.264   1.802  16.858  2.4074 -1.3671 -1.2564
 1461SOL     OW16015   0.742   0.180  10.186 -0.1294  0.1269  0.4045
 1461SOL    HW116016   0.742   0.270  10.218 -1.6948 -0.0178  0.8386
 1461SOL    HW216017   0.801   0.125  10.237  0.0563 -0.1606 -0.1206
 1462SOL     OW16018   2.062   2.273  16.516  0.4489  0.1304 -0.6147
 1462SOL    HW116019   1.978   2.233  16.492  0.6057 -1.2600  1.0809
 1462SOL    HW216020   2.062   2.272  16.612  0.3655 -0.8854 -0.6247
 1463SOL     OW16021   4.562   3.094   4.145 -0.3039  0.7859  0.4401
 1463SOL    HW116022   4.504   3.067   4.073  1.2646  0.0855 -0.5579
 1463SOL    HW216023   4.642   3.125   4.103 -0.7881  2.2434  0.5717
 1464SOL     OW16024   3.328   3.430   3.139 -0.3525 -0.0805  0.0943
 1464SOL    HW116025   3.370   3.349   3.113  0.3809 -0.2234  1.7141
 1464SOL    HW216026   3.387   3.469   3.204 -0.7521  0.5783  0.0684
 1465SOL     OW16027   3.404   1.746   2.473  0.5397  0.3870 -0.0656
 1465SOL    HW116028   3.317   1.777   2.447  0.3872  0.4820  0.5490
 1465SOL    HW216029   3.452   1.829   2.468 -1.3165  1.5118  0.8599
 1466SOL     OW16030   1.367   2.313   0.055  0.1398  0.3112  0.2674
 1466SOL    HW116031   1.286   2.362   0.072  0.3606  0.9102 -0.3642
 1466SOL    HW216032   1.428   2.386   0.062  1.1471 -0.6484  1.4246
 1467SOL     OW16033   4.629   4.189  14.687  0.4862 -0.0533 -0.7602
 1467SOL    HW116034   4.638   4.141  14.604 -1.4912  2.4150 -2.3843
 1467SOL    HW216035   4.587   4.271  14.661 -0.4907  0.0217  1.0642
 1468SOL     OW16036   1.406   2.271  13.346  0.1054 -0.0572 -0.3900
 1468SOL    HW116037   1.420   2.248  13.438 -0.1670  2.6981  0.3349
 1468SOL    HW216038   1.492   2.306  13.322  0.3655 -1.5233 -1.6261
 1469SOL     OW16039   0.955   1.547  12.768  0.2694  0.0322 -0.3379
 1469SOL    HW116040   0.911   1.590  12.842  1.4621  0.3349  0.1865
 1469SOL    HW216041   1.031   1.507  12.809 -0.6367 -1.2576  0.0503
 1470SOL     OW16042   3.542   2.066  10.735  0.1498  0.3421 -0.0207
 1470SOL    HW116043   3.613   2.130  10.725 -1.5577  2.1090 -0.7275
 1470SOL    HW216044   3.468   2.121  10.709  0.1347 -0.3648 -1.4985
 1471SOL     OW16045   1.047   3.366   3.968  0.3263  0.2679  0.8727
 1471SOL    HW116046   1.044   3.277   3.934  0.9575  0.2079  0.9730
 1471SOL    HW216047   1.106   3.355   4.042 -0.2762 -2.5371  0.9101
 1472SOL     OW16048   1.497   0.612   6.260 -0.7504 -0.0167 -0.4922
 1472SOL    HW116049   1.518   0.535   6.313 -1.6035  0.8633  1.1212
 1472SOL    HW216050   1.518   0.681   6.323  2.2124 -1.1943 -0.1627
 1473SOL     OW16051   2.210   1.270   7.620  0.0162 -0.3261  0.1562
 1473SOL    HW116052   2.249   1.356   7.635  1.0949 -0.7281 -0.3514
 1473SOL    HW216053   2.147   1.265   7.692  0.0325  1.2561  0.2779
 1474SOL     OW16054   0.680   3.981   5.181 -0.3673 -0.0765  1.0079
 1474SOL    HW116055   0.714   4.054   5.233 -1.0966  0.4049  0.7959
 1474SOL    HW216056   0.676   3.914   5.250  0.2464 -0.3378  0.7956
 1475SOL     OW16057   4.702   3.192   6.583 -0.0335 -0.2647  0.3138
 1475SOL    HW116058   4.681   3.116   6.639  1.5831 -2.0356 -1.4715
 1475SOL    HW216059   4.621   3.243   6.589  0.6709  1.0953 -1.7861
 1476SOL     OW16060   1.670   0.722   7.568  0.3168 -0.0206 -0.5836
 1476SOL    HW116061   1.667   0.671   7.487  2.0218 -0.2199 -0.5165
 1476SOL    HW216062   1.748   0.777   7.559  1.4385 -1.3400  0.9438
 1477SOL     OW16063   3.590   0.559   3.220 -0.1935 -0.0149 -0.2995
 1477SOL    HW116064   3.629   0.522   3.141 -1.6123  0.6049 -1.2800
 1477SOL    HW216065   3.576   0.483   3.277 -0.7971 -0.4539 -1.0468
 1478SOL     OW16066   4.052   1.200   0.482 -0.1550  0.2554 -0.2683
 1478SOL    HW116067   3.995   1.275   0.494  0.1448  0.6405 -1.2169
 1478SOL    HW216068   4.133   1.251   0.481  0.4341 -0.6947 -1.4792
 1479SOL     OW16069   0.642   1.073  16.387  0.2807  0.1342  0.1631
 1479SOL    HW116070   0.642   1.047  16.295 -2.1318 -0.5705  0.3413
 1479SOL    HW216071   0.553   1.106  16.401 -0.1876 -0.8252 -0.5064
 1480SOL     OW16072   0.263   2.854  14.010  0.0933 -0.3445 -0.3851
 1480SOL    HW116073   0.212   2.778  13.983 -0.0914 -0.3934  0.0899
 1480SOL    HW216074   0.274   2.840  14.104  1.5258  1.1081 -0.3200
 1481SOL     OW16075   2.443   1.339   9.289  0.3093  0.9067 -0.4189
 1481SOL    HW116076   2.520   1.283   9.300 -0.1726  0.1687 -0.8333
 1481SOL    HW216077   2.390   1.333   9.369  0.2276  2.4649 -0.3645
 1482SOL     OW16078   0.092   0.526   2.354 -0.3654  0.0344  0.4439
 1482SOL    HW116079   0.124   0.480   2.432  1.3199 -0.2761 -0.4345
 1482SOL    HW216080   0.053   0.600   2.401 -0.4120  1.6212 -2.1078
 1483SOL     OW16081   4.333   1.280  14.935 -0.1474  0.8746 -0.1053
 1483SOL    HW116082   4.322   1.375  14.943  1.6166  1.1273 -0.6247
 1483SOL    HW216083   4.242   1.257  14.917  0.0370  0.4558 -0.5075
 1484SOL     OW16084   3.296   4.235   4.016  0.1832 -0.2110 -0.0234
 1484SOL    HW116085   3.290   4.140   4.027 -1.5197 -0.2732 -1.5792
 1484SOL    HW216086   3.215   4.252   3.968  2.5174  0.7165 -3.6039
 1485SOL     OW16087   0.398   3.114   6.432 -0.0681 -0.5916  1.2423
 1485SOL    HW116088   0.407   3.207   6.410  0.2033 -1.0143 -0.4910
 1485SOL    HW216089   0.465   3.093   6.497 -0.6121  1.1308  2.3445
 1486SOL     OW16090   0.480   2.478   6.161  0.1223 -0.1803 -0.2388
 1486SOL    HW116091   0.418   2.482   6.088  1.2839 -0.6436 -1.2529
 1486SOL    HW216092   0.454   2.391   6.192  2.0810 -0.7020 -0.0485
 1487SOL     OW16093   2.364   3.257   2.635  0.8887 -0.0892 -0.0206
 1487SOL    HW116094   2.310   3.281   2.559  1.6996  1.1528 -0.2079
 1487SOL    HW216095   2.349   3.335   2.690  0.4917 -1.4761  1.8349
 1488SOL     OW16096   2.408   4.404   6.753  0.1003  0.2484 -0.1146
 1488SOL    HW116097   2.470   4.457   6.804 -0.4742  0.0918  0.7277
 1488SOL    HW216098   2.357   4.352   6.814  0.2645  2.4512  1.9329
 1489SOL     OW16099   0.311   3.444   8.030 -0.5141  0.2006  0.3050
 1489SOL    HW116100   0.278   3.465   7.942 -1.2251  1.7053  0.9224
 1489SOL    HW216101   0.330   3.531   8.067 -0.7676 -0.2964  1.5848
 1490SOL     OW16102   2.429   2.198   4.190 -0.1721  0.2683  0.5763
 1490SOL    HW116103   2.436   2.236   4.103 -0.7218  1.1997  0.9362
 1490SOL    HW216104   2.497   2.131   4.191 -0.4096 -0.0027 -1.4227
 1491SOL     OW16105   3.274   4.213  14.706  0.0367  0.8891 -0.0975
 1491SOL    HW116106   3.271   4.138  14.765  0.0399 -0.0342 -1.2799
 1491SOL    HW216107   3.283   4.292  14.760  0.8402  0.6339  0.1387
 1492SOL     OW16108   1.642   3.112   8.364  0.0344 -0.0510  0.4428
 1492SOL    HW116109   1.623   3.089   8.455 -1.7193  0.6683  0.2575
 1492SOL    HW216110   1.554   3.084   8.340 -1.3099  2.0242  2.8615
 1493SOL     OW16111   3.695   4.671   4.253 -0.2500  0.2423  0.1720
 1493SOL    HW116112   3.637   4.651   4.179  1.5713  1.1915 -1.5006
 1493SOL    HW216113   3.643   4.733   4.304 -0.1803  0.9904 -0.6481
 1494SOL     OW16114   2.728   0.479   5.618  0.2098 -0.2198  0.9282
 1494SOL    HW116115   2.747   0.481   5.524 -0.5062 -1.1069  0.7551
 1494SOL    HW216116   2.788   0.547   5.647  0.3427 -0.4406  1.1697
 1495SOL     OW16117   3.855   2.472  13.321  0.0605 -0.4324 -0.0718
 1495SOL    HW116118   3.844   2.562  13.351  3.6690  0.6032 -1.7947
 1495SOL    HW216119   3.897   2.472  13.235  1.5851 -0.0867  0.6608
 1496SOL     OW16120   3.854   3.761   8.877 -0.3989 -0.1664 -0.4234
 1496SOL    HW116121   3.895   3.847   8.880 -1.2225  0.2338 -0.7614
 1496SOL    HW216122   3.865   3.739   8.785  0.6849  0.2058 -0.3886
 1497SOL     OW16123   2.398   3.814   1.328 -0.2409  0.0427  0.1710
 1497SOL    HW116124   2.459   3.868   1.378  0.6282  0.8816 -1.7664
 1497SOL    HW216125   2.350   3.766   1.395 -2.9714  0.0859 -1.7231
 1498SOL     OW16126   3.457   1.597  16.965  0.8883  0.0715 -0.5858
 1498SOL    HW116127   3.472   1.583  17.058 -0.7799  1.3965 -0.1286
 1498SOL    HW216128   3.541   1.563  16.934  0.7991 -1.5720  1.0183
 1499SOL     OW16129   1.757   2.772   0.779  0.3245  0.5397  0.2204
 1499SOL    HW116130   1.671   2.729   0.774  1.6759 -2.1123 -0.2877
 1499SOL    HW216131   1.811   2.693   0.782  0.0856  0.4200  1.3992
 1500SOL     OW16132   3.079   2.835   4.088  0.1924 -0.1559  0.2266
 1500SOL    HW116133   3.012   2.773   4.117 -0.1608  0.3632  0.5151
 1500SOL    HW216134   3.051   2.918   4.127 -0.8629 -0.3291 -0.1869
 1501SOL     OW16135   2.789   1.406   6.820  0.3305  0.2618  0.0807
 1501SOL    HW116136   2.806   1.478   6.760 -2.4448  4.1566  3.9428
 1501SOL    HW216137   2.843   1.336   6.783  0.7706  0.9701 -0.5923
 1502SOL     OW16138   4.063   2.312   2.956 -0.4945  0.0991 -0.2261
 1502SOL    HW116139   4.086   2.309   3.049  0.1787 -0.3715 -0.4048
 1502SOL    HW216140   4.044   2.405   2.947 -0.3011  0.3677  1.9831
 1503SOL     OW16141   1.781   2.000   3.620  0.2754  0.3669 -0.1191
 1503SOL    HW116142   1.755   1.923   3.671 -2.0349  1.0636 -0.2234
 1503SOL    HW216143   1.859   1.958   3.584 -0.4212 -1.6147  0.6327
 1504SOL     OW16144   4.524   1.438  15.273  0.6776 -0.2467 -0.0549
 1504SOL    HW116145   4.564   1.351  15.265 -0.7532 -0.7782 -1.5533
 1504SOL    HW216146   4.435   1.408  15.250  1.4603 -1.2441 -1.7967
 1505SOL     OW16147   3.246   2.801   7.257  0.7097 -0.0790 -0.2557
 1505SOL    HW116148   3.151   2.805   7.244  0.9029  1.0222 -1.4142
 1505SOL    HW216149   3.273   2.711   7.240  0.8929  0.0164 -0.4559
 1506SOL     OW16150   1.209   3.042   3.220  0.1196  0.0731  0.5421
 1506SOL    HW116151   1.208   3.062   3.314 -2.1091  1.9181  0.1262
 1506SOL    HW216152   1.186   3.125   3.178  0.5496  0.5862  1.3161
 1507SOL     OW16153   1.452   3.901   0.999 -0.1255 -0.1238 -0.3178
 1507SOL    HW116154   1.391   3.842   1.043  0.3493 -1.4228 -1.3997
 1507SOL    HW216155   1.495   3.844   0.934 -1.2809 -2.1999  0.7304
 1508SOL     OW16156   2.654   2.562   4.146 -0.5834 -0.4023 -0.0828
 1508SOL    HW116157   2.609   2.570   4.231  0.6689  4.4880  0.1072
 1508SOL    HW216158   2.580   2.531   4.093 -0.2982 -1.7554  0.3096
 1509SOL     OW16159   1.759   2.655   6.952 -0.3469  0.0304  0.2576
 1509SOL    HW116160   1.768   2.679   6.860  1.0700  0.2586  0.4557
 1509SOL    HW216161   1.774   2.561   6.944  0.7517  0.1283  1.0889
 1510SOL     OW16162   2.306   0.299   6.092 -0.7755 -0.4506  0.2018
 1510SOL    HW116163   2.269   0.309   6.180 -0.4939 -2.5248  0.5493
 1510SOL    HW216164   2.226   0.325   6.047 -0.7231 -1.2290 -0.3399
 1511SOL     OW16165   2.368   0.448  10.631 -0.5662  0.0625 -0.4595
 1511SOL    HW116166   2.347   0.537  10.601  0.1405  0.0057 -1.1205
 1511SOL    HW216167   2.394   0.405  10.550 -3.2002 -0.1116 -1.2098
 1512SOL     OW16168   1.453   3.544   9.024  0.3730  0.0139  0.0257
 1512SOL    HW116169   1.369   3.538   9.069  0.3892 -0.0009  0.0550
 1512SOL    HW216170   1.497   3.460   9.040 -0.6690 -1.0892 -2.9225
 1513SOL     OW16171   4.352   1.603  12.056  0.0277  0.0759 -0.2488
 1513SOL    HW116172   4.267   1.567  12.028 -0.3339  0.9956 -0.3198
 1513SOL    HW216173   4.414   1.540  12.019  1.7490  0.6558  1.6379
 1514SOL     OW16174   0.583   4.195   8.367  0.3633 -0.1860 -0.2881
 1514SOL    HW116175   0.621   4.117   8.329 -2.9820 -1.6876 -0.5173
 1514SOL    HW216176   0.540   4.154   8.442  1.7542 -1.0716  0.0040
 1515SOL     OW16177   1.238   4.397   7.439 -0.1336  0.5035 -0.6834
 1515SOL    HW116178   1.250   4.309   7.404 -1.7286  1.4690 -3.6641
 1515SOL    HW216179   1.317   4.435   7.402 -0.3039  1.4845 -0.0625
 1516SOL     OW16180   2.037   4.572   4.952  0.0014  0.3855 -0.3983
 1516SOL    HW116181   1.975   4.564   4.878  0.2282  1.7562 -0.7235
 1516SOL    HW216182   2.125   4.573   4.914 -0.3373  1.2300 -1.1591
 1517SOL     OW16183   2.509   0.087   4.774 -0.0532  1.2452  0.1559
 1517SOL    HW116184   2.496   0.181   4.778  2.3909  1.5904  0.3649
 1517SOL    HW216185   2.479   0.071   4.863 -2.1637 -0.7846 -0.9138
 1518SOL     OW16186   1.205   1.645  16.687  0.3473 -0.2864 -0.0873
 1518SOL    HW116187   1.118   1.670  16.717 -0.1834 -2.9106  0.5789
 1518SOL    HW216188   1.245   1.611  16.767 -2.6145 -1.1809  1.0039
 1519SOL     OW16189   0.087   2.906   3.921  0.1321 -0.6902  0.4641
 1519SOL    HW116190   0.056   2.859   3.843  0.4182 -0.3634  0.1516
 1519SOL    HW216191   0.048   2.992   3.905  0.2516 -0.4203  1.6471
 1520SOL     OW16192   2.657   2.354   1.294 -0.2067 -0.5703 -0.0309
 1520SOL    HW116193   2.634   2.383   1.383 -0.4803  1.8516 -0.8963
 1520SOL    HW216194   2.718   2.423   1.268 -0.1596 -0.3220  0.7371
 1521SOL     OW16195   3.310   3.451   4.068  0.5652 -0.1155 -0.8244
 1521SOL    HW116196   3.222   3.422   4.094  1.3484 -2.5161 -0.7979
 1521SOL    HW216197   3.356   3.398   4.133  1.2909  1.2742 -0.2044
 1522SOL     OW16198   2.512   2.037   7.708  0.0004  0.0144  0.0904
 1522SOL    HW116199   2.434   2.092   7.715  0.6741  1.1185 -1.2184
 1522SOL    HW216200   2.498   1.981   7.785  0.3825 -0.4660 -0.1947
 1523SOL     OW16201   2.963   2.196   9.114  0.8158  0.1400 -0.0601
 1523SOL    HW116202   2.875   2.169   9.087  1.1833 -1.3967  0.3007
 1523SOL    HW216203   2.948   2.278   9.161  0.9652 -0.1124  0.4375
 1524SOL     OW16204   0.464   4.066   0.524  0.7908 -0.0177  0.1964
 1524SOL    HW116205   0.499   4.086   0.611  2.4594  1.4808 -0.8081
 1524SOL    HW216206   0.501   3.978   0.516  1.3868  0.4358 -2.0705
 1525SOL     OW16207   4.551   2.629  12.551 -0.2709  0.4883  0.1000
 1525SOL    HW116208   4.589   2.601  12.467  1.0134  0.2587  0.7590
 1525SOL    HW216209   4.538   2.722  12.533  1.2080  0.4806 -0.9949
 1526SOL     OW16210   1.314   2.954   5.084  0.3982 -0.3583 -0.2928
 1526SOL    HW116211   1.403   2.935   5.053  1.3195 -0.3591  2.3513
 1526SOL    HW216212   1.259   2.906   5.022 -0.4437 -2.6185  2.2341
 1527SOL     OW16213   3.676   2.366  15.682  0.1917  0.3932  0.6641
 1527SOL    HW116214   3.744   2.377  15.749 -1.1638 -1.2351  2.3011
 1527SOL    HW216215   3.627   2.447  15.694 -1.3834 -0.5893  0.7905
 1528SOL     OW16216   3.728   2.133   2.047 -0.3424  0.4799  0.3929
 1528SOL    HW116217   3.723   2.120   1.953 -0.9312  2.5338  0.1388
 1528SOL    HW216218   3.786   2.209   2.058  1.1396 -0.7314  0.8920
 1529SOL     OW16219   2.116   2.773   8.867  0.0121 -0.7985  0.3359
 1529SOL    HW116220   2.064   2.773   8.947 -2.8095 -1.8175 -1.5222
 1529SOL    HW216221   2.132   2.867   8.859 -0.3331 -0.7676  0.0043
 1530SOL     OW16222   2.514   0.888   3.150  0.3233 -0.0109  0.3077
 1530SOL    HW116223   2.553   0.960   3.100  0.0537  0.8084  1.2813
 1530SOL    HW216224   2.421   0.894   3.129  0.4580 -1.1189 -0.5896
 1531SOL     OW16225   2.874   4.558   7.018 -0.4308 -0.7963  0.4683
 1531SOL    HW116226   2.787   4.590   7.039 -0.1346  1.3187 -1.6000
 1531SOL    HW216227   2.877   4.466   7.047  3.9146 -0.9946 -0.5724
 1532SOL     OW16228   4.057   0.856   2.343  0.5558 -0.3472 -0.0326
 1532SOL    HW116229   3.976   0.864   2.393  0.7677  1.4576  0.0179
 1532SOL    HW216230   4.090   0.945   2.330  2.3178 -0.8202  1.1768
 1533SOL     OW16231   1.145   0.158   2.586 -0.5245  0.3649 -0.5373
 1533SOL    HW116232   1.210   0.224   2.564  0.9333 -1.1231 -0.6451
 1533SOL    HW216233   1.141   0.109   2.504  0.6826 -0.8849  0.1519
 1534SOL     OW16234   1.814   3.116   9.503  0.3025 -0.0323  0.4783
 1534SOL    HW116235   1.874   3.131   9.430  1.9285  0.6530  1.9578
 1534SOL    HW216236   1.746   3.178   9.477  0.7401  1.1560  2.2594
 1535SOL     OW16237   4.646   0.285   4.096  0.0572 -0.1187 -0.2767
 1535SOL    HW116238   4.684   0.369   4.072 -0.0276 -0.3999 -1.3992
 1535SOL    HW216239   4.556   0.306   4.073  0.4835  0.2457 -1.5558
 1536SOL     OW16240   0.537   0.454   5.574 -0.2591 -0.2389  0.2629
 1536SOL    HW116241   0.578   0.440   5.489  0.1274  1.5870  0.1466
 1536SOL    HW216242   0.501   0.366   5.582 -0.1428 -0.1549  1.6725
 1537SOL     OW16243   3.343   0.173   5.240 -0.3624  0.4699 -0.9561
 1537SOL    HW116244   3.298   0.238   5.185  0.5104 -0.1473 -2.3996
 1537SOL    HW216245   3.281   0.163   5.312  0.1492  1.7532 -0.3439
 1538SOL     OW16246   1.832   4.061  15.445 -0.0870  0.5387 -0.0605
 1538SOL    HW116247   1.858   4.017  15.364 -0.1748  0.5710 -0.1068
 1538SOL    HW216248   1.848   4.153  15.426 -2.3378  0.8637 -0.4573
 1539SOL     OW16249   4.001   0.117   3.438 -0.1765 -0.6450  0.3727
 1539SOL    HW116250   3.944   0.041   3.423 -0.4267 -0.3156 -0.3506
 1539SOL    HW216251   4.078   0.107   3.382  1.6336  0.0065  2.7428
 1540SOL     OW16252   2.692   1.609  11.521  0.1989 -0.6578  0.1939
 1540SOL    HW116253   2.744   1.661  11.460  0.0131  1.9354  2.1959
 1540SOL    HW216254   2.754   1.574  11.585  0.0089 -4.4332 -1.6728
 1541SOL     OW16255   2.751   1.485  10.233 -0.3843 -0.2648 -0.0719
 1541SOL    HW116256   2.821   1.460  10.174 -0.3272  1.6510 -0.8208
 1541SOL    HW216257   2.806   1.541  10.289 -0.0252  0.8311 -1.5275
 1542SOL     OW16258   2.786   4.191   9.152  0.0720  0.2053  0.0116
 1542SOL    HW116259   2.742   4.110   9.126  2.6288 -1.7167  1.6277
 1542SOL    HW216260   2.722   4.231   9.211  1.5333  2.0130  0.3837
 1543SOL     OW16261   3.390   2.827  14.510  0.0239  0.2305 -0.6356
 1543SOL    HW116262   3.442   2.907  14.495 -0.7285  0.5199 -1.7076
 1543SOL    HW216263   3.453   2.782  14.566  0.8436  1.2604 -0.7110
 1544SOL     OW16264   2.640   4.455  11.720  0.7984  0.6236 -0.0640
 1544SOL    HW116265   2.614   4.376  11.766 -1.9216  1.8838  0.5775
 1544SOL    HW216266   2.645   4.409  11.637  1.4721 -1.2909  1.0415
 1545SOL     OW16267   1.464   1.842   6.133 -0.0409 -0.1965 -0.2094
 1545SOL    HW116268   1.525   1.911   6.162 -0.6515  0.0125  0.5943
 1545SOL    HW216269   1.439   1.800   6.215 -1.5618  0.2639 -0.4418
 1546SOL     OW16270   2.670   4.483   2.270  0.5533  0.0722 -0.5117
 1546SOL    HW116271   2.668   4.510   2.178 -0.4634  0.3303 -0.4123
 1546SOL    HW216272   2.758   4.445   2.275 -0.1919 -1.6795 -0.6722
 1547SOL     OW16273   0.513   2.970   2.373  0.1535  0.3078  0.4906
 1547SOL    HW116274   0.517   2.966   2.278 -0.3890 -2.0794  0.5670
 1547SOL    HW216275   0.579   2.904   2.393  0.3472  0.4742  0.3964
 1548SOL     OW16276   1.681   3.399   2.848  0.0504  0.0273  0.0422
 1548SOL    HW116277   1.589   3.420   2.866 -0.1214 -0.2984 -0.4623
 1548SOL    HW216278   1.716   3.486   2.871 -1.8844  2.0799 -4.8052
 1549SOL     OW16279   1.939   2.271   4.300  0.0299 -0.2724 -0.1746
 1549SOL    HW116280   1.913   2.247   4.389  0.2100  0.1871 -0.0002
 1549SOL    HW216281   2.032   2.261   4.320  0.0911  0.4705 -0.1073
 1550SOL     OW16282   0.928   2.571   7.364 -0.1841 -0.1756  0.2972
 1550SOL    HW116283   0.935   2.519   7.284  0.2667 -0.4709  0.5301
 1550SOL    HW216284   0.850   2.544   7.413 -0.8475  1.2728  0.0538
 1551SOL     OW16285   2.082   3.349   4.900 -0.4611 -0.2414  0.3847
 1551SOL    HW116286   2.019   3.386   4.838 -0.6600  0.7201  1.1507
 1551SOL    HW216287   2.025   3.296   4.955  0.0152  0.9876  2.0416
 1552SOL     OW16288   2.123   2.167   3.424  0.6558  0.4187 -0.4442
 1552SOL    HW116289   2.189   2.105   3.455 -0.3707 -0.1606  0.5886
 1552SOL    HW216290   2.073   2.116   3.359  1.6912 -3.4447  1.8111
 1553SOL     OW16291   0.278   3.884   2.406 -0.1806 -0.6553  0.2044
 1553SOL    HW116292   0.269   3.864   2.312  1.5544 -1.3942  0.2007
 1553SOL    HW216293   0.185   3.871   2.426 -0.0799  1.5482  2.0482
 1554SOL     OW16294   3.678   0.303   0.313 -0.0595  0.1701  0.3811
 1554SOL    HW116295   3.601   0.358   0.300 -0.4753  0.0339  2.2372
 1554SOL    HW216296   3.695   0.328   0.404 -1.7609  0.5571  0.5965
 1555SOL     OW16297   2.001   4.154   4.895 -0.6488 -0.1046 -0.4676
 1555SOL    HW116298   2.007   4.062   4.920  0.1673 -0.2385 -1.1561
 1555SOL    HW216299   2.008   4.192   4.983 -1.4638  3.3503 -1.9187
 1556SOL     OW16300   3.075   0.135   8.237 -0.2289 -0.2939 -0.1100
 1556SOL    HW116301   3.072   0.057   8.180 -1.1523  1.1973 -2.1100
 1556SOL    HW216302   3.084   0.088   8.319 -2.2258 -0.6855 -0.1096
 1557SOL     OW16303   0.589   3.632   8.902  0.1595 -0.1672  0.3327
 1557SOL    HW116304   0.646   3.649   8.826 -0.2141 -1.0340 -0.1369
 1557SOL    HW216305   0.546   3.548   8.887  0.0208  0.0474 -0.5046
 1558SOL     OW16306   0.652   0.557   1.596 -0.2755  0.1002  0.6784
 1558SOL    HW116307   0.671   0.464   1.604 -1.9044 -0.2907 -0.0447
 1558SOL    HW216308   0.575   0.560   1.540 -0.1767  0.8808  0.5745
 1559SOL     OW16309   1.485   3.043   9.417  0.2630 -0.4763 -0.2332
 1559SOL    HW116310   1.534   3.123   9.396  2.5611 -1.7309  0.3499
 1559SOL    HW216311   1.457   3.061   9.507  1.2243 -1.2781  0.2294
 1560SOL     OW16312   0.787   1.404  16.600 -0.0385  0.1245 -0.1388
 1560SOL    HW116313   0.775   1.381  16.692 -1.2549 -1.6120 -0.7383
 1560SOL    HW216314   0.859   1.351  16.565  2.0000  1.4173  2.0806
 1561SOL     OW16315   0.393   1.668   3.503  0.0653  0.1941  0.0831
 1561SOL    HW116316   0.389   1.740   3.566  1.2135 -0.2596  0.6715
 1561SOL    HW216317   0.485   1.647   3.492 -0.1857 -0.4316 -0.8668
 1562SOL     OW16318   1.613   2.012   4.406 -0.7439 -0.3736 -0.0445
 1562SOL    HW116319   1.544   1.957   4.370 -1.8632 -0.8433  2.8302
 1562SOL    HW216320   1.667   2.017   4.328 -0.0763 -0.3021  0.4229
 1563SOL     OW16321   1.621   4.595   4.663  0.3281  0.3684  0.0965
 1563SOL    HW116322   1.593   4.586   4.754 -1.7839  1.8212 -0.4088
 1563SOL    HW216323   1.660   4.680   4.680 -0.1079  0.3297  1.2363
 1564SOL     OW16324   1.712   3.440  13.192 -0.6205  0.3168  0.2941
 1564SOL    HW116325   1.779   3.372  13.188 -1.9505 -1.0514  1.1786
 1564SOL    HW216326   1.745   3.498  13.123 -0.4963 -0.5269 -0.3579
 1565SOL     OW16327   0.028   1.261   3.118 -0.0857 -0.0512 -0.1753
 1565SOL    HW116328   0.019   1.350   3.153 -1.8703 -1.3087  2.5917
 1565SOL    HW216329   0.017   1.277   3.024 -1.3230 -1.7619 -0.3059
 1566SOL     OW16330   0.184   1.238   6.976  0.1911 -0.0930  0.4894
 1566SOL    HW116331   0.105   1.188   7.000  0.2499  0.2148  1.3183
 1566SOL    HW216332   0.246   1.216   7.045  1.4736 -0.7222 -0.8679
 1567SOL     OW16333   2.151   3.349   1.935  0.0812 -0.2390  0.2456
 1567SOL    HW116334   2.099   3.268   1.928 -0.6710  0.1828  0.9207
 1567SOL    HW216335   2.235   3.315   1.904  0.1547 -0.9901  1.2698
 1568SOL     OW16336   3.328   0.840   7.558  0.3640  0.2221 -0.4735
 1568SOL    HW116337   3.293   0.788   7.630  0.5928  0.3041 -0.3024
 1568SOL    HW216338   3.343   0.924   7.601 -0.9621  0.5466 -0.6304
 1569SOL     OW16339   4.152   4.732   3.218 -0.2029 -0.4088  0.5819
 1569SOL    HW116340   4.117   4.656   3.265 -1.9038 -0.5454 -0.9100
 1569SOL    HW216341   4.081   0.036   3.168 -0.1943 -0.1011  0.8196
 1570SOL     OW16342   0.162   3.266   4.885 -0.2235  0.1811  0.1556
 1570SOL    HW116343   0.094   3.249   4.950  1.6988  0.2947  2.1953
 1570SOL    HW216344   0.247   3.227   4.907  0.2270  0.4969 -1.0274
 1571SOL     OW16345   3.738   3.423   3.884  0.4088 -0.0455 -0.3233
 1571SOL    HW116346   3.746   3.342   3.935  2.1414  0.4385  0.1751
 1571SOL    HW216347   3.794   3.481   3.935  0.2814 -0.9870  0.8965
 1572SOL     OW16348   3.556   3.269   4.596 -0.2004  0.3528  0.1745
 1572SOL    HW116349   3.631   3.237   4.546 -0.2779  0.4532 -0.0051
 1572SOL    HW216350   3.591   3.255   4.684 -1.3304  3.4059  1.0979
 1573SOL     OW16351   0.959   4.198   7.898 -0.4883 -0.0606 -0.4268
 1573SOL    HW116352   0.863   4.195   7.903 -0.4596 -2.5998 -1.4268
 1573SOL    HW216353   0.981   4.206   7.990  1.6645  4.3264 -1.3149
 1574SOL     OW16354   0.984   2.791  17.602 -0.4804 -0.5841 -0.1757
 1574SOL    HW116355   1.004   2.884  17.589 -3.0268  0.2426  1.8852
 1574SOL    HW216356   0.937   2.773  17.520 -0.1970 -1.1506 -0.2147
 1575SOL     OW16357   2.711   3.736   7.671 -0.2408  0.2163  0.4031
 1575SOL    HW116358   2.758   3.808   7.713 -1.9360  1.4029  0.2297
 1575SOL    HW216359   2.793   3.686   7.662  0.9449  2.0717  0.7688
 1576SOL     OW16360   3.924   1.011   1.626  1.0668  0.5703 -0.4933
 1576SOL    HW116361   3.924   1.007   1.530 -1.7963  0.9088 -0.5121
 1576SOL    HW216362   3.833   1.034   1.645  0.5529 -1.7578 -0.2290
 1577SOL     OW16363   1.554   1.383   7.794 -0.1743  0.3730  1.1928
 1577SOL    HW116364   1.485   1.332   7.837 -1.0693 -1.1829 -2.1195
 1577SOL    HW216365   1.511   1.468   7.797 -0.3355  0.3391 -0.4668
 1578SOL     OW16366   2.571   4.629  16.775 -0.3062  0.5011  0.5442
 1578SOL    HW116367   2.605   4.713  16.746  1.2702 -0.7765 -1.3232
 1578SOL    HW216368   2.492   4.625  16.719  0.2577  2.4547 -0.4020
 1579SOL     OW16369   0.882   2.678   9.074  0.0636  0.1272  0.1046
 1579SOL    HW116370   0.859   2.592   9.040 -1.5956  1.5472 -2.3172
 1579SOL    HW216371   0.908   2.716   8.990  2.1345  0.0348  0.6882
 1580SOL     OW16372   4.614   4.330   6.276 -0.0614  0.0855 -0.6566
 1580SOL    HW116373   4.598   4.277   6.354  1.2998  0.4425 -0.1394
 1580SOL    HW216374   4.704   4.358   6.293 -0.1860  1.3843 -2.1549
 1581SOL     OW16375   0.282   3.363  14.122  0.4451  0.0917  0.3476
 1581SOL    HW116376   0.217   3.301  14.154 -0.2390  1.0382  0.7882
 1581SOL    HW216377   0.362   3.313  14.137 -0.0822 -0.3555  1.6731
 1582SOL     OW16378   2.308   2.700   3.551 -0.4576 -0.9819 -0.4680
 1582SOL    HW116379   2.391   2.689   3.504 -0.1012  0.1260 -0.1041
 1582SOL    HW216380   2.241   2.678   3.487  0.2087  0.3166 -1.6295
 1583SOL     OW16381   2.700   1.469  17.171  0.1892  0.1337 -0.5720
 1583SOL    HW116382   2.664   1.425  17.248 -0.2064  3.2085  0.9757
 1583SOL    HW216383   2.648   1.549  17.173 -3.6282 -2.3374  0.4784
 1584SOL     OW16384   0.313   4.178  16.487  0.5242 -0.0129 -0.1637
 1584SOL    HW116385   0.351   4.091  16.499 -2.2588 -1.5249 -2.1419
 1584SOL    HW216386   0.377   4.224  16.542 -0.9544 -0.3638  1.8602
 1585SOL     OW16387   0.493   3.773   8.530 -0.7554  0.3293  0.3307
 1585SOL    HW116388   0.560   3.716   8.493 -2.0288 -1.5013  0.8819
 1585SOL    HW216389   0.465   3.827   8.456  0.7988  0.7204  0.0226
 1586SOL     OW16390   3.508   4.129  14.179  0.0225  0.3977 -0.2446
 1586SOL    HW116391   3.459   4.198  14.134 -0.9746  1.1072  1.9400
 1586SOL    HW216392   3.587   4.152  14.130  1.4915 -3.0962  0.4817
 1587SOL     OW16393   3.784   4.507   5.018 -0.3475  0.1917  0.6960
 1587SOL    HW116394   3.773   4.561   5.097  1.0280  2.3114 -0.5530
 1587SOL    HW216395   3.737   4.429   5.046  1.7947 -1.0714  0.7618
 1588SOL     OW16396   1.766   3.473   3.958 -0.1555  0.2827 -0.3149
 1588SOL    HW116397   1.742   3.481   4.051 -0.8693  0.1281 -0.4865
 1588SOL    HW216398   1.704   3.535   3.920 -1.8788 -1.5666 -0.5104
 1589SOL     OW16399   3.406   1.995   0.624  0.4172  0.4328 -0.5703
 1589SOL    HW116400   3.432   2.006   0.716  0.0554 -0.1588 -0.3987
 1589SOL    HW216401   3.335   2.058   0.622  1.1580  1.3580  1.7877
 1590SOL     OW16402   1.307   3.607   6.840 -0.0817  0.1437  0.0828
 1590SOL    HW116403   1.313   3.594   6.745  0.7591 -2.8377  0.5371
 1590SOL    HW216404   1.296   3.702   6.847 -2.0884 -0.0504 -0.3313
 1591SOL     OW16405   3.386   1.589   5.586  0.0056  0.3871 -0.3121
 1591SOL    HW116406   3.337   1.513   5.555  0.3952 -0.3351  0.8356
 1591SOL    HW216407   3.435   1.616   5.509  0.5146 -0.0501 -0.1385
 1592SOL     OW16408   3.023   3.133   4.644  0.4745  0.4423 -1.0978
 1592SOL    HW116409   3.007   3.041   4.622  0.2760 -0.1259  1.4372
 1592SOL    HW216410   3.119   3.138   4.648  0.6485 -1.4176 -3.3251
 1593SOL     OW16411   0.165   0.339  14.933 -0.3682 -0.0981  0.1252
 1593SOL    HW116412   0.226   0.265  14.926  0.8587  0.6900  2.4673
 1593SOL    HW216413   0.085   0.287  14.930 -0.4505  0.0365 -0.0066
 1594SOL     OW16414   0.711   3.958   3.070  0.2116  0.1900  0.1198
 1594SOL    HW116415   0.640   4.022   3.078 -0.2358 -0.1245 -1.2829
 1594SOL    HW216416   0.787   4.015   3.084  0.0286  1.2432 -3.1600
 1595SOL     OW16417   2.702   2.614   5.187 -0.1803 -0.0610  0.0311
 1595SOL    HW116418   2.785   2.656   5.205 -0.0232 -0.1640 -0.4355
 1595SOL    HW216419   2.708   2.579   5.098  0.0449 -0.5609  0.2466
 1596SOL     OW16420   4.614   0.503   5.012  0.5670 -0.0022  0.4107
 1596SOL    HW116421   4.609   0.571   4.945 -1.0080  0.3895  0.9178
 1596SOL    HW216422   4.552   0.445   4.968  0.6165  1.5494 -1.6715
 1597SOL     OW16423   4.713   1.532   5.500 -0.8553 -0.0957  0.1623
 1597SOL    HW116424   4.683   1.558   5.413  0.6031  1.5462  0.1466
 1597SOL    HW216425   0.003   1.442   5.481 -1.2780 -0.3871  0.9497
 1598SOL     OW16426   1.454   3.768   6.255 -0.3609  0.3178 -0.6192
 1598SOL    HW116427   1.547   3.756   6.272 -0.2979  1.4537 -0.1857
 1598SOL    HW216428   1.428   3.833   6.321  0.0424 -0.7835  0.6165
 1599SOL     OW16429   2.590   4.216   7.769 -0.0491 -0.1719 -0.5188
 1599SOL    HW116430   2.527   4.254   7.831  1.5794  0.1377  0.9374
 1599SOL    HW216431   2.557   4.236   7.682  0.4543  1.4183 -0.3447
 1600SOL     OW16432   0.061   1.256  12.844  0.0398  0.5945  0.3245
 1600SOL    HW116433   4.701   1.255  12.842  0.0404  1.1491 -0.0807
 1600SOL    HW216434   0.070   1.174  12.796  0.9900  0.0807  1.3995
 1601SOL     OW16435   2.454   3.290   4.354  0.2886 -0.0643 -0.4713
 1601SOL    HW116436   2.363   3.264   4.366 -0.2068  1.4904 -0.8272
 1601SOL    HW216437   2.450   3.314   4.261  0.0286 -1.6390 -0.8596
 1602SOL     OW16438   3.323   2.692   8.440 -0.5638  0.4604  0.1122
 1602SOL    HW116439   3.399   2.750   8.435  0.5046 -0.8763  1.0468
 1602SOL    HW216440   3.330   2.635   8.363  2.3360 -1.0188  1.4390
 1603SOL     OW16441   3.183   1.084   3.105 -0.0329 -0.3943  0.1411
 1603SOL    HW116442   3.135   1.002   3.093 -1.9476  0.8960 -1.0120
 1603SOL    HW216443   3.130   1.136   3.045  1.7487  2.4230  0.9787
 1604SOL     OW16444   3.062   4.194   8.895 -0.2522  0.1407 -0.6317
 1604SOL    HW116445   2.994   4.255   8.867  1.5773  2.5683  0.1582
 1604SOL    HW216446   3.130   4.198   8.827  0.9610 -0.9941  0.5137
 1605SOL     OW16447   4.138   3.557   6.047  0.1520 -0.1740 -0.1906
 1605SOL    HW116448   4.229   3.529   6.053  0.7656  1.6977 -0.5698
 1605SOL    HW216449   4.103   3.484   5.996  0.0449  0.5240 -1.1300
 1606SOL     OW16450   2.867   4.617  11.726 -0.7475  0.7173 -0.2260
 1606SOL    HW116451   2.779   4.580  11.725 -0.7892  0.7588  1.4212
 1606SOL    HW216452   2.859   4.672  11.648 -0.2595 -0.0771 -0.8314
 1607SOL     OW16453   3.283   2.609  16.710  0.3536  0.0106 -0.0403
 1607SOL    HW116454   3.344   2.536  16.696  1.1023  0.5738  0.3123
 1607SOL    HW216455   3.326   2.671  16.650 -1.0220  1.8216  0.8623
 1608SOL     OW16456   0.342   0.773   6.978 -0.0409  0.4456  0.0770
 1608SOL    HW116457   0.251   0.749   6.961 -0.0841  2.0844 -1.8921
 1608SOL    HW216458   0.387   0.701   6.933 -1.7633 -1.0922  0.7667
 1609SOL     OW16459   3.440   0.883   6.866  0.4730  0.6870  0.2315
 1609SOL    HW116460   3.482   0.926   6.791  1.5422 -0.4077  0.2032
 1609SOL    HW216461   3.482   0.798   6.853  1.2046  1.3039 -1.4714
 1610SOL     OW16462   3.658   2.094   8.636  0.1489  0.9068 -0.2873
 1610SOL    HW116463   3.590   2.061   8.578  0.0514 -0.1583  0.4484
 1610SOL    HW216464   3.641   2.188   8.645  0.3119  0.8126  0.9208
 1611SOL     OW16465   0.924   1.172   6.648  0.1627 -0.6525  0.8091
 1611SOL    HW116466   0.829   1.179   6.659  0.2580 -0.5337  1.5505
 1611SOL    HW216467   0.928   1.157   6.554  2.7185 -1.8498  1.1185
 1612SOL     OW16468   3.520   1.806  11.721 -0.1124  0.4005  0.6156
 1612SOL    HW116469   3.503   1.746  11.649  0.2188  1.4695 -0.3434
 1612SOL    HW216470   3.582   1.751  11.769 -1.1607 -0.7542  0.6729
 1613SOL     OW16471   0.605   0.553   3.826 -0.3723  0.3915  0.2718
 1613SOL    HW116472   0.545   0.614   3.784  0.4708 -0.6538 -2.4493
 1613SOL    HW216473   0.562   0.468   3.816  1.1167  0.1384 -3.9539
 1614SOL     OW16474   2.907   3.315   7.833 -0.3497  0.0744  0.3942
 1614SOL    HW116475   2.890   3.230   7.794  1.5864 -0.3047  0.3731
 1614SOL    HW216476   2.823   3.345   7.867  0.0102 -0.0413  1.3687
 1615SOL     OW16477   3.918   0.418   2.973  0.0390 -0.2226  0.0462
 1615SOL    HW116478   3.915   0.407   2.878 -0.1593  1.0937 -0.0997
 1615SOL    HW216479   3.829   0.405   3.004 -0.9514  0.3679 -2.5573
 1616SOL     OW16480   0.898   2.908   2.945  0.7162 -0.1637  0.4955
 1616SOL    HW116481   0.981   2.867   2.970  0.2155 -2.9246 -2.4653
 1616SOL    HW216482   0.832   2.854   2.989 -1.1302 -0.2421 -2.3578
 1617SOL     OW16483   3.080   1.299  10.782 -0.1799  0.8454 -0.2982
 1617SOL    HW116484   3.173   1.287  10.763  0.0700  1.1283  0.7116
 1617SOL    HW216485   3.045   1.219  10.743 -0.2065  0.6978  0.0292
 1618SOL     OW16486   2.891   4.172   3.036  0.1667 -0.2690 -0.0684
 1618SOL    HW116487   2.810   4.125   3.014 -0.1132  0.9408 -1.6614
 1618SOL    HW216488   2.943   4.139   2.963  0.8063 -0.2824  0.3977
 1619SOL     OW16489   0.105   3.812   0.703 -0.2017 -0.7614 -0.4540
 1619SOL    HW116490   0.194   3.792   0.731 -0.1789  0.3043  0.2010
 1619SOL    HW216491   0.068   3.828   0.790  0.3854  0.0378 -0.3549
 1620SOL     OW16492   0.154   3.602   2.511  0.0939  0.2459 -0.0186
 1620SOL    HW116493   0.244   3.632   2.495  0.4007 -1.0819 -0.7532
 1620SOL    HW216494   0.100   3.647   2.447  0.2119  1.3989  0.6862
 1621SOL     OW16495   0.541   1.368   5.982 -0.7923 -0.4569 -0.3591
 1621SOL    HW116496   0.591   1.324   6.051 -1.9577  1.6070  1.8082
 1621SOL    HW216497   0.519   1.292   5.929  0.7009 -0.7212 -0.6037
 1622SOL     OW16498   1.739   2.617   1.094 -0.0170  0.1469  0.0929
 1622SOL    HW116499   1.773   2.556   1.028  0.4952 -0.4646  0.9034
 1622SOL    HW216500   1.651   2.609   1.059  0.0896 -1.0973  0.1002
 1623SOL     OW16501   0.207   0.745   3.970  0.2248  0.6768 -0.3526
 1623SOL    HW116502   0.130   0.802   3.965  0.4610  1.1911  1.6522
 1623SOL    HW216503   0.269   0.795   3.917  0.1205  0.6529 -0.4955
 1624SOL     OW16504   0.766   4.375   6.428  0.0732  0.0934  0.2937
 1624SOL    HW116505   0.829   4.438   6.462 -0.4933  0.1009  1.3252
 1624SOL    HW216506   0.773   4.304   6.492 -2.7198 -0.0132  0.5022
 1625SOL     OW16507   3.277   0.173  13.767 -0.7526 -0.5412 -0.2131
 1625SOL    HW116508   3.336   0.102  13.743 -0.4957 -0.0252 -1.1189
 1625SOL    HW216509   3.318   0.244  13.718  0.8035 -0.6005  1.0006
 1626SOL     OW16510   1.397   0.125  11.676  0.0298  0.7877 -0.0744
 1626SOL    HW116511   1.364   0.071  11.748  0.3249 -0.3306 -0.7688
 1626SOL    HW216512   1.488   0.145  11.695 -0.6681  1.3515  2.6620
 1627SOL     OW16513   3.687   0.821  17.675  0.1765  0.1461  0.2736
 1627SOL    HW116514   3.690   0.778   0.018 -0.0406 -0.4682 -0.0311
 1627SOL    HW216515   3.650   0.905  17.703 -2.3312 -1.1941  1.0196
 1628SOL     OW16516   2.527   2.892  10.382  0.0776  0.4815 -0.6214
 1628SOL    HW116517   2.619   2.868  10.397  0.4797  2.4666  0.1263
 1628SOL    HW216518   2.504   2.859  10.295  0.3448 -2.3205  0.3688
 1629SOL     OW16519   0.783   0.766   9.428 -0.2739 -0.3386 -0.3771
 1629SOL    HW116520   0.778   0.819   9.508 -2.6557 -0.0164 -0.7297
 1629SOL    HW216521   0.877   0.775   9.413 -0.1275 -1.6915 -0.2594
 1630SOL     OW16522   3.421   0.881   2.779  0.5081  0.7641 -0.0825
 1630SOL    HW116523   3.402   0.975   2.776 -0.3000  0.6213  0.6886
 1630SOL    HW216524   3.461   0.873   2.866 -0.8999 -2.8579  0.2091
 1631SOL     OW16525   2.048   2.603  15.504  0.0034  0.4099 -0.2801
 1631SOL    HW116526   2.073   2.652  15.426  0.1729  2.3120  0.9443
 1631SOL    HW216527   1.990   2.667  15.546 -0.4867 -0.2410  0.0364
 1632SOL     OW16528   0.742   1.547   6.395  0.3304  0.2381 -0.4276
 1632SOL    HW116529   0.835   1.525   6.386  0.8782  2.2763  0.2722
 1632SOL    HW216530   0.747   1.638   6.365 -1.5268  1.2708  2.4395
 1633SOL     OW16531   4.588   0.420   2.261 -0.2124 -0.0125  0.3672
 1633SOL    HW116532   4.683   0.424   2.276 -0.0305 -2.6841 -0.1703
 1633SOL    HW216533   4.570   0.506   2.222  0.9242 -0.6113 -1.4535
 1634SOL     OW16534   1.120   2.376   4.588  0.3689 -0.1337  0.0042
 1634SOL    HW116535   1.157   2.336   4.509 -1.0279 -0.3773 -0.5265
 1634SOL    HW216536   1.199   2.385   4.642 -1.3441 -0.5048  2.5240
 1635SOL     OW16537   3.278   1.815  16.747  0.1079  0.4937  0.4341
 1635SOL    HW116538   3.232   1.883  16.795 -0.2131  0.2120  0.5179
 1635SOL    HW216539   3.250   1.833  16.657  0.7468 -0.0746  0.1195
 1636SOL     OW16540   2.495   1.465  11.671  0.0869 -0.1369 -0.6091
 1636SOL    HW116541   2.551   1.522  11.618 -0.2335  0.0118 -0.7832
 1636SOL    HW216542   2.441   1.529  11.718  1.7904  0.9327 -0.0710
 1637SOL     OW16543   2.002   3.643  16.586 -0.7306  0.2932 -0.2188
 1637SOL    HW116544   1.952   3.724  16.578 -0.2708  0.6581  0.5658
 1637SOL    HW216545   2.026   3.620  16.496  0.5347  0.8195 -0.0230
 1638SOL     OW16546   1.655   2.755   8.690  0.4973 -0.2112  0.5360
 1638SOL    HW116547   1.744   2.764   8.656  1.3072  0.6195  2.8988
 1638SOL    HW216548   1.665   2.743   8.784 -1.4425  0.1599  0.7880
 1639SOL     OW16549   1.857   0.752   1.411 -0.3355 -0.1876  0.4458
 1639SOL    HW116550   1.879   0.807   1.487 -1.0310  0.8293 -0.0985
 1639SOL    HW216551   1.780   0.794   1.374 -0.6647  0.5690  1.9915
 1640SOL     OW16552   3.315   3.939   6.145 -0.4183 -0.4116 -0.1947
 1640SOL    HW116553   3.399   3.981   6.124  0.3386 -1.5488  0.5732
 1640SOL    HW216554   3.256   4.003   6.105  1.3007  0.5365 -1.1946
 1641SOL     OW16555   2.897   1.805  11.703  0.0442 -0.6910 -0.0970
 1641SOL    HW116556   2.917   1.715  11.728 -2.1548 -1.1837 -0.0976
 1641SOL    HW216557   2.804   1.806  11.725 -0.1576  2.0208 -1.0761
 1642SOL     OW16558   2.297   2.568   3.938  0.3538  0.0640 -0.3765
 1642SOL    HW116559   2.388   2.573   3.912 -0.0534 -1.1406 -2.0033
 1642SOL    HW216560   2.270   2.488   3.894 -0.8795  0.0593  0.3801
 1643SOL     OW16561   0.532   1.576   5.512 -0.1129 -0.5441  0.5978
 1643SOL    HW116562   0.613   1.544   5.553  0.7308  0.7602 -0.0723
 1643SOL    HW216563   0.487   1.614   5.588  2.2979  3.6192 -0.0634
 1644SOL     OW16564   0.604   4.319   4.647  0.3566 -0.9169  0.1276
 1644SOL    HW116565   0.582   4.369   4.569 -0.9334 -1.1246  0.3652
 1644SOL    HW216566   0.643   4.385   4.704 -1.5181 -1.2242  1.7515
 1645SOL     OW16567   3.310   1.526   1.140  0.0140 -1.2703 -0.7967
 1645SOL    HW116568   3.374   1.464   1.106 -0.0383 -2.6212  1.5599
 1645SOL    HW216569   3.311   1.589   1.068 -1.3902  1.3588  1.5015
 1646SOL     OW16570   1.790   1.976   4.208  0.2348  0.3028  0.0488
 1646SOL    HW116571   1.761   1.916   4.140  1.1522 -0.4761  0.3404
 1646SOL    HW216572   1.838   2.048   4.169  0.1513  0.3157 -0.0296
 1647SOL     OW16573   1.458   1.359  14.165  0.7763  0.5717  0.1291
 1647SOL    HW116574   1.414   1.427  14.114 -0.4606 -1.9635 -2.1734
 1647SOL    HW216575   1.509   1.316  14.097  1.3078 -0.4143  1.1481
 1648SOL     OW16576   1.451   2.805  14.078  0.2695  0.1096 -0.0452
 1648SOL    HW116577   1.385   2.763  14.025 -0.5327  0.4140  0.7112
 1648SOL    HW216578   1.419   2.895  14.087 -0.7665 -0.0014 -2.7199
 1649SOL     OW16579   3.179   1.588  12.666 -0.4585 -0.0728  0.2287
 1649SOL    HW116580   3.205   1.662  12.720 -1.2682  0.2422  0.1996
 1649SOL    HW216581   3.179   1.635  12.582  0.4897 -2.7897 -1.2826
 1650SOL     OW16582   3.534   0.235   2.508 -0.0016  0.0778 -0.9147
 1650SOL    HW116583   3.591   0.188   2.448  1.9007  0.2432  0.7600
 1650SOL    HW216584   3.470   0.164   2.508 -1.1573  1.1098  0.6639
 1651SOL     OW16585   1.264   1.388   4.648  0.1218 -0.1824  0.0100
 1651SOL    HW116586   1.245   1.418   4.737  1.2234  4.0933 -1.2198
 1651SOL    HW216587   1.346   1.435   4.632  1.1961 -1.6974  1.0333
 1652SOL     OW16588   1.669   1.478   8.191  0.1118  0.0996 -0.0955
 1652SOL    HW116589   1.589   1.462   8.140 -0.2716  0.0275  0.5326
 1652SOL    HW216590   1.632   1.498   8.277 -1.4262  0.8079 -0.9136
 1653SOL     OW16591   1.520   3.234  10.297 -0.2203 -0.0169  0.5744
 1653SOL    HW116592   1.554   3.282  10.221 -1.6243  1.2450  0.7354
 1653SOL    HW216593   1.514   3.149  10.253 -1.3117  1.0099 -1.2698
 1654SOL     OW16594   1.377   0.128   8.636 -0.2999  0.1624  0.1952
 1654SOL    HW116595   1.331   0.102   8.556 -0.2295 -2.2544  0.9381
 1654SOL    HW216596   1.310   0.185   8.674 -0.1120 -0.1489  0.9925
 1655SOL     OW16597   0.963   1.607   4.690 -0.2087 -0.0430 -0.1499
 1655SOL    HW116598   1.021   1.584   4.762 -3.0786  0.6088  2.3446
 1655SOL    HW216599   0.929   1.524   4.658  0.1730 -0.0024 -0.6677
 1656SOL     OW16600   1.765   1.302   4.579 -0.3452  0.3019 -0.3496
 1656SOL    HW116601   1.849   1.312   4.622 -0.4150 -0.2641 -0.0802
 1656SOL    HW216602   1.776   1.370   4.512  0.6240  0.1815 -0.3019
 1657SOL     OW16603   2.127   4.416   9.738 -0.2292 -0.3165 -0.0062
 1657SOL    HW116604   2.046   4.368   9.719  1.0377 -1.2807 -3.0927
 1657SOL    HW216605   2.127   4.422   9.833 -0.3322  0.6717 -0.0647
 1658SOL     OW16606   1.590   1.967   9.880 -0.2545  0.2878 -0.3072
 1658SOL    HW116607   1.637   2.015   9.811 -0.1539  2.0094  0.9813
 1658SOL    HW216608   1.563   1.885   9.837 -1.9040  0.1935  0.9202
 1659SOL     OW16609   4.072   1.860   1.920 -0.2722  0.0506 -0.9090
 1659SOL    HW116610   4.138   1.911   1.967  1.9027 -3.3220 -0.3158
 1659SOL    HW216611   4.004   1.855   1.988 -0.3183 -1.0429 -1.0349
 1660SOL     OW16612   2.824   0.653   4.582 -0.7673  0.8530  0.4201
 1660SOL    HW116613   2.739   0.615   4.558  1.0924 -0.3408 -4.2819
 1660SOL    HW216614   2.798   0.745   4.578 -2.4649  0.2968 -1.4086
 1661SOL     OW16615   4.569   4.596   6.557 -0.2157  0.4362 -0.2196
 1661SOL    HW116616   4.493   4.570   6.610  0.0330  1.3038  0.5786
 1661SOL    HW216617   4.517   4.633   6.485 -0.6049 -0.1713 -0.2529
 1662SOL     OW16618   1.482   4.300   3.991  0.5099  0.3584  0.5125
 1662SOL    HW116619   1.534   4.361   4.043  0.4179 -1.3071  2.5859
 1662SOL    HW216620   1.461   4.359   3.919  1.1837  0.9348  0.7895
 1663SOL     OW16621   0.731   2.586   5.566  0.4468 -0.0404  0.0078
 1663SOL    HW116622   0.812   2.611   5.611 -0.6836  2.7101  0.4887
 1663SOL    HW216623   0.724   2.660   5.506  0.8081 -0.0314 -0.0213
 1664SOL     OW16624   3.388   1.284   3.287  0.2225  0.0667  0.0787
 1664SOL    HW116625   3.418   1.375   3.285  0.2319  0.0819  1.0396
 1664SOL    HW216626   3.336   1.271   3.366 -0.7120 -0.8596 -0.6917
 1665SOL     OW16627   2.631   1.475   5.859  0.8857 -0.8583  0.9362
 1665SOL    HW116628   2.617   1.562   5.823  2.2417 -0.6076  1.0079
 1665SOL    HW216629   2.717   1.490   5.898  0.6183 -2.1073  2.0227
 1666SOL     OW16630   0.829   3.131   8.882  0.3050  0.0682  0.2020
 1666SOL    HW116631   0.902   3.079   8.850  1.3036  1.1025  0.8165
 1666SOL    HW216632   0.766   3.059   8.890  1.4218 -0.7777  1.2645
 1667SOL     OW16633   2.973   0.692   5.918  0.4675  0.1038 -0.1642
 1667SOL    HW116634   2.946   0.605   5.947  2.6056 -0.0005  1.5368
 1667SOL    HW216635   2.953   0.682   5.825 -1.7349 -1.9508  0.5177
 1668SOL     OW16636   0.327   3.200   4.020 -0.3658 -0.5359  0.3508
 1668SOL    HW116637   0.329   3.154   3.936 -0.2048  1.8560 -0.9863
 1668SOL    HW216638   0.267   3.275   4.010  0.1243 -0.2780 -0.6782
 1669SOL     OW16639   2.370   4.493   6.151 -0.0740  0.3877 -0.0395
 1669SOL    HW116640   2.430   4.508   6.224  0.0117  0.4208 -0.1178
 1669SOL    HW216641   2.380   4.398   6.143  0.8803  0.4558  0.3531
 1670SOL     OW16642   1.350   3.536  12.327 -0.5354  0.0565  0.1687
 1670SOL    HW116643   1.300   3.455  12.340 -0.8764  0.3215  0.4867
 1670SOL    HW216644   1.308   3.580  12.401  0.7777  1.5352  0.0284
 1671SOL     OW16645   2.224   2.942   1.825  0.1127 -0.4408  0.1097
 1671SOL    HW116646   2.152   2.879   1.821  1.1144 -1.6685  1.2752
 1671SOL    HW216647   2.280   2.902   1.892  1.3801  1.9047  0.4371
 1672SOL     OW16648   2.971   1.088   5.781 -0.6353  0.2297 -0.2860
 1672SOL    HW116649   3.007   1.175   5.800 -0.5402 -0.2113  1.4775
 1672SOL    HW216650   3.013   1.079   5.695 -2.8113 -0.4784 -1.2604
 1673SOL     OW16651   2.666   0.948  17.625 -0.4489 -0.2596 -0.0766
 1673SOL    HW116652   2.758   0.927  17.643 -0.1646  0.1473 -1.0383
 1673SOL    HW216653   2.644   0.881  17.561  3.1210 -1.6162  0.1368
 1674SOL     OW16654   1.755   1.740   3.394 -0.0647 -0.1094  0.4107
 1674SOL    HW116655   1.675   1.741   3.446  1.1285 -2.9427  2.3181
 1674SOL    HW216656   1.797   1.657   3.418 -0.5137 -0.6327 -0.5829
 1675SOL     OW16657   3.217   3.911   9.111 -0.1950 -0.1806  0.2418
 1675SOL    HW116658   3.154   3.977   9.138 -0.5688 -0.2633 -0.4385
 1675SOL    HW216659   3.166   3.839   9.075 -0.9246  0.1124  0.7120
 1676SOL     OW16660   2.839   3.261   3.207  0.4840 -0.5182  0.1580
 1676SOL    HW116661   2.924   3.259   3.252 -0.1593 -1.0189  1.3459
 1676SOL    HW216662   2.784   3.245   3.283  0.4081  0.4254  0.3037
 1677SOL     OW16663   1.728   1.201   9.859 -0.1121 -0.0344  0.0505
 1677SOL    HW116664   1.679   1.246   9.790 -0.2540  0.4565  0.4738
 1677SOL    HW216665   1.721   1.119   9.810 -0.0379  1.7344 -2.9253
 1678SOL     OW16666   1.450   3.876   5.603 -0.5242 -0.1574 -0.0567
 1678SOL    HW116667   1.491   3.958   5.631  0.3994 -1.0154  1.1174
 1678SOL    HW216668   1.360   3.908   5.607 -0.8430 -0.9111 -1.4105
 1679SOL     OW16669   4.105   0.562   6.670  0.5897  0.1745 -0.2121
 1679SOL    HW116670   4.151   0.630   6.620  0.8613 -0.3363 -0.6534
 1679SOL    HW216671   4.174   0.509   6.708 -0.1969  0.5765  1.7872
 1680SOL     OW16672   4.267   1.764  14.234 -0.2906  0.0755 -0.3748
 1680SOL    HW116673   4.281   1.789  14.143  3.3946 -0.3438  0.0806
 1680SOL    HW216674   4.217   1.682  14.226  0.3810 -0.4225  0.4772
 1681SOL     OW16675   0.026   1.524  13.718  0.0601  0.4778  0.1921
 1681SOL    HW116676   0.092   1.471  13.761  0.6476  0.3419 -0.8899
 1681SOL    HW216677   4.701   1.455  13.693  0.4357  0.4935 -0.7568
 1682SOL     OW16678   3.855   4.636  11.900 -0.3345 -0.6330  0.3029
 1682SOL    HW116679   3.787   4.698  11.874  0.2414 -0.2723 -0.3201
 1682SOL    HW216680   3.932   4.693  11.905 -0.7889  0.0002  0.0022
 1683SOL     OW16681   0.982   1.790   5.948  0.3236 -0.4671 -0.3866
 1683SOL    HW116682   1.016   1.873   5.981  0.5921  0.5218 -3.1604
 1683SOL    HW216683   1.063   1.741   5.934 -1.8800 -3.5588 -2.3425
 1684SOL     OW16684   0.539   0.817   1.394 -0.8344  0.0311  0.0683
 1684SOL    HW116685   0.576   0.784   1.476 -0.8806  0.7467  0.3801
 1684SOL    HW216686   0.594   0.791   1.320 -1.5962  1.8757 -1.1496
 1685SOL     OW16687   2.896   1.959  12.324 -0.3855 -0.1624  0.2105
 1685SOL    HW116688   2.959   2.001  12.266  0.3633 -0.2447  0.9712
 1685SOL    HW216689   2.948   1.935  12.401  0.3959 -2.6902 -1.1028
 1686SOL     OW16690   4.316   3.225   5.870  0.4559  0.2542  0.1849
 1686SOL    HW116691   4.349   3.292   5.811  0.9537 -0.1550  0.0025
 1686SOL    HW216692   4.232   3.262   5.898  0.2299  0.0600 -0.2459
 1687SOL     OW16693   0.833   0.807   5.414 -0.1202  0.9023  0.3535
 1687SOL    HW116694   0.747   0.843   5.433 -0.6238  0.4529 -1.0466
 1687SOL    HW216695   0.857   0.858   5.336  1.0767  0.5756  0.5044
 1688SOL     OW16696   0.097   1.480  17.067 -0.5942 -0.4441  0.1040
 1688SOL    HW116697   0.164   1.413  17.053  0.5746  0.8422 -0.4735
 1688SOL    HW216698   0.113   1.510  17.156 -0.3161 -0.3137  0.0122
 1689SOL     OW16699   2.829   2.787   8.398 -0.2449  0.5033  0.4134
 1689SOL    HW116700   2.760   2.727   8.426  0.4632  0.3125  1.7848
 1689SOL    HW216701   2.907   2.740   8.429 -0.8755 -1.2867 -0.7014
 1690SOL     OW16702   4.487   1.476   1.138 -0.5606  0.0284  0.4718
 1690SOL    HW116703   4.495   1.380   1.142 -0.5476  0.0495  0.9987
 1690SOL    HW216704   4.417   1.482   1.074 -3.0196  0.0390  3.1782
 1691SOL     OW16705   0.871   4.582   8.769 -0.3691 -0.3856  0.0759
 1691SOL    HW116706   0.911   4.499   8.796  0.3397  0.2896  1.0904
 1691SOL    HW216707   0.926   4.641   8.819  1.5198 -2.3639  0.3541
 1692SOL     OW16708   0.405   0.067   7.440 -0.4160  0.1475 -0.3340
 1692SOL    HW116709   0.444   4.717   7.457 -1.5520 -0.2018  0.5285
 1692SOL    HW216710   0.380   0.053   7.349 -0.8452 -0.2654 -0.1522
 1693SOL     OW16711   3.245   3.911   3.622  0.3592 -0.1267  0.3127
 1693SOL    HW116712   3.231   3.988   3.677  1.8590  0.6969 -0.4553
 1693SOL    HW216713   3.154   3.896   3.597  0.2355  2.2011 -0.6515
 1694SOL     OW16714   3.703   0.616   0.817 -0.2111  0.5237 -0.2749
 1694SOL    HW116715   3.768   0.602   0.749 -0.8213 -0.1323 -0.7304
 1694SOL    HW216716   3.761   0.644   0.887  1.3327 -3.6990  0.1671
 1695SOL     OW16717   4.224   3.329   5.097 -0.3319  0.2376 -0.5360
 1695SOL    HW116718   4.173   3.248   5.101  0.0524  0.0121 -0.2249
 1695SOL    HW216719   4.302   3.313   5.149 -0.6487 -0.1890 -0.1904
 1696SOL     OW16720   2.078   2.394   2.398  0.4479  0.2612 -0.3480
 1696SOL    HW116721   2.160   2.442   2.410  1.1010 -1.2026  0.9556
 1696SOL    HW216722   2.019   2.443   2.456  0.1969 -3.8503  2.8567
 1697SOL     OW16723   2.816   0.956   3.052  0.2253  0.6440  0.0132
 1697SOL    HW116724   2.912   0.956   3.050  0.2409  0.3383  0.6644
 1697SOL    HW216725   2.793   1.007   2.974 -0.4684  1.3574  0.6884
 1698SOL     OW16726   4.011   2.216  12.259 -0.0866 -0.1003  0.8757
 1698SOL    HW116727   3.931   2.187  12.303 -0.3839 -0.7290 -0.0817
 1698SOL    HW216728   3.976   2.271  12.189  1.4010 -0.7693 -0.3904
 1699SOL     OW16729   3.134   3.599   6.234 -0.3285 -0.1282  0.6061
 1699SOL    HW116730   3.196   3.593   6.161 -1.4804  1.5105 -0.4915
 1699SOL    HW216731   3.059   3.560   6.189  0.6584 -0.0362 -1.1310
 1700SOL     OW16732   2.580   1.477   7.253  0.2699  0.0916 -0.3801
 1700SOL    HW116733   2.549   1.387   7.250 -0.0835  0.2706 -2.0746
 1700SOL    HW216734   2.532   1.520   7.324 -0.8927 -1.4325 -0.2460
 1701SOL     OW16735   1.458   1.814   0.880 -0.0043 -0.2246 -0.0849
 1701SOL    HW116736   1.487   1.757   0.951 -0.5751  0.7997  0.9543
 1701SOL    HW216737   1.372   1.776   0.866 -0.5346  1.4100 -1.2486
 1702SOL     OW16738   2.043   0.389   2.971  0.6358 -0.1702  0.5889
 1702SOL    HW116739   1.980   0.458   2.954  0.4380 -0.2798  0.8785
 1702SOL    HW216740   2.068   0.411   3.060 -0.9970 -0.5465  1.1380
 1703SOL     OW16741   1.243   4.566  16.642  0.2701  0.2046  0.2704
 1703SOL    HW116742   1.213   4.634  16.581  3.0666  0.6387 -0.6383
 1703SOL    HW216743   1.168   4.509  16.629  0.6406 -0.2854  0.3027
 1704SOL     OW16744   4.498   3.406   8.668 -0.3592  0.6726  0.5419
 1704SOL    HW116745   4.426   3.379   8.725  0.6307  0.3309  1.6409
 1704SOL    HW216746   4.567   3.427   8.731 -0.9172 -1.6115  1.9080
 1705SOL     OW16747   2.310   0.639   2.843  0.1269  0.3239 -0.2367
 1705SOL    HW116748   2.379   0.686   2.796 -0.4877  0.9834 -0.4936
 1705SOL    HW216749   2.250   0.712   2.828 -0.3272 -0.2924 -1.3665
 1706SOL     OW16750   2.399   3.249   3.473  0.0936 -0.3401  0.0582
 1706SOL    HW116751   2.378   3.241   3.566 -2.0496  0.0856 -0.3851
 1706SOL    HW216752   2.315   3.219   3.438 -0.2934 -0.3947  1.0394
 1707SOL     OW16753   4.268   4.079   5.238 -0.0241  0.4062 -0.0860
 1707SOL    HW116754   4.203   4.149   5.240  1.8753  2.1923 -0.5363
 1707SOL    HW216755   4.339   4.121   5.190  1.5085 -0.6228  1.2775
 1708SOL     OW16756   2.808   0.847  12.247 -0.0761  0.0843  0.3938
 1708SOL    HW116757   2.848   0.934  12.247 -0.0035  0.0735 -3.6953
 1708SOL    HW216758   2.841   0.801  12.169 -1.7927 -2.1050  0.9571
 1709SOL     OW16759   2.588   0.553   4.486  0.5293  0.4242  0.1783
 1709SOL    HW116760   2.635   0.525   4.407 -2.7775  0.5311 -1.7863
 1709SOL    HW216761   2.520   0.486   4.494 -0.2949  1.1918 -0.4172
 1710SOL     OW16762   4.581   1.057  11.115 -0.1287  0.0252 -0.6411
 1710SOL    HW116763   4.561   1.054  11.022  3.3002 -1.2449 -1.3259
 1710SOL    HW216764   4.572   1.151  11.130 -0.0157  0.1107 -1.1303
 1711SOL     OW16765   3.071   3.190   4.306  0.3989 -0.2121 -0.2205
 1711SOL    HW116766   3.086   3.165   4.215 -1.7177  0.6405 -0.7946
 1711SOL    HW216767   2.991   3.144   4.331  0.3232  0.4804  0.7950
 1712SOL     OW16768   1.832   0.205   9.581 -0.1391 -0.5506  0.3335
 1712SOL    HW116769   1.835   0.175   9.490  5.4833  0.8074  0.0324
 1712SOL    HW216770   1.917   0.243   9.605 -2.5541  3.6918  2.0656
 1713SOL     OW16771   3.180   3.008   8.963  0.3721 -0.2967  0.4459
 1713SOL    HW116772   3.249   3.026   9.027  0.0562 -0.7182  0.9026
 1713SOL    HW216773   3.103   3.019   9.019  0.1704  0.2348  0.0609
 1714SOL     OW16774   2.213   4.523   5.348 -0.3745  0.1005 -0.4632
 1714SOL    HW116775   2.160   4.578   5.405  0.4490 -0.6408  1.0092
 1714SOL    HW216776   2.297   4.531   5.393 -0.4218 -0.0145 -0.3566
 1715SOL     OW16777   1.454   2.090   7.089  0.1173 -0.4598 -1.1381
 1715SOL    HW116778   1.376   2.058   7.134  1.2778 -1.9918 -0.2268
 1715SOL    HW216779   1.517   2.035   7.136 -2.0712  1.2609  3.6986
 1716SOL     OW16780   4.139   4.088   7.228 -0.3305  0.3109 -0.3605
 1716SOL    HW116781   4.174   4.178   7.226 -2.7236  1.1986 -2.8235
 1716SOL    HW216782   4.057   4.085   7.179 -0.6775  2.1871  0.0805
 1717SOL     OW16783   1.709   2.115   9.685  0.4563  0.0233  0.0766
 1717SOL    HW116784   1.772   2.161   9.741  2.5537 -0.4032 -1.9042
 1717SOL    HW216785   1.669   2.182   9.630  1.4434 -0.2436 -0.9675
 1718SOL     OW16786   2.238   2.824   9.874 -0.5506 -0.0089 -0.4918
 1718SOL    HW116787   2.283   2.835   9.791  0.0241 -0.5540 -0.2519
 1718SOL    HW216788   2.222   2.729   9.868  1.7329 -0.3872 -0.6046
 1719SOL     OW16789   2.885   1.645   7.038 -0.4912 -0.0151  0.4691
 1719SOL    HW116790   2.824   1.666   7.109 -2.3512  0.3687 -1.2483
 1719SOL    HW216791   2.959   1.623   7.096 -1.2468  3.1716  2.6298
 1720SOL     OW16792   2.137   4.487   4.471  0.1014  0.7660  0.1488
 1720SOL    HW116793   2.209   4.430   4.498 -1.7174 -1.5681  0.0266
 1720SOL    HW216794   2.130   4.458   4.380 -1.9312  0.4249  0.4115
 1721SOL     OW16795   2.970   3.808  13.748 -0.2924  0.1683  0.1682
 1721SOL    HW116796   2.997   3.717  13.736  5.2399  1.6373  0.9842
 1721SOL    HW216797   2.968   3.809  13.844  2.9189 -0.4058  0.2627
 1722SOL     OW16798   4.459   3.057   4.567  0.4207 -0.0883 -0.4667
 1722SOL    HW116799   4.543   3.071   4.612 -0.9437 -1.0965  2.3741
 1722SOL    HW216800   4.500   3.028   4.485 -1.0066  0.7202 -1.4520
 1723SOL     OW16801   0.577   1.918   5.618  0.3076  0.3194 -0.5808
 1723SOL    HW116802   0.640   1.917   5.691 -1.6034  0.8259  1.0575
 1723SOL    HW216803   0.533   1.835   5.638  0.4675  0.5952  0.9264
 1724SOL     OW16804   4.680   1.439   4.520  0.3337 -0.0510  0.3098
 1724SOL    HW116805   4.721   1.355   4.499  0.9208  0.7124 -1.5892
 1724SOL    HW216806   4.588   1.413   4.520  0.3941 -0.2617 -2.0134
 1725SOL     OW16807   0.908   0.750  12.469 -0.0691  0.5173  0.1771
 1725SOL    HW116808   0.831   0.702  12.501  1.3734 -0.8494  1.5847
 1725SOL    HW216809   0.889   0.756  12.375  0.8604 -3.5175 -0.2536
 1726SOL     OW16810   2.932   1.534  11.671  0.2704 -0.3616  0.2772
 1726SOL    HW116811   3.013   1.584  11.676  0.0584 -0.3809  3.7727
 1726SOL    HW216812   2.942   1.465  11.737  0.5691  0.7307  1.3646
 1727SOL     OW16813   2.504   2.223   8.831  0.2543 -0.1375 -0.0220
 1727SOL    HW116814   2.469   2.155   8.888  1.5466 -0.2584  0.6204
 1727SOL    HW216815   2.591   2.245   8.865  0.0570  3.8321 -2.0455
 1728SOL     OW16816   2.167   0.943   8.222 -0.4540 -0.0469 -0.2194
 1728SOL    HW116817   2.127   1.029   8.207 -1.3502 -0.2216  1.2238
 1728SOL    HW216818   2.116   0.900   8.290  0.1155 -0.4376 -0.0421
 1729SOL     OW16819   3.432   1.621   8.367  0.4281 -0.1831 -0.0669
 1729SOL    HW116820   3.419   1.612   8.462 -1.5152  0.9328 -0.2239
 1729SOL    HW216821   3.496   1.550   8.365 -0.1296 -0.6826 -0.3594
 1730SOL     OW16822   2.188   2.063   2.001 -0.4457  0.4686  0.0994
 1730SOL    HW116823   2.121   2.081   2.067  1.0835  0.9791  1.5432
 1730SOL    HW216824   2.130   2.024   1.936 -1.4168  1.3184  0.4510
 1731SOL     OW16825   4.154   4.326   9.202 -0.2436 -0.4938 -0.0348
 1731SOL    HW116826   4.071   4.300   9.162 -0.4282  0.0050  0.0185
 1731SOL    HW216827   4.205   4.246   9.217  2.2524  1.1524  0.3171
 1732SOL     OW16828   1.665   1.457   4.963 -0.1866 -0.1180 -0.1966
 1732SOL    HW116829   1.654   1.515   4.887 -1.4725 -0.1373 -0.0119
 1732SOL    HW216830   1.687   1.377   4.915  0.6591 -1.6023  2.6646
 1733SOL     OW16831   2.362   1.996  12.215 -0.1994  0.0179 -0.4398
 1733SOL    HW116832   2.415   2.072  12.239 -1.0601  0.6463 -0.5176
 1733SOL    HW216833   2.277   2.025  12.251 -0.8673 -2.3262 -0.1448
 1734SOL     OW16834   0.770   2.291   8.110 -0.3418  0.1443 -0.2710
 1734SOL    HW116835   0.759   2.317   8.018 -0.1622  1.4600  0.0755
 1734SOL    HW216836   0.690   2.240   8.125  0.1464 -0.1971  1.1434
 1735SOL     OW16837   4.032   4.253   5.201  0.4023  0.2880 -0.2380
 1735SOL    HW116838   3.953   4.199   5.206 -1.2760  2.6106 -1.3529
 1735SOL    HW216839   4.044   4.251   5.106  0.3211  2.4047 -0.2902
 1736SOL     OW16840   0.657   0.084   8.316  0.1089 -0.2051  0.5006
 1736SOL    HW116841   0.663   0.179   8.325  2.0476 -0.5023  2.3269
 1736SOL    HW216842   0.665   0.040   8.401  2.2206  1.7848  1.3400
 1737SOL     OW16843   2.186   3.726  14.857 -0.6101  0.1569  0.1058
 1737SOL    HW116844   2.092   3.732  14.841 -0.5736 -1.4500 -0.8175
 1737SOL    HW216845   2.202   3.813  14.821 -0.3926  0.0429 -0.0736
 1738SOL     OW16846   1.490   4.642   9.539  0.0626  0.0705  0.5128
 1738SOL    HW116847   1.526   4.674   9.622 -1.2064  1.9054  0.3381
 1738SOL    HW216848   1.452   4.721   9.502  0.6841 -0.3945 -1.1271
 1739SOL     OW16849   0.409   1.554   8.467 -0.2283 -0.3544 -0.4222
 1739SOL    HW116850   0.386   1.615   8.537  0.5933 -0.1350 -0.3514
 1739SOL    HW216851   0.503   1.567   8.471 -0.5516  1.7962  0.0727
 1740SOL     OW16852   1.592   0.766   6.472  0.4719  0.4449 -0.3721
 1740SOL    HW116853   1.511   0.814   6.487  0.9199  1.2791 -0.6105
 1740SOL    HW216854   1.642   0.781   6.553  1.2550 -1.0414 -0.5818
 1741SOL     OW16855   1.668   2.388   4.561 -0.2175 -0.5540  0.4133
 1741SOL    HW116856   1.642   2.297   4.577  0.4152 -1.6038 -4.5737
 1741SOL    HW216857   1.761   2.369   4.547  0.1799  0.6493  1.4498
 1742SOL     OW16858   3.096   4.560  13.986 -0.1360 -0.3173  0.2687
 1742SOL    HW116859   3.120   4.546  13.895  0.4430  2.4267 -0.0110
 1742SOL    HW216860   3.122   4.652  13.993  2.1898 -1.0397  0.9080
 1743SOL     OW16861   1.368   0.347   4.230 -0.9166  0.0390  0.0462
 1743SOL    HW116862   1.364   0.344   4.134 -3.2236 -0.4473  0.1737
 1743SOL    HW216863   1.457   0.372   4.255 -1.2125  0.6822  0.4555
 1744SOL     OW16864   1.775   3.567   5.692 -0.3650  0.1715  0.1101
 1744SOL    HW116865   1.823   3.565   5.775  1.9182  1.3095 -1.1826
 1744SOL    HW216866   1.713   3.639   5.705  0.0419  0.6842 -0.7925
 1745SOL     OW16867   1.975   2.743   4.106  0.5618  0.0439  0.2596
 1745SOL    HW116868   1.886   2.734   4.072  0.3832 -0.3145  0.8233
 1745SOL    HW216869   1.977   2.673   4.172  0.0184 -0.3059 -0.0973
 1746SOL     OW16870   4.608   4.080   2.684  0.0545 -0.3820 -0.2466
 1746SOL    HW116871   4.582   4.042   2.600 -2.5308  0.4074  0.1967
 1746SOL    HW216872   4.642   4.167   2.661  0.8335 -0.7275 -0.4169
 1747SOL     OW16873   0.267   0.696   9.715  0.1419 -0.2817 -0.2058
 1747SOL    HW116874   0.308   0.667   9.797  2.1227 -1.3894 -1.6103
 1747SOL    HW216875   0.182   0.652   9.720  0.5067 -0.8376  1.1156
 1748SOL     OW16876   4.353   1.666   4.268 -0.0632 -0.2278  0.1040
 1748SOL    HW116877   4.432   1.635   4.223 -0.2888 -1.0759  0.2827
 1748SOL    HW216878   4.293   1.678   4.194  0.6776  0.9510 -0.3096
 1749SOL     OW16879   3.424   3.479   5.633  0.2220  0.1842 -0.3892
 1749SOL    HW116880   3.396   3.566   5.605 -2.3201 -0.5653 -0.1907
 1749SOL    HW216881   3.378   3.471   5.717 -0.1903 -1.7773 -0.7971
 1750SOL     OW16882   4.102   3.715   9.904 -0.3019 -0.5077 -0.6324
 1750SOL    HW116883   4.179   3.770   9.922  0.6298 -1.5770 -1.3846
 1750SOL    HW216884   4.071   3.756   9.823  1.9219 -0.4907 -1.4773
 1751SOL     OW16885   4.444   2.488   4.205  0.5330  0.6237  0.5870
 1751SOL    HW116886   4.519   2.443   4.244  0.6001 -0.8916 -1.2897
 1751SOL    HW216887   4.426   2.431   4.130 -1.0780  0.7235  0.9067
 1752SOL     OW16888   3.003   1.194   0.007  0.1175  0.1240  0.0844
 1752SOL    HW116889   3.018   1.208   0.100 -0.2954 -0.1902  0.1985
 1752SOL    HW216890   3.000   1.285  17.720  0.0236  0.0077 -0.2752
 1753SOL     OW16891   2.866   0.585   3.184  0.3899 -0.0371 -0.3760
 1753SOL    HW116892   2.790   0.640   3.202 -0.0836 -0.0745 -2.2517
 1753SOL    HW216893   2.829   0.500   3.211  1.3610 -0.6027 -0.8398
 1754SOL     OW16894   2.418   3.966   2.402  0.5929  0.2058  0.0412
 1754SOL    HW116895   2.465   4.049   2.412 -1.4250  1.0787  2.4534
 1754SOL    HW216896   2.330   4.001   2.416  0.5970  0.8452 -1.4628
 1755SOL     OW16897   2.571   2.602   0.221 -0.1002  0.5835  0.0650
 1755SOL    HW116898   2.570   2.524   0.276  0.5571 -1.1239 -2.3210
 1755SOL    HW216899   2.597   2.668   0.285 -0.6211  0.2445  0.6196
 1756SOL     OW16900   1.993   4.083   5.350  0.0324 -0.0876 -0.1537
 1756SOL    HW116901   1.985   4.094   5.255 -0.8951  1.9304  0.1546
 1756SOL    HW216902   2.088   4.096   5.355  0.0378 -0.9669  1.6806
 1757SOL     OW16903   4.068   2.784  13.506 -0.6104  0.6150  0.2039
 1757SOL    HW116904   4.101   2.746  13.424  2.4320 -0.8155  2.1061
 1757SOL    HW216905   3.973   2.769  13.502 -0.5212  0.5881 -1.8964
 1758SOL     OW16906   1.718   2.143   1.141  0.1149 -0.5099  0.6432
 1758SOL    HW116907   1.700   2.164   1.049  0.1704 -2.5672  0.1562
 1758SOL    HW216908   1.637   2.174   1.181  1.0361 -0.2670  2.3233
 1759SOL     OW16909   4.361   3.653   4.549 -0.3928 -0.3194 -0.3959
 1759SOL    HW116910   4.366   3.717   4.621  0.7661  0.9170 -1.5772
 1759SOL    HW216911   4.270   3.623   4.554 -0.4253 -0.2310 -0.4690
 1760SOL     OW16912   3.933   0.579   6.286  0.3322 -0.2175 -0.4751
 1760SOL    HW116913   3.859   0.609   6.339  0.0989 -0.4604 -0.6594
 1760SOL    HW216914   3.958   0.505   6.342 -0.7349 -2.1223 -2.5225
 1761SOL     OW16915   2.753   1.377   2.621 -0.1364  0.3124  0.4348
 1761SOL    HW116916   2.731   1.421   2.703 -0.5272 -1.0511  1.0634
 1761SOL    HW216917   2.722   1.440   2.556 -2.4150 -1.3980 -0.1214
 1762SOL     OW16918   3.889   0.572   1.510 -0.5264  0.4930 -0.6091
 1762SOL    HW116919   3.857   0.525   1.434 -0.6873 -0.7536  0.2325
 1762SOL    HW216920   3.807   0.612   1.540 -1.0906 -0.5145 -0.8185
 1763SOL     OW16921   4.292   2.157   4.641  0.6984  0.0858  0.0759
 1763SOL    HW116922   4.372   2.119   4.678  0.5524  0.2867  0.5826
 1763SOL    HW216923   4.248   2.190   4.718 -0.4874  2.4848 -1.6470
 1764SOL     OW16924   1.085   4.574   5.093 -0.7226  0.4868  0.1827
 1764SOL    HW116925   1.033   4.577   5.173  0.9374  2.9428  1.1628
 1764SOL    HW216926   1.158   4.515   5.111  1.0068  2.2970 -0.8854
 1765SOL     OW16927   1.887   3.761  16.301 -0.3498 -0.0076  0.3316
 1765SOL    HW116928   1.814   3.766  16.362  1.1176 -0.5556  2.1173
 1765SOL    HW216929   1.844   3.771  16.216  0.5793  0.2418 -0.1164
 1766SOL     OW16930   3.104   0.758  12.118 -0.3981 -0.3802 -0.2240
 1766SOL    HW116931   3.102   0.736  12.211 -0.4066 -0.8223 -0.3317
 1766SOL    HW216932   3.162   0.692  12.081 -0.5656 -0.0820 -1.0177
 1767SOL     OW16933   2.877   1.948  13.849  0.1846  0.1302 -0.2300
 1767SOL    HW116934   2.962   1.905  13.849 -0.1271 -0.4573  1.1711
 1767SOL    HW216935   2.844   1.964  13.760 -1.4815  1.5504  0.6409
 1768SOL     OW16936   0.049   0.859   5.686  0.9856 -0.1874 -0.0159
 1768SOL    HW116937   0.133   0.852   5.732 -1.0974 -0.7185  3.6676
 1768SOL    HW216938   0.009   0.781   5.724 -0.9679  0.3770 -0.9204
 1769SOL     OW16939   1.180   2.578   9.445  0.0645  0.0860  0.3527
 1769SOL    HW116940   1.254   2.633   9.470 -0.1574  0.7740 -0.4823
 1769SOL    HW216941   1.128   2.649   9.406  0.7287 -0.0015 -0.7075
 1770SOL     OW16942   1.920   0.016   2.509  0.2987 -0.0438 -0.1333
 1770SOL    HW116943   1.967   0.083   2.458  0.4545 -0.9940 -1.2481
 1770SOL    HW216944   1.936   0.039   2.600 -1.2885  0.3701  0.0413
 1771SOL     OW16945   3.199   1.219  17.558 -0.1051  0.5159 -0.8760
 1771SOL    HW116946   3.140   1.204  17.632  1.7926 -4.3996 -0.3823
 1771SOL    HW216947   3.138   1.267  17.502 -1.5132 -0.3799 -0.1001
 1772SOL     OW16948   3.949   4.048   5.684 -0.0761 -0.4752  0.2206
 1772SOL    HW116949   4.044   4.050   5.700 -0.0908 -1.6550  0.4682
 1772SOL    HW216950   3.950   4.016   5.594  0.5851 -0.6913  0.3001
 1773SOL     OW16951   0.646   4.201   9.320  0.4988 -0.7628  0.0687
 1773SOL    HW116952   0.661   4.163   9.233  2.0678 -1.5614  0.6775
 1773SOL    HW216953   0.560   4.164   9.340  0.5606 -1.8427 -1.6938
 1774SOL     OW16954   0.399   0.384   7.402 -0.4850 -0.1342 -0.2875
 1774SOL    HW116955   0.325   0.393   7.342 -0.8855 -0.1056  0.2059
 1774SOL    HW216956   0.373   0.336   7.481  0.9388  0.8386  0.7711
 1775SOL     OW16957   1.157   1.577   7.760 -0.2276 -0.2191  0.0005
 1775SOL    HW116958   1.174   1.490   7.724 -0.2408  0.0143 -0.5698
 1775SOL    HW216959   1.241   1.608   7.795 -0.4380 -2.4808  2.4582
 1776SOL     OW16960   4.433   0.048   6.354  0.0609 -0.5818 -0.0451
 1776SOL    HW116961   4.466   4.730   6.283 -0.4701 -0.0547 -0.6891
 1776SOL    HW216962   4.430   0.130   6.305 -1.0320  0.6459  2.0388
 1777SOL     OW16963   0.831   0.477   0.155  0.4678 -0.1563  0.2404
 1777SOL    HW116964   0.866   0.397   0.193  0.5858 -0.4212 -0.4414
 1777SOL    HW216965   0.738   0.472   0.177 -0.1113  1.1748 -1.8571
 1778SOL     OW16966   3.529   4.146   1.714 -0.2196  0.1932  0.8023
 1778SOL    HW116967   3.577   4.214   1.762  0.6983  0.2345 -0.1767
 1778SOL    HW216968   3.453   4.193   1.680 -0.8109 -0.4961  1.1811
 1779SOL     OW16969   2.824   4.373   7.901 -0.5753 -0.1280  0.7719
 1779SOL    HW116970   2.742   4.412   7.868  0.1034  2.5443  2.2372
 1779SOL    HW216971   2.815   4.371   7.996  1.3131  0.3354  0.9495
 1780SOL     OW16972   1.213   0.191   9.898 -0.6045 -0.1433  0.0314
 1780SOL    HW116973   1.270   0.215   9.825  1.4801 -1.7409  1.1326
 1780SOL    HW216974   1.187   0.278   9.928  1.4271 -0.3554  2.4230
 1781SOL     OW16975   2.614   1.734   7.812  0.1248 -0.7954  0.5375
 1781SOL    HW116976   2.529   1.749   7.853 -0.1516 -0.7399 -0.0532
 1781SOL    HW216977   2.594   1.671   7.743 -1.6329  1.5521 -1.1173
 1782SOL     OW16978   2.633   0.798   5.811  0.1641 -0.2231 -0.4729
 1782SOL    HW116979   2.581   0.745   5.751  0.0844  1.7618 -2.1477
 1782SOL    HW216980   2.679   0.856   5.751 -1.4324  1.0931 -0.4214
 1783SOL     OW16981   0.320   4.554   4.646  0.4054  0.0515  0.4958
 1783SOL    HW116982   0.397   4.582   4.596 -0.1767  0.1672 -0.3532
 1783SOL    HW216983   0.298   4.475   4.596  0.0626  2.1851 -2.7859
 1784SOL     OW16984   1.821   3.554   3.351  0.0306  0.1933  0.6073
 1784SOL    HW116985   1.738   3.602   3.340  0.0802  0.1479  0.0250
 1784SOL    HW216986   1.796   3.468   3.385 -1.7382  0.2711 -0.4646
 1785SOL     OW16987   3.740   4.603   5.744  0.6028 -0.1243 -0.4570
 1785SOL    HW116988   3.748   4.544   5.819  0.8750 -0.4858 -0.7696
 1785SOL    HW216989   3.830   4.627   5.722  1.6331 -0.5677  3.3019
 1786SOL     OW16990   2.464   2.434   7.368  0.1757  0.0329  0.4960
 1786SOL    HW116991   2.434   2.354   7.324  2.0993 -1.9654  2.8134
 1786SOL    HW216992   2.380   2.475   7.387  1.0690  1.5108  1.2471
 1787SOL     OW16993   4.362   1.800   6.844 -0.1227 -0.2563  0.6417
 1787SOL    HW116994   4.311   1.881   6.832 -0.3237 -0.3202  1.0912
 1787SOL    HW216995   4.337   1.763   6.928 -1.4773  1.6130  1.0723
 1788SOL     OW16996   2.407   3.552  17.395  0.1075  0.2581 -0.1692
 1788SOL    HW116997   2.403   3.525  17.303 -0.8760  0.0712 -0.0677
 1788SOL    HW216998   2.376   3.641  17.383 -2.9132 -0.2335  3.9133
 1789SOL     OW16999   0.772   0.107   9.905 -0.0821 -0.2431 -0.2218
 1789SOL    HW117000   0.844   0.167   9.889  0.9119 -1.0838  1.0724
 1789SOL    HW217001   0.763   0.122   9.999 -1.3108  2.0700 -0.7124
 1790SOL     OW17002   0.444   3.588   6.930  0.1007 -0.9061  0.6236
 1790SOL    HW117003   0.421   3.616   7.018 -0.4188  1.0558 -0.1366
 1790SOL    HW217004   0.511   3.525   6.955 -2.9161 -4.4761 -0.2580
 1791SOL     OW17005   2.087   1.725   6.455 -0.1073 -0.4874  0.0114
 1791SOL    HW117006   2.113   1.808   6.415 -1.0093  1.5829  3.7577
 1791SOL    HW217007   2.037   1.688   6.383 -1.3820 -1.7603  1.5571
 1792SOL     OW17008   4.453   1.365  15.660  0.4332  0.2728  0.1943
 1792SOL    HW117009   4.385   1.405  15.714  2.3076  1.4694  1.6438
 1792SOL    HW217010   4.504   1.434  15.618  1.0659  0.4910  1.3285
 1793SOL     OW17011   3.615   0.516   9.090 -0.3568  0.0892  0.1512
 1793SOL    HW117012   3.570   0.543   9.010 -0.1759 -0.1040 -0.0135
 1793SOL    HW217013   3.637   0.604   9.121 -2.8559  0.8778 -0.3242
 1794SOL     OW17014   2.479   4.726  13.482  0.7075  0.0892  0.0385
 1794SOL    HW117015   2.422   0.003  13.557  1.9587  0.6536  0.8945
 1794SOL    HW217016   2.501   0.082  13.465  1.7274 -0.2197 -0.3557
 1795SOL     OW17017   2.613   3.156   6.989 -0.2512 -0.1759 -0.0758
 1795SOL    HW117018   2.627   3.217   6.917  0.9065 -3.8152 -2.9335
 1795SOL    HW217019   2.613   3.209   7.069  0.6400 -1.0556  0.5065
 1796SOL     OW17020   2.200   0.075   4.148  0.4349  0.3856 -0.0199
 1796SOL    HW117021   2.149   0.050   4.225 -1.9058  2.7496 -0.7774
 1796SOL    HW217022   2.164   0.010   4.087  2.9856  0.9878 -2.1925
 1797SOL     OW17023   0.478   3.169   1.913 -0.5007  0.4971 -0.1335
 1797SOL    HW117024   0.468   3.144   1.821 -0.7364 -1.5448  0.4385
 1797SOL    HW217025   0.392   3.207   1.932 -1.6045 -1.0264 -2.0891
 1798SOL     OW17026   1.229   4.243  13.992 -0.1258  0.2715 -0.0668
 1798SOL    HW117027   1.180   4.241  13.909  2.4314  1.6477 -1.6089
 1798SOL    HW217028   1.252   4.335  14.002 -2.7481  0.9795 -0.4525
 1799SOL     OW17029   1.254   4.604   6.578 -0.1270 -0.2615 -0.0068
 1799SOL    HW117030   1.316   4.675   6.567  0.9392 -0.9701  1.4224
 1799SOL    HW217031   1.222   4.596   6.488 -0.5623 -0.8951  0.2020
 1800SOL     OW17032   2.280   0.905   4.396 -0.0380  0.1513  0.2108
 1800SOL    HW117033   2.306   0.916   4.487 -1.7734 -0.1550  0.7414
 1800SOL    HW217034   2.222   0.829   4.389 -2.9527  2.3574  0.2139
 1801SOL     OW17035   0.952   4.415  11.861  0.0540 -0.3150  0.5315
 1801SOL    HW117036   1.037   4.456  11.877 -0.2114  0.6314 -0.4577
 1801SOL    HW217037   0.969   4.377  11.775  0.4682  0.7599  0.1321
 1802SOL     OW17038   0.666   0.934  17.137 -0.2168 -0.2883  0.4629
 1802SOL    HW117039   0.693   0.850  17.100 -3.2320 -0.4195 -1.4751
 1802SOL    HW217040   0.633   0.986  17.063  0.2815  0.4433  0.7480
 1803SOL     OW17041   3.854   4.090  10.611  0.2809  0.1295  0.1980
 1803SOL    HW117042   3.942   4.119  10.584 -0.1445  0.6413 -0.6275
 1803SOL    HW217043   3.840   4.035  10.534 -1.3432  1.5606 -0.5133
 1804SOL     OW17044   3.131   4.052   5.327 -0.1765 -0.5434 -0.4581
 1804SOL    HW117045   3.119   3.965   5.288  0.6294 -0.2612 -1.3494
 1804SOL    HW217046   3.203   4.084   5.272  0.8832  1.0075  1.8611
 1805SOL     OW17047   4.540   3.751   8.801  0.4731  0.3174  0.6806
 1805SOL    HW117048   4.512   3.696   8.729 -0.9163 -0.0756  1.5242
 1805SOL    HW217049   4.469   3.734   8.863 -0.9310  2.4892 -0.3516
 1806SOL     OW17050   3.974   0.675   1.030 -0.1761 -0.5282 -0.7299
 1806SOL    HW117051   3.904   0.741   1.029  1.7262  1.5293  3.0829
 1806SOL    HW217052   4.053   0.725   1.050 -2.9234  3.8038 -0.6220
 1807SOL     OW17053   1.902   1.575   8.709 -0.2846  0.0364 -0.6785
 1807SOL    HW117054   1.885   1.560   8.616 -1.5686 -0.3840 -0.3763
 1807SOL    HW217055   1.881   1.668   8.721 -1.6008 -0.5633  1.7465
 1808SOL     OW17056   0.196   2.571   7.811 -0.1355 -0.0471 -0.3273
 1808SOL    HW117057   0.100   2.578   7.805 -0.2849 -0.9159  1.1079
 1808SOL    HW217058   0.200   2.662   7.782  0.4708  0.0585  0.0980
 1809SOL     OW17059   1.256   3.304   5.932 -0.1882 -0.1113  0.1251
 1809SOL    HW117060   1.228   3.214   5.917 -1.0464  0.1693  0.0674
 1809SOL    HW217061   1.184   3.324   5.993  0.9896  1.2683  1.0811
 1810SOL     OW17062   4.078   0.102   6.249  0.0938  0.0689  0.7853
 1810SOL    HW117063   4.140   0.031   6.231  0.1543  0.8717 -2.1674
 1810SOL    HW217064   4.116   0.176   6.203 -2.8208  0.7138 -0.5858
 1811SOL     OW17065   1.019   0.500   3.089  0.6455  0.0075  0.1684
 1811SOL    HW117066   1.032   0.476   2.997 -0.3713 -0.3507  0.1252
 1811SOL    HW217067   1.100   0.548   3.109 -0.1694  1.9906 -1.2381
 1812SOL     OW17068   0.929   1.840  16.452 -0.3229  0.6361  0.4367
 1812SOL    HW117069   0.997   1.895  16.412 -0.5292  0.6339  0.0818
 1812SOL    HW217070   0.913   1.764  16.397 -0.5344 -1.0968  2.8979
 1813SOL     OW17071   2.424   3.703   2.384  0.5486 -0.1060  0.2576
 1813SOL    HW117072   2.331   3.686   2.398 -0.3981  3.2802 -1.6915
 1813SOL    HW217073   2.421   3.799   2.385  0.6182 -0.1230  1.2953
 1814SOL     OW17074   4.546   2.843  13.057  0.4847  0.1334  0.0272
 1814SOL    HW117075   4.504   2.886  13.131 -0.8012 -1.9662  0.5440
 1814SOL    HW217076   4.634   2.855  13.091  0.4373 -3.2986  1.3454
 1815SOL     OW17077   2.238   2.476   6.031 -0.0624  0.1117 -0.5171
 1815SOL    HW117078   2.312   2.415   6.027  1.1432  1.6681 -1.8943
 1815SOL    HW217079   2.281   2.561   6.039  0.4145 -0.1348 -0.3997
 1816SOL     OW17080   3.108   4.245   9.426 -0.2946  0.0522  0.3735
 1816SOL    HW117081   3.080   4.269   9.337  2.1145 -0.9626 -0.6523
 1816SOL    HW217082   3.117   4.333   9.462  0.0466  0.1479  0.0548
 1817SOL     OW17083   3.962   0.833   8.370  0.4322  0.1948 -0.2132
 1817SOL    HW117084   3.898   0.802   8.306 -0.8419 -1.8668  2.0722
 1817SOL    HW217085   3.906   0.901   8.409 -0.0534 -0.6083  0.4822
 1818SOL     OW17086   1.778   3.763  10.478  0.5635 -0.0478  1.1452
 1818SOL    HW117087   1.867   3.732  10.460  0.3386  0.4860 -0.8371
 1818SOL    HW217088   1.787   3.858  10.480  3.0101 -0.2430 -0.9757
 1819SOL     OW17089   0.265   4.708   4.084  0.3397  0.0002 -0.0761
 1819SOL    HW117090   0.350   4.728   4.124 -1.4850  1.8901  2.8138
 1819SOL    HW217091   0.211   4.727   4.160 -0.0416  0.1361 -0.3853
 1820SOL     OW17092   0.487   1.629  11.305 -0.3910  0.5539 -0.6214
 1820SOL    HW117093   0.531   1.648  11.222 -2.6058 -1.2864 -2.1976
 1820SOL    HW217094   0.398   1.615  11.274 -0.4355 -1.6400  0.4867
 1821SOL     OW17095   2.713   3.979   8.279 -0.1463  0.9256 -0.4995
 1821SOL    HW117096   2.653   4.053   8.278  1.4391  2.2115 -1.0940
 1821SOL    HW217097   2.769   3.999   8.204 -1.9589  0.8853 -1.8697
 1822SOL     OW17098   4.072   0.798   4.603  0.1803 -0.2640 -0.2950
 1822SOL    HW117099   4.112   0.726   4.653  0.2052  0.5079  0.8073
 1822SOL    HW217100   4.013   0.839   4.666  1.0301  1.2451 -0.4661
 1823SOL     OW17101   2.852   3.743   6.828 -0.1622  0.5283  0.8116
 1823SOL    HW117102   2.789   3.813   6.810  0.4813  0.3967 -2.0000
 1823SOL    HW217103   2.931   3.788   6.855  1.8733 -1.2037 -2.2221
 1824SOL     OW17104   0.720   2.906   6.524 -0.7360 -0.2074 -0.6622
 1824SOL    HW117105   0.713   3.000   6.508 -2.2515 -0.2587 -0.3456
 1824SOL    HW217106   0.811   2.882   6.512 -1.7802 -3.1834 -2.6182
 1825SOL     OW17107   2.120   3.684   5.107  0.0505 -0.3189 -0.2618
 1825SOL    HW117108   2.118   3.589   5.115  0.7936 -0.2619  0.5728
 1825SOL    HW217109   2.209   3.695   5.073  0.2059 -0.4035  0.1194
 1826SOL     OW17110   0.062   0.523   4.108  0.3539 -0.2786  0.1803
 1826SOL    HW117111   0.097   0.549   4.193  0.6335 -0.1083  0.0123
 1826SOL    HW217112   0.119   0.588   4.066 -1.2495  0.9631 -0.0620
 1827SOL     OW17113   2.322   2.763  10.539  0.1010  0.0388  0.0553
 1827SOL    HW117114   2.362   2.786  10.455 -1.3323 -1.1729 -0.9636
 1827SOL    HW217115   2.347   2.839  10.591  1.1177 -1.2881  1.4909
 1828SOL     OW17116   3.104   0.021  16.609  0.0189 -0.0992 -0.1612
 1828SOL    HW117117   3.064   4.728  16.692 -0.2895 -1.7073 -0.8732
 1828SOL    HW217118   3.181   4.701  16.608 -1.0653 -1.6542  1.8906
 1829SOL     OW17119   2.657   1.409   5.582  0.6030  0.3550  0.6547
 1829SOL    HW117120   2.589   1.476   5.579  0.0541 -0.1819  1.2021
 1829SOL    HW217121   2.704   1.430   5.662  0.3530  2.5114  0.2316
 1830SOL     OW17122   3.677   3.996   4.574  0.3931  0.5272 -0.2069
 1830SOL    HW117123   3.630   4.073   4.541 -1.7813 -0.6696  0.1269
 1830SOL    HW217124   3.623   3.928   4.533  0.9981 -0.2442  0.2794
 1831SOL     OW17125   4.445   0.768  16.306 -0.4884 -0.3087 -0.0216
 1831SOL    HW117126   4.540   0.758  16.315 -0.1352  1.8241 -1.4484
 1831SOL    HW217127   4.425   0.675  16.320 -1.3991 -0.1065  0.0050
 1832SOL     OW17128   2.073   1.118  15.700  0.1450  0.2639 -0.1999
 1832SOL    HW117129   2.100   1.036  15.658  2.0605  0.4387  0.6686
 1832SOL    HW217130   2.088   1.174  15.625  0.0449  0.3279 -0.1725
 1833SOL     OW17131   2.591   0.149   8.096 -0.0496 -0.0032 -0.4444
 1833SOL    HW117132   2.589   0.199   8.015 -1.9530 -1.7814 -1.4949
 1833SOL    HW217133   2.660   0.086   8.077  0.8578  2.1120 -3.9846
 1834SOL     OW17134   0.207   0.237   3.853 -0.0369  1.0433  0.0604
 1834SOL    HW117135   0.155   0.248   3.773  2.4054 -0.5789 -1.7604
 1834SOL    HW217136   0.169   0.157   3.889  2.2259  0.5762  1.4111
 1835SOL     OW17137   1.517   3.266   0.285 -0.6167 -0.1467  0.8850
 1835SOL    HW117138   1.584   3.203   0.311  0.3005 -0.5156 -2.3290
 1835SOL    HW217139   1.487   3.239   0.198  2.4145 -1.0747  0.1279
 1836SOL     OW17140   3.663   2.716   9.739 -0.2890  0.2758 -0.2037
 1836SOL    HW117141   3.686   2.707   9.831 -0.9092 -0.5997 -0.1391
 1836SOL    HW217142   3.629   2.628   9.721 -0.4636  0.5065 -0.9942
 1837SOL     OW17143   0.119   0.839   6.786 -0.0881  0.0522  0.4060
 1837SOL    HW117144   0.084   0.893   6.715  1.5340 -1.3865 -1.4760
 1837SOL    HW217145   0.135   0.763   6.731  1.5486 -0.0868  1.0555
 1838SOL     OW17146   0.603   0.061   7.044 -0.1358 -0.0127 -0.3204
 1838SOL    HW117147   0.655   0.007   7.103 -0.6952  1.8137  1.8505
 1838SOL    HW217148   0.663   0.135   7.034  0.0076  0.1232  1.5116
 1839SOL     OW17149   2.960   4.677   0.119  0.1361 -0.6334 -0.2143
 1839SOL    HW117150   2.950   4.611   0.187  0.3313 -0.9857 -0.5311
 1839SOL    HW217151   3.021   4.736   0.164  0.1937 -0.9574  0.1275
 1840SOL     OW17152   3.877   2.468  16.270  0.1891 -1.3019 -0.0206
 1840SOL    HW117153   3.790   2.431  16.281  0.2725 -0.8781  1.9957
 1840SOL    HW217154   3.856   2.539  16.209  1.6721 -1.4602 -0.7360
 1841SOL     OW17155   4.708   2.019   7.008  0.2116 -0.3652  0.1148
 1841SOL    HW117156   4.717   1.964   7.085  1.5898 -1.4414 -0.8224
 1841SOL    HW217157   0.021   2.097   7.033  0.7712 -0.0876 -1.8016
 1842SOL     OW17158   2.424   3.844   6.671  0.1027  0.2010  0.0646
 1842SOL    HW117159   2.384   3.832   6.757  0.9313 -0.6533  0.3225
 1842SOL    HW217160   2.429   3.753   6.639 -2.2067  0.8896 -2.3299
 1843SOL     OW17161   3.046   0.535  11.762 -0.6904  0.7570  0.3487
 1843SOL    HW117162   3.028   0.596  11.834  0.9760  2.1126 -0.3857
 1843SOL    HW217163   3.012   0.453  11.796 -1.3615  0.8196 -0.1655
 1844SOL     OW17164   1.858   2.281   6.047 -0.0465 -0.3931 -0.6665
 1844SOL    HW117165   1.803   2.274   6.124 -0.1325 -0.4300 -0.7316
 1844SOL    HW217166   1.812   2.351   6.001 -0.9054 -0.1381  0.5913
 1845SOL     OW17167   0.940   1.452   7.010  0.4749 -0.2819 -0.0060
 1845SOL    HW117168   0.993   1.530   6.998  1.1679 -0.9048 -0.9681
 1845SOL    HW217169   1.006   1.398   7.054 -1.3828 -2.9422 -0.4625
 1846SOL     OW17170   4.422   0.240   8.124 -0.0061 -0.4204  0.4773
 1846SOL    HW117171   4.362   0.234   8.198  0.9830  0.1439  1.3260
 1846SOL    HW217172   4.510   0.235   8.161 -0.4038 -3.9413  0.8807
 1847SOL     OW17173   2.781   3.095   9.725  0.4350 -0.3503 -0.2880
 1847SOL    HW117174   2.796   3.056   9.811  1.3791 -0.9477 -0.7253
 1847SOL    HW217175   2.830   3.044   9.661  2.2387 -1.3066  1.8514
 1848SOL     OW17176   1.837   0.288   4.291 -0.1914 -0.5646 -0.3006
 1848SOL    HW117177   1.754   0.273   4.336 -1.4504  1.7677 -1.7980
 1848SOL    HW217178   1.891   0.342   4.348 -3.9031  1.8677  0.8636
 1849SOL     OW17179   0.467   3.657  17.586 -0.1583  0.5193  0.6453
 1849SOL    HW117180   0.515   3.574  17.591 -1.6899 -0.0836  4.9192
 1849SOL    HW217181   0.533   3.720  17.612  0.5500 -0.9968  2.4451
 1850SOL     OW17182   1.845   4.153   1.523  0.4596  0.8450 -0.0826
 1850SOL    HW117183   1.863   4.121   1.435  0.2038  0.3920  0.0261
 1850SOL    HW217184   1.762   4.199   1.509 -2.2216 -3.7759  0.5011
 1851SOL     OW17185   3.062   2.348   7.366  0.0265  0.0011 -0.1350
 1851SOL    HW117186   3.008   2.289   7.314  0.4504 -0.3237 -0.2076
 1851SOL    HW217187   3.034   2.433   7.333  1.6609 -0.1115 -1.7838
 1852SOL     OW17188   2.066   1.300  14.125 -0.0315 -0.3520 -0.1464
 1852SOL    HW117189   2.115   1.221  14.100 -0.3048 -0.1445 -1.3399
 1852SOL    HW217190   2.098   1.309  14.214 -2.0223  0.9252  0.4264
 1853SOL     OW17191   2.601   4.198   2.406  0.2117  0.3151 -0.5004
 1853SOL    HW117192   2.547   4.248   2.344 -1.4599  1.1977  1.6649
 1853SOL    HW217193   2.684   4.204   2.359 -0.2780  0.7525 -1.3249
 1854SOL     OW17194   3.975   1.179   4.636 -0.7188 -0.5380  0.1006
 1854SOL    HW117195   3.887   1.209   4.611 -0.5778  0.3357  0.6459
 1854SOL    HW217196   4.006   1.112   4.575 -0.5950  0.5013 -0.9915
 1855SOL     OW17197   1.226   3.887   6.858  0.4859  0.0879 -0.0008
 1855SOL    HW117198   1.153   3.851   6.909 -0.5395 -1.6856 -2.7325
 1855SOL    HW217199   1.208   3.981   6.866 -2.0158 -0.2492 -1.6891
 1856SOL     OW17200   2.195   2.505   5.749  0.0875 -0.1036 -0.3616
 1856SOL    HW117201   2.191   2.600   5.734  0.2050 -0.0794 -0.2434
 1856SOL    HW217202   2.187   2.491   5.844  0.6410 -1.4613 -0.5162
 1857SOL     OW17203   4.135   3.603   4.730  0.2988 -0.1953 -0.2964
 1857SOL    HW117204   4.119   3.622   4.823 -1.3124  2.2341 -1.0776
 1857SOL    HW217205   4.196   3.530   4.740 -1.6062 -2.0136 -2.0424
 1858SOL     OW17206   2.724   0.990   5.660  0.2546 -0.2711 -0.4387
 1858SOL    HW117207   2.761   1.005   5.573  0.4625 -0.8120 -0.4453
 1858SOL    HW217208   2.792   1.026   5.717 -0.0720  1.1786 -0.9587
 1859SOL     OW17209   1.869   4.492  17.329  0.0605 -0.1056 -0.0602
 1859SOL    HW117210   1.915   4.544  17.395  1.9404 -2.3165  0.3518
 1859SOL    HW217211   1.793   4.456  17.375 -0.0006 -0.8860 -0.7754
 1860SOL     OW17212   0.046   1.130   3.948 -0.1157  0.0169  0.4297
 1860SOL    HW117213   4.698   1.148   3.990 -0.5108  1.7107 -1.0945
 1860SOL    HW217214   0.095   1.132   4.031  0.0227 -0.4346  0.3595
 1861SOL     OW17215   2.765   1.913   0.625  0.6004  0.0108  0.0798
 1861SOL    HW117216   2.749   1.888   0.716  0.7665  0.4199  0.2174
 1861SOL    HW217217   2.763   1.828   0.581  1.8561 -0.0692  0.1820
 1862SOL     OW17218   1.990   2.024   3.252 -0.3595  0.1783 -0.1257
 1862SOL    HW117219   1.995   1.977   3.335  1.7157  0.7466  0.0731
 1862SOL    HW217220   1.933   1.970   3.198  0.1897 -0.0603 -0.4623
 1863SOL     OW17221   4.085   3.164  17.650  0.1843  0.0952 -0.6393
 1863SOL    HW117222   4.043   3.100  17.707  2.3795 -0.5703  0.2228
 1863SOL    HW217223   4.151   3.192  17.714  0.7676  0.0166 -1.2076
 1864SOL     OW17224   2.516   2.397  17.119 -0.1464  0.4226 -0.1568
 1864SOL    HW117225   2.601   2.402  17.163  1.3914  0.0554 -3.1428
 1864SOL    HW217226   2.510   2.484  17.080 -1.4760  0.2087 -0.4248
 1865SOL     OW17227   2.262   2.326   6.580 -0.1354  0.3365 -0.4390
 1865SOL    HW117228   2.169   2.306   6.594  0.1035  0.1038  0.8812
 1865SOL    HW217229   2.281   2.364   6.666  1.3232 -0.9238 -0.1841
 1866SOL     OW17230   2.263   1.965   5.992 -0.2826  0.4127  0.2641
 1866SOL    HW117231   2.280   1.957   6.086 -0.1377 -0.2936  0.1769
 1866SOL    HW217232   2.170   1.985   5.997 -0.2572  0.7689 -0.7610
 1867SOL     OW17233   2.627   2.531  11.760  0.7474  0.5555  0.3952
 1867SOL    HW117234   2.602   2.623  11.751  0.9104  0.5925  0.3114
 1867SOL    HW217235   2.558   2.490  11.707 -0.6246  2.2619  0.8639
 1868SOL     OW17236   1.722   4.668   3.924 -0.0425 -0.8607  0.0161
 1868SOL    HW117237   1.736   4.617   4.004 -2.0215 -0.3267  0.7101
 1868SOL    HW217238   1.645   4.625   3.886 -0.7995  1.0803 -0.6165
 1869SOL     OW17239   1.156   0.263   7.642  0.2094 -0.1164 -0.5703
 1869SOL    HW117240   1.159   0.223   7.555  2.2582  0.2094 -0.6543
 1869SOL    HW217241   1.153   0.185   7.698 -0.2893  0.7780  0.6345
 1870SOL     OW17242   0.993   0.968   4.210 -0.1481  0.0137  0.2197
 1870SOL    HW117243   0.903   0.948   4.185 -0.1638  0.9666 -0.4907
 1870SOL    HW217244   0.996   0.895   4.271  1.6846 -0.7998 -0.8485
 1871SOL     OW17245   1.075   2.293   5.283 -0.1301 -0.3879 -0.4340
 1871SOL    HW117246   1.028   2.280   5.365  0.0365  0.6281 -0.1741
 1871SOL    HW217247   1.011   2.328   5.221  0.6322  2.3860  0.3394
 1872SOL     OW17248   2.850   1.128   4.331  0.5691 -0.0910  0.3662
 1872SOL    HW117249   2.874   1.165   4.246  1.0377 -1.0281  0.0893
 1872SOL    HW217250   2.814   1.044   4.301  0.3914  0.6912 -1.5533
 1873SOL     OW17251   2.609   3.052   3.788  0.0458 -0.5620  0.4064
 1873SOL    HW117252   2.628   3.135   3.832 -3.1066  0.4496 -0.1649
 1873SOL    HW217253   2.519   3.034   3.813 -0.2968  1.7241  0.8647
 1874SOL     OW17254   2.251   4.003  14.831  0.4206 -0.5130 -0.2095
 1874SOL    HW117255   2.255   4.059  14.908 -0.6723  0.4392 -0.8479
 1874SOL    HW217256   2.274   4.059  14.756  0.9521  1.3393  1.3480
 1875SOL     OW17257   3.515   0.093   4.381  0.5866 -0.4238  0.3637
 1875SOL    HW117258   3.434   0.137   4.354  0.7800 -1.3010 -1.6636
 1875SOL    HW217259   3.495   0.094   4.474  1.2140 -0.3484  0.4975
 1876SOL     OW17260   2.398   1.698   4.088 -0.5588 -0.6145  0.7171
 1876SOL    HW117261   2.349   1.641   4.147 -0.2107 -2.2716 -0.6005
 1876SOL    HW217262   2.449   1.631   4.043 -0.0307 -0.6871  1.4212
 1877SOL     OW17263   0.374   1.348   8.072  0.1932  0.0974  0.0289
 1877SOL    HW117264   0.329   1.266   8.053  2.0830 -0.7137 -0.9430
 1877SOL    HW217265   0.432   1.316   8.142 -0.3018  0.5986  0.6675
 1878SOL     OW17266   2.262   3.517  15.369 -0.5762 -0.4378  0.1236
 1878SOL    HW117267   2.263   3.519  15.273  1.4555  0.2669  0.1530
 1878SOL    HW217268   2.197   3.448  15.378 -1.2091 -0.1518 -2.0355
 1879SOL     OW17269   4.735   1.772   9.520  0.2499  0.1994  0.5450
 1879SOL    HW117270   4.706   1.694   9.473  0.1637  0.4529  0.1840
 1879SOL    HW217271   4.646   1.806   9.529  0.5785  0.9299  1.0830
 1880SOL     OW17272   1.535   3.934  10.310 -0.2155 -0.6839  0.1591
 1880SOL    HW117273   1.566   3.857  10.356  0.8064  1.3930  2.9411
 1880SOL    HW217274   1.456   3.902  10.267 -0.7567 -0.2571  0.8381
 1881SOL     OW17275   4.251   0.260   7.206 -0.1911 -0.3164 -0.1933
 1881SOL    HW117276   4.343   0.278   7.227 -0.5462  2.0633 -0.6700
 1881SOL    HW217277   4.200   0.328   7.251  2.1860  2.4029 -1.6068
 1882SOL     OW17278   3.868   4.203  12.128 -0.0697  0.4750 -0.1487
 1882SOL    HW117279   3.789   4.160  12.095  1.2866 -3.7666  2.2361
 1882SOL    HW217280   3.860   4.291  12.089 -0.4489  0.7249  0.4936
 1883SOL     OW17281   0.906   1.010   7.317 -0.1387  0.2439 -0.3236
 1883SOL    HW117282   0.827   0.984   7.269  1.1542 -1.1670 -1.7073
 1883SOL    HW217283   0.861   1.051   7.391 -0.1703 -2.8273  1.3389
 1884SOL     OW17284   0.029   4.018   9.006 -0.0577  0.1320 -0.4448
 1884SOL    HW117285   4.692   4.007   9.067 -0.4221  2.6191 -0.4478
 1884SOL    HW217286   4.713   4.015   8.926 -2.1469 -1.0638  0.9449
 1885SOL     OW17287   0.417   0.280   8.005  0.2467 -0.1064 -0.9837
 1885SOL    HW117288   0.324   0.257   8.015  0.3438  0.8833  2.4031
 1885SOL    HW217289   0.453   0.196   8.031  0.2997  1.0381  2.6575
 1886SOL     OW17290   4.690   1.512   8.139  0.2454 -0.0825 -0.0160
 1886SOL    HW117291   4.652   1.598   8.155  1.7859  0.8883 -1.6374
 1886SOL    HW217292   4.621   1.459   8.097 -1.5420  3.3643 -1.4284
 1887SOL     OW17293   3.326   4.029   2.184  0.1649 -0.6526  0.0520
 1887SOL    HW117294   3.397   4.060   2.240 -0.9667 -0.7012  1.5331
 1887SOL    HW217295   3.312   4.105   2.129 -2.5034 -1.3982 -0.3071
 1888SOL     OW17296   1.858   0.004   7.971  0.3277 -0.1212 -0.0675
 1888SOL    HW117297   1.799   0.077   7.953 -0.1923 -0.2564  1.1318
 1888SOL    HW217298   1.802   4.663   7.962  0.4941 -0.1951 -0.5257
 1889SOL     OW17299   1.057   3.669   1.023  0.0843  0.0263 -0.0690
 1889SOL    HW117300   1.002   3.649   1.099  0.5631  0.7335  0.4691
 1889SOL    HW217301   0.999   3.721   0.968 -0.5808 -0.1804  0.4367
 1890SOL     OW17302   2.579   1.075   1.874  0.3120 -0.2461 -0.3079
 1890SOL    HW117303   2.487   1.081   1.898  0.4608  0.1316  0.1653
 1890SOL    HW217304   2.566   1.007   1.808  2.5887 -1.5357  0.5506
 1891SOL     OW17305   1.463   0.909   6.672  0.3416  0.3586 -0.3566
 1891SOL    HW117306   1.411   0.979   6.632 -2.2153 -2.0413 -1.2103
 1891SOL    HW217307   1.446   0.920   6.766  0.5889 -3.1784  0.0852
 1892SOL     OW17308   0.942   1.148   6.374  0.4984  0.4699 -0.0550
 1892SOL    HW117309   0.988   1.082   6.323 -0.2323 -0.5547  0.5913
 1892SOL    HW217310   0.961   1.235   6.340 -0.1528 -0.4634 -2.7897
 1893SOL     OW17311   2.842   3.915   1.170  0.0548 -0.3629  0.6914
 1893SOL    HW117312   2.758   3.957   1.188  1.6061  1.5426  3.4612
 1893SOL    HW217313   2.839   3.947   1.080  0.3986  2.2378  1.6151
 1894SOL     OW17314   1.407   4.704  17.101 -0.3215  0.2048 -0.0711
 1894SOL    HW117315   1.386   4.696  17.008 -0.1047 -2.6957  0.1155
 1894SOL    HW217316   1.405   0.063  17.110  0.2370 -0.0468  2.7184
 1895SOL     OW17317   2.444   0.252   1.021 -0.0776  0.1955 -0.4786
 1895SOL    HW117318   2.360   0.216   0.991  0.3094 -0.7453 -0.4171
 1895SOL    HW217319   2.428   0.289   1.107 -2.4327  0.0919 -0.8426
 1896SOL     OW17320   3.931   0.409   5.317  0.3879 -0.2046 -0.2753
 1896SOL    HW117321   3.975   0.459   5.248 -0.3951  1.0853  0.1516
 1896SOL    HW217322   3.989   0.430   5.390 -1.4274  0.3089  1.0067
 1897SOL     OW17323   0.266   1.510   4.386 -0.0757 -0.0603  0.0755
 1897SOL    HW117324   0.263   1.437   4.448 -0.8734 -0.7468 -0.7430
 1897SOL    HW217325   0.296   1.580   4.442  0.7031  0.4724 -1.0070
 1898SOL     OW17326   2.286   3.851   7.541 -0.1666 -0.1831 -0.0121
 1898SOL    HW117327   2.335   3.914   7.594  0.4276  0.3120 -1.1388
 1898SOL    HW217328   2.232   3.823   7.614 -0.7352 -1.5958 -0.9747
 1899SOL     OW17329   1.626   1.278   2.160  0.2251 -0.3587 -0.4412
 1899SOL    HW117330   1.589   1.302   2.245  2.3073 -1.6066  0.8433
 1899SOL    HW217331   1.714   1.315   2.168  0.8219 -1.5217 -1.5482
 1900SOL     OW17332   1.576   1.238   3.383  0.6622 -0.0941 -0.3781
 1900SOL    HW117333   1.548   1.170   3.444  0.5555  1.0001  0.7969
 1900SOL    HW217334   1.584   1.200   3.295 -0.1731 -1.6063  0.2056
 1901SOL     OW17335   2.966   0.371  11.058  0.0076  0.4099 -0.5687
 1901SOL    HW117336   2.876   0.371  11.026 -0.3753 -2.9075  0.4955
 1901SOL    HW217337   2.944   0.366  11.151 -0.4250 -1.1760 -0.7417
 1902SOL     OW17338   1.269   1.061   6.513 -0.5154 -0.6221 -0.5199
 1902SOL    HW117339   1.266   1.073   6.419 -3.3221 -2.5450 -0.6721
 1902SOL    HW217340   1.182   1.094   6.534  0.1949  0.0466  1.4657
 1903SOL     OW17341   2.843   0.633  12.468 -0.5390  0.3666 -0.0876
 1903SOL    HW117342   2.765   0.665  12.422 -0.7914  1.3669  1.0567
 1903SOL    HW217343   2.812   0.604  12.554  0.9037 -0.3241  0.1885
 1904SOL     OW17344   2.742   4.489   3.191 -0.2019  0.3669  0.5767
 1904SOL    HW117345   2.789   4.432   3.251 -0.1493  1.4208  1.5398
 1904SOL    HW217346   2.677   4.530   3.247 -1.5464  0.1085 -0.7915
 1905SOL     OW17347   0.633   4.269  10.296 -0.3764 -0.3347 -0.1679
 1905SOL    HW117348   0.640   4.193  10.354 -0.0766 -0.0861  0.1253
 1905SOL    HW217349   0.573   4.231  10.232 -0.1619 -1.7433  0.4662
 1906SOL     OW17350   1.112   3.576   3.583  0.2803 -0.1929  0.0559
 1906SOL    HW117351   1.065   3.581   3.499 -1.7329  0.2877  1.2219
 1906SOL    HW217352   1.184   3.637   3.566  0.1337 -0.3382 -1.1411
 1907SOL     OW17353   2.273   2.555   1.917 -0.1607  0.2650  0.1766
 1907SOL    HW117354   2.267   2.643   1.954 -3.2688  1.0182 -2.1826
 1907SOL    HW217355   2.335   2.580   1.848 -1.3991 -2.0380 -1.7520
 1908SOL     OW17356   4.687   3.149   3.867 -0.1883 -0.1786  0.3126
 1908SOL    HW117357   4.632   3.227   3.877  0.3364  0.3640 -1.1184
 1908SOL    HW217358   0.020   3.177   3.806 -1.2373 -2.0022 -1.6705
 1909SOL     OW17359   2.786   1.200   8.257  0.0180  0.0079  0.0216
 1909SOL    HW117360   2.707   1.242   8.222  0.2354 -0.7840 -1.3887
 1909SOL    HW217361   2.861   1.255   8.232  0.6323 -0.7370  0.2457
 1910SOL     OW17362   2.949   2.645   5.714 -0.0298 -0.4361 -0.1800
 1910SOL    HW117363   2.975   2.570   5.767 -1.2502  0.2266  1.3428
 1910SOL    HW217364   2.886   2.683   5.774  0.7672  0.1634  0.2902
 1911SOL     OW17365   2.043   3.571  16.155 -0.1551  0.5117  0.0858
 1911SOL    HW117366   1.973   3.589  16.092 -0.5325  1.3779  0.7598
 1911SOL    HW217367   2.026   3.646  16.211 -0.4867 -1.0967  2.1427
 1912SOL     OW17368   4.299   0.535   6.384 -0.4728  0.3857 -0.4859
 1912SOL    HW117369   4.264   0.576   6.305 -1.0585 -0.6213 -0.7530
 1912SOL    HW217370   4.369   0.594   6.413  0.0389  0.4482 -1.8429
 1913SOL     OW17371   1.092   4.552   8.267  0.1885  0.4599 -0.6096
 1913SOL    HW117372   1.059   4.477   8.317  1.4919  1.1481  1.2738
 1913SOL    HW217373   1.014   4.608   8.262  0.6333  1.2405  1.3936
 1914SOL     OW17374   1.782   1.856   7.927 -0.1233  0.1794  0.3606
 1914SOL    HW117375   1.838   1.901   7.991  0.1413 -1.9107  1.6118
 1914SOL    HW217376   1.693   1.887   7.946 -0.6210 -0.3314 -1.1974
 1915SOL     OW17377   2.750   1.460   0.299  0.5560 -0.1085 -0.5614
 1915SOL    HW117378   2.766   1.473   0.392  0.0432 -0.9685 -0.3503
 1915SOL    HW217379   2.822   1.508   0.258 -0.1808  2.2812  0.9753
 1916SOL     OW17380   1.129   3.285   3.139 -0.1388  0.1644  0.1805
 1916SOL    HW117381   1.035   3.298   3.155 -0.4751 -2.3860  0.2657
 1916SOL    HW217382   1.133   3.297   3.044  0.2948  0.0016  0.1795
 1917SOL     OW17383   2.379   2.813   4.282  0.9404 -0.2353  0.5812
 1917SOL    HW117384   2.334   2.837   4.363 -1.8492 -0.3579 -0.9019
 1917SOL    HW217385   2.466   2.852   4.289  1.0184 -0.4994  1.0522
 1918SOL     OW17386   2.691   0.699   1.846  0.4251 -0.4616 -0.4606
 1918SOL    HW117387   2.698   0.767   1.779  0.1291  0.4270  0.4007
 1918SOL    HW217388   2.634   0.742   1.910 -0.8505 -1.5151 -0.8726
 1919SOL     OW17389   3.463   2.140   8.100 -0.0176 -0.3605  0.4498
 1919SOL    HW117390   3.374   2.169   8.077  0.1181 -1.0704 -0.9932
 1919SOL    HW217391   3.438   2.059   8.145 -3.3441 -0.7996 -2.1359
 1920SOL     OW17392   3.749   2.651   8.870 -0.4628  0.3339 -0.4142
 1920SOL    HW117393   3.693   2.578   8.897 -0.5821  0.9443  0.9597
 1920SOL    HW217394   3.838   2.622   8.887 -0.5877 -0.3341 -0.8757
 1921SOL     OW17395   2.797   2.515   6.001  0.0124  0.0630 -0.8195
 1921SOL    HW117396   2.851   2.437   5.987 -1.4299 -0.5558 -2.9524
 1921SOL    HW217397   2.844   2.543   6.080 -0.6208  0.7859 -0.6976
 1922SOL     OW17398   0.966   2.152   0.710  0.0864  0.1351 -0.2807
 1922SOL    HW117399   0.920   2.069   0.695  1.1518 -0.2918 -1.2215
 1922SOL    HW217400   1.021   2.131   0.785 -0.5342  2.3623  0.7831
 1923SOL     OW17401   2.030   4.070   1.989 -0.4692  0.3815  0.1129
 1923SOL    HW117402   2.001   4.038   1.903 -1.2258  0.4459  0.3411
 1923SOL    HW217403   2.088   4.141   1.960 -1.6566  2.3253  2.4480
 1924SOL     OW17404   2.021   0.883   9.984  0.5465  0.1706 -0.1093
 1924SOL    HW117405   2.084   0.820   9.952  0.1062  0.4084 -1.4399
 1924SOL    HW217406   2.072   0.926  10.053 -0.2730  2.9173 -1.2156
 1925SOL     OW17407   3.315   1.762   8.052 -0.2631 -0.1313  0.3625
 1925SOL    HW117408   3.315   1.819   8.129 -0.0934  0.5252 -0.1251
 1925SOL    HW217409   3.221   1.754   8.035 -0.3771 -0.7047  1.2543
 1926SOL     OW17410   1.919   4.346   5.821  0.4368 -0.1962  0.2965
 1926SOL    HW117411   1.953   4.278   5.764  0.8994  1.3902 -1.3236
 1926SOL    HW217412   1.982   4.418   5.825  0.6323 -0.3736  0.4228
 1927SOL     OW17413   4.241   0.482  12.627  0.0456  0.3807 -0.2913
 1927SOL    HW117414   4.302   0.550  12.658 -0.7210  1.7300 -1.7132
 1927SOL    HW217415   4.304   0.417  12.597 -0.4820 -1.4458  2.5273
 1928SOL     OW17416   3.009   1.906   2.551 -0.6170 -0.8270  0.4336
 1928SOL    HW117417   3.079   1.967   2.523 -1.2242 -0.8704 -1.1676
 1928SOL    HW217418   2.976   1.947   2.631 -0.3346 -0.5385  0.4062
 1929SOL     OW17419   2.783   4.392   1.840 -0.5124 -0.1957  0.2439
 1929SOL    HW117420   2.728   4.368   1.766  0.4198  0.2544 -0.6007
 1929SOL    HW217421   2.870   4.388   1.799 -1.0240 -1.1195 -0.7423
 1930SOL     OW17422   1.126   0.485  12.328 -0.2895 -0.3199  0.4054
 1930SOL    HW117423   1.061   0.496  12.398  0.4161 -3.0681  1.5048
 1930SOL    HW217424   1.071   0.485  12.250  0.2202  1.5584  0.0344
 1931SOL     OW17425   2.873   3.620   4.143 -0.1517  0.8234  0.0116
 1931SOL    HW117426   2.823   3.565   4.083  0.1395  0.8884 -0.2860
 1931SOL    HW217427   2.940   3.556   4.165 -0.0479  0.9946  0.1936
 1932SOL     OW17428   2.490   2.039   1.888  0.2664  0.1746 -0.3433
 1932SOL    HW117429   2.504   2.060   1.980  1.1279 -1.2748 -0.1515
 1932SOL    HW217430   2.398   2.017   1.905  0.3217 -0.0238 -0.3066
 1933SOL     OW17431   3.486   2.475  16.577  0.1847  0.3125 -0.4483
 1933SOL    HW117432   3.552   2.406  16.575 -0.1856 -0.1044  2.4016
 1933SOL    HW217433   3.529   2.534  16.515 -0.9048  1.3794 -0.1708
 1934SOL     OW17434   1.795   4.693   5.648 -0.4668 -0.1166 -0.1024
 1934SOL    HW117435   1.700   4.694   5.659 -0.5491 -1.2405 -0.7343
 1934SOL    HW217436   1.808   0.025   5.715 -1.9289  0.0213  0.0365
 1935SOL     OW17437   4.312   2.848   8.269 -0.8656 -0.0031  0.3218
 1935SOL    HW117438   4.401   2.818   8.288 -1.5383 -1.5612  1.0259
 1935SOL    HW217439   4.312   2.885   8.180 -0.8820  0.7256  0.6206
 1936SOL     OW17440   1.540   2.942   7.638  0.0130  0.0796  0.1401
 1936SOL    HW117441   1.447   2.919   7.643 -0.2797  1.0844 -0.7712
 1936SOL    HW217442   1.572   2.852   7.630  3.0487  1.3139 -1.4654
 1937SOL     OW17443   1.416   0.539   8.911  0.1765 -0.1126  0.0170
 1937SOL    HW117444   1.487   0.519   8.849  1.2331 -0.3433  1.3095
 1937SOL    HW217445   1.363   0.461   8.924  0.4398 -0.0855  1.1890
 1938SOL     OW17446   2.528   2.280  14.607  0.1092  0.0957  0.3103
 1938SOL    HW117447   2.562   2.369  14.598 -0.2635  0.1631 -0.5165
 1938SOL    HW217448   2.540   2.258  14.699  0.5427  1.6566  0.6219
 1939SOL     OW17449   3.886   4.118   1.307 -0.2975  0.0647 -0.4922
 1939SOL    HW117450   3.964   4.105   1.360  0.7141  0.7146 -1.8085
 1939SOL    HW217451   3.857   4.203   1.340 -0.4832  0.2101 -1.0295
 1940SOL     OW17452   2.842   2.934   5.781 -0.5008  0.0517  0.5698
 1940SOL    HW117453   2.902   2.903   5.713 -0.1151 -1.5161  1.6241
 1940SOL    HW217454   2.884   2.896   5.857 -0.6241 -2.3567 -0.5742
 1941SOL     OW17455   2.968   0.700   6.271  0.1076  0.4137 -0.7142
 1941SOL    HW117456   2.913   0.665   6.200 -0.4682 -1.1001  0.4810
 1941SOL    HW217457   2.923   0.675   6.351  1.5303 -1.8746 -0.6059
 1942SOL     OW17458   3.691   0.067   6.458 -0.4600 -0.1230  0.8116
 1942SOL    HW117459   3.637   0.119   6.518  2.0640 -0.6639  3.5560
 1942SOL    HW217460   3.634   0.088   6.384 -1.0307  0.2799  1.3687
 1943SOL     OW17461   0.456   0.149   2.308  0.2056  0.0839 -0.4294
 1943SOL    HW117462   0.384   0.158   2.245 -0.9170  1.0103  0.9708
 1943SOL    HW217463   0.434   0.072   2.360 -0.5583  0.3071 -0.4135
 1944SOL     OW17464   3.660   1.932  16.844  0.3032  0.1148 -0.2496
 1944SOL    HW117465   3.595   2.002  16.844 -0.3572 -0.4851 -0.7881
 1944SOL    HW217466   3.661   1.890  16.757 -2.7945 -2.4830  0.9452
 1945SOL     OW17467   2.196   3.129   7.249 -0.2239  0.0772  0.1698
 1945SOL    HW117468   2.244   3.064   7.301  0.7834  0.9014  0.2700
 1945SOL    HW217469   2.189   3.192   7.321 -1.3346  0.4673 -0.2795
 1946SOL     OW17470   0.713   0.082   2.671 -0.0817 -0.4248 -0.1543
 1946SOL    HW117471   0.725   4.727   2.700 -2.1302  0.1390  2.4136
 1946SOL    HW217472   0.790   0.123   2.709  0.8326 -3.8442  1.7242
 1947SOL     OW17473   4.442   0.665  14.500 -0.1323  0.4740  0.3098
 1947SOL    HW117474   4.489   0.725  14.441  0.7154 -1.0531 -0.5483
 1947SOL    HW217475   4.357   0.664  14.456 -1.2134  3.0184  2.3569
 1948SOL     OW17476   3.066   3.135   7.097  0.7160 -0.2195 -0.0406
 1948SOL    HW117477   3.015   3.160   7.020  0.8343  2.1495  0.6296
 1948SOL    HW217478   3.138   3.090   7.054 -0.1176  0.4504 -2.1458
 1949SOL     OW17479   2.290   1.828  12.528 -0.0722 -0.3517  0.1032
 1949SOL    HW117480   2.255   1.917  12.533  0.1333 -0.1331 -2.5071
 1949SOL    HW217481   2.261   1.801  12.441 -0.7362  1.1825 -0.1572
 1950SOL     OW17482   3.473   0.483  17.377  0.1958  0.3751 -0.3492
 1950SOL    HW117483   3.410   0.554  17.388 -0.0914  0.1730 -0.6955
 1950SOL    HW217484   3.537   0.501  17.447  1.2221 -2.4051 -0.5477
 1951SOL     OW17485   0.926   1.941  17.167  0.6094  0.3950 -0.1516
 1951SOL    HW117486   0.866   1.986  17.226  0.8187  0.1419  0.2548
 1951SOL    HW217487   1.013   1.977  17.181  0.8136 -0.1133 -0.1056
 1952SOL     OW17488   2.463   4.539   5.464 -0.1274 -0.1893 -0.4615
 1952SOL    HW117489   2.476   4.577   5.551 -2.2583 -1.5217  0.4343
 1952SOL    HW217490   2.508   4.455   5.472 -0.1094 -0.1903 -0.5741
 1953SOL     OW17491   3.177   0.710  10.802 -0.1741 -0.5422  0.3440
 1953SOL    HW117492   3.126   0.629  10.798  1.1390 -1.3390 -0.1907
 1953SOL    HW217493   3.258   0.660  10.815 -1.6605 -2.5632  1.9609
 1954SOL     OW17494   0.446   4.183   7.378  0.1663 -0.2076 -0.5648
 1954SOL    HW117495   0.375   4.149   7.432 -1.9536  1.0095 -2.6043
 1954SOL    HW217496   0.406   4.267   7.352 -0.2559 -1.2363 -3.2290
 1955SOL     OW17497   2.173   0.121   2.438  0.1025  0.8289  0.1992
 1955SOL    HW117498   2.236   0.097   2.370  0.8901 -1.8112  1.8442
 1955SOL    HW217499   2.195   0.054   2.503  0.3469  0.1793 -0.5509
 1956SOL     OW17500   3.841   3.210   2.864  0.2066 -0.5448 -0.1537
 1956SOL    HW117501   3.927   3.209   2.905  0.6565 -0.7516 -1.1232
 1956SOL    HW217502   3.833   3.277   2.796 -1.2449 -0.1410  0.4040
 1957SOL     OW17503   0.093   2.950   1.960 -0.4686  0.7233 -0.2329
 1957SOL    HW117504   0.121   2.861   1.942 -1.0887  0.9454 -2.3193
 1957SOL    HW217505   0.008   2.939   2.002 -0.3194  1.2059  0.1933
 1958SOL     OW17506   1.456   4.212   9.458 -0.0945  0.2570 -0.0694
 1958SOL    HW117507   1.456   4.260   9.540 -0.8563  0.6814 -0.3162
 1958SOL    HW217508   1.367   4.226   9.424 -0.1981 -1.5614 -0.5673
 1959SOL     OW17509   0.349   3.075  10.214 -0.4721  0.5582 -0.5177
 1959SOL    HW117510   0.393   3.028  10.143 -3.3601 -0.2303 -1.7837
 1959SOL    HW217511   0.429   3.079  10.267 -0.4186  1.2371 -0.6466
 1960SOL     OW17512   0.806   2.946   1.982 -0.3779  0.0683  0.1575
 1960SOL    HW117513   0.840   2.961   2.070 -0.5532 -0.1430  0.2620
 1960SOL    HW217514   0.887   2.956   1.932  0.3159 -1.8692  0.8910
 1961SOL     OW17515   1.615   0.917   5.326 -0.2277  0.0932 -0.2438
 1961SOL    HW117516   1.528   0.923   5.366  0.6498  0.2180  1.6893
 1961SOL    HW217517   1.666   0.986   5.371  1.9257 -0.6887 -1.4608
 1962SOL     OW17518   0.084   0.326  10.044  0.8040  0.4379 -0.0916
 1962SOL    HW117519   4.731   0.360  10.033  1.4359  2.0055 -0.4391
 1962SOL    HW217520   0.117   0.405  10.088  0.8572 -0.3390  1.2525
 1963SOL     OW17521   2.500   1.657  17.454  0.4371  0.1416  0.0462
 1963SOL    HW117522   2.524   1.577  17.501 -3.2537 -0.5356  0.8374
 1963SOL    HW217523   2.422   1.687  17.502 -0.6531 -2.3144 -0.2140
 1964SOL     OW17524   3.907   0.671   4.967 -0.2553  0.3042  0.4294
 1964SOL    HW117525   3.944   0.635   5.047  2.2671 -0.5625 -1.1402
 1964SOL    HW217526   3.948   0.757   4.956  2.1993 -0.9321 -0.0042
 1965SOL     OW17527   1.276   0.275   7.254  0.2054  0.1293  0.0652
 1965SOL    HW117528   1.332   0.290   7.330  0.5329 -3.0791  0.4775
 1965SOL    HW217529   1.324   0.328   7.190  0.1877  1.2948  1.0235
 1966SOL     OW17530   0.411   2.041   1.941  0.3337  0.3079 -0.3638
 1966SOL    HW117531   0.465   1.968   1.909 -0.0247  0.0637 -0.4174
 1966SOL    HW217532   0.359   2.044   1.860 -0.4134  2.5573  0.2032
 1967SOL     OW17533   0.926   2.024   5.280  0.2807  0.0139  0.0088
 1967SOL    HW117534   0.939   1.930   5.265  1.8163  0.0187  1.3847
 1967SOL    HW217535   0.969   2.069   5.208  0.6026 -0.4582 -0.0907
 1968SOL     OW17536   4.581   1.235   0.435 -0.0285 -0.1010  0.0521
 1968SOL    HW117537   4.639   1.265   0.366 -1.1081  0.7559 -0.4674
 1968SOL    HW217538   4.637   1.170   0.479  1.9698  0.8394 -1.1057
 1969SOL     OW17539   1.988   0.831   7.743 -0.0798 -0.1930 -0.2705
 1969SOL    HW117540   2.073   0.817   7.785  0.3399  0.4895 -0.8809
 1969SOL    HW217541   1.923   0.781   7.792  1.1071 -0.5488  0.9352
 1970SOL     OW17542   2.393   1.702  16.965 -0.2134  0.5329  0.0713
 1970SOL    HW117543   2.346   1.761  17.025  0.0966  0.3437  0.5008
 1970SOL    HW217544   2.468   1.685  17.022 -1.0126 -1.6549  0.4682
 1971SOL     OW17545   1.763   4.104   3.346 -0.5597  0.0216  0.6179
 1971SOL    HW117546   1.745   4.043   3.274  1.2797  1.1862 -0.8203
 1971SOL    HW217547   1.802   4.171   3.291 -0.6462 -0.2534  0.2194
 1972SOL     OW17548   4.289   3.254   1.760  0.7818 -0.4916  0.0298
 1972SOL    HW117549   4.365   3.277   1.814 -1.3656  3.1240  1.5288
 1972SOL    HW217550   4.331   3.180   1.717 -1.5298 -0.6653 -1.9196
 1973SOL     OW17551   2.893   2.510   2.598 -0.4200 -0.0845  0.3249
 1973SOL    HW117552   2.856   2.548   2.518  1.7836  0.8057 -0.2778
 1973SOL    HW217553   2.950   2.580   2.633  0.1958 -0.6242  0.4002
 1974SOL     OW17554   2.270   2.923  12.447 -0.6571  0.4552  0.4264
 1974SOL    HW117555   2.240   2.998  12.499 -1.2644  0.9814 -0.6812
 1974SOL    HW217556   2.261   2.852  12.510 -3.0068 -2.8485 -3.6893
 1975SOL     OW17557   0.232   3.477   2.268 -0.5463  0.3911 -0.1369
 1975SOL    HW117558   0.194   3.483   2.355  0.5372 -0.0529  0.3611
 1975SOL    HW217559   0.324   3.460   2.288 -1.1221  0.5887  2.5983
 1976SOL     OW17560   4.646   2.201   5.483  0.1756  0.0920 -0.2790
 1976SOL    HW117561   4.620   2.248   5.561  0.9132 -1.1948  0.7385
 1976SOL    HW217562   4.603   2.115   5.478 -0.6018  0.3569  1.8119
 1977SOL     OW17563   1.715   0.963   9.423  1.1156 -0.0291  0.3079
 1977SOL    HW117564   1.780   0.894   9.441  1.7795  0.1702 -1.3133
 1977SOL    HW217565   1.734   1.023   9.495  0.8753  1.6011 -0.9896
 1978SOL     OW17566   3.355   2.920   5.810 -0.0955 -0.3510  0.2649
 1978SOL    HW117567   3.421   2.981   5.776  1.2148 -2.8679 -1.7125
 1978SOL    HW217568   3.397   2.836   5.791  0.5974  0.1577 -0.4259
 1979SOL     OW17569   0.665   4.024   1.475 -0.0437  0.6620 -0.6321
 1979SOL    HW117570   0.635   3.955   1.535  2.3976 -1.5692 -1.9681
 1979SOL    HW217571   0.633   4.105   1.514 -1.7717  0.0166 -0.6843
 1980SOL     OW17572   2.911   4.693   8.805 -0.3082 -0.5253  0.6457
 1980SOL    HW117573   2.940   0.046   8.788  2.3376 -1.0412  2.5412
 1980SOL    HW217574   2.817   4.708   8.817 -0.5963 -1.8780  0.1024
 1981SOL     OW17575   3.971   1.844  14.344  0.5987 -0.2117  0.2136
 1981SOL    HW117576   4.039   1.877  14.402 -0.6604  1.9588  0.4228
 1981SOL    HW217577   3.916   1.922  14.344  0.8866 -0.0107 -0.4440
 1982SOL     OW17578   2.753   2.050   3.978 -0.2786 -0.5326  0.3165
 1982SOL    HW117579   2.680   1.988   3.972 -0.4389 -0.2848 -0.2685
 1982SOL    HW217580   2.734   2.094   4.061  0.2549  0.9531 -0.3435
 1983SOL     OW17581   0.542   4.071   4.577 -0.0527 -0.2888  0.1364
 1983SOL    HW117582   0.574   4.159   4.598  1.4835 -1.7067  3.7178
 1983SOL    HW217583   0.464   4.101   4.530 -1.1393  0.0339  2.1797
 1984SOL     OW17584   1.400   4.242   5.311 -0.5518 -0.4003  0.4890
 1984SOL    HW117585   1.425   4.288   5.391 -1.3728 -0.1299  0.5941
 1984SOL    HW217586   1.487   4.236   5.272 -0.8368  2.3189 -0.5831
 1985SOL     OW17587   1.371   2.702   1.285 -0.1549  0.4020 -0.4709
 1985SOL    HW117588   1.425   2.650   1.345  0.9944 -0.9521 -2.7115
 1985SOL    HW217589   1.423   2.695   1.205  1.0376 -1.3847  0.4552
 1986SOL     OW17590   0.803   1.160   5.082 -0.1989 -0.7687 -0.3330
 1986SOL    HW117591   0.768   1.239   5.124  1.4776 -1.1938  1.8632
 1986SOL    HW217592   0.895   1.185   5.074  0.2271 -2.2343 -0.0536
 1987SOL     OW17593   4.030   2.597   5.230  0.0972 -0.3906  0.4871
 1987SOL    HW117594   3.948   2.628   5.269 -0.0364  1.3779 -1.1806
 1987SOL    HW217595   4.043   2.662   5.161 -0.3263 -0.6904  0.1193
 1988SOL     OW17596   3.384   0.925   8.322  0.0374 -0.1584 -0.1159
 1988SOL    HW117597   3.346   0.837   8.320  1.2202 -0.6712  0.2191
 1988SOL    HW217598   3.412   0.941   8.232  0.1765 -2.6237 -0.5196
 1989SOL     OW17599   4.059   2.418   7.365  0.1090 -0.3131  0.1190
 1989SOL    HW117600   4.089   2.344   7.417  0.7104 -0.8616 -1.0101
 1989SOL    HW217601   4.141   2.436   7.319 -1.0741 -0.3110 -2.0149
 1990SOL     OW17602   4.340   1.156   6.697 -0.4195 -0.0904  0.3904
 1990SOL    HW117603   4.403   1.103   6.648 -1.2700 -0.1367 -0.6293
 1990SOL    HW217604   4.284   1.090   6.737 -1.3083  1.5471  1.8436
 1991SOL     OW17605   2.435   4.553  15.753  0.0287 -0.3208  0.8303
 1991SOL    HW117606   2.508   4.611  15.733 -0.7562 -0.0369 -1.1692
 1991SOL    HW217607   2.382   4.615  15.803 -0.3175  0.3367 -0.3705
 1992SOL     OW17608   0.535   1.153   9.189 -0.1454  0.3846  0.1106
 1992SOL    HW117609   0.450   1.164   9.148  0.1949 -1.2639 -1.0339
 1992SOL    HW217610   0.513   1.107   9.270 -0.2732  0.4558  0.1164
 1993SOL     OW17611   1.562   2.641   5.155 -0.4454  0.5703 -0.3102
 1993SOL    HW117612   1.558   2.690   5.073  0.2420  1.3733  0.1458
 1993SOL    HW217613   1.657   2.633   5.161 -0.6232  0.5429  2.3774
 1994SOL     OW17614   2.071   3.466   8.080  0.4826  0.0600 -0.1725
 1994SOL    HW117615   2.152   3.419   8.065  1.4684  1.3413  1.1012
 1994SOL    HW217616   2.112   3.553   8.081 -2.2185  1.3307  1.1001
 1995SOL     OW17617   2.554   1.116   4.972 -0.0720 -0.2816  0.3993
 1995SOL    HW117618   2.530   1.025   4.989  1.5911 -1.1133 -1.8111
 1995SOL    HW217619   2.608   1.125   5.051  1.0822  1.7266 -0.6415
 1996SOL     OW17620   3.041   3.369   4.772  0.3170 -0.2803  0.3162
 1996SOL    HW117621   3.058   3.290   4.721  0.7604  0.2517 -0.3654
 1996SOL    HW217622   3.114   3.375   4.834  0.2977 -4.0083  0.6987
 1997SOL     OW17623   1.360   2.315   5.058  0.2431  0.2006 -0.3950
 1997SOL    HW117624   1.314   2.395   5.084 -0.7553 -0.5844  0.2515
 1997SOL    HW217625   1.303   2.244   5.088  0.1984 -0.8938 -3.0504
 1998SOL     OW17626   2.939   1.222   5.087 -0.1432  0.1784 -0.2797
 1998SOL    HW117627   2.962   1.289   5.151  3.4078 -0.8568 -0.4787
 1998SOL    HW217628   3.006   1.235   5.020 -0.4310 -0.4992 -0.6971
 1999SOL     OW17629   3.740   3.712   7.300 -0.5324  0.4868  0.3572
 1999SOL    HW117630   3.816   3.659   7.322  0.2688  1.2382 -0.5742
 1999SOL    HW217631   3.667   3.653   7.319 -0.4612 -0.2198 -1.5272
 2000SOL     OW17632   3.723   1.434   3.608  0.3037 -0.3849 -0.4123
 2000SOL    HW117633   3.684   1.508   3.562 -0.6412  0.5694  1.8832
 2000SOL    HW217634   3.750   1.382   3.533  0.9046  0.7239 -0.9520
 2001SOL     OW17635   0.118   3.506  13.661 -0.7870  0.0586 -0.2842
 2001SOL    HW117636   0.107   3.505  13.756  0.5113 -0.4515 -0.1406
 2001SOL    HW217637   0.096   3.414  13.644 -1.8806  0.1172  0.8335
 2002SOL     OW17638   2.800   3.619   2.645 -0.3753  0.2029 -0.4007
 2002SOL    HW117639   2.751   3.564   2.584  2.1676 -3.7188  1.1427
 2002SOL    HW217640   2.757   3.703   2.629  0.1321 -0.1976 -3.9145
 2003SOL     OW17641   2.227   1.571  12.962  0.6003 -0.5037 -0.2778
 2003SOL    HW117642   2.230   1.587  12.868 -0.3539 -0.3521 -0.2779
 2003SOL    HW217643   2.197   1.480  12.964  0.5570 -0.4740  0.6751
 2004SOL     OW17644   1.631   0.706   5.598 -0.4262  0.1910  0.5006
 2004SOL    HW117645   1.690   0.713   5.523 -0.9544  1.0048  0.1694
 2004SOL    HW217646   1.557   0.657   5.562  1.2984 -0.2010 -2.4570
 2005SOL     OW17647   3.852   4.310   7.336  0.0968 -0.1413  0.1014
 2005SOL    HW117648   3.869   4.238   7.275  1.8971 -0.5191  1.0555
 2005SOL    HW217649   3.765   4.287   7.367 -0.4045  4.3389  2.0780
 2006SOL     OW17650   0.675   2.289   4.820  0.2840  0.2506 -0.2876
 2006SOL    HW117651   0.745   2.273   4.757 -0.1815 -1.8885 -0.2740
 2006SOL    HW217652   0.610   2.225   4.792 -0.6977  0.5077  1.3892
 2007SOL     OW17653   2.037   1.312   3.281  0.0003  0.0663 -0.0423
 2007SOL    HW117654   2.090   1.247   3.236  1.1037 -1.0613  2.9117
 2007SOL    HW217655   1.973   1.324   3.210  1.5629  1.9783 -1.1293
 2008SOL     OW17656   0.610   2.760   8.606 -0.0557 -0.3648 -0.3529
 2008SOL    HW117657   0.527   2.713   8.611 -0.3377  0.2444  0.7169
 2008SOL    HW217658   0.625   2.763   8.511 -0.7427 -1.0860 -0.4839
 2009SOL     OW17659   3.145   1.840   8.418 -0.0993 -0.3303  1.0242
 2009SOL    HW117660   3.121   1.901   8.489 -0.4148  0.3626  0.3297
 2009SOL    HW217661   3.080   1.770   8.425  1.2673 -1.7734 -0.7734
 2010SOL     OW17662   1.935   1.964   1.081 -0.2165  0.0660  0.2770
 2010SOL    HW117663   1.855   2.004   1.112  1.3961  1.6834  2.3407
 2010SOL    HW217664   1.912   1.911   1.004 -0.8347 -0.3184  0.7352
 2011SOL     OW17665   1.745   1.186   6.624  0.3133 -0.1351 -0.3666
 2011SOL    HW117666   1.736   1.215   6.534 -0.9754  1.5327  0.3014
 2011SOL    HW217667   1.657   1.196   6.661 -0.5156 -3.4695 -1.3863
 2012SOL     OW17668   0.012   1.137   5.188 -0.9791 -0.2977  0.3985
 2012SOL    HW117669   4.734   1.142   5.094  2.1778 -1.0816 -0.0878
 2012SOL    HW217670   0.082   1.072   5.192  0.0255  0.7762  0.1790
 2013SOL     OW17671   3.787   1.251   3.417 -0.1391 -0.2746  0.1124
 2013SOL    HW117672   3.800   1.313   3.345 -0.6131 -0.7420 -0.3770
 2013SOL    HW217673   3.871   1.212   3.437  0.2624  1.2066  1.3336
 2014SOL     OW17674   4.129   3.708   1.813 -0.3198 -0.0315  0.3929
 2014SOL    HW117675   4.144   3.632   1.757 -1.7427  0.4704 -0.6554
 2014SOL    HW217676   4.048   3.679   1.855 -0.9515  1.4907  0.2256
 2015SOL     OW17677   2.635   3.418   8.007 -0.4268  0.1949  0.5725
 2015SOL    HW117678   2.600   3.348   8.062  0.3756 -1.0195 -0.4560
 2015SOL    HW217679   2.591   3.490   8.053 -0.5640 -0.1533  0.9835
 2016SOL     OW17680   1.228   1.830   7.064  0.2178 -0.0411 -0.4231
 2016SOL    HW117681   1.161   1.882   7.019 -0.3655 -0.6222 -0.2214
 2016SOL    HW217682   1.186   1.746   7.045  0.7674 -0.3752 -0.1522
 2017SOL     OW17683   1.413   0.015   2.389 -0.0053  0.0226  0.3044
 2017SOL    HW117684   1.375   0.000   2.476 -0.8193  2.3125  0.3269
 2017SOL    HW217685   1.506   0.030   2.404 -0.4153  1.3192  1.5237
 2018SOL     OW17686   1.235   2.023   3.516 -0.3164 -0.1514 -0.2637
 2018SOL    HW117687   1.299   2.084   3.554 -1.8234  0.2491  1.6463
 2018SOL    HW217688   1.213   2.074   3.438 -1.6643  0.1918  0.3248
 2019SOL     OW17689   1.433   3.012   5.898 -0.4695  0.5222 -0.3906
 2019SOL    HW117690   1.424   2.922   5.866 -0.7583  0.1062  0.8456
 2019SOL    HW217691   1.513   3.002   5.950  0.1755  0.2716 -1.4335
 2020SOL     OW17692   2.893   2.080   4.278  0.6336  0.4111  0.1700
 2020SOL    HW117693   2.810   2.033   4.283  0.9629  0.0759  2.2779
 2020SOL    HW217694   2.887   2.153   4.339  3.3124  1.4816 -0.8449
 2021SOL     OW17695   0.798   4.170   6.581  0.3688 -0.5573 -0.1577
 2021SOL    HW117696   0.891   4.179   6.602  0.0767  1.4018  0.2472
 2021SOL    HW217697   0.775   4.091   6.631 -0.0313 -0.5189 -0.2835
 2022SOL     OW17698   1.381   2.463  12.053 -0.4592  0.3639 -0.3277
 2022SOL    HW117699   1.310   2.495  11.998 -1.8743  0.2130  1.4174
 2022SOL    HW217700   1.360   2.370  12.057  2.4608 -0.2400  0.8135
 2023SOL     OW17701   4.492   3.012   5.810 -0.2265  0.4360 -0.2969
 2023SOL    HW117702   4.431   3.083   5.831  0.4942  1.6623 -2.3668
 2023SOL    HW217703   4.471   2.942   5.872 -2.1539  1.2055 -0.0678
 2024SOL     OW17704   3.146   1.669  12.419  0.1443 -0.3423  0.0805
 2024SOL    HW117705   3.230   1.649  12.379  0.7723  0.5581  0.9430
 2024SOL    HW217706   3.084   1.669  12.346 -0.4088  0.1032  0.5420
 2025SOL     OW17707   3.572   3.539   8.363 -0.1566 -0.0825  0.1874
 2025SOL    HW117708   3.526   3.521   8.282  0.8149 -2.4886  0.1449
 2025SOL    HW217709   3.633   3.605   8.330 -3.1051  2.6823  0.3532
 2026SOL     OW17710   1.266   1.524   3.615 -0.4218  1.2869  0.3453
 2026SOL    HW117711   1.175   1.534   3.588 -0.2001 -0.8104 -1.2265
 2026SOL    HW217712   1.275   1.592   3.681  1.6941  0.5824  0.7809
 2027SOL     OW17713   3.941   1.438   0.511  0.3660 -0.6782  0.6745
 2027SOL    HW117714   3.866   1.479   0.467  1.8633  0.2039 -1.0577
 2027SOL    HW217715   3.969   1.512   0.566  1.1245 -0.5311  0.0866
 2028SOL     OW17716   3.679   4.274  10.640  0.2115 -0.0945  0.0858
 2028SOL    HW117717   3.611   4.230  10.691 -0.5175 -0.5715 -1.2865
 2028SOL    HW217718   3.738   4.200  10.626 -1.3143 -1.4558  0.8765
 2029SOL     OW17719   1.183   1.228   2.588 -0.0956 -0.6996 -0.2779
 2029SOL    HW117720   1.267   1.254   2.624 -0.1096  2.0099 -2.1703
 2029SOL    HW217721   1.216   1.152   2.541 -0.1143 -0.2101 -1.0842
 2030SOL     OW17722   0.105   0.480   6.365 -0.3774  0.2902 -0.0034
 2030SOL    HW117723   0.133   0.457   6.453  1.8142 -0.6418 -0.9705
 2030SOL    HW217724   0.091   0.573   6.382 -0.9355  0.1186  0.4977
 2031SOL     OW17725   1.655   2.648   2.079 -0.1461  0.5016 -0.3435
 2031SOL    HW117726   1.599   2.613   2.009  0.2654  2.1087 -1.4910
 2031SOL    HW217727   1.719   2.576   2.087  0.0859  0.5970 -1.3045
 2032SOL     OW17728   0.809   4.440   8.207 -0.7180  0.2362 -0.0512
 2032SOL    HW117729   0.830   4.532   8.196  1.5858 -0.3741 -0.7064
 2032SOL    HW217730   0.747   4.448   8.279  0.3316  0.9674  0.7514
 2033SOL     OW17731   0.726   0.037  10.497  0.2128  0.2331  0.0669
 2033SOL    HW117732   0.796   0.070  10.553  0.1768  0.0855  0.1996
 2033SOL    HW217733   0.755   4.685  10.472  0.8272  0.3583  0.3452
 2034SOL     OW17734   3.564   1.253   1.979  0.6153  0.1459  0.2275
 2034SOL    HW117735   3.565   1.220   1.889 -0.0526  1.4672 -0.2660
 2034SOL    HW217736   3.510   1.191   2.027  0.1510  0.0245 -0.4485
 2035SOL     OW17737   4.463   3.578  10.099  0.0720  0.8221  0.6019
 2035SOL    HW117738   4.471   3.625  10.182  2.2534  0.5309  0.5365
 2035SOL    HW217739   4.505   3.630  10.031 -0.2082  0.2217 -0.0285
 2036SOL     OW17740   3.930   0.904   3.378 -0.4642 -0.4105  0.3985
 2036SOL    HW117741   3.887   0.840   3.435 -1.5752 -0.7163 -0.7868
 2036SOL    HW217742   3.870   0.922   3.305 -0.1250  0.7856  0.4137
 2037SOL     OW17743   3.648   3.476   7.758  0.6354  0.2236 -0.6927
 2037SOL    HW117744   3.727   3.493   7.707 -0.8855  1.0007 -2.7769
 2037SOL    HW217745   3.630   3.555   7.809  2.3714  0.3032 -0.2070
 2038SOL     OW17746   4.544   0.328   9.388 -0.4946  0.1994  0.2493
 2038SOL    HW117747   4.537   0.234   9.403 -1.1206  0.4529  1.5288
 2038SOL    HW217748   4.505   0.360   9.470  1.0738  0.4037  0.9228
 2039SOL     OW17749   2.648   1.221  17.689  0.1752 -0.0528 -0.0142
 2039SOL    HW117750   2.627   1.235   0.040 -1.3520  0.7526 -0.4889
 2039SOL    HW217751   2.640   1.126  17.689 -0.8883  0.0274  2.1187
 2040SOL     OW17752   3.105   2.094   9.443  0.1598  0.0071  0.4702
 2040SOL    HW117753   3.097   2.188   9.428  2.1637 -0.1434 -1.6404
 2040SOL    HW217754   3.090   2.077   9.536  0.1034 -0.1440  0.4330
 2041SOL     OW17755   3.636   4.198   2.972  0.4210 -0.3514  0.5447
 2041SOL    HW117756   3.617   4.188   3.066  4.7198  0.2575  1.4807
 2041SOL    HW217757   3.642   4.293   2.969 -4.4015 -0.0562 -0.1358
 2042SOL     OW17758   0.459   2.036   3.569  0.2211  0.2763 -0.1773
 2042SOL    HW117759   0.475   1.969   3.635  0.0753  1.0246  0.6254
 2042SOL    HW217760   0.395   2.087   3.619 -2.3737 -3.5080  0.3322
 2043SOL     OW17761   0.226   1.334   4.584  0.2415  0.1341 -0.2195
 2043SOL    HW117762   0.231   1.282   4.664  0.2706  0.0191 -0.2956
 2043SOL    HW217763   0.157   1.393   4.613 -0.5816  0.6293 -3.2246
 2044SOL     OW17764   4.400   0.597   8.291 -0.1520 -0.3330 -0.3197
 2044SOL    HW117765   4.481   0.624   8.334 -1.8247  3.7456  0.2708
 2044SOL    HW217766   4.345   0.561   8.360 -1.1134 -0.7155 -1.2770
 2045SOL     OW17767   0.586   0.514   1.115  0.4640 -0.1291 -0.3486
 2045SOL    HW117768   0.596   0.451   1.187  0.4503 -1.1440 -1.2322
 2045SOL    HW217769   0.498   0.484   1.091  0.8585 -1.9732  0.4855
 2046SOL     OW17770   3.740   2.526   8.461 -0.4297 -0.3910 -0.4091
 2046SOL    HW117771   3.681   2.598   8.484  1.3592  1.2668 -1.0038
 2046SOL    HW217772   3.696   2.483   8.388 -3.7672  0.4200  1.0829
 2047SOL     OW17773   3.235   3.669   3.940  0.2914  0.1710 -0.6159
 2047SOL    HW117774   3.270   3.660   3.851  2.0695 -0.9336  0.2127
 2047SOL    HW217775   3.283   3.595   3.978  1.4893  1.9890  1.3518
 2048SOL     OW17776   3.304   1.764   5.206 -0.0510  0.6759  0.2008
 2048SOL    HW117777   3.248   1.800   5.275 -1.7192 -0.0003 -0.8030
 2048SOL    HW217778   3.324   1.841   5.153  1.2888  0.1121 -0.1255
 2049SOL     OW17779   3.379   0.052   8.753  0.2048  0.3208  0.2433
 2049SOL    HW117780   3.354   4.703   8.788  3.5638 -0.0788  1.6120
 2049SOL    HW217781   3.320   0.107   8.805 -1.3726 -1.7407  0.6475
 2050SOL     OW17782   0.766   2.036   7.748  0.2367  0.2229  0.2171
 2050SOL    HW117783   0.736   2.125   7.769 -0.7407 -0.1752  0.4723
 2050SOL    HW217784   0.722   2.022   7.665 -1.4091  1.0188  0.9478
 2051SOL     OW17785   0.379   2.860   5.419 -0.4738 -0.1444 -0.1802
 2051SOL    HW117786   0.420   2.903   5.495 -0.4780 -0.7704  0.1764
 2051SOL    HW217787   0.376   2.768   5.446  0.9196 -0.5150 -1.3171
 2052SOL     OW17788   1.555   1.537   3.921 -0.1464 -0.1136 -0.1951
 2052SOL    HW117789   1.484   1.586   3.879 -1.5295 -2.1049 -0.1602
 2052SOL    HW217790   1.572   1.591   3.998  0.8413 -0.7277  0.0058
 2053SOL     OW17791   3.860   1.545  12.069 -0.2329  0.5346  0.4815
 2053SOL    HW117792   3.939   1.504  12.104  0.3500 -1.1459 -2.8161
 2053SOL    HW217793   3.901   1.561  11.984 -0.4123 -1.2757  0.0469
 2054SOL     OW17794   0.939   2.366   1.735 -0.3316 -0.0135  0.2728
 2054SOL    HW117795   0.904   2.289   1.780  2.9423 -0.6087  1.7765
 2054SOL    HW217796   0.927   2.437   1.798  0.1901  0.2277  0.1011
 2055SOL     OW17797   4.152   2.502  12.774  0.2083  0.6030 -0.0013
 2055SOL    HW117798   4.134   2.409  12.787 -1.6629  1.3723  3.0383
 2055SOL    HW217799   4.208   2.524  12.849 -0.3762  2.5167 -0.1273
 2056SOL     OW17800   3.051   1.179   4.474  0.0986  0.1992  0.0028
 2056SOL    HW117801   3.063   1.271   4.451  0.2759  0.0860 -0.3644
 2056SOL    HW217802   2.980   1.146   4.419 -0.4954 -1.9235  2.0342
 2057SOL     OW17803   1.874   1.888   8.622  0.0766 -0.0222  0.3552
 2057SOL    HW117804   1.843   1.881   8.712 -2.0527 -2.7368 -0.5881
 2057SOL    HW217805   1.969   1.898   8.629  0.4270 -1.7218 -1.7827
 2058SOL     OW17806   4.601   4.020   5.829 -0.2845 -0.2435  0.3300
 2058SOL    HW117807   4.655   4.045   5.904 -0.5449  0.9111  0.1412
 2058SOL    HW217808   4.663   4.044   5.760  0.4292 -1.9583  0.3815
 2059SOL     OW17809   0.290   3.000   5.173 -0.4259 -0.0173 -0.2293
 2059SOL    HW117810   0.240   3.057   5.231 -0.5619 -2.0895  1.6611
 2059SOL    HW217811   0.319   2.948   5.248  2.6866 -0.7621 -1.9336
 2060SOL     OW17812   2.267   2.842   1.430 -0.8573 -0.2765  0.1649
 2060SOL    HW117813   2.305   2.782   1.365  1.5562 -0.8471  2.1057
 2060SOL    HW217814   2.175   2.845   1.402 -1.0447  0.7994  0.9213
 2061SOL     OW17815   3.340   0.021  13.030  0.1766  0.4072 -0.5441
 2061SOL    HW117816   3.390   0.065  12.960 -0.8282  1.1362 -0.8037
 2061SOL    HW217817   3.338   0.090  13.096 -0.3978 -0.3852  0.2567
 2062SOL     OW17818   2.346   4.019   3.426  0.0580  0.3661  0.2200
 2062SOL    HW117819   2.337   4.114   3.415 -0.9498  0.4781  1.9331
 2062SOL    HW217820   2.254   3.997   3.414 -0.3416  3.8318 -3.0885
 2063SOL     OW17821   0.589   0.577   0.858 -0.2314  1.0649 -0.4534
 2063SOL    HW117822   0.513   0.520   0.871  0.6033  0.3371  1.1840
 2063SOL    HW217823   0.634   0.568   0.942  0.0203  0.4388 -0.6605
 2064SOL     OW17824   4.186   3.132   7.968  0.1630  0.3286 -0.8853
 2064SOL    HW117825   4.207   3.147   8.061  0.3074  1.3741 -1.0894
 2064SOL    HW217826   4.091   3.126   7.974  0.2720  1.2606  1.8801
 2065SOL     OW17827   1.919   4.654   7.128 -0.3560  0.5285  0.4817
 2065SOL    HW117828   1.864   4.621   7.058  2.0683  0.0188 -1.1675
 2065SOL    HW217829   1.970   4.727   7.092  0.9766  0.3025  1.8888
 2066SOL     OW17830   2.688   2.738   3.596  0.0019  0.2820 -0.0262
 2066SOL    HW117831   2.728   2.709   3.514  0.0653  1.3303 -0.3654
 2066SOL    HW217832   2.644   2.816   3.563 -1.5445 -1.3996 -2.0091
 2067SOL     OW17833   0.363   0.920  11.915 -0.2386 -0.1926 -0.0824
 2067SOL    HW117834   0.270   0.896  11.923 -0.3886  0.8784  1.4664
 2067SOL    HW217835   0.366   0.984  11.986  2.6989 -0.5063  0.0598
 2068SOL     OW17836   2.116   2.823   6.093  0.3225 -0.0569 -0.1068
 2068SOL    HW117837   2.073   2.738   6.104 -2.1790  1.3487  0.8595
 2068SOL    HW217838   2.209   2.799   6.089 -0.4275 -2.6378 -2.2282
 2069SOL     OW17839   4.382   2.859   2.968 -0.3507 -0.2895  0.1869
 2069SOL    HW117840   4.335   2.863   2.884  1.2751  0.7272 -0.6793
 2069SOL    HW217841   4.308   2.884   3.023  1.3247 -1.6694  3.0150
 2070SOL     OW17842   0.914   4.289   4.375 -0.6189  0.0203 -0.2917
 2070SOL    HW117843   0.888   4.197   4.369 -1.3002  0.3033 -1.6879
 2070SOL    HW217844   1.009   4.276   4.367 -0.5153 -0.1057  1.0624
 2071SOL     OW17845   0.917   3.796  15.365  0.2124  0.3511  0.4192
 2071SOL    HW117846   0.846   3.803  15.302 -0.2520  1.6638  1.0859
 2071SOL    HW217847   0.951   3.885  15.373 -1.1777  1.0588 -1.4708
 2072SOL     OW17848   2.546   0.939  13.288  0.3969 -0.5106  0.3857
 2072SOL    HW117849   2.476   1.004  13.288  0.9499  0.0867 -0.1499
 2072SOL    HW217850   2.528   0.892  13.369 -2.3255 -1.0272 -0.5147
 2073SOL     OW17851   2.213   0.412   7.116 -0.2450  0.3009 -0.6552
 2073SOL    HW117852   2.284   0.349   7.106 -0.3364  0.4929 -2.6837
 2073SOL    HW217853   2.194   0.389   7.207  1.3486  0.1091 -0.3710
 2074SOL     OW17854   0.351   2.198   2.817  0.6565  0.3983  0.1961
 2074SOL    HW117855   0.284   2.131   2.821 -1.4854  2.5511  0.4940
 2074SOL    HW217856   0.309   2.284   2.818  1.6764  0.9015  0.5497
 2075SOL     OW17857   1.637   1.722  16.129 -0.7093 -0.0085  0.4205
 2075SOL    HW117858   1.559   1.749  16.177 -1.6752  1.8280 -2.1799
 2075SOL    HW217859   1.599   1.670  16.058  0.5155 -1.4714  0.8375
 2076SOL     OW17860   4.703   3.190   8.928 -0.6569  0.2969  0.5590
 2076SOL    HW117861   4.638   3.238   8.979 -0.4148 -0.4381  1.5608
 2076SOL    HW217862   0.036   3.192   8.995  0.3116 -2.8219 -0.3728
 2077SOL     OW17863   0.373   1.652   8.736  0.1241 -0.3017  0.2706
 2077SOL    HW117864   0.441   1.596   8.775 -0.5299 -1.1544  0.1865
 2077SOL    HW217865   0.296   1.597   8.746 -0.3809 -0.7334 -5.7566
 2078SOL     OW17866   3.100   3.741   8.931  0.2734 -0.0859 -0.4535
 2078SOL    HW117867   3.152   3.763   8.853  1.1605  1.2476  0.5253
 2078SOL    HW217868   3.135   3.654   8.953  2.6843  1.6620  2.5667
 2079SOL     OW17869   2.632   0.106   8.382 -0.0063 -0.3820 -0.1824
 2079SOL    HW117870   2.616   0.102   8.287 -1.4580  0.5057  0.0310
 2079SOL    HW217871   2.564   0.161   8.419  0.8191 -1.0071  2.2312
 2080SOL     OW17872   4.312   0.905  15.001 -0.0656  0.2939 -1.2224
 2080SOL    HW117873   4.363   0.869  15.074 -0.6571  3.3389  0.7263
 2080SOL    HW217874   4.241   0.943  15.054  1.1748  0.2830  0.4539
 2081SOL     OW17875   2.349   2.319   1.114 -0.2874  0.1086  0.2994
 2081SOL    HW117876   2.344   2.325   1.210  3.5380  2.2530  0.3485
 2081SOL    HW217877   2.264   2.280   1.092  0.7696 -2.0604  0.1453
 2082SOL     OW17878   4.385   4.405   4.902  0.5763 -0.1436  0.7626
 2082SOL    HW117879   4.372   4.417   4.808  2.8124  0.5409  0.5399
 2082SOL    HW217880   4.427   4.487   4.929 -0.9296  1.0197 -0.4504
 2083SOL     OW17881   3.773   0.840   5.676  0.5856  0.1998  0.0429
 2083SOL    HW117882   3.734   0.760   5.641  0.0979  0.8816 -0.9507
 2083SOL    HW217883   3.758   0.897   5.601 -2.4238 -0.6161  0.0105
 2084SOL     OW17884   1.832   2.634  16.467 -0.2979 -0.4969 -0.4270
 2084SOL    HW117885   1.784   2.590  16.537  1.2150  0.8526  1.4286
 2084SOL    HW217886   1.768   2.619  16.397 -1.3175  2.5570 -0.1493
 2085SOL     OW17887   0.482   4.517  10.170  0.1346  0.1494  0.8953
 2085SOL    HW117888   0.490   4.600  10.123  0.1127  1.3868  3.0653
 2085SOL    HW217889   0.556   4.520  10.231  0.9210  0.2012 -0.0630
 2086SOL     OW17890   4.170   0.465   3.779  0.0408 -0.0287  0.8691
 2086SOL    HW117891   4.193   0.480   3.687  1.0043  2.5911  1.5345
 2086SOL    HW217892   4.087   0.420   3.768 -0.2118  0.3118  1.3716
 2087SOL     OW17893   2.954   2.819   1.926 -0.4362 -0.6305  0.1086
 2087SOL    HW117894   2.906   2.762   1.986 -2.3920  1.5259  0.6059
 2087SOL    HW217895   3.032   2.793   1.974  1.0258 -0.0231 -1.9432
 2088SOL     OW17896   4.160   1.660   3.597 -0.2825  0.8588 -0.1079
 2088SOL    HW117897   4.093   1.604   3.636  0.1552 -0.0197 -0.6194
 2088SOL    HW217898   4.239   1.617   3.632 -1.8329 -3.0700 -1.4388
 2089SOL     OW17899   0.901   2.301   5.077  0.2559  0.4413  0.1144
 2089SOL    HW117900   0.812   2.338   5.070  0.4720  0.6378 -1.4589
 2089SOL    HW217901   0.935   2.327   4.991 -0.0750  0.5412  0.0127
 2090SOL     OW17902   1.924   1.659   6.181 -0.1855 -0.1950  0.3091
 2090SOL    HW117903   1.839   1.617   6.194 -0.2045 -0.2927 -0.1460
 2090SOL    HW217904   1.954   1.596   6.116  0.7564  0.5986 -0.0246
 2091SOL     OW17905   4.449   3.776  10.294 -0.4716 -0.4668 -0.1807
 2091SOL    HW117906   4.429   3.868  10.278  0.5810  0.1311  1.8803
 2091SOL    HW217907   4.496   3.795  10.375 -1.4281 -0.6350  0.4134
 2092SOL     OW17908   2.093   0.724   1.260 -0.0170  0.4088 -0.6758
 2092SOL    HW117909   2.021   0.724   1.323  2.3970 -0.7578  2.0546
 2092SOL    HW217910   2.051   0.686   1.183 -2.7823  1.0480  0.4935
 2093SOL     OW17911   1.618   1.071   4.564 -0.4627  0.1711 -0.1682
 2093SOL    HW117912   1.679   1.143   4.584 -0.3139 -0.1809  0.6352
 2093SOL    HW217913   1.608   1.042   4.654 -0.5533 -1.2475 -0.6468
 2094SOL     OW17914   0.464   1.701   4.213 -0.1791  0.0374 -0.1202
 2094SOL    HW117915   0.491   1.789   4.239  0.8206  0.0100 -1.0127
 2094SOL    HW217916   0.483   1.647   4.290  2.6287 -0.3958 -1.0746
 2095SOL     OW17917   3.178   3.412   2.818  0.0429  0.2408 -0.5603
 2095SOL    HW117918   3.097   3.463   2.820 -0.0217  0.0823  1.4872
 2095SOL    HW217919   3.153   3.333   2.866 -1.1855  0.6448 -0.5203
 2096SOL     OW17920   0.899   2.713  15.976 -0.2880  0.3976 -0.5403
 2096SOL    HW117921   0.912   2.624  15.941  2.6768  0.6456 -0.0694
 2096SOL    HW217922   0.817   2.730  15.929 -0.3823  0.5560 -0.3130
 2097SOL     OW17923   0.505   0.510   2.967 -0.4845  0.2152  0.0983
 2097SOL    HW117924   0.458   0.445   3.019  0.5743  0.1725  0.9855
 2097SOL    HW217925   0.588   0.507   3.013  0.0153 -0.2313 -0.8292
 2098SOL     OW17926   1.693   1.544   6.838 -0.4428  0.0680 -0.4591
 2098SOL    HW117927   1.650   1.619   6.796 -1.1146  0.2014  0.4598
 2098SOL    HW217928   1.685   1.560   6.932 -1.0832  0.3532 -0.5576
 2099SOL     OW17929   1.937   3.288   7.284 -0.4375  0.3854  0.2796
 2099SOL    HW117930   2.022   3.309   7.323  0.0199  2.6308 -1.8845
 2099SOL    HW217931   1.881   3.338   7.344 -2.7800 -0.7349 -0.9819
 2100SOL     OW17932   1.290   3.755   4.342  0.1271  0.0030 -0.4681
 2100SOL    HW117933   1.295   3.758   4.437 -1.1974 -0.8047 -0.3650
 2100SOL    HW217934   1.237   3.675   4.336 -0.4846  0.2077  2.2194
 2101SOL     OW17935   3.467   1.646  11.473 -0.1350 -0.3588 -0.5370
 2101SOL    HW117936   3.445   1.603  11.390 -2.1588 -0.2514 -0.0431
 2101SOL    HW217937   3.537   1.698  11.432 -0.3534  0.6739  0.3972
 2102SOL     OW17938   3.811   3.881   2.020 -0.1768 -0.2764  0.2777
 2102SOL    HW117939   3.820   3.800   1.968 -0.7059 -0.1133 -0.0697
 2102SOL    HW217940   3.873   3.940   1.978  0.1804  0.3234  1.6850
 2103SOL     OW17941   4.336   1.742  15.116  0.2807  0.4697  0.0808
 2103SOL    HW117942   4.291   1.825  15.098  1.9508  0.7933 -2.5255
 2103SOL    HW217943   4.303   1.717  15.202 -1.6018  2.7859  0.0459
 2104SOL     OW17944   1.958   0.317   7.759  0.0788 -1.0154 -0.0192
 2104SOL    HW117945   1.975   0.298   7.666  1.6523  1.7693 -0.3034
 2104SOL    HW217946   2.043   0.305   7.801 -0.0002 -0.7398  0.2145
 2105SOL     OW17947   4.055   2.971   8.909  0.1623  0.6265  0.0530
 2105SOL    HW117948   4.008   2.951   8.990 -1.5395  0.9761 -0.8403
 2105SOL    HW217949   3.987   3.011   8.854 -0.4095 -0.6418 -0.1518
 2106SOL     OW17950   0.074   2.580  15.479  0.1139 -0.0335  0.2766
 2106SOL    HW117951   0.146   2.518  15.467  0.5483  0.9153 -2.0592
 2106SOL    HW217952   0.058   2.604  15.388  1.0141 -1.0585 -0.1455
 2107SOL     OW17953   4.281   1.500  17.466 -0.7182 -0.1455 -0.3178
 2107SOL    HW117954   4.333   1.520  17.388  0.0523  0.2759  0.2967
 2107SOL    HW217955   4.338   1.433  17.504 -0.2691 -1.5716 -3.4807
 2108SOL     OW17956   1.327   3.324   0.467  0.0273  0.5580 -1.0204
 2108SOL    HW117957   1.393   3.288   0.407  0.4136  0.2163 -0.3856
 2108SOL    HW217958   1.317   3.251   0.528  1.8413  1.3311  0.2178
 2109SOL     OW17959   1.786   2.754   3.353 -0.5976  0.0085 -0.2012
 2109SOL    HW117960   1.694   2.779   3.340 -1.5831 -2.2230  2.5448
 2109SOL    HW217961   1.807   2.744   3.260 -1.2217 -0.9707 -0.2463
 2110SOL     OW17962   2.706   2.368   7.093  0.0793  0.2940 -0.0248
 2110SOL    HW117963   2.768   2.323   7.036 -0.8886 -1.8679  0.6234
 2110SOL    HW217964   2.686   2.308   7.165 -0.9557 -1.0289 -1.4211
 2111SOL     OW17965   3.299   1.300   1.857 -0.5205  0.6600 -0.1153
 2111SOL    HW117966   3.261   1.217   1.886 -1.2905  0.2657 -2.2601
 2111SOL    HW217967   3.230   1.362   1.878  0.7143  2.0752 -0.2579
 2112SOL     OW17968   1.368   1.686   9.506  1.1051 -0.1068 -0.3035
 2112SOL    HW117969   1.336   1.597   9.515  1.5442 -0.2398 -0.0449
 2112SOL    HW217970   1.283   1.729   9.492  0.9166 -0.0341  1.0792
 2113SOL     OW17971   3.740   3.997  13.808  0.6301  0.3008  0.1146
 2113SOL    HW117972   3.780   3.923  13.854 -0.6630 -1.1056 -1.0171
 2113SOL    HW217973   3.754   4.069  13.869  0.9398 -1.1506  1.7645
 2114SOL     OW17974   2.743   0.027   3.321 -0.0064  0.1342  0.8218
 2114SOL    HW117975   2.648   0.021   3.312  0.0711  1.1334 -0.7015
 2114SOL    HW217976   2.768   0.010   3.411  1.9913  1.9241  0.6058
 2115SOL     OW17977   2.609   4.036   1.244 -0.1309  0.4361  0.5630
 2115SOL    HW117978   2.598   4.131   1.246 -1.3298  0.3004  0.2161
 2115SOL    HW217979   2.589   4.014   1.335 -0.4798 -0.2116  0.3293
 2116SOL     OW17980   0.392   0.878   8.176  0.0576 -0.4638 -0.3725
 2116SOL    HW117981   0.298   0.863   8.170 -0.1055  0.7281 -0.8697
 2116SOL    HW217982   0.404   0.950   8.113 -2.5617  0.4424  0.1991
 2117SOL     OW17983   0.303   1.333   7.219 -0.4010  0.6126 -0.2179
 2117SOL    HW117984   0.359   1.270   7.265 -0.2410  0.8380 -0.1041
 2117SOL    HW217985   0.263   1.371   7.297 -1.7843  0.6656 -0.9535
 2118SOL     OW17986   0.483   1.933  10.381 -0.2319  0.4750  0.1578
 2118SOL    HW117987   0.515   1.955  10.293 -1.3677  1.8733  0.1077
 2118SOL    HW217988   0.443   2.013  10.413 -2.3737 -1.3053  1.9745
 2119SOL     OW17989   2.604   2.894   2.924  0.0846 -0.2880 -0.8225
 2119SOL    HW117990   2.653   2.967   2.962 -3.1566  0.8306  1.1839
 2119SOL    HW217991   2.672   2.827   2.931  1.3659  1.1445  0.3470
 2120SOL     OW17992   3.980   1.119   1.258  0.1747 -0.6338  0.5427
 2120SOL    HW117993   3.889   1.132   1.232  0.0408  0.3462  1.5094
 2120SOL    HW217994   4.012   1.182   1.193 -0.0682 -1.4973 -0.4119
 2121SOL     OW17995   2.146   0.447  12.349 -0.1708  0.7584  0.2672
 2121SOL    HW117996   2.073   0.490  12.393 -0.1455  1.0189  0.0598
 2121SOL    HW217997   2.222   0.485  12.393 -0.5877 -0.1750  1.7995
 2122SOL     OW17998   2.357   3.512   8.356  0.0864 -0.5482 -0.6150
 2122SOL    HW117999   2.432   3.469   8.398  0.6771  0.1224 -0.9791
 2122SOL    HW218000   2.389   3.519   8.266 -1.7223 -0.4333 -1.2507
 2123SOL     OW18001   4.026   0.521   2.700  0.2001 -0.3149 -0.4848
 2123SOL    HW118002   4.008   0.462   2.627  0.7654 -1.5231  0.3684
 2123SOL    HW218003   4.121   0.512   2.709  0.3331  2.8542  1.3082
 2124SOL     OW18004   4.128   1.404   8.940 -0.1015 -0.9016  0.0251
 2124SOL    HW118005   4.050   1.452   8.912  0.0351  0.3200  1.7030
 2124SOL    HW218006   4.093   1.342   9.005 -1.4937 -0.4041 -0.2623
 2125SOL     OW18007   1.472   2.144   4.115  0.1385  0.0279  0.4593
 2125SOL    HW118008   1.433   2.232   4.117 -0.1746 -0.1681  2.3880
 2125SOL    HW218009   1.563   2.171   4.122 -0.1445  1.0988  0.1123
 2126SOL     OW18010   3.137   2.684   6.831 -0.3922  0.6257  0.2806
 2126SOL    HW118011   3.209   2.626   6.854 -2.1249 -1.6954 -0.1838
 2126SOL    HW218012   3.074   2.631   6.783  1.0252  1.2304 -2.2461
 2127SOL     OW18013   4.698   3.835   3.176  0.0899 -0.1978  0.1094
 2127SOL    HW118014   4.699   3.850   3.082 -0.3896  0.1599  0.1638
 2127SOL    HW218015   4.640   3.902   3.213 -2.2330 -2.0647 -0.1258
 2128SOL     OW18016   2.841   1.584   8.214  1.0643 -0.0052  0.7367
 2128SOL    HW118017   2.833   1.556   8.306 -2.8150  2.0513  1.0332
 2128SOL    HW218018   2.885   1.508   8.177  0.2394  0.6616 -1.6025
 2129SOL     OW18019   4.123   4.593   4.475  0.4335 -0.0117 -0.2217
 2129SOL    HW118020   4.092   4.598   4.565  1.0561 -0.3012  0.0123
 2129SOL    HW218021   4.062   4.650   4.429 -0.4300  0.0359  0.9876
 2130SOL     OW18022   2.465   1.274   5.945  0.6479 -0.1743 -0.0760
 2130SOL    HW118023   2.525   1.327   5.892  0.5418 -0.9405 -0.9600
 2130SOL    HW218024   2.475   1.191   5.899 -0.9225  0.0555 -0.8327
 2131SOL     OW18025   1.582   2.983   1.838  0.1335 -0.1255 -0.8119
 2131SOL    HW118026   1.541   2.945   1.761 -0.5133  0.1051 -0.5788
 2131SOL    HW218027   1.620   3.060   1.796  0.5393  0.7268  1.0967
 2132SOL     OW18028   2.431   4.618   8.639 -0.3843  0.7788 -0.4972
 2132SOL    HW118029   2.341   4.618   8.671 -0.2282 -0.8250 -0.0902
 2132SOL    HW218030   2.475   4.683   8.694  0.1319  0.0879 -0.1128
 2133SOL     OW18031   0.208   2.836   3.290 -0.1253  0.1397 -0.1838
 2133SOL    HW118032   0.133   2.821   3.347 -0.3886 -3.4700 -1.4424
 2133SOL    HW218033   0.272   2.779   3.333  0.9533  0.0938 -1.8256
 2134SOL     OW18034   0.312   4.029   1.631  0.3022 -0.3572  0.2197
 2134SOL    HW118035   0.274   3.953   1.676 -1.2237 -0.4905 -1.2825
 2134SOL    HW218036   0.404   4.020   1.657 -0.1110 -1.2799  1.3921
 2135SOL     OW18037   0.751   0.744   2.967 -0.0367  0.5404  0.2744
 2135SOL    HW118038   0.769   0.692   2.889  0.8883 -0.0003  0.8441
 2135SOL    HW218039   0.719   0.671   3.022  1.9018 -1.1200 -0.8103
 2136SOL     OW18040   3.231   3.090  16.413  0.1254 -0.0778  0.6662
 2136SOL    HW118041   3.195   3.053  16.333  0.3046  3.1644 -0.9118
 2136SOL    HW218042   3.206   3.041  16.492 -1.0392  2.3302  1.7941
 2137SOL     OW18043   1.843   4.359   9.978 -0.2593 -0.1112  0.1689
 2137SOL    HW118044   1.903   4.402   9.916 -2.3716 -0.9426 -2.4439
 2137SOL    HW218045   1.777   4.428   9.983  1.6484  1.7322 -0.0514
 2138SOL     OW18046   1.169   0.268   9.299 -0.6799  0.6416 -0.3262
 2138SOL    HW118047   1.120   0.315   9.232  1.5740  2.4057 -0.6812
 2138SOL    HW218048   1.112   0.276   9.376  2.2813  0.4639  1.8917
 2139SOL     OW18049   3.562   4.044  10.706 -0.2893  0.0353  0.6504
 2139SOL    HW118050   3.615   3.989  10.764 -2.9109 -1.0559  2.0003
 2139SOL    HW218051   3.563   3.989  10.628  1.0317  2.3979 -1.0277
 2140SOL     OW18052   3.136   1.641   4.628 -0.3728 -0.7642 -0.4426
 2140SOL    HW118053   3.182   1.709   4.577  0.0490 -0.4486  0.3618
 2140SOL    HW218054   3.201   1.641   4.697 -2.0518  0.5928  1.1491
 2141SOL     OW18055   4.272   1.923   9.716  0.1718 -0.1976 -0.2780
 2141SOL    HW118056   4.243   2.007   9.750 -0.9408 -0.5996 -0.2459
 2141SOL    HW218057   4.351   1.907   9.768  0.0016  1.5699  0.5199
 2142SOL     OW18058   0.444   3.137   9.945  0.2637 -0.0701  0.2919
 2142SOL    HW118059   0.501   3.077   9.993  0.1243 -0.5476 -0.1381
 2142SOL    HW218060   0.506   3.207   9.925 -0.9704  0.7476 -0.7053
 2143SOL     OW18061   0.236   3.593  14.284  0.1072  0.7087  0.4263
 2143SOL    HW118062   0.317   3.641  14.305 -0.4068  2.6287 -1.9946
 2143SOL    HW218063   0.279   3.534  14.222 -1.2806  1.9473 -1.6980
 2144SOL     OW18064   4.522   1.980   2.256  0.1336 -0.3674  0.2620
 2144SOL    HW118065   4.617   1.970   2.252 -0.1067 -2.6575  0.3841
 2144SOL    HW218066   4.496   1.937   2.337 -0.6026  1.5685  1.0441
 2145SOL     OW18067   2.211   4.631   2.195  0.4267 -0.2774 -0.4328
 2145SOL    HW118068   2.276   4.694   2.225 -1.4538  1.2720  0.3454
 2145SOL    HW218069   2.132   4.684   2.197  0.4135 -0.2783 -1.0196
 2146SOL     OW18070   2.838   1.763   4.539 -0.3849 -0.3442 -0.0447
 2146SOL    HW118071   2.760   1.742   4.486 -1.1667  1.4468  0.4080
 2146SOL    HW218072   2.909   1.735   4.481 -0.7499 -2.4766  0.5286
 2147SOL     OW18073   2.512   3.249   8.186  0.3866  0.1626  0.1235
 2147SOL    HW118074   2.529   3.172   8.133  2.1047  2.0390 -2.0625
 2147SOL    HW218075   2.459   3.200   8.249  0.0845  1.1841  0.6782
 2148SOL     OW18076   0.514   2.750   6.427 -0.1356  0.6196  0.5047
 2148SOL    HW118077   0.508   2.664   6.470  0.0184  0.6135  0.5130
 2148SOL    HW218078   0.576   2.798   6.481  2.6292 -0.3819 -1.7581
 2149SOL     OW18079   4.596   3.998   3.970 -0.7783 -0.2603  0.2996
 2149SOL    HW118080   4.616   3.911   4.004  2.5654  0.3768 -0.0670
 2149SOL    HW218081   4.685   4.031   3.959 -1.6825  1.9860 -0.3917
 2150SOL     OW18082   2.051   4.320   3.569  0.1688 -0.2774  0.9847
 2150SOL    HW118083   1.960   4.347   3.558 -0.4174 -2.7894 -0.4884
 2150SOL    HW218084   2.031   4.227   3.584  0.3996 -0.6371 -0.9034
 2151SOL     OW18085   2.610   0.793   6.564  0.2464 -0.3561 -0.5538
 2151SOL    HW118086   2.593   0.699   6.573 -2.5241  0.4795  2.5692
 2151SOL    HW218087   2.693   0.803   6.610 -0.6614 -1.0051  1.2063
 2152SOL     OW18088   4.343   1.073  12.315 -0.4001 -0.0618 -0.1505
 2152SOL    HW118089   4.348   1.129  12.238  1.1890 -0.8231 -0.5914
 2152SOL    HW218090   4.293   1.134  12.369 -0.6741  0.1546 -0.6458
 2153SOL     OW18091   4.429   3.243   6.121  0.1987  0.4829 -0.1003
 2153SOL    HW118092   4.445   3.254   6.027 -0.3392  3.7348  0.1862
 2153SOL    HW218093   4.422   3.336   6.141 -1.8142  0.5922 -1.2709
 2154SOL     OW18094   1.213   3.796   9.937  0.2959 -0.1004 -0.6086
 2154SOL    HW118095   1.267   3.784   9.859 -0.2043  3.6731 -1.5741
 2154SOL    HW218096   1.177   3.708   9.941 -2.0524  0.8173 -1.2455
 2155SOL     OW18097   0.456   3.610   2.885 -0.1089 -1.1503  0.2696
 2155SOL    HW118098   0.372   3.567   2.866 -0.1377 -1.7288  1.6683
 2155SOL    HW218099   0.432   3.702   2.902  0.5689 -0.8119 -0.5973
 2156SOL     OW18100   1.439   1.632   7.891  0.1443 -0.1484  0.3537
 2156SOL    HW118101   1.447   1.710   7.946 -1.0034 -1.3378  2.2237
 2156SOL    HW218102   1.425   1.567   7.960  4.0247 -1.1019  0.2503
 2157SOL     OW18103   1.816   1.402   3.095 -0.2336  0.2902 -0.0864
 2157SOL    HW118104   1.745   1.349   3.057  1.3314  0.5589 -3.3527
 2157SOL    HW218105   1.771   1.470   3.144  0.2169  0.8685 -0.4765
 2158SOL     OW18106   2.817   3.473   7.389 -0.1205 -0.5211 -0.1005
 2158SOL    HW118107   2.900   3.495   7.431  0.1668  0.7635 -1.3636
 2158SOL    HW218108   2.759   3.536   7.430 -0.2349 -0.4049 -0.4371
 2159SOL     OW18109   0.644   1.059  13.781  0.0945 -0.3648  0.0080
 2159SOL    HW118110   0.619   1.129  13.843  0.8777 -0.6943  0.6981
 2159SOL    HW218111   0.733   1.085  13.760  0.0134  0.3538  0.5047
 2160SOL     OW18112   2.447   0.364   2.091  0.3670 -0.1040  0.1800
 2160SOL    HW118113   2.531   0.409   2.103  0.3121  0.6535 -2.3690
 2160SOL    HW218114   2.390   0.423   2.140  1.1900  1.3494 -0.6185
 2161SOL     OW18115   2.346   2.806   2.901 -0.3727  0.1414  0.1085
 2161SOL    HW118116   2.437   2.836   2.911 -0.2899 -0.0185 -0.1842
 2161SOL    HW218117   2.325   2.839   2.813 -1.2635 -2.0769 -0.5039
 2162SOL     OW18118   0.397   0.397  17.118  1.1616  0.6029  0.4606
 2162SOL    HW118119   0.327   0.457  17.096  0.2329 -0.7981 -0.3871
 2162SOL    HW218120   0.427   0.379  17.029 -0.3498 -0.8126  0.2443
 2163SOL     OW18121   0.261   0.938   7.418 -0.0598 -0.5132 -0.7750
 2163SOL    HW118122   0.259   0.843   7.431  2.9608 -0.4852  0.0324
 2163SOL    HW218123   0.169   0.964   7.416 -0.0102 -0.1534  1.7462
 2164SOL     OW18124   3.783   4.711   1.361 -0.1190  0.2654  0.2323
 2164SOL    HW118125   3.871   4.690   1.331 -1.2295 -1.6052 -1.8089
 2164SOL    HW218126   3.759   0.023   1.281  2.0128 -0.4722 -0.8494
 2165SOL     OW18127   2.533   2.932   3.491  0.4333  0.2243  0.0569
 2165SOL    HW118128   2.578   3.003   3.445  0.3105 -1.2823 -2.4233
 2165SOL    HW218129   2.493   2.979   3.564  0.2509  1.3823 -0.7897
 2166SOL     OW18130   4.156   2.919  16.782  0.3878 -0.2065 -0.1390
 2166SOL    HW118131   4.232   2.864  16.800  0.7442  1.2787  2.9982
 2166SOL    HW218132   4.084   2.859  16.800 -0.0947  0.4326  0.0706
 2167SOL     OW18133   1.511   1.572  16.445  0.4617  0.0148  0.2136
 2167SOL    HW118134   1.461   1.503  16.400  2.3865 -0.3522 -1.3414
 2167SOL    HW218135   1.505   1.640  16.379 -0.8802 -0.6826 -0.3948
 2168SOL     OW18136   0.853   3.252   7.776  0.0681 -0.1956  0.2210
 2168SOL    HW118137   0.864   3.167   7.819  0.6544 -0.3793 -0.2980
 2168SOL    HW218138   0.758   3.263   7.779 -0.0799 -1.3017 -0.4904
 2169SOL     OW18139   2.649   2.535   9.699  0.0890  0.2885  0.0921
 2169SOL    HW118140   2.691   2.582   9.628  0.2215 -0.1119 -0.0954
 2169SOL    HW218141   2.600   2.463   9.659  1.3744 -0.3759 -0.2938
 2170SOL     OW18142   3.281   2.814   3.072  0.3251 -1.0624  0.3102
 2170SOL    HW118143   3.189   2.788   3.068 -0.3328  0.9950  2.7006
 2170SOL    HW218144   3.267   2.906   3.093  3.0884  0.2655 -3.4899
 2171SOL     OW18145   1.662   2.337  14.894 -0.3748 -0.8887  0.3106
 2171SOL    HW118146   1.731   2.323  14.960  0.4094  0.9038 -0.1392
 2171SOL    HW218147   1.672   2.265  14.832 -0.8345 -1.5143  0.9508
 2172SOL     OW18148   0.024   3.435  10.145 -0.1258 -0.3642  0.2728
 2172SOL    HW118149   0.086   3.429  10.217 -1.4976 -0.1915  1.4713
 2172SOL    HW218150   4.685   3.384  10.175  0.2861 -0.4625  1.1144
 2173SOL     OW18151   3.180   0.874  11.888 -0.0776 -0.9002 -0.0550
 2173SOL    HW118152   3.160   0.843  11.977 -0.4544 -0.4573  0.0171
 2173SOL    HW218153   3.088   0.891  11.866  0.2310 -0.6589 -1.1459
 2174SOL     OW18154   0.186   3.698   3.200  0.0084 -0.5486 -0.3726
 2174SOL    HW118155   0.109   3.755   3.194 -0.0440 -0.4953  0.6928
 2174SOL    HW218156   0.152   3.609   3.192 -0.2069 -0.5146  0.1796
 2175SOL     OW18157   3.307   0.693  17.437  0.0739 -0.0651  0.7131
 2175SOL    HW118158   3.325   0.786  17.449 -1.6239  0.4249 -0.6481
 2175SOL    HW218159   3.222   0.688  17.481  0.0799 -1.0668  0.6039
 2176SOL     OW18160   4.328   1.635   7.907  0.4038  0.2682 -0.6945
 2176SOL    HW118161   4.399   1.697   7.924  1.3903 -1.2507  0.7190
 2176SOL    HW218162   4.259   1.668   7.964 -0.1833 -0.2755 -1.0905
 2177SOL     OW18163   3.288   2.113   3.852 -0.6763 -0.0863  0.9094
 2177SOL    HW118164   3.314   2.080   3.938  0.4717 -1.1884  0.1304
 2177SOL    HW218165   3.213   2.168   3.877  0.2401  1.9525 -0.8345
 2178SOL     OW18166   3.109   3.025   4.930 -0.1699  0.4403 -0.0068
 2178SOL    HW118167   3.203   3.009   4.933 -0.1924  0.3173  0.0721
 2178SOL    HW218168   3.108   3.075   4.849  1.9157  0.2806 -0.1255
 2179SOL     OW18169   2.716   0.081   5.600 -0.0366  0.3402 -0.1748
 2179SOL    HW118170   2.655   0.033   5.656 -0.7023  0.5480 -0.7251
 2179SOL    HW218171   2.656   0.136   5.551 -0.0712  2.1181  1.8395
 2180SOL     OW18172   1.106   1.375  11.609  0.3247  0.3134 -0.7198
 2180SOL    HW118173   1.116   1.440  11.540 -1.4763  0.4880 -0.8154
 2180SOL    HW218174   1.151   1.298  11.574  1.2380  0.2854  0.5446
 2181SOL     OW18175   0.674   0.020   1.369 -0.5751  0.0401  0.3678
 2181SOL    HW118176   0.686   4.708   1.451  1.0479 -0.5443 -0.2096
 2181SOL    HW218177   0.759   0.065   1.366 -2.0852  2.7252 -2.3993
 2182SOL     OW18178   3.114   0.966   8.636 -0.3515 -0.0733 -0.4846
 2182SOL    HW118179   3.209   0.956   8.649 -0.7916  0.3561  3.2359
 2182SOL    HW218180   3.105   0.947   8.543 -2.0235 -2.2904  0.1473
 2183SOL     OW18181   0.049   0.807   5.384  0.0826  0.3151  0.3479
 2183SOL    HW118182   0.040   0.723   5.429  1.3961 -1.2273 -2.2724
 2183SOL    HW218183   4.727   0.791   5.310  1.7677 -0.2114 -0.8493
 2184SOL     OW18184   3.801   2.116  12.368 -0.5277  0.5468 -0.5876
 2184SOL    HW118185   3.721   2.064  12.379  0.6341 -0.9406  0.9146
 2184SOL    HW218186   3.835   2.114  12.457 -1.2054 -0.9035 -0.3624
 2185SOL     OW18187   3.720   1.542   1.256  0.2482 -0.0836 -0.1817
 2185SOL    HW118188   3.788   1.597   1.216  1.1605  0.0233  1.5093
 2185SOL    HW218189   3.706   1.485   1.180  0.0163 -0.6211  0.2627
 2186SOL     OW18190   4.501   3.960   9.510  0.3020 -0.1354  0.6975
 2186SOL    HW118191   4.547   3.917   9.438 -0.4839 -1.4818  1.0069
 2186SOL    HW218192   4.487   4.054   9.495  2.7972 -0.1953 -2.0448
 2187SOL     OW18193   0.584   0.423   9.588 -0.5234 -0.1952  0.1168
 2187SOL    HW118194   0.588   0.366   9.512 -1.5548  0.5727 -0.5049
 2187SOL    HW218195   0.500   0.469   9.585 -2.5090 -3.8144  0.5107
 2188SOL     OW18196   3.115   1.728   5.448 -0.1726 -0.0676 -0.1025
 2188SOL    HW118197   3.085   1.648   5.403 -2.3884 -1.2042  3.3293
 2188SOL    HW218198   3.053   1.794   5.415  0.2605  1.3880  2.0361
 2189SOL     OW18199   4.412   2.750   4.275  0.7150 -0.3293  0.0237
 2189SOL    HW118200   4.379   2.776   4.189 -1.0171  1.0081  1.0853
 2189SOL    HW218201   4.433   2.657   4.266  1.4302 -0.0449 -1.2781
 2190SOL     OW18202   3.603   2.480   2.603  0.3396 -0.0475  0.4370
 2190SOL    HW118203   3.650   2.521   2.676 -1.0399 -0.2889  1.4663
 2190SOL    HW218204   3.528   2.538   2.592 -1.4288 -1.8429  2.8820
 2191SOL     OW18205   1.832   0.167   1.837 -0.3465 -0.1527 -0.4596
 2191SOL    HW118206   1.803   0.245   1.789  0.2449  0.8280  0.7777
 2191SOL    HW218207   1.804   0.198   1.923 -0.3628 -3.1336  0.6251
 2192SOL     OW18208   4.162   3.464  16.799  0.5626  0.5576 -0.2148
 2192SOL    HW118209   4.173   3.397  16.732  0.0351 -0.0510  0.3103
 2192SOL    HW218210   4.200   3.533  16.745  2.3672 -0.4557 -0.2304
 2193SOL     OW18211   0.189   4.338   9.370  0.2180  0.4972 -0.1588
 2193SOL    HW118212   0.206   4.250   9.402 -0.8424 -0.1040 -1.2543
 2193SOL    HW218213   0.253   4.347   9.299  0.1133 -1.3239 -0.4855
 2194SOL     OW18214   2.501   3.740  16.788 -0.5840  0.1444  0.1951
 2194SOL    HW118215   2.575   3.686  16.816 -0.3111  0.5299  0.2115
 2194SOL    HW218216   2.487   3.804  16.858 -0.1902  0.1078  0.3052
 2195SOL     OW18217   1.728   1.471   9.437 -0.2780 -0.0713 -0.1439
 2195SOL    HW118218   1.665   1.538   9.463 -0.5188 -0.1892 -0.4344
 2195SOL    HW218219   1.807   1.512   9.474  0.5348 -1.3705 -0.4550
 2196SOL     OW18220   3.332   1.145   1.387  0.1009  0.0359  0.0298
 2196SOL    HW118221   3.314   1.232   1.424 -1.6144 -0.1966 -0.2465
 2196SOL    HW218222   3.275   1.095   1.446 -2.3409  0.8216 -1.6588
 2197SOL     OW18223   1.393   0.649   2.859 -0.5123  0.1951 -0.4048
 2197SOL    HW118224   1.469   0.591   2.863 -0.9345 -0.1216  3.0392
 2197SOL    HW218225   1.346   0.620   2.938 -1.3795  1.1312 -0.5800
 2198SOL     OW18226   2.430   0.151   6.546  0.7134  0.3395  0.4450
 2198SOL    HW118227   2.474   0.155   6.462  1.0226 -1.0454  0.5399
 2198SOL    HW218228   2.416   0.057   6.554  0.9690  0.3937  1.5483
 2199SOL     OW18229   3.040   0.806   1.791  0.2011 -0.6014 -0.1615
 2199SOL    HW118230   2.955   0.847   1.804  0.3878 -0.0076 -0.8417
 2199SOL    HW218231   3.007   0.716   1.786 -0.3570 -0.4177  0.2547
 2200SOL     OW18232   1.545   4.247   2.127 -0.3451  0.1761  0.2167
 2200SOL    HW118233   1.573   4.314   2.065 -2.4319  0.2878 -0.6117
 2200SOL    HW218234   1.616   4.183   2.130 -1.2619 -0.7432  2.6160
 2201SOL     OW18235   0.232   0.515  15.139  0.2896  0.7747 -0.3654
 2201SOL    HW118236   0.209   0.449  15.074  0.5888 -1.9514  2.2951
 2201SOL    HW218237   0.290   0.575  15.093  4.0450 -3.0730 -0.6778
 2202SOL     OW18238   0.343   4.018   3.774  0.1993  0.2698  0.1980
 2202SOL    HW118239   0.421   3.974   3.739 -0.8317 -1.3065 -0.1141
 2202SOL    HW218240   0.337   4.088   3.709  2.2902 -0.8519 -1.2338
 2203SOL     OW18241   1.994   1.773  17.518 -0.0448 -1.0563 -0.2402
 2203SOL    HW118242   1.907   1.792  17.484 -0.6587  2.4293  3.3353
 2203SOL    HW218243   1.976   1.697  17.573 -0.3128 -1.1716 -0.4912
 2204SOL     OW18244   0.551   3.443   9.659  0.2257  0.0530  0.3158
 2204SOL    HW118245   0.530   3.524   9.612 -0.5375 -1.8512 -2.6329
 2204SOL    HW218246   0.463   3.406   9.658  1.1685 -2.1761 -1.2536
 2205SOL     OW18247   0.631   4.561  16.426 -0.3392 -0.2667  1.1629
 2205SOL    HW118248   0.659   4.488  16.369 -0.9976 -0.4463  1.0656
 2205SOL    HW218249   0.659   4.542  16.515 -0.4830 -1.3705  0.9819
 2206SOL     OW18250   0.290   1.360  12.228 -0.2303 -0.4182 -0.1200
 2206SOL    HW118251   0.312   1.424  12.161 -1.2765 -0.7488 -0.7822
 2206SOL    HW218252   0.277   1.426  12.296 -0.5644  2.8199 -3.3541
 2207SOL     OW18253   0.812   4.139   5.469 -0.0722  0.1128 -0.0905
 2207SOL    HW118254   0.774   4.211   5.418 -0.6865 -1.3401 -1.6931
 2207SOL    HW218255   0.884   4.176   5.519 -1.1340  0.3347  1.2617
 2208SOL     OW18256   1.763   3.072   7.846 -0.5768  0.2639  0.2082
 2208SOL    HW118257   1.695   3.051   7.782 -2.0332 -1.6789  2.3745
 2208SOL    HW218258   1.833   3.010   7.826 -2.4163 -1.5397 -0.5836
 2209SOL     OW18259   2.843   4.096   4.346  0.2421  0.1034  0.2664
 2209SOL    HW118260   2.751   4.075   4.331 -0.2874  1.4136  1.6735
 2209SOL    HW218261   2.873   4.038   4.415  1.8744  0.2538 -0.3202
 2210SOL     OW18262   2.045   3.742  16.832  0.6122  0.0610  0.0608
 2210SOL    HW118263   2.023   3.816  16.776  2.1388 -0.6068 -1.4076
 2210SOL    HW218264   2.033   3.681  16.760 -1.3104  0.9915 -0.3834
 2211SOL     OW18265   3.064   0.184  15.602  0.2293 -0.1072 -0.2076
 2211SOL    HW118266   3.107   0.250  15.657  1.1197  0.1295 -1.1826
 2211SOL    HW218267   3.035   0.113  15.660 -0.3985 -1.0131 -1.6467
 2212SOL     OW18268   3.728   4.405   2.673 -0.1613  0.8028 -0.2586
 2212SOL    HW118269   3.648   4.457   2.668 -0.2223  0.8757  1.3816
 2212SOL    HW218270   3.783   4.448   2.739  0.7146  3.1809 -2.5648
 2213SOL     OW18271   1.794   2.368   2.635 -0.4511  0.3676 -0.0455
 2213SOL    HW118272   1.863   2.422   2.598 -0.7900  1.4664  0.9230
 2213SOL    HW218273   1.714   2.416   2.612 -0.1337  1.0123  0.1863
 2214SOL     OW18274   0.976   4.017  12.106 -0.2614  0.5747  0.2768
 2214SOL    HW118275   0.991   3.935  12.152 -0.6893 -0.5757 -1.6592
 2214SOL    HW218276   1.012   4.080  12.169  2.5138 -0.6839 -0.0321
 2215SOL     OW18277   0.747   0.580  11.554 -0.5263  0.3531 -0.5173
 2215SOL    HW118278   0.720   0.496  11.591  1.3581 -1.1114 -2.4608
 2215SOL    HW218279   0.712   0.584  11.465 -0.6538  1.5093 -0.4236
 2216SOL     OW18280   2.066   0.538   5.741 -0.4239  0.2091 -0.3954
 2216SOL    HW118281   1.970   0.537   5.740 -0.3799 -0.9984 -2.1283
 2216SOL    HW218282   2.079   0.603   5.672 -1.8890 -0.7320 -1.5392
 2217SOL     OW18283   0.209   3.771   5.796  0.0005 -0.7905  0.2060
 2217SOL    HW118284   0.260   3.848   5.818  1.1315 -2.0123  1.8176
 2217SOL    HW218285   0.271   3.730   5.736 -0.7772 -1.4278 -0.1767
 2218SOL     OW18286   0.664   3.302   5.794  0.4351 -0.6574  0.1561
 2218SOL    HW118287   0.607   3.317   5.719  1.4109 -0.8425 -0.6302
 2218SOL    HW218288   0.655   3.208   5.812 -0.4924 -0.2613  1.7391
 2219SOL     OW18289   1.357   4.385   1.909 -0.3719  0.1633 -0.1819
 2219SOL    HW118290   1.394   4.296   1.906 -1.2348 -0.2401  1.0465
 2219SOL    HW218291   1.438   4.435   1.907 -0.7646  0.8162  0.1893
 2220SOL     OW18292   0.948   1.233   0.001 -0.3719 -0.0280  0.1140
 2220SOL    HW118293   0.957   1.139   0.018 -1.6024 -0.2510 -0.4094
 2220SOL    HW218294   0.873   1.234  17.683 -2.1554 -0.0231  2.3612
 2221SOL     OW18295   0.030   3.216  14.163  0.7255 -0.1824  0.3569
 2221SOL    HW118296   4.707   3.289  14.143 -0.5251 -1.0982  0.7232
 2221SOL    HW218297   0.008   3.206  14.256 -1.2602 -0.2555 -0.1231
 2222SOL     OW18298   3.096   2.025   0.008  0.3114 -0.5372  0.5411
 2222SOL    HW118299   3.179   1.978   0.015  1.3587  1.1386 -0.5202
 2222SOL    HW218300   3.101   2.092  17.681  3.8563 -1.4160 -0.0510
 2223SOL     OW18301   0.766   4.518   4.373  0.1427  0.0835  0.2114
 2223SOL    HW118302   0.813   4.435   4.367 -0.2594 -0.0808 -0.7693
 2223SOL    HW218303   0.824   4.572   4.426 -0.3675  1.4708 -0.6434
 2224SOL     OW18304   1.354   2.913   2.577  0.3742 -0.1814  0.2476
 2224SOL    HW118305   1.386   2.934   2.489 -0.2920 -1.8814 -0.3862
 2224SOL    HW218306   1.376   2.821   2.582  0.6529 -0.2066 -1.3522
 2225SOL     OW18307   2.466   1.562   5.124  0.0341  0.5635 -0.0741
 2225SOL    HW118308   2.493   1.619   5.196 -2.6174  2.1561 -0.3101
 2225SOL    HW218309   2.389   1.616   5.105 -1.2134 -0.9549  0.6234
 2226SOL     OW18310   1.364   2.315  14.791 -0.1383  0.2031 -0.0661
 2226SOL    HW118311   1.426   2.244  14.812  1.8446  2.2813  1.1902
 2226SOL    HW218312   1.300   2.312  14.862 -1.4228 -0.5148 -1.2742
 2227SOL     OW18313   0.513   0.874  13.593  0.0897  0.1495 -0.3554
 2227SOL    HW118314   0.566   0.934  13.646  0.9839 -1.6946  0.8630
 2227SOL    HW218315   0.429   0.884  13.638 -0.1801  0.9542 -1.0396
 2228SOL     OW18316   1.148   2.236   3.337  0.3448 -0.0638  0.0031
 2228SOL    HW118317   1.179   2.326   3.350 -0.3145  0.2315 -0.4865
 2228SOL    HW218318   1.060   2.247   3.300  0.1244 -0.1623  0.5053
 2229SOL     OW18319   3.415   1.251   0.972  0.2992 -0.2913  0.3056
 2229SOL    HW118320   3.320   1.263   0.966  0.5323  1.7336  0.9245
 2229SOL    HW218321   3.436   1.230   0.882  0.7212 -2.5196  0.9130
 2230SOL     OW18322   3.964   4.098   0.801 -0.2540  0.5153  0.0334
 2230SOL    HW118323   3.922   4.072   0.882  0.5345 -0.0874  0.2442
 2230SOL    HW218324   4.029   4.030   0.782  0.1855  0.6305  1.1523
 2231SOL     OW18325   1.961   0.805   7.469  0.1019  0.5090 -0.0196
 2231SOL    HW118326   1.962   0.899   7.451 -1.4010  0.9538  2.1273
 2231SOL    HW218327   1.977   0.812   7.564 -1.4339 -2.5436  0.4443
 2232SOL     OW18328   1.054   0.413   4.542 -0.8788  0.0616 -0.4932
 2232SOL    HW118329   1.075   0.431   4.633  0.5405 -2.4780 -0.3242
 2232SOL    HW218330   1.007   0.333   4.566  2.2814 -1.3174  1.1367
 2233SOL     OW18331   1.917   2.857   7.823 -0.0804  0.1398  0.9480
 2233SOL    HW118332   1.951   2.813   7.901  0.7737  0.6248  0.8519
 2233SOL    HW218333   1.920   2.777   7.772 -0.2673  0.0172  1.1289
 2234SOL     OW18334   4.235   3.365   7.292 -0.6833 -0.4974  0.0161
 2234SOL    HW118335   4.182   3.298   7.334  0.0934 -1.3690 -0.3969
 2234SOL    HW218336   4.272   3.335   7.209 -0.7211 -0.0634 -0.1559
 2235SOL     OW18337   4.311   4.423   8.009  0.2760  0.0569 -0.2648
 2235SOL    HW118338   4.381   4.414   7.945  1.1573  1.5560  0.5020
 2235SOL    HW218339   4.350   4.496   8.057 -1.7561  0.2870  1.0312
 2236SOL     OW18340   0.638   0.610  13.610  0.2073  0.2351 -0.3331
 2236SOL    HW118341   0.730   0.626  13.591  1.1318 -3.9773  0.6336
 2236SOL    HW218342   0.600   0.697  13.598 -0.1283 -0.2203 -2.5217
 2237SOL     OW18343   1.160   0.104   5.064 -0.1049 -0.3215 -0.1329
 2237SOL    HW118344   1.138   0.030   5.121 -2.0942  0.1726 -0.2538
 2237SOL    HW218345   1.253   0.086   5.052  0.3178  2.0267 -0.3464
 2238SOL     OW18346   2.264   2.538   3.346 -0.3023 -0.8100 -0.2191
 2238SOL    HW118347   2.320   2.574   3.278 -1.1962  0.6106 -0.2132
 2238SOL    HW218348   2.181   2.531   3.299 -1.4349  0.9346  1.4840
 2239SOL     OW18349   1.562   1.300   2.413 -0.1378  0.1377  0.5565
 2239SOL    HW118350   1.610   1.365   2.464  1.2336  0.3262 -0.9966
 2239SOL    HW218351   1.547   1.230   2.477  1.1175  0.5986  1.3620
 2240SOL     OW18352   1.909   0.566   6.807 -0.0218 -0.5976 -0.2879
 2240SOL    HW118353   1.976   0.633   6.821 -0.4045 -0.6188  1.6216
 2240SOL    HW218354   1.969   0.492   6.804 -0.6900 -1.0909 -1.9298
 2241SOL     OW18355   2.844   0.288   3.258 -0.1334 -0.5801 -0.8065
 2241SOL    HW118356   2.833   0.193   3.250 -1.3498 -0.4139 -1.1669
 2241SOL    HW218357   2.753   0.310   3.237 -0.1383  2.3837  2.2493
 2242SOL     OW18358   1.152   4.174  10.797  0.0298  0.2093  0.0496
 2242SOL    HW118359   1.091   4.230  10.845 -0.6123  0.3117 -0.8689
 2242SOL    HW218360   1.205   4.130  10.863 -0.4144  0.6680  0.7100
 2243SOL     OW18361   2.762   0.514  15.231  0.2119 -0.0012 -0.1959
 2243SOL    HW118362   2.783   0.601  15.200  0.8071  0.0184  0.2661
 2243SOL    HW218363   2.810   0.469  15.162 -0.3641  1.3737 -1.4841
 2244SOL     OW18364   3.180   1.069   7.273  0.2393 -0.1869  0.5348
 2244SOL    HW118365   3.237   1.144   7.292  1.1973 -0.6256 -0.5906
 2244SOL    HW218366   3.251   1.021   7.232  1.4794  0.0033  2.4518
 2245SOL     OW18367   2.706   2.962   1.290  0.0499 -0.2790  0.1977
 2245SOL    HW118368   2.750   3.018   1.353 -2.6984  1.8329  0.2284
 2245SOL    HW218369   2.679   3.003   1.208  0.7638 -4.5428 -2.1786
 2246SOL     OW18370   4.037   1.299   7.429 -1.0507  0.3206 -0.3670
 2246SOL    HW118371   4.107   1.275   7.369 -0.3579  1.0146  0.1493
 2246SOL    HW218372   4.082   1.361   7.486 -1.3285 -1.0690  1.3629
 2247SOL     OW18373   0.568   1.512   4.751 -0.3547  0.1470  0.2569
 2247SOL    HW118374   0.492   1.524   4.808 -0.7211 -1.9944  0.1864
 2247SOL    HW218375   0.580   1.603   4.724 -1.8144  0.6317  1.2112
 2248SOL     OW18376   3.807   3.750  14.889  0.2187 -0.4388  0.7049
 2248SOL    HW118377   3.854   3.691  14.831  1.2319 -0.2958  1.3691
 2248SOL    HW218378   3.864   3.827  14.880 -0.1450  0.1540  3.2571
 2249SOL     OW18379   1.291   4.110   0.974 -0.1543  0.2324  0.1888
 2249SOL    HW118380   1.332   4.160   0.903  0.0059  0.9052  0.7566
 2249SOL    HW218381   1.358   4.044   0.988 -0.9178 -0.9206 -1.6258
 2250SOL     OW18382   0.740   1.593   6.866 -0.5010  0.2133 -0.9785
 2250SOL    HW118383   0.801   1.526   6.896  0.5667  1.2601 -0.8324
 2250SOL    HW218384   0.718   1.553   6.781 -1.5915 -0.1324 -0.5396
 2251SOL     OW18385   3.629   4.334   1.212  0.2198 -0.1331 -0.3339
 2251SOL    HW118386   3.666   4.355   1.298  0.7319  1.9638 -1.0557
 2251SOL    HW218387   3.634   4.422   1.173 -2.6701  0.7066  1.1991
 2252SOL     OW18388   1.313   2.184   3.822 -0.1215 -0.6486  0.0576
 2252SOL    HW118389   1.351   2.204   3.736  2.8932 -0.1680  1.4799
 2252SOL    HW218390   1.397   2.178   3.869  0.1749  3.5500  0.0958
 2253SOL     OW18391   0.294   3.179   7.780 -0.0047 -0.1953  0.7252
 2253SOL    HW118392   0.290   3.109   7.846 -1.5465  0.8584  1.7399
 2253SOL    HW218393   0.264   3.257   7.827 -0.0696  0.5899 -0.6300
 2254SOL     OW18394   2.501   2.908   1.584  0.5202 -0.0987  0.4088
 2254SOL    HW118395   2.565   2.864   1.529 -0.2905 -1.8138  0.8281
 2254SOL    HW218396   2.427   2.900   1.524  0.5781  1.2117  0.1724
 2255SOL     OW18397   4.065   3.354   5.888 -0.2665 -0.1243 -0.2400
 2255SOL    HW118398   4.022   3.395   5.813  0.3902  0.8804 -0.0665
 2255SOL    HW218399   4.021   3.271   5.876  0.7743 -0.6461 -0.4594
 2256SOL     OW18400   0.661   3.072  13.492 -0.4405  0.0354 -0.6496
 2256SOL    HW118401   0.565   3.070  13.485 -0.4041  0.3238 -1.2100
 2256SOL    HW218402   0.687   3.157  13.529  0.6769 -1.1817  1.3444
 2257SOL     OW18403   2.009   1.906   5.161  0.2524 -0.3187  0.4154
 2257SOL    HW118404   2.095   1.868   5.180  0.6967 -0.7782 -2.4722
 2257SOL    HW218405   2.016   1.987   5.211  2.1633 -0.7701  0.8860
 2258SOL     OW18406   4.575   0.471   4.369  0.4667  0.9022 -0.0404
 2258SOL    HW118407   4.614   0.405   4.312  0.1812  0.1709  0.6028
 2258SOL    HW218408   4.522   0.516   4.303 -0.0206  0.4050  0.0135
 2259SOL     OW18409   4.514   4.080   9.119 -0.3247 -0.1309 -0.2401
 2259SOL    HW118410   4.511   4.172   9.143  0.7141 -0.0162 -0.5560
 2259SOL    HW218411   4.437   4.045   9.164 -0.2493  0.8923  0.6855
 2260SOL     OW18412   2.009   3.557   7.712  0.2287 -0.3885  0.0711
 2260SOL    HW118413   1.939   3.493   7.721 -1.5768  1.5192 -0.4013
 2260SOL    HW218414   1.995   3.602   7.628 -0.9156  1.2983  1.1826
 2261SOL     OW18415   3.764   0.120   6.852 -0.4514 -0.4725 -0.5847
 2261SOL    HW118416   3.735   0.191   6.795 -1.4166 -0.3293  0.0814
 2261SOL    HW218417   3.706   0.044   6.842 -1.9156  0.6456 -0.5592
 2262SOL     OW18418   0.863   4.220   5.784  0.0243 -0.5007  0.0652
 2262SOL    HW118419   0.946   4.174   5.770 -0.8295 -2.1880  0.6289
 2262SOL    HW218420   0.822   4.148   5.831 -0.5442 -0.5042 -0.4468
 2263SOL     OW18421   1.187   1.295   6.087 -0.4283 -0.1939  0.3760
 2263SOL    HW118422   1.121   1.322   6.151  0.8727  1.4661  1.0131
 2263SOL    HW218423   1.142   1.285   6.003  0.0747  1.7438 -0.1416
 2264SOL     OW18424   0.814   3.398   8.829  0.1927  0.1844  0.5693
 2264SOL    HW118425   0.843   3.402   8.738 -2.4598 -2.4871 -0.3842
 2264SOL    HW218426   0.822   3.304   8.848 -2.4548 -0.3090 -0.8049
 2265SOL     OW18427   2.448   3.648   7.602  0.0963 -0.1458 -0.0316
 2265SOL    HW118428   2.508   3.690   7.664 -2.0249  0.9387  1.2753
 2265SOL    HW218429   2.401   3.724   7.569 -0.5393 -0.6563 -0.2958
 2266SOL     OW18430   3.530   0.168   9.041  0.0842  0.9015 -0.3443
 2266SOL    HW118431   3.555   0.211   8.959 -3.7938  1.8133 -1.0145
 2266SOL    HW218432   3.609   0.117   9.061 -1.0390 -0.0970  1.5490
 2267SOL     OW18433   2.103   4.500   6.070  0.4684  0.2451  0.1398
 2267SOL    HW118434   2.182   4.529   6.116 -0.6679 -0.2369  2.3783
 2267SOL    HW218435   2.040   4.526   6.137  0.1351  0.4003 -0.2397
 2268SOL     OW18436   2.861   1.865   6.606 -0.0452 -0.4216  0.1439
 2268SOL    HW118437   2.951   1.843   6.632 -0.3355  0.7119  2.1333
 2268SOL    HW218438   2.819   1.881   6.691  0.4136 -1.9143  0.6590
 2269SOL     OW18439   3.358   1.787  12.789 -0.2715 -0.0228  0.0276
 2269SOL    HW118440   3.438   1.838  12.787 -0.2660 -0.0063  1.0794
 2269SOL    HW218441   3.310   1.829  12.860 -2.5290 -1.4594 -0.6303
 2270SOL     OW18442   3.339   3.452   5.902 -0.1222  0.0288 -0.2276
 2270SOL    HW118443   3.393   3.388   5.949 -0.9582 -0.4395  0.0965
 2270SOL    HW218444   3.337   3.530   5.959 -0.3778 -0.5453  0.5609
 2271SOL     OW18445   1.864   3.301   0.948  0.6618  0.8517 -0.7303
 2271SOL    HW118446   1.793   3.323   1.008  0.2609 -0.4194 -0.7432
 2271SOL    HW218447   1.814   3.278   0.870 -0.2344  0.2200  0.0273
 2272SOL     OW18448   4.613   2.860   2.699 -0.1247 -0.0239 -0.0199
 2272SOL    HW118449   4.611   2.770   2.732 -0.6020 -0.0995 -0.2619
 2272SOL    HW218450   4.561   2.856   2.619 -1.8352 -0.8676  1.1247
 2273SOL     OW18451   0.380   0.668   1.946 -0.1657  0.6393 -0.1485
 2273SOL    HW118452   0.461   0.689   1.899  0.0581  2.3114  0.9757
 2273SOL    HW218453   0.334   0.626   1.874 -0.7746 -0.1722  0.7232
 2274SOL     OW18454   1.757   3.755   6.290  0.1758 -0.3552 -0.2963
 2274SOL    HW118455   1.802   3.678   6.326 -0.6362 -1.2764 -1.2565
 2274SOL    HW218456   1.826   3.778   6.229  0.0083  0.2072 -0.2713
 2275SOL     OW18457   0.877   2.376   9.103  0.0711 -0.2213  0.1220
 2275SOL    HW118458   0.937   2.364   9.176  2.4351 -0.4077 -1.8520
 2275SOL    HW218459   0.818   2.300   9.110  1.3285 -1.4122 -2.3505
 2276SOL     OW18460   4.734   1.046   7.389 -0.1940  0.0526 -0.6006
 2276SOL    HW118461   4.682   1.057   7.469  0.0929 -1.0915 -0.2560
 2276SOL    HW218462   4.675   0.989   7.340  1.5279 -2.6856  0.5373
 2277SOL     OW18463   0.582   2.983   5.640  0.0281  0.2684 -0.4414
 2277SOL    HW118464   0.612   2.912   5.583 -0.0830  0.2136 -0.4322
 2277SOL    HW218465   0.536   2.925   5.702  0.0098  0.7955  0.0318
 2278SOL     OW18466   1.997   3.961  12.540 -0.0927 -0.6002  0.2695
 2278SOL    HW118467   2.003   4.054  12.517  0.7036 -0.5875  0.5242
 2278SOL    HW218468   1.976   3.919  12.457  2.1257  1.3410 -1.2557
 2279SOL     OW18469   2.881   4.232   8.598 -0.1729  0.1902 -0.5948
 2279SOL    HW118470   2.789   4.220   8.622  0.2907 -0.6951  0.7466
 2279SOL    HW218471   2.907   4.304   8.655  4.5199  0.1484 -2.6809
 2280SOL     OW18472   0.200   4.730   0.490 -0.2993  0.4715 -0.2065
 2280SOL    HW118473   0.239   0.074   0.455  0.4529  0.1062 -0.2010
 2280SOL    HW218474   0.193   4.681   0.408  2.6217 -0.6011  0.2084
 2281SOL     OW18475   4.640   2.555   5.305  0.2770  0.8181 -0.1558
 2281SOL    HW118476   4.716   2.607   5.330 -0.8425  1.3753  2.1425
 2281SOL    HW218477   4.682   2.473   5.283 -1.2423  0.3302 -1.2323
 2282SOL     OW18478   4.002   1.538   4.071 -0.2160  0.1151  0.2898
 2282SOL    HW118479   4.074   1.598   4.091  0.1085 -0.0127 -0.4840
 2282SOL    HW218480   3.984   1.564   3.980 -1.2096 -0.0314  0.4527
 2283SOL     OW18481   3.046   0.937   5.126 -0.3681  0.3158  0.2349
 2283SOL    HW118482   3.037   1.029   5.149 -0.7548  0.5026 -0.6491
 2283SOL    HW218483   3.063   0.934   5.032 -1.1503  0.3427  0.0957
 2284SOL     OW18484   1.642   3.321   5.592 -0.3965 -0.2929 -0.2775
 2284SOL    HW118485   1.585   3.282   5.658 -2.0271  0.7520 -1.0429
 2284SOL    HW218486   1.665   3.401   5.639 -2.5092 -0.7459  1.5127
 2285SOL     OW18487   1.262   0.672  12.202  0.5333 -0.0753 -0.0492
 2285SOL    HW118488   1.345   0.625  12.200  0.2768 -0.5638  0.8054
 2285SOL    HW218489   1.200   0.608  12.238 -0.6541  2.1405  1.9127
 2286SOL     OW18490   3.770   3.980   1.619 -0.2358  0.3111 -0.5464
 2286SOL    HW118491   3.817   4.062   1.604  0.6916 -0.1369 -0.0977
 2286SOL    HW218492   3.700   4.009   1.678  1.0760 -0.1842  1.2639
 2287SOL     OW18493   2.521   3.916   8.773 -0.2250  0.0497  0.1837
 2287SOL    HW118494   2.454   3.851   8.795 -0.8264 -0.1270 -2.1879
 2287SOL    HW218495   2.468   3.990   8.742 -0.3106  0.2730  0.8457
 2288SOL     OW18496   1.735   0.121   6.745  0.2470  0.1797  0.6377
 2288SOL    HW118497   1.824   0.096   6.770  1.2585  0.1890 -2.9218
 2288SOL    HW218498   1.702   0.055   6.684  3.1735 -1.2466  0.6027
 2289SOL     OW18499   0.985   0.215  17.407 -0.0140 -0.4734  0.1830
 2289SOL    HW118500   1.047   0.244  17.474  0.2920  1.1563 -0.8158
 2289SOL    HW218501   0.919   0.283  17.421 -1.9287 -2.5357  1.2323
 2290SOL     OW18502   1.744   4.136   9.514  0.3847  0.0551 -0.2424
 2290SOL    HW118503   1.712   4.123   9.603 -0.2855 -0.8824 -0.6300
 2290SOL    HW218504   1.677   4.103   9.454  1.4550 -0.6796 -1.0456
 2291SOL     OW18505   0.136   1.491   6.948  0.5701  0.0462 -0.1614
 2291SOL    HW118506   0.046   1.481   6.979  0.9364 -2.2418  0.1856
 2291SOL    HW218507   0.156   1.399   6.966  2.0478  0.6535  1.2241
 2292SOL     OW18508   0.356   3.957   4.348 -0.0617 -0.3859  0.1203
 2292SOL    HW118509   0.434   3.922   4.391 -1.8774 -5.1902 -0.5055
 2292SOL    HW218510   0.305   3.879   4.329 -1.9843  0.9712 -0.2864
 2293SOL     OW18511   2.399   4.327   9.889 -0.5291  0.3663  0.4314
 2293SOL    HW118512   2.330   4.343   9.953  0.0135 -1.9524  1.5849
 2293SOL    HW218513   2.341   4.317   9.813  1.0052 -0.6401 -0.6064
 2294SOL     OW18514   0.986   2.758   5.014 -0.2061  0.1057 -0.6223
 2294SOL    HW118515   1.040   2.835   4.996  1.9724 -0.9592  1.3288
 2294SOL    HW218516   1.043   2.686   4.987  0.2807  0.5177 -0.6981
 2295SOL     OW18517   0.367   1.877  12.877  0.7512  0.0184 -0.4351
 2295SOL    HW118518   0.375   1.973  12.874  2.0357 -0.0909 -0.4065
 2295SOL    HW218519   0.454   1.853  12.906  0.6749  0.4688  0.1623
 2296SOL     OW18520   1.530   0.429   3.531 -0.4090  0.3876  0.3841
 2296SOL    HW118521   1.460   0.437   3.595 -0.9161 -0.2164 -0.0932
 2296SOL    HW218522   1.568   0.516   3.543  0.9322  0.0363 -1.2760
 2297SOL     OW18523   1.153   0.553   2.531 -0.3052  0.3982 -0.5194
 2297SOL    HW118524   1.167   0.638   2.489 -3.2287 -0.1259 -2.5268
 2297SOL    HW218525   1.087   0.510   2.477  0.7421  1.1698 -2.4266
 2298SOL     OW18526   0.623   0.625   3.443  0.1399  0.5542 -0.0518
 2298SOL    HW118527   0.543   0.589   3.404  0.6543 -0.7957  0.1503
 2298SOL    HW218528   0.603   0.719   3.439  0.9953  0.6626 -1.6445
 2299SOL     OW18529   3.028   2.341  10.835 -0.2030 -0.1366  0.2744
 2299SOL    HW118530   2.990   2.268  10.884 -1.2332  0.2708  0.0960
 2299SOL    HW218531   2.953   2.364  10.779  1.7537 -1.0009 -2.7020
 2300SOL     OW18532   0.285   2.051   6.578 -0.3060 -0.6190  0.1252
 2300SOL    HW118533   0.336   1.977   6.611  1.3806 -0.0093 -1.1454
 2300SOL    HW218534   0.205   2.007   6.550 -2.0587  2.8001 -0.3519
 2301SOL     OW18535   1.101   2.899  12.882  0.8373 -0.3818  0.3220
 2301SOL    HW118536   1.188   2.885  12.845  0.4832 -2.0088  0.0847
 2301SOL    HW218537   1.131   2.960  12.950  2.3740 -0.5014 -0.2406
 2302SOL     OW18538   3.448   4.210   7.041 -0.2569 -0.1083 -0.9197
 2302SOL    HW118539   3.473   4.160   7.120  1.2608  0.1243 -1.2420
 2302SOL    HW218540   3.532   4.206   6.995  0.5530  1.1182  0.4358
 2303SOL     OW18541   0.864   3.055   8.236  0.4990  0.3360  0.5859
 2303SOL    HW118542   0.825   3.041   8.150  0.1814 -0.5156  0.8624
 2303SOL    HW218543   0.906   2.969   8.244  1.4120  0.6458 -0.8825
 2304SOL     OW18544   1.011   4.339   8.457  0.2994  0.0495 -0.5642
 2304SOL    HW118545   0.971   4.252   8.463  2.3939 -0.9104 -0.7111
 2304SOL    HW218546   1.061   4.342   8.538  0.2561 -0.3141 -0.5233
 2305SOL     OW18547   2.338   0.729   9.054 -0.1300 -0.2077  0.2014
 2305SOL    HW118548   2.321   0.816   9.091 -0.0528 -0.8168  1.6440
 2305SOL    HW218549   2.332   0.728   8.958  0.8714 -1.4222  0.1559
 2306SOL     OW18550   2.424   1.932  14.302  0.2998  0.1026 -0.0670
 2306SOL    HW118551   2.375   1.932  14.384  1.1516  1.7310  0.4425
 2306SOL    HW218552   2.502   1.982  14.328 -1.1855  1.9253  0.8655
 2307SOL     OW18553   0.107   4.134   5.715 -0.0434 -0.3905 -0.3311
 2307SOL    HW118554   0.188   4.100   5.755  0.1975 -0.1606 -0.6246
 2307SOL    HW218555   0.130   4.127   5.623  0.8761 -1.4025 -0.0316
 2308SOL     OW18556   3.627   4.018  13.203  0.2331  0.6868  0.5219
 2308SOL    HW118557   3.711   4.018  13.249  0.8619  2.3587 -0.6065
 2308SOL    HW218558   3.601   4.111  13.204 -0.0774  0.5744  2.4908
 2309SOL     OW18559   3.911   0.377   3.706 -0.3693 -0.2003 -0.0302
 2309SOL    HW118560   3.821   0.397   3.732  0.6440  2.8121  1.1050
 2309SOL    HW218561   3.903   0.397   3.613 -1.2537 -0.3594  0.0105
 2310SOL     OW18562   1.586   4.011   9.337 -0.4689 -0.4407 -0.4396
 2310SOL    HW118563   1.529   4.075   9.381 -2.2184 -2.4617  0.2263
 2310SOL    HW218564   1.518   3.988   9.273 -0.1832 -0.0774 -0.8785
 2311SOL     OW18565   3.831   2.305   5.752  0.3166  0.2441  0.4731
 2311SOL    HW118566   3.917   2.301   5.793 -0.9827 -0.4127  3.1044
 2311SOL    HW218567   3.839   2.244   5.679  3.2945  0.7355  0.3834
 2312SOL     OW18568   2.459   0.849   6.322 -0.3529 -0.4756  0.1449
 2312SOL    HW118569   2.524   0.828   6.388  0.9835  0.1466 -0.9643
 2312SOL    HW218570   2.381   0.801   6.349 -1.0534  0.7616  0.3364
 2313SOL     OW18571   2.619   2.405   3.507  0.1762  0.2413  1.2657
 2313SOL    HW118572   2.625   2.434   3.416 -0.5017  0.5182  1.3079
 2313SOL    HW218573   2.550   2.464   3.536  0.0230  0.1688  1.0490
 2314SOL     OW18574   0.396   1.725   5.697  0.0726  0.2618  0.7592
 2314SOL    HW118575   0.324   1.704   5.638  0.8391  0.3238 -0.1894
 2314SOL    HW218576   0.345   1.752   5.774 -1.6173  0.4297 -0.4382
 2315SOL     OW18577   3.326   0.408  10.653 -0.4495  0.4955  0.1695
 2315SOL    HW118578   3.396   0.447  10.600  1.0610 -2.9933 -0.3687
 2315SOL    HW218579   3.376   0.371  10.726 -0.6214 -1.4867 -0.7272
 2316SOL     OW18580   1.779   4.238   4.140  0.1173  0.7860  0.9185
 2316SOL    HW118581   1.740   4.169   4.194  1.6772 -1.0397 -0.2905
 2316SOL    HW218582   1.798   4.308   4.202  0.5016  0.0256  1.6516
 2317SOL     OW18583   1.637   4.310   3.034  0.3000 -0.1265 -0.2599
 2317SOL    HW118584   1.608   4.390   2.990 -0.8393  0.2325  1.1519
 2317SOL    HW218585   1.553   4.271   3.057  0.8611 -0.7915  0.6510
 2318SOL     OW18586   2.853   3.569   8.642  0.1628  0.4578 -0.7083
 2318SOL    HW118587   2.935   3.533   8.675 -1.3260 -1.7433  0.6115
 2318SOL    HW218588   2.859   3.658   8.676  1.7342 -0.0523  0.3851
 2319SOL     OW18589   0.205   1.280   3.424  0.6258 -0.6484 -0.0887
 2319SOL    HW118590   0.195   1.257   3.517  1.3033 -0.1582  0.1118
 2319SOL    HW218591   0.293   1.244   3.410  1.2825  1.2302 -0.8251
 2320SOL     OW18592   2.558   2.689   3.841  0.2343 -0.2401 -0.4727
 2320SOL    HW118593   2.630   2.643   3.885  1.9697  1.5683 -1.3946
 2320SOL    HW218594   2.606   2.714   3.762 -0.6837  0.0016 -0.9543
 2321SOL     OW18595   3.816   2.395   6.027  0.4354  0.1300  0.0883
 2321SOL    HW118596   3.769   2.382   5.944 -0.0073  2.2220  0.0332
 2321SOL    HW218597   3.906   2.372   6.004 -0.7047 -2.1037 -2.2470
 2322SOL     OW18598   2.502   3.553   4.467 -0.0135 -0.6258  0.1791
 2322SOL    HW118599   2.555   3.572   4.389  0.6804 -0.8288  0.5970
 2322SOL    HW218600   2.481   3.460   4.456 -0.7766 -0.3782 -0.4515
 2323SOL     OW18601   1.358   3.755   7.408 -0.4606 -0.1098 -0.4059
 2323SOL    HW118602   1.406   3.833   7.380  1.7259 -1.1832  0.4424
 2323SOL    HW218603   1.409   3.679   7.380 -0.6937 -0.3373 -0.2136
 2324SOL     OW18604   2.822   0.829   7.226  0.1538 -0.3116  0.2615
 2324SOL    HW118605   2.788   0.807   7.140 -2.8263 -1.5335  1.7503
 2324SOL    HW218606   2.877   0.905   7.206 -2.7819  0.9830 -2.8996
 2325SOL     OW18607   0.157   1.543   3.419 -0.0811 -0.1015 -0.2647
 2325SOL    HW118608   0.235   1.578   3.462  1.1746 -0.7634 -2.0201
 2325SOL    HW218609   0.162   1.447   3.418  2.9384  0.0548 -0.5840
 2326SOL     OW18610   2.354   0.807   1.220 -0.6520 -0.2775 -0.2206
 2326SOL    HW118611   2.337   0.811   1.126  2.1729  0.2043 -0.6813
 2326SOL    HW218612   2.265   0.780   1.247 -1.0431 -0.8400 -2.1074
 2327SOL     OW18613   3.768   0.570   2.472 -0.3123  0.2082  0.2961
 2327SOL    HW118614   3.827   0.500   2.500 -2.2222 -1.2044  0.8240
 2327SOL    HW218615   3.747   0.532   2.387  1.1770  1.0671 -0.4429
 2328SOL     OW18616   0.480   3.971   3.337  0.1478 -0.3632  0.2765
 2328SOL    HW118617   0.386   3.986   3.331  0.5147  1.9768  0.6573
 2328SOL    HW218618   0.503   3.929   3.254 -2.1933  1.6627 -1.3828
 2329SOL     OW18619   0.382   3.232  13.648  0.7073 -0.7662 -0.0018
 2329SOL    HW118620   0.340   3.155  13.611 -2.7734  0.5038  1.3341
 2329SOL    HW218621   0.309   3.275  13.692 -0.2686 -2.3469 -0.0545
 2330SOL     OW18622   1.778   3.864   5.175  0.1208 -0.0312  0.3749
 2330SOL    HW118623   1.832   3.881   5.097 -0.2489  0.0019  0.1280
 2330SOL    HW218624   1.842   3.819   5.230  2.0039  2.1376 -0.0494
 2331SOL     OW18625   1.011   2.564  10.317  0.1008  0.8391 -0.1716
 2331SOL    HW118626   0.968   2.600  10.395 -0.4495 -0.2392  0.0239
 2331SOL    HW218627   1.032   2.475  10.346  0.4954  0.2794 -2.2098
 2332SOL     OW18628   0.969   1.489   3.743  0.2352 -0.3487 -0.0896
 2332SOL    HW118629   1.006   1.534   3.819  1.8673  0.4230 -1.3466
 2332SOL    HW218630   1.018   1.408   3.733  1.3192  0.5973 -2.5940
 2333SOL     OW18631   0.198   3.337   9.453  0.5009  0.1691 -0.0807
 2333SOL    HW118632   0.247   3.293   9.523  0.9137 -3.2016 -2.5059
 2333SOL    HW218633   0.212   3.272   9.384  1.2053 -0.4926  0.6724
 2334SOL     OW18634   2.552   3.090   9.382  0.8183 -0.2516  0.2159
 2334SOL    HW118635   2.577   3.182   9.369 -0.3624  0.4883  3.1195
 2334SOL    HW218636   2.544   3.090   9.477 -1.0018 -2.4538  0.0533
 2335SOL     OW18637   2.981   3.425   5.188 -0.0120  0.7721 -0.0250
 2335SOL    HW118638   3.018   3.506   5.222  1.1482  1.0236 -1.9064
 2335SOL    HW218639   3.030   3.356   5.232 -1.6913  0.6340  1.6231
 2336SOL     OW18640   3.911   2.412   3.352 -0.8663  0.1279 -0.3631
 2336SOL    HW118641   3.913   2.430   3.258  1.5297 -1.3997 -0.6041
 2336SOL    HW218642   3.886   2.500   3.378 -0.0149  0.2708 -0.0344
 2337SOL     OW18643   0.434   0.770   7.931  0.4123  0.0284  0.1603
 2337SOL    HW118644   0.426   0.712   8.008 -0.6372  2.1881  1.6667
 2337SOL    HW218645   0.471   0.714   7.862 -2.4720 -1.8467  0.1131
 2338SOL     OW18646   1.797   1.188   4.899 -0.2498  0.9110  0.3518
 2338SOL    HW118647   1.839   1.231   4.824  0.9470 -0.6321  0.1344
 2338SOL    HW218648   1.729   1.131   4.864  0.2341  1.3249 -1.2630
 2339SOL     OW18649   3.249   0.671   5.711 -0.2153  0.6895 -0.5246
 2339SOL    HW118650   3.297   0.749   5.740  1.3950  0.3008 -2.1210
 2339SOL    HW218651   3.310   0.598   5.721 -0.5024  0.4602 -0.4462
 2340SOL     OW18652   4.038   1.702  16.141  0.4760 -0.6670  0.3060
 2340SOL    HW118653   3.955   1.658  16.155  0.4831 -0.8251 -0.1653
 2340SOL    HW218654   4.022   1.797  16.146  0.5251 -0.6418 -0.0234
 2341SOL     OW18655   1.453   2.392   2.930  1.0323  0.1348 -0.1584
 2341SOL    HW118656   1.545   2.369   2.938  0.6618 -2.5271 -3.3804
 2341SOL    HW218657   1.420   2.324   2.870  1.7525 -1.2646  1.0596
 2342SOL     OW18658   1.431   3.916   9.130  0.1381 -0.2243  0.1396
 2342SOL    HW118659   1.377   3.838   9.141 -0.9761  0.5328  0.1203
 2342SOL    HW218660   1.508   3.883   9.084  0.4424 -0.1726  0.6137
 2343SOL     OW18661   2.515   1.733   0.226  0.6633  0.5236  0.3574
 2343SOL    HW118662   2.514   1.646   0.185 -2.8943  0.2374  1.0236
 2343SOL    HW218663   2.431   1.737   0.274 -0.1084  1.7214 -1.1018
 2344SOL     OW18664   4.572   3.850   8.034  0.5710 -0.2112 -0.2328
 2344SOL    HW118665   4.484   3.872   8.002  0.8642  2.2552  0.6020
 2344SOL    HW218666   4.611   3.817   7.954  3.4502  0.1391  1.0343
 2345SOL     OW18667   2.207   3.055   9.539 -0.2399  0.2333 -0.2332
 2345SOL    HW118668   2.250   3.083   9.620 -0.5759  0.8794 -0.2814
 2345SOL    HW218669   2.274   3.020   9.480 -2.1707 -1.7565 -1.2063
 2346SOL     OW18670   3.638   4.112   2.049  0.1904  0.0848 -0.3090
 2346SOL    HW118671   3.633   4.122   2.144  1.0845  1.3026 -0.3854
 2346SOL    HW218672   3.688   4.032   2.036 -0.2363  0.0776 -1.9251
 2347SOL     OW18673   2.980   3.986   8.507  0.4560 -0.3493 -0.2874
 2347SOL    HW118674   2.901   3.950   8.548  0.6734 -3.1649 -2.3385
 2347SOL    HW218675   2.954   4.077   8.497  0.6103 -0.1392  1.1999
 2348SOL     OW18676   1.771   0.471  10.793 -0.3791 -0.3745  0.4647
 2348SOL    HW118677   1.743   0.479  10.702 -0.9945  0.8100  0.7682
 2348SOL    HW218678   1.823   0.390  10.783  0.7265  0.4615 -0.5102
 2349SOL     OW18679   3.302   0.359  10.354 -0.4884 -0.9427  0.8276
 2349SOL    HW118680   3.213   0.389  10.339 -0.2515 -0.6896 -0.0529
 2349SOL    HW218681   3.295   0.354  10.450  0.5603  0.0646  0.9511
 2350SOL     OW18682   0.751   0.577  15.961 -0.3121  0.0059  0.2102
 2350SOL    HW118683   0.682   0.562  15.897  1.1077 -1.1674 -1.0497
 2350SOL    HW218684   0.828   0.579  15.904 -1.4843  1.4030 -1.3238
 2351SOL     OW18685   2.799   0.180   2.063 -0.2323  0.3737  0.3554
 2351SOL    HW118686   2.712   0.166   2.026  0.0247  2.0066 -0.8491
 2351SOL    HW218687   2.813   0.272   2.042 -3.4647  0.7630 -0.1231
 2352SOL     OW18688   0.378   3.665  14.831  0.9027 -0.6973  0.1621
 2352SOL    HW118689   0.319   3.740  14.818  0.7850 -0.4699  2.0706
 2352SOL    HW218690   0.333   3.590  14.792  0.5256 -0.3888  0.0034
 2353SOL     OW18691   1.944   0.371  12.077 -0.4635 -0.6240 -0.2343
 2353SOL    HW118692   1.930   0.419  12.158 -2.1726  0.1658 -1.0206
 2353SOL    HW218693   2.010   0.305  12.101  0.9883  0.0030 -2.4174
 2354SOL     OW18694   1.188   4.330  10.110  0.1414  0.5307 -0.2311
 2354SOL    HW118695   1.150   4.378  10.184 -2.4747 -0.2600 -1.0919
 2354SOL    HW218696   1.247   4.270  10.157 -0.7793  0.7614  1.2418
 2355SOL     OW18697   2.671   1.432  17.517  0.5112  0.2728  0.0143
 2355SOL    HW118698   2.709   1.478  17.592  1.3762  1.5907 -1.2250
 2355SOL    HW218699   2.666   1.350  17.566  0.3579 -0.7436 -1.6618
 2356SOL     OW18700   0.852   1.869   3.761  0.2705 -0.3369 -0.5784
 2356SOL    HW118701   0.933   1.908   3.727 -0.5210  1.0059 -0.9262
 2356SOL    HW218702   0.791   1.941   3.777 -0.8852 -1.3036 -0.6648
 2357SOL     OW18703   1.746   0.973  16.836 -0.2211 -0.4242  0.1189
 2357SOL    HW118704   1.672   0.924  16.802 -0.1298  0.4709 -1.3758
 2357SOL    HW218705   1.753   1.035  16.763  0.2881 -0.6237  0.0010
 2358SOL     OW18706   1.730   2.567   9.939  0.3239 -0.4044 -0.2575
 2358SOL    HW118707   1.784   2.527  10.007  0.8482 -1.6323 -1.4043
 2358SOL    HW218708   1.735   2.661   9.955  2.3843 -0.5500 -0.1032
 2359SOL     OW18709   1.611   0.440   7.757 -0.4466  0.8662 -0.3411
 2359SOL    HW118710   1.600   0.495   7.680  1.6839  0.0043 -1.2796
 2359SOL    HW218711   1.532   0.458   7.808  0.2093 -2.4267  1.8617
 2360SOL     OW18712   4.594   1.614   7.055  0.5590 -0.9155 -0.4581
 2360SOL    HW118713   4.654   1.595   7.127  0.7550  2.9443  0.3733
 2360SOL    HW218714   4.561   1.697   7.088 -0.3937 -0.7167 -1.9217
 2361SOL     OW18715   3.935   2.998   7.335 -0.1626 -0.0346 -0.2709
 2361SOL    HW118716   3.972   2.984   7.248 -0.8582 -2.0475 -0.2377
 2361SOL    HW218717   3.846   2.967   7.320 -0.0900  0.2002 -1.1953
 2362SOL     OW18718   0.648   4.379   0.489 -0.2288 -0.2679  0.3169
 2362SOL    HW118719   0.644   4.455   0.548 -1.3171  0.7543 -1.0602
 2362SOL    HW218720   0.741   4.373   0.468  0.2194 -0.9234  2.5439
 2363SOL     OW18721   4.129   0.514   8.123  0.2960  0.3655 -0.1938
 2363SOL    HW118722   4.214   0.507   8.079 -0.2891  1.3724 -1.4797
 2363SOL    HW218723   4.066   0.534   8.054 -0.2768 -2.2904 -0.4648
 2364SOL     OW18724   2.205   4.001   6.060  1.0870 -0.3073 -1.0455
 2364SOL    HW118725   2.209   4.016   6.154 -0.7320 -2.5657 -0.5966
 2364SOL    HW218726   2.220   4.086   6.019  1.3225  0.6483  1.0326
 2365SOL     OW18727   4.604   2.266  12.417 -0.0233  0.6048  0.6690
 2365SOL    HW118728   4.589   2.312  12.335  3.1797 -0.6203 -0.6064
 2365SOL    HW218729   4.660   2.326  12.467 -0.1306  1.2149  0.0450
 2366SOL     OW18730   2.644   3.021   5.995 -0.0125  0.2628  0.0293
 2366SOL    HW118731   2.623   2.939   5.951  0.3834  1.0073 -1.5389
 2366SOL    HW218732   2.623   2.994   6.085 -0.0905 -1.5501 -0.5230
 2367SOL     OW18733   4.638   0.436   1.655 -0.5853 -0.0998  0.1014
 2367SOL    HW118734   4.682   0.397   1.731 -2.1270 -1.6192  0.1972
 2367SOL    HW218735   4.553   0.453   1.696 -0.5951 -1.4208  0.6275
 2368SOL     OW18736   0.371   1.896   6.938 -0.0500 -0.0867 -0.2714
 2368SOL    HW118737   0.436   1.827   6.949  0.0089 -0.1688 -1.0876
 2368SOL    HW218738   0.301   1.837   6.911 -0.4800 -0.8375  2.4930
 2369SOL     OW18739   3.947   3.998   2.493 -0.0300 -0.2936  0.5741
 2369SOL    HW118740   3.918   3.945   2.568  2.5216 -3.4837 -0.6694
 2369SOL    HW218741   3.910   3.944   2.423  0.3736 -1.5237  1.3107
 2370SOL     OW18742   0.393   3.979  10.374  0.0236  0.6969 -0.1045
 2370SOL    HW118743   0.484   3.965  10.348  0.2823 -0.6339  1.5051
 2370SOL    HW218744   0.362   3.893  10.345  0.4397  0.4004  0.3271
 2371SOL     OW18745   4.488   1.002  12.827  0.7796 -0.1303  0.0042
 2371SOL    HW118746   4.510   1.092  12.848 -0.1922  0.2265 -0.5076
 2371SOL    HW218747   4.392   1.002  12.829  0.8235  1.7680  1.8876
 2372SOL     OW18748   1.127   3.272   2.859 -0.1868 -0.6007 -0.3664
 2372SOL    HW118749   1.170   3.201   2.812 -0.4669  0.5742 -2.3683
 2372SOL    HW218750   1.092   3.311   2.779  0.2249  1.7286  0.6131
 2373SOL     OW18751   3.880   1.149   4.892 -0.4529  0.1023 -0.6507
 2373SOL    HW118752   3.936   1.157   4.814 -2.0256 -0.8519 -1.9022
 2373SOL    HW218753   3.809   1.207   4.863 -0.1747  1.2965  1.1215
 2374SOL     OW18754   2.988   3.917   3.547 -0.3115  0.0663 -0.2479
 2374SOL    HW118755   2.946   3.992   3.506 -0.9418 -0.8222 -1.2593
 2374SOL    HW218756   2.921   3.897   3.612 -0.2304  1.7647  0.3428
 2375SOL     OW18757   1.761   0.032  13.823 -0.6364  0.5029 -0.4127
 2375SOL    HW118758   1.729   4.680  13.805  0.5893 -0.2540  1.1176
 2375SOL    HW218759   1.848   0.021  13.787 -0.9967 -0.2336 -1.0561
 2376SOL     OW18760   1.214   1.376   9.193 -0.2743 -0.4923  0.3466
 2376SOL    HW118761   1.307   1.380   9.171 -1.1954  2.3836 -2.9935
 2376SOL    HW218762   1.192   1.288   9.163 -1.2637 -0.6043  1.3980
 2377SOL     OW18763   4.074   3.859  17.666  1.0765 -0.0242 -0.1130
 2377SOL    HW118764   3.996   3.849  17.611  2.5741  2.6461 -2.6878
 2377SOL    HW218765   4.055   3.790  17.730 -0.5056  0.2434 -0.2963
 2378SOL     OW18766   4.622   0.014   4.054  0.1043 -0.0297 -0.1584
 2378SOL    HW118767   4.620   0.109   4.068  1.8075 -0.0164  0.0317
 2378SOL    HW218768   4.534   4.728   4.024  0.0796  1.9312 -1.4984
 2379SOL     OW18769   1.613   1.378   7.522  0.3479 -0.4385  0.5409
 2379SOL    HW118770   1.580   1.291   7.543  2.6017 -1.0607  1.5922
 2379SOL    HW218771   1.605   1.424   7.606  0.3579  2.9293 -1.3037
 2380SOL     OW18772   3.754   1.056  17.389  0.2713  0.0788  0.6534
 2380SOL    HW118773   3.660   1.059  17.409  0.2271  2.6658  0.1031
 2380SOL    HW218774   3.746   0.965  17.362 -1.0217 -0.1293  1.6960
 2381SOL     OW18775   2.122   3.054  15.278 -0.0327  0.2735 -0.4575
 2381SOL    HW118776   2.184   3.116  15.241  0.7018  0.8148  1.6887
 2381SOL    HW218777   2.075   3.111  15.340  0.3192  0.2801 -0.1939
 2382SOL     OW18778   2.004   1.122   5.719 -0.1354 -0.6861 -0.6932
 2382SOL    HW118779   1.912   1.118   5.744 -0.2244 -0.2349 -0.9550
 2382SOL    HW218780   2.045   1.129   5.805 -0.6009 -2.3049 -0.3387
 2383SOL     OW18781   0.499   3.113   9.476 -0.1222  0.4877  0.5801
 2383SOL    HW118782   0.500   3.120   9.381  2.7487  1.7156  0.7009
 2383SOL    HW218783   0.509   3.020   9.498  0.1403  0.5279  0.6288
 2384SOL     OW18784   2.791   1.320   7.074 -0.0982 -0.0706  0.6852
 2384SOL    HW118785   2.780   1.411   7.099 -0.6218 -0.3318  1.4065
 2384SOL    HW218786   2.795   1.340   6.980 -1.8235 -4.0299 -0.2274
 2385SOL     OW18787   1.508   4.301   5.565  0.5155  0.2782  1.1863
 2385SOL    HW118788   1.591   4.348   5.552 -0.4642  1.3879 -1.0662
 2385SOL    HW218789   1.502   4.292   5.660  2.2644  0.3837  1.3055
 2386SOL     OW18790   2.392   3.419   1.294  0.6656 -0.0272  0.4430
 2386SOL    HW118791   2.357   3.418   1.205  0.5025  0.4938  0.5008
 2386SOL    HW218792   2.472   3.470   1.284  1.4183 -1.1765  0.7206
 2387SOL     OW18793   3.673   3.499   1.593 -0.5610 -0.0558  0.2287
 2387SOL    HW118794   3.759   3.539   1.593 -0.2745 -0.6707  0.4935
 2387SOL    HW218795   3.629   3.549   1.662  0.8343 -1.2131  1.9414
 2388SOL     OW18796   3.239   0.660   6.035 -0.1577 -0.2123  0.5583
 2388SOL    HW118797   3.215   0.677   5.944  0.5002 -2.6889 -0.0851
 2388SOL    HW218798   3.159   0.688   6.078  1.2365  2.5575  1.3773
 2389SOL     OW18799   4.514   0.722   1.443  0.8239  0.2131 -0.0460
 2389SOL    HW118800   4.447   0.768   1.391 -1.3275  0.6739  3.1515
 2389SOL    HW218801   4.525   0.651   1.380 -1.1852  1.5941 -1.9701
 2390SOL     OW18802   1.931   1.881   4.433 -0.2672  0.2295 -0.7920
 2390SOL    HW118803   2.018   1.862   4.400  0.8146  2.7920  0.5657
 2390SOL    HW218804   1.886   1.929   4.363 -0.9583 -0.7337 -0.9994
 2391SOL     OW18805   4.351   4.364   3.478 -0.6181  0.3378  0.1153
 2391SOL    HW118806   4.332   4.359   3.572  0.6064  1.1468  0.4075
 2391SOL    HW218807   4.357   4.459   3.466  0.0233  0.3138  0.2471
 2392SOL     OW18808   0.572   1.823   4.785 -0.1123  0.3255 -0.0169
 2392SOL    HW118809   0.517   1.864   4.852  0.1064  0.9826 -0.2372
 2392SOL    HW218810   0.651   1.822   4.839 -1.2597 -0.3932  1.6585
 2393SOL     OW18811   4.140   3.859   1.575 -0.1814  0.2143 -0.1890
 2393SOL    HW118812   4.128   3.799   1.649 -0.0508  0.7888  0.2919
 2393SOL    HW218813   4.094   3.810   1.507 -1.5100 -0.5003  1.2054
 2394SOL     OW18814   1.001   0.368   1.782  0.1056 -0.2447 -0.1407
 2394SOL    HW118815   1.011   0.459   1.810 -1.9527  0.3114 -1.1762
 2394SOL    HW218816   0.967   0.329   1.863 -0.8713 -0.0584 -0.4551
 2395SOL     OW18817   3.520   1.000  11.966 -0.3945 -0.0779 -0.6598
 2395SOL    HW118818   3.613   1.003  11.988 -0.6621 -0.3224  0.4602
 2395SOL    HW218819   3.500   0.961  12.051  1.6410 -1.5441 -0.8547
 2396SOL     OW18820   1.994   2.570   6.126  0.5132  0.5695 -0.5519
 2396SOL    HW118821   1.985   2.499   6.190 -1.1296  1.4337  0.1945
 2396SOL    HW218822   2.065   2.545   6.067  0.2892 -0.9514 -0.1654
 2397SOL     OW18823   2.459   0.779   2.660 -0.3124  0.0072  0.3365
 2397SOL    HW118824   2.508   0.792   2.741 -2.4436 -1.0216  1.8317
 2397SOL    HW218825   2.532   0.784   2.599 -1.7905  1.2190 -1.3195
 2398SOL     OW18826   2.286   0.257   6.774 -0.8165  0.1032  0.2857
 2398SOL    HW118827   2.342   0.236   6.699 -0.4551  0.3422  0.4901
 2398SOL    HW218828   2.292   0.174   6.822  1.5805 -0.6055 -1.2563
 2399SOL     OW18829   2.298   4.540   1.951 -0.0885  0.8359 -0.4509
 2399SOL    HW118830   2.293   4.573   2.041  0.5377  3.4845 -1.3792
 2399SOL    HW218831   2.281   4.619   1.900 -1.5575  0.4470 -0.5518
 2400SOL     OW18832   1.808   0.975   8.145 -0.3235 -0.3798  0.4418
 2400SOL    HW118833   1.813   0.895   8.196 -1.1077  2.2687  4.7006
 2400SOL    HW218834   1.737   0.962   8.082  0.2120  0.7959 -0.4236
 2401SOL     OW18835   0.808   2.743  17.412 -0.2339  0.0426  0.2779
 2401SOL    HW118836   0.745   2.804  17.375 -2.4026 -2.0978  0.4022
 2401SOL    HW218837   0.812   2.680  17.340  1.1387  1.4995 -0.9327
 2402SOL     OW18838   3.048   1.000   4.797  0.3163 -0.3852  0.0975
 2402SOL    HW118839   3.007   0.967   4.717  0.2452  1.0209 -0.4498
 2402SOL    HW218840   3.114   1.061   4.762  2.7083 -3.2501 -0.4535
 2403SOL     OW18841   3.783   4.183   6.317 -0.1783  0.0394 -0.1863
 2403SOL    HW118842   3.690   4.165   6.303  0.6375 -3.7138 -0.8387
 2403SOL    HW218843   3.823   4.197   6.231  0.6745  0.2785  0.2515
 2404SOL     OW18844   3.990   2.452   8.572  0.0471 -0.1330 -0.7209
 2404SOL    HW118845   3.908   2.497   8.553  0.1911  0.3862 -0.1010
 2404SOL    HW218846   3.973   2.359   8.588 -3.1416  0.4496 -0.6881
 2405SOL     OW18847   2.943   1.500  13.824  0.4321  0.1740  0.0758
 2405SOL    HW118848   2.899   1.488  13.740  0.3105  3.3221 -0.3380
 2405SOL    HW218849   2.868   1.521  13.880 -0.0124  0.4688 -0.6207
 2406SOL     OW18850   2.629   4.001   9.043  0.6233 -0.0860 -0.1768
 2406SOL    HW118851   2.662   3.945   9.114  0.0375  0.8500  0.8369
 2406SOL    HW218852   2.654   3.958   8.961 -0.6430 -0.4600 -0.3660
 2407SOL     OW18853   3.312   0.296   3.362 -0.1946 -0.4066  0.2581
 2407SOL    HW118854   3.220   0.306   3.386 -0.1908 -0.2766  0.2189
 2407SOL    HW218855   3.305   0.220   3.305 -0.0430  0.2942 -0.6858
 2408SOL     OW18856   4.166   4.472  12.268  0.3212 -0.0037 -0.0780
 2408SOL    HW118857   4.220   4.478  12.347  0.7626  0.1985 -0.4000
 2408SOL    HW218858   4.077   4.482  12.302  0.1447 -1.6543 -0.0813
 2409SOL     OW18859   3.703   0.827   3.202  0.6039  0.6661  0.0138
 2409SOL    HW118860   3.636   0.891   3.177 -0.0108  0.0456  0.0710
 2409SOL    HW218861   3.653   0.746   3.193  1.1625  0.2435  0.6016
 2410SOL     OW18862   1.463   3.122   3.364 -0.5798  0.0599 -0.1750
 2410SOL    HW118863   1.550   3.093   3.391  0.0457  1.1050 -1.0483
 2410SOL    HW218864   1.412   3.104   3.443  1.5563 -1.4022  0.8762
 2411SOL     OW18865   0.127   2.831   7.735 -0.7020 -0.0110 -0.0479
 2411SOL    HW118866   0.075   2.854   7.812 -0.6026  0.0274  0.0076
 2411SOL    HW218867   0.074   2.868   7.664 -0.9742 -1.4332 -0.5856
 2412SOL     OW18868   3.937   0.736  17.651  0.1388  0.3145  0.2705
 2412SOL    HW118869   3.854   0.778  17.672 -0.4009  0.2028 -1.6180
 2412SOL    HW218870   3.955   0.775  17.565 -1.1919 -0.1426 -0.2099
 2413SOL     OW18871   2.830   4.147   2.193  0.5948 -0.2083  0.6741
 2413SOL    HW118872   2.909   4.104   2.225  1.5593  1.1125  0.1079
 2413SOL    HW218873   2.863   4.236   2.179 -0.8856 -0.0586 -2.0333
 2414SOL     OW18874   0.573   0.493   7.199 -0.0964  0.0956 -0.7047
 2414SOL    HW118875   0.539   0.425   7.258 -0.4010  0.4930 -0.4198
 2414SOL    HW218876   0.535   0.570   7.241 -0.3016 -1.2903  1.6774
 2415SOL     OW18877   2.699   0.708   3.562  0.3619 -0.3277 -0.0171
 2415SOL    HW118878   2.680   0.726   3.470 -1.6802 -0.4635  0.3798
 2415SOL    HW218879   2.777   0.761   3.579 -0.3638  1.2326 -1.5806
 2416SOL     OW18880   2.045   2.537  14.245 -0.2055  0.1996 -0.5978
 2416SOL    HW118881   2.070   2.517  14.335  2.7887 -0.4086 -1.5825
 2416SOL    HW218882   2.107   2.481  14.198  2.0009  0.9958  1.4036
 2417SOL     OW18883   2.726   4.125   1.494 -0.6985 -0.9381  0.7309
 2417SOL    HW118884   2.692   4.189   1.430 -0.1395 -1.7374 -0.3575
 2417SOL    HW218885   2.756   4.180   1.566 -0.8672  1.4515 -0.9898
 2418SOL     OW18886   3.842   4.326   8.881  0.5267 -0.4363  0.4802
 2418SOL    HW118887   3.899   4.300   8.809 -0.1383 -1.1557  0.2198
 2418SOL    HW218888   3.763   4.339   8.829  0.6924  0.2588  0.4028
 2419SOL     OW18889   0.250   1.112  13.446 -0.0468  0.8775  0.1955
 2419SOL    HW118890   0.320   1.161  13.489  0.1982  0.9149 -0.2412
 2419SOL    HW218891   0.292   1.096  13.361  2.3714  0.0902  1.5369
 2420SOL     OW18892   3.228   2.441   2.405 -0.2563 -0.3935 -0.0711
 2420SOL    HW118893   3.321   2.435   2.384  0.1880 -0.8810  2.0617
 2420SOL    HW218894   3.188   2.401   2.328 -0.3437  0.4025 -0.4419
 2421SOL     OW18895   2.012   0.699  15.690  0.1942 -0.0077  0.0311
 2421SOL    HW118896   1.987   0.679  15.780  0.0833  2.7460  0.5907
 2421SOL    HW218897   2.033   0.609  15.664  1.6617  0.9260 -1.9830
 2422SOL     OW18898   0.356   0.685   3.074 -0.7379  0.3708 -0.4012
 2422SOL    HW118899   0.421   0.631   3.029 -0.0460  1.6960 -0.9910
 2422SOL    HW218900   0.339   0.630   3.150 -1.8677  2.5086  0.8989
 2423SOL     OW18901   3.481   2.913   1.856 -0.6616  0.3662  0.1324
 2423SOL    HW118902   3.545   2.854   1.817 -1.3892 -0.4757  0.2042
 2423SOL    HW218903   3.476   2.986   1.794 -0.6823  0.2954  0.0508
 2424SOL     OW18904   4.681   4.322   2.659  0.4388 -0.1241 -0.1024
 2424SOL    HW118905   0.039   4.333   2.645  0.2618  0.2402 -0.9968
 2424SOL    HW218906   4.653   4.410   2.634  2.7134  0.4867 -0.4429
 2425SOL     OW18907   0.667   0.044   9.312 -0.0377  0.4531 -0.3780
 2425SOL    HW118908   0.589   0.007   9.272  1.0952 -1.4388 -0.8075
 2425SOL    HW218909   0.733   0.027   9.245  0.5017  0.8922  0.0286
 2426SOL     OW18910   1.994   3.806   6.119 -0.4794 -0.4518 -0.3743
 2426SOL    HW118911   2.056   3.872   6.150 -0.3059 -2.2275  3.1409
 2426SOL    HW218912   2.058   3.745   6.081  0.3511 -0.3467  0.8537
 2427SOL     OW18913   3.951   2.191  14.391  0.0131  0.1944 -0.3794
 2427SOL    HW118914   4.035   2.189  14.437 -1.5220  1.2854  2.4402
 2427SOL    HW218915   3.968   2.226  14.303  0.3117  0.2123 -0.3152
 2428SOL     OW18916   1.488   0.374   7.397  0.1864  0.3702 -0.2329
 2428SOL    HW118917   1.537   0.298   7.430  0.7855 -0.0516 -2.0821
 2428SOL    HW218918   1.555   0.436   7.367  0.6816  1.3194  2.8700
 2429SOL     OW18919   0.825   1.020   5.677 -0.5372 -0.6056  0.2112
 2429SOL    HW118920   0.753   0.979   5.629 -0.9508 -0.5523  0.7806
 2429SOL    HW218921   0.836   1.102   5.627 -0.3426 -1.1049 -0.5593
 2430SOL     OW18922   0.617   3.366   4.391 -0.3566  0.8522  0.9784
 2430SOL    HW118923   0.525   3.342   4.380 -0.3465  0.7197  1.1906
 2430SOL    HW218924   0.605   3.405   4.478 -5.7756 -0.4422  0.8158
 2431SOL     OW18925   1.534   3.141   5.019  0.3066 -0.3824  0.2404
 2431SOL    HW118926   1.585   3.222   5.026 -0.5373  0.1946 -0.3018
 2431SOL    HW218927   1.534   3.123   4.925 -3.6922 -0.9414  0.3334
 2432SOL     OW18928   3.885   1.747   5.073  0.7453 -0.5231  0.2700
 2432SOL    HW118929   3.821   1.704   5.016 -0.4106  0.2622  0.9759
 2432SOL    HW218930   3.825   1.798   5.128  3.4564  2.9908 -0.0212
 2433SOL     OW18931   4.244   3.895   2.895  0.3355 -0.2734  0.4227
 2433SOL    HW118932   4.171   3.948   2.928 -0.0067 -0.7670  0.4583
 2433SOL    HW218933   4.316   3.951   2.925  2.5378 -2.5677 -0.5795
 2434SOL     OW18934   2.774   3.200   1.442 -0.3788  0.3687  0.1605
 2434SOL    HW118935   2.859   3.206   1.486  0.6052 -2.8625 -1.2549
 2434SOL    HW218936   2.791   3.273   1.383 -0.1993 -0.0186 -0.2662
 2435SOL     OW18937   0.698   3.859   4.653 -0.6658  0.0088  0.0392
 2435SOL    HW118938   0.695   3.872   4.748  0.6843  0.4256  0.0357
 2435SOL    HW218939   0.643   3.928   4.617 -3.2905 -1.1337  1.8388
 2436SOL     OW18940   0.525   3.110   9.199  0.4456 -0.3008  0.2986
 2436SOL    HW118941   0.549   3.172   9.130 -1.2214 -1.0471 -0.9370
 2436SOL    HW218942   0.477   3.041   9.154  1.1793  1.4390 -3.1520
 2437SOL     OW18943   2.651   0.094  14.834  0.8587  0.1823  0.6336
 2437SOL    HW118944   2.715   0.110  14.763  0.5732  2.8060  0.9408
 2437SOL    HW218945   2.639   0.186  14.858  1.6483  0.8737 -1.5778
 2438SOL     OW18946   3.913   3.733  15.330 -0.9614 -0.0663  0.4392
 2438SOL    HW118947   4.001   3.703  15.309 -0.5724 -0.6560  2.8746
 2438SOL    HW218948   3.888   3.674  15.401  0.6983 -0.3571  0.7811
 2439SOL     OW18949   0.069   3.800   6.308 -0.6102 -0.6379  0.0425
 2439SOL    HW118950   0.073   3.799   6.404 -0.7901  1.7396  0.0658
 2439SOL    HW218951   0.021   3.718   6.297 -1.2636 -0.7788  4.0996
 2440SOL     OW18952   2.581   0.156   2.439 -0.2140  0.5288  0.1891
 2440SOL    HW118953   2.508   0.177   2.497 -0.0440 -0.7784  0.8708
 2440SOL    HW218954   2.644   0.119   2.501 -2.2558  0.3106  2.1234
 2441SOL     OW18955   1.047   2.982   2.493 -0.7341 -0.7082  0.5559
 2441SOL    HW118956   0.976   2.995   2.555 -0.7051  1.2042  0.1828
 2441SOL    HW218957   1.113   2.946   2.552 -0.1952  1.5717  1.3452
 2442SOL     OW18958   0.888   2.294   9.666  0.4957  0.1461  0.0039
 2442SOL    HW118959   0.975   2.331   9.674  0.1471  1.3586 -1.9394
 2442SOL    HW218960   0.846   2.376   9.642  0.8930  0.3144 -0.1082
 2443SOL     OW18961   0.703   2.860  13.339  0.5379  0.0129 -0.3257
 2443SOL    HW118962   0.636   2.875  13.273 -0.9645 -1.0152  0.9504
 2443SOL    HW218963   0.696   2.938  13.393 -0.1475 -0.9874  1.0577
 2444SOL     OW18964   4.093   0.966  11.733  0.4719 -0.4933 -0.3608
 2444SOL    HW118965   4.021   0.921  11.690  0.4894  0.4313 -1.3506
 2444SOL    HW218966   4.091   0.936  11.824  0.7221  1.7798  0.3897
 2445SOL     OW18967   1.385   2.653   2.884  0.3660 -0.2805 -0.2916
 2445SOL    HW118968   1.423   2.642   2.796 -0.0386  0.0668 -0.5099
 2445SOL    HW218969   1.393   2.568   2.926  0.9822 -0.9783 -1.8086
 2446SOL     OW18970   2.293   0.656   6.710 -0.0542 -0.5342  0.1570
 2446SOL    HW118971   2.289   0.647   6.805  0.8735 -1.9383  0.0683
 2446SOL    HW218972   2.250   0.741   6.707 -0.7389 -0.9132 -0.8907
 2447SOL     OW18973   1.344   4.303  16.717  0.1322  0.1288  0.4032
 2447SOL    HW118974   1.292   4.253  16.780 -1.6084  0.5155 -0.7133
 2447SOL    HW218975   1.309   4.386  16.750  0.6335  1.0437 -1.3769
 2448SOL     OW18976   2.474   4.672  11.687 -0.1105  0.2427  0.5682
 2448SOL    HW118977   2.553   4.722  11.666 -0.4565  0.4818 -0.1937
 2448SOL    HW218978   2.518   4.587  11.686 -0.8034 -0.1302  3.3220
 2449SOL     OW18979   1.207   4.165   6.854 -0.2616 -0.1641 -0.7935
 2449SOL    HW118980   1.294   4.182   6.817 -0.4320 -1.6188 -1.8519
 2449SOL    HW218981   1.166   4.249   6.873  0.4984  0.1851 -0.6632
 2450SOL     OW18982   1.188   3.997   3.782 -0.1958 -0.1476  0.4174
 2450SOL    HW118983   1.148   3.974   3.866  0.7640  0.1666  0.9635
 2450SOL    HW218984   1.195   4.091   3.800  4.9249 -0.3267 -0.4877
 2451SOL     OW18985   3.658   2.915   3.600 -0.1997  0.3353  0.0169
 2451SOL    HW118986   3.667   3.010   3.586 -2.7414  1.2211  4.5968
 2451SOL    HW218987   3.721   2.881   3.536 -1.0490  0.1036 -0.6998
 2452SOL     OW18988   2.422   4.282  13.895  0.6515 -0.3596  0.2031
 2452SOL    HW118989   2.461   4.243  13.817  1.6814 -0.2263  0.6494
 2452SOL    HW218990   2.333   4.248  13.892  1.0940 -1.2596 -2.9565
 2453SOL     OW18991   0.873   3.746   3.176 -0.5969 -0.1601 -0.3882
 2453SOL    HW118992   0.947   3.730   3.117 -2.1045 -2.9143 -1.5230
 2453SOL    HW218993   0.836   3.828   3.143 -1.0347 -0.6252 -1.0411
 2454SOL     OW18994   3.880   0.421   9.049  0.3603 -0.4061 -0.2852
 2454SOL    HW118995   3.844   0.354   8.992 -1.9213  0.8968 -0.4064
 2454SOL    HW218996   3.799   0.443   9.096 -0.0582 -3.2844  0.3487
 2455SOL     OW18997   4.315   1.540   3.852 -0.0656 -0.0663 -0.1877
 2455SOL    HW118998   4.375   1.550   3.778 -1.1132  2.1579 -0.7136
 2455SOL    HW218999   4.290   1.448   3.846 -0.4620  0.0808 -0.7802
 2456SOL     OW19000   3.267   0.190   4.353 -0.0465 -0.0537  0.1353
 2456SOL    HW119001   3.216   0.152   4.425  0.9728 -0.3999  0.6680
 2456SOL    HW219002   3.216   0.269   4.337  1.5738  0.6282 -1.6063
 2457SOL     OW19003   3.161   1.631  16.952 -0.6328 -0.1810 -0.1758
 2457SOL    HW119004   3.076   1.591  16.971  0.4251 -2.2340  0.2298
 2457SOL    HW219005   3.135   1.722  16.939 -1.2812 -0.3908 -0.3472
 2458SOL     OW19006   0.297   0.034   3.444 -0.4163  0.4887  0.1756
 2458SOL    HW119007   0.373   0.090   3.461 -0.1784  0.3924 -0.5622
 2458SOL    HW219008   0.277   4.723   3.526  2.2679 -3.8448 -1.6689
 2459SOL     OW19009   1.973   4.718   2.012 -0.1948 -0.3090  0.3248
 2459SOL    HW119010   1.994   0.054   2.072  0.9199 -2.0159  1.9956
 2459SOL    HW219011   1.926   0.020   1.938  0.7233 -0.1770 -0.1921
 2460SOL     OW19012   0.474   2.538  17.538  0.1463 -0.5741  0.0480
 2460SOL    HW119013   0.450   2.600  17.469  0.4938  1.9158  2.1470
 2460SOL    HW219014   0.501   2.589  17.615  1.3464  0.5459 -1.1169
 2461SOL     OW19015   1.676   3.283   6.328  0.2176 -0.3825 -0.4181
 2461SOL    HW119016   1.732   3.206   6.339 -0.0473 -0.4707  0.2966
 2461SOL    HW219017   1.712   3.341   6.395  1.0794 -0.0589 -1.1583
 2462SOL     OW19018   3.951   0.872   1.331  0.9364 -0.5692  0.0454
 2462SOL    HW119019   4.030   0.851   1.379 -0.5822 -1.1947  2.2695
 2462SOL    HW219020   3.962   0.962   1.299 -1.6158 -0.0854  0.5215
 2463SOL     OW19021   3.474   1.080   5.716 -0.0654  0.0009 -0.0104
 2463SOL    HW119022   3.456   1.165   5.757  1.1628 -0.3940  1.3727
 2463SOL    HW219023   3.563   1.097   5.686  0.1286 -0.4421  0.3184
 2464SOL     OW19024   4.670   4.500   8.094 -0.5040  0.1763 -0.6870
 2464SOL    HW119025   4.611   4.574   8.084 -0.2353  0.4992  0.1314
 2464SOL    HW219026   4.620   4.432   8.048  0.4669 -0.8464 -0.2458
 2465SOL     OW19027   1.589   2.024   8.672  0.1846 -0.6273  0.0601
 2465SOL    HW119028   1.568   1.938   8.709 -1.1127 -0.2782  0.1454
 2465SOL    HW219029   1.677   2.042   8.703  0.7795 -1.2789 -1.2569
 2466SOL     OW19030   1.189   1.289  11.952  0.6939 -0.1966  0.0601
 2466SOL    HW119031   1.123   1.352  11.924  1.5476  1.2766  1.3649
 2466SOL    HW219032   1.158   1.266  12.040 -0.2015 -0.7439 -0.3932
 2467SOL     OW19033   1.164   2.739   7.173  0.2660 -0.0483 -0.2843
 2467SOL    HW119034   1.193   2.659   7.128  0.6061  1.1398 -2.1405
 2467SOL    HW219035   1.070   2.731   7.189  0.1593 -2.6983 -2.2452
 2468SOL     OW19036   0.090   2.257   3.539 -0.9811  0.4182 -0.1207
 2468SOL    HW119037   0.152   2.235   3.609 -0.3103  0.4174 -0.7132
 2468SOL    HW219038   0.092   2.169   3.503 -2.6087  0.6060 -0.6736
 2469SOL     OW19039   0.651   2.492   5.023  0.2578  0.9725  0.1523
 2469SOL    HW119040   0.685   2.563   4.969  1.9718 -0.4574 -0.6408
 2469SOL    HW219041   0.649   2.416   4.964 -0.7819 -0.8100  2.4674
 2470SOL     OW19042   2.976   0.763   3.656 -0.3085 -0.5020 -0.4442
 2470SOL    HW119043   3.015   0.808   3.731 -0.4401  1.5703 -1.6217
 2470SOL    HW219044   3.049   0.763   3.594  2.2805 -1.3890  2.5416
 2471SOL     OW19045   3.327   0.139   4.079 -0.0358  0.0640 -0.6814
 2471SOL    HW119046   3.275   0.108   4.154  1.9451  1.3677  1.2238
 2471SOL    HW219047   3.395   0.073   4.069 -0.2862 -0.1087 -1.2450
 2472SOL     OW19048   1.790   1.897  12.221 -0.2325 -0.1182  0.5529
 2472SOL    HW119049   1.817   1.951  12.147 -1.1540 -1.5862 -0.8467
 2472SOL    HW219050   1.700   1.924  12.236 -0.7133 -0.3091 -2.0971
 2473SOL     OW19051   3.660   0.625   3.541 -0.7993  0.3238 -0.4214
 2473SOL    HW119052   3.643   0.565   3.468  1.8241  0.7724 -1.3883
 2473SOL    HW219053   3.598   0.697   3.532  0.7812  1.5732 -1.1516
 2474SOL     OW19054   1.641   4.719   4.340 -0.9074 -0.0287 -1.1478
 2474SOL    HW119055   1.725   0.025   4.360 -0.6907 -0.6938 -0.6692
 2474SOL    HW219056   1.576   0.033   4.390 -0.4676 -1.7933  1.1649
 2475SOL     OW19057   3.367   0.977   6.266  0.7607 -0.3884  0.3000
 2475SOL    HW119058   3.275   0.961   6.287  0.4547  1.8783  0.6942
 2475SOL    HW219059   3.402   0.889   6.278 -0.0227 -0.5592  1.2821
 2476SOL     OW19060   1.247   4.356   3.621  0.6094  0.0288 -0.0862
 2476SOL    HW119061   1.337   4.327   3.609  0.9326  0.6793  0.7855
 2476SOL    HW219062   1.235   4.307   3.702 -1.3219  1.6200  0.5950
 2477SOL     OW19063   2.933   2.272   5.987 -0.2860 -0.1361 -0.8883
 2477SOL    HW119064   3.019   2.310   5.969 -0.8028  2.6635  2.6075
 2477SOL    HW219065   2.966   2.215   6.057 -0.2895  0.0008 -0.7758
 2478SOL     OW19066   3.395   3.643   3.363  0.3994 -0.5147  0.0573
 2478SOL    HW119067   3.417   3.564   3.412 -0.7763 -1.3310 -0.7287
 2478SOL    HW219068   3.379   3.711   3.429  0.6922 -2.5280  2.1998
 2479SOL     OW19069   1.116   0.243   6.343  0.1894 -0.4281 -0.0762
 2479SOL    HW119070   1.113   0.189   6.264  0.2402 -3.4106  1.9894
 2479SOL    HW219071   1.188   0.302   6.317  0.5232 -0.6665  0.3214
 2480SOL     OW19072   3.317   3.540   8.984 -0.6032 -0.3399 -0.0432
 2480SOL    HW119073   3.336   3.453   8.950  3.8277  0.6756 -0.1996
 2480SOL    HW219074   3.398   3.583   8.956 -1.0632 -0.3370 -1.3907
 2481SOL     OW19075   1.402   1.746   3.771  0.3839  0.0365 -0.2542
 2481SOL    HW119076   1.398   1.823   3.827  3.4214 -0.9100  1.2629
 2481SOL    HW219077   1.419   1.780   3.683 -1.7050  1.5600 -0.0622
 2482SOL     OW19078   4.027   2.612   9.604 -0.4386 -0.1676  0.3214
 2482SOL    HW119079   3.986   2.561   9.674  1.1155 -0.4550  1.0203
 2482SOL    HW219080   4.010   2.554   9.529 -0.7349 -0.1194  0.3516
 2483SOL     OW19081   2.373   1.053   4.644  0.4603  0.1930  0.0718
 2483SOL    HW119082   2.443   0.989   4.632 -0.8576 -1.7247  2.6446
 2483SOL    HW219083   2.305   0.995   4.676 -0.3658  0.8125 -0.5579
 2484SOL     OW19084   4.442   1.860  13.388  0.0605 -0.0154 -0.6997
 2484SOL    HW119085   4.450   1.851  13.483  0.9889 -0.5926 -0.8388
 2484SOL    HW219086   4.354   1.826  13.369 -0.7881  1.6050  0.2978
 2485SOL     OW19087   1.628   0.747  12.197  0.3452 -0.2531 -0.8725
 2485SOL    HW119088   1.622   0.715  12.107 -1.7612  1.2162 -1.2641
 2485SOL    HW219089   1.681   0.826  12.189  0.2616 -0.3047 -1.8669
 2486SOL     OW19090   1.408   0.987   4.200 -0.2441  0.3090 -0.2790
 2486SOL    HW119091   1.470   0.931   4.247 -0.3546 -0.1042 -0.6260
 2486SOL    HW219092   1.338   0.931   4.167 -1.6498 -0.5933  4.1873
 2487SOL     OW19093   1.125   2.675   2.941 -0.3643 -0.0575  0.1148
 2487SOL    HW119094   1.212   2.699   2.908  0.6385 -2.3855  1.0973
 2487SOL    HW219095   1.150   2.599   2.994 -1.6443 -0.8671 -0.4463
 2488SOL     OW19096   4.706   0.722   7.452 -0.4494 -0.4073  0.2473
 2488SOL    HW119097   4.668   0.747   7.537  0.6685  1.4022  0.1941
 2488SOL    HW219098   4.650   0.775   7.397 -0.1529  1.9481  2.2221
 2489SOL     OW19099   2.875   4.271   0.112  0.2031  0.3239  0.4860
 2489SOL    HW119100   2.960   4.227   0.114  0.7100  1.2582 -0.4866
 2489SOL    HW219101   2.897   4.329   0.184 -1.0172  0.8311  0.4601
 2490SOL     OW19102   2.671   3.664  12.922 -0.2064 -0.0766 -0.5271
 2490SOL    HW119103   2.601   3.704  12.974  0.3604  0.2480 -0.0194
 2490SOL    HW219104   2.669   3.724  12.847  1.2269  0.8143  0.1467
 2491SOL     OW19105   4.489   0.300   6.972  0.8318 -0.0611 -0.2039
 2491SOL    HW119106   4.561   0.244   7.002 -0.2424 -0.8025  0.9739
 2491SOL    HW219107   4.472   0.254   6.890  0.3474  1.4656 -0.9520
 2492SOL     OW19108   0.487   2.141  12.834  0.6318  0.3078 -0.3715
 2492SOL    HW119109   0.450   2.218  12.877 -0.4671  0.3516 -1.3935
 2492SOL    HW219110   0.487   2.180  12.746 -1.0572  2.0521  0.3945
 2493SOL     OW19111   4.708   0.340   0.507 -0.1380  0.4565 -1.0509
 2493SOL    HW119112   4.670   0.253   0.517 -0.1333  0.5940  0.2234
 2493SOL    HW219113   4.635   0.402   0.509 -1.3096 -1.0394  3.2663
 2494SOL     OW19114   1.364   1.427   7.411  0.0955 -0.1440  0.2816
 2494SOL    HW119115   1.452   1.420   7.446  0.6732  1.6330 -0.8364
 2494SOL    HW219116   1.336   1.335   7.416  0.5074 -0.3541 -1.3534
 2495SOL     OW19117   0.118   4.639  14.119  0.5226 -0.2935  0.3076
 2495SOL    HW119118   0.080   4.552  14.126 -1.3046  0.3828 -0.9939
 2495SOL    HW219119   0.074   4.675  14.042  0.7590 -1.2224 -0.2621
 2496SOL     OW19120   0.393   2.682   4.627  0.1230  0.1545 -0.0168
 2496SOL    HW119121   0.412   2.771   4.596  1.8156  0.0586  0.7359
 2496SOL    HW219122   0.321   2.690   4.690 -1.1745 -0.9939 -1.3542
 2497SOL     OW19123   2.877   4.424   9.051 -0.1671  0.5879 -0.5878
 2497SOL    HW119124   2.845   4.492   9.110 -1.4277 -2.5283  2.2924
 2497SOL    HW219125   2.855   4.343   9.097  0.0918 -0.8217 -2.9124
 2498SOL     OW19126   0.807   1.827   4.933 -0.4489  0.8124 -0.6569
 2498SOL    HW119127   0.861   1.825   5.011 -0.5026  1.7166 -0.5986
 2498SOL    HW219128   0.860   1.885   4.880  2.0228 -1.6188 -0.8318
 2499SOL     OW19129   1.661   3.519   1.485  0.3869  0.0834  0.1780
 2499SOL    HW119130   1.725   3.530   1.415 -0.1287  0.2221 -0.2803
 2499SOL    HW219131   1.678   3.440   1.535  0.5914 -0.6337 -1.0214
 2500SOL     OW19132   2.416   4.189   9.047  0.2096  0.2817 -0.2052
 2500SOL    HW119133   2.501   4.144   9.048  0.3991  0.7433  3.0700
 2500SOL    HW219134   2.357   4.115   9.038  3.1256 -1.9803 -0.9987
 2501SOL     OW19135   1.480   3.597   5.081 -0.0600  0.2054 -0.1163
 2501SOL    HW119136   1.469   3.684   5.043  1.0209 -0.6317 -2.3088
 2501SOL    HW219137   1.411   3.551   5.035  0.2106  0.6303 -0.9513
 2502SOL     OW19138   1.599   4.583   4.961  0.5021 -0.6912  0.2013
 2502SOL    HW119139   1.665   4.619   5.020  1.5395  1.0534 -2.0412
 2502SOL    HW219140   1.631   4.495   4.938 -1.4670 -1.5658  0.7803
 2503SOL     OW19141   1.206   1.634   6.160  0.3794  0.4951 -0.0675
 2503SOL    HW119142   1.170   1.722   6.150 -0.8598 -0.0245 -0.1682
 2503SOL    HW219143   1.266   1.644   6.234  2.0421 -2.8334 -0.9677
 2504SOL     OW19144   2.553   1.276   3.576  0.1117  0.0464 -0.1095
 2504SOL    HW119145   2.491   1.258   3.505  0.1206 -0.0046 -0.1045
 2504SOL    HW219146   2.496   1.282   3.652  2.6170 -0.5334  1.8085
 2505SOL     OW19147   3.115   3.805   1.739  0.6939  0.3053  0.1767
 2505SOL    HW119148   3.148   3.879   1.791  1.8942 -1.9921  2.7071
 2505SOL    HW219149   3.037   3.833   1.691 -1.4980 -0.2053  3.3588
 2506SOL     OW19150   0.942   4.035   4.603 -0.5928 -0.0507 -0.8200
 2506SOL    HW119151   0.857   4.014   4.641  0.2307  1.2999  1.7831
 2506SOL    HW219152   0.990   3.955   4.623  0.8856  1.2611  0.9151
 2507SOL     OW19153   0.851   1.351   4.567 -0.1523 -0.4769  0.3381
 2507SOL    HW119154   0.860   1.372   4.474 -4.1352  0.8491  0.2343
 2507SOL    HW219155   0.930   1.297   4.575 -0.0169  0.1774  3.3607
 2508SOL     OW19156   2.791   2.787  15.455  0.0443  0.0752 -0.2120
 2508SOL    HW119157   2.886   2.775  15.458  0.2272  1.3725 -0.9127
 2508SOL    HW219158   2.769   2.717  15.517  0.6967 -0.7082 -0.8641
 2509SOL     OW19159   2.745   0.627  11.964  0.2475 -0.5477  0.1381
 2509SOL    HW119160   2.682   0.689  11.999 -0.1290 -0.9406  0.1656
 2509SOL    HW219161   2.731   0.639  11.870 -1.9550 -1.1390  0.3753
 2510SOL     OW19162   4.068   4.692   1.717  0.5573 -0.3260 -0.1897
 2510SOL    HW119163   4.056   0.026   1.654  1.8150  0.0208 -0.0318
 2510SOL    HW219164   4.135   4.723   1.778  0.4749 -1.0873  0.3031
 2511SOL     OW19165   4.456   0.070   4.529 -0.2782 -0.4625  0.2931
 2511SOL    HW119166   4.404   0.111   4.598 -2.7217  0.4080 -2.0578
 2511SOL    HW219167   4.439   0.122   4.450 -1.4623  1.3736  1.7599
 2512SOL     OW19168   2.412   2.353  11.660  0.2796  0.3966 -0.1048
 2512SOL    HW119169   2.445   2.282  11.605 -0.6343  0.6206 -0.9472
 2512SOL    HW219170   2.326   2.316  11.681  0.4949  0.6310  1.1822
 2513SOL     OW19171   2.120   2.280  10.326 -0.3994 -1.0972 -0.1245
 2513SOL    HW119172   2.072   2.321  10.397 -1.0539 -1.5008 -0.3311
 2513SOL    HW219173   2.091   2.192  10.350 -1.8622 -0.3087  0.9805
 2514SOL     OW19174   2.504   1.097   1.340 -0.0905 -0.5113  0.2228
 2514SOL    HW119175   2.442   1.123   1.408  0.5520  1.1481  0.1583
 2514SOL    HW219176   2.449   1.032   1.295  0.7064  0.6980 -2.4542
 2515SOL     OW19177   3.282   0.929   0.284 -0.2119  0.4762  0.1111
 2515SOL    HW119178   3.358   0.984   0.266  0.2139 -0.6927 -1.6715
 2515SOL    HW219179   3.267   0.898   0.194 -3.0689 -0.8902  1.0424
 2516SOL     OW19180   1.371   3.746  13.546 -0.1288  0.2617  0.2116
 2516SOL    HW119181   1.464   3.727  13.560 -0.1636  0.8365  1.1870
 2516SOL    HW219182   1.361   3.838  13.570 -0.6078 -0.0422  1.1372
 2517SOL     OW19183   3.159   2.952   6.864 -0.0267  0.1980 -0.1011
 2517SOL    HW119184   3.166   2.857   6.867  0.2134  0.2403  0.9675
 2517SOL    HW219185   3.133   2.963   6.773 -0.2686 -2.0947 -0.3008
 2518SOL     OW19186   0.152   4.553   7.573 -0.1588 -0.0304  0.3599
 2518SOL    HW119187   0.068   4.515   7.544 -1.0596  2.6802 -0.5416
 2518SOL    HW219188   0.132   4.645   7.556 -1.3690 -0.6340 -1.5213
 2519SOL     OW19189   0.270   4.000  14.106  0.0315 -0.1159 -0.2512
 2519SOL    HW119190   0.272   3.929  14.042 -2.1300  0.7338 -1.2687
 2519SOL    HW219191   0.339   3.967  14.163  0.4614  0.2575 -0.5563
 2520SOL     OW19192   0.248   2.055   1.670 -0.4988 -0.2232 -0.3111
 2520SOL    HW119193   0.231   2.047   1.576 -0.7927 -1.5190 -0.1413
 2520SOL    HW219194   0.173   2.104   1.704 -0.5992 -0.4308 -0.2327
 2521SOL     OW19195   3.541   4.139   2.330  0.2242  0.6157 -0.1028
 2521SOL    HW119196   3.545   4.107   2.420  0.3237 -0.8269 -0.6189
 2521SOL    HW219197   3.493   4.221   2.340  1.1451  0.8911  1.9412
 2522SOL     OW19198   0.624   4.347   5.636 -0.0279  0.3559  0.2974
 2522SOL    HW119199   0.701   4.321   5.687 -2.2193  0.5696  3.6754
 2522SOL    HW219200   0.664   4.357   5.549  0.8580  0.3980  0.7077
 2523SOL     OW19201   2.097   1.464   7.807  0.2276  0.9307 -0.2200
 2523SOL    HW119202   2.161   1.456   7.878 -0.6831  0.4003  0.5380
 2523SOL    HW219203   2.016   1.472   7.858 -1.3313 -0.1152 -2.5716
 2524SOL     OW19204   4.428   0.771  15.202  0.0150  0.3619  0.6355
 2524SOL    HW119205   4.401   0.742  15.289 -1.4058 -3.1849 -1.0096
 2524SOL    HW219206   4.448   0.693  15.151 -1.2043  1.2030 -1.1149
 2525SOL     OW19207   4.399   2.807   3.550 -0.2264 -0.0143  0.1436
 2525SOL    HW119208   4.464   2.840   3.612 -0.1899 -0.3515  0.2846
 2525SOL    HW219209   4.441   2.727   3.517 -0.6655  0.3141 -1.2191
 2526SOL     OW19210   4.085   1.550   6.819  0.2175  0.4229  0.2655
 2526SOL    HW119211   4.125   1.529   6.734 -1.6399  0.8317 -0.7064
 2526SOL    HW219212   4.075   1.645   6.814 -0.4394  0.4221  1.7555
 2527SOL     OW19213   2.930   2.892  14.003 -0.0307 -0.2995  0.2349
 2527SOL    HW119214   2.913   2.839  13.925 -0.0648  1.2838 -0.8489
 2527SOL    HW219215   2.920   2.980  13.966  0.7982 -0.1236  0.4377
 2528SOL     OW19216   2.820   0.080  15.842 -0.0278  0.2928  0.0401
 2528SOL    HW119217   2.794   0.070  15.933  1.7691 -0.1121  0.5066
 2528SOL    HW219218   2.866   4.733  15.828  0.2806  0.1811  1.8123
 2529SOL     OW19219   3.045   3.854   6.294 -0.3623  0.0264 -0.5445
 2529SOL    HW119220   3.117   3.858   6.357 -0.8944 -0.3396  0.0838
 2529SOL    HW219221   3.058   3.766   6.260 -0.9723  0.1433 -1.0755
 2530SOL     OW19222   4.016   2.735   7.549  0.0325  0.4902 -0.1567
 2530SOL    HW119223   3.931   2.721   7.591 -0.4591  2.9813 -0.3004
 2530SOL    HW219224   4.058   2.809   7.593  0.1783 -1.0328  2.2412
 2531SOL     OW19225   1.035   2.588   5.997  0.6124 -0.3747 -0.0144
 2531SOL    HW119226   1.010   2.578   6.089  2.3561  1.4791  0.6706
 2531SOL    HW219227   1.094   2.512   5.992 -0.3544 -1.1516  0.4654
 2532SOL     OW19228   2.904   3.840  13.039 -0.2532 -0.0494 -0.7067
 2532SOL    HW119229   2.955   3.911  13.077 -1.6961 -0.0659  1.2367
 2532SOL    HW219230   2.904   3.776  13.110 -2.8001 -0.7782 -1.3788
 2533SOL     OW19231   4.163   1.689  16.838 -0.2439  0.2374  0.1803
 2533SOL    HW119232   4.257   1.671  16.833 -0.3627  0.1536 -2.0178
 2533SOL    HW219233   4.158   1.766  16.895 -0.2577 -0.2460  0.8257
 2534SOL     OW19234   1.275   1.967   5.448  0.4981 -0.5346  0.6914
 2534SOL    HW119235   1.243   1.932   5.532 -0.2816  2.4638  1.6665
 2534SOL    HW219236   1.355   1.915   5.446 -0.5376 -2.0791 -0.6327
 2535SOL     OW19237   1.406   2.805   6.355 -0.0206  0.0217  0.0506
 2535SOL    HW119238   1.416   2.900   6.344  0.1644  0.3715  3.3263
 2535SOL    HW219239   1.395   2.788   6.261  0.3504 -1.2270  0.2370
 2536SOL     OW19240   4.275   3.769   9.024  0.4840  0.0726 -0.7996
 2536SOL    HW119241   4.218   3.846   9.017 -2.0179 -1.6965  0.3228
 2536SOL    HW219242   4.290   3.771   9.118 -0.2642  2.0065 -0.7066
 2537SOL     OW19243   4.540   0.458   1.072  0.1655  0.0574 -0.1530
 2537SOL    HW119244   4.570   0.526   1.132  0.0858 -1.5193  1.6709
 2537SOL    HW219245   4.461   0.427   1.116  0.8472 -0.1023  0.9564
 2538SOL     OW19246   1.148   1.205  14.138 -0.0120  0.2847 -0.1597
 2538SOL    HW119247   1.071   1.168  14.182  0.6343 -0.8852 -0.0094
 2538SOL    HW219248   1.160   1.285  14.190  0.6252  0.0903 -0.0141
 2539SOL     OW19249   1.471   4.229   6.511 -0.1462  0.2564  0.0606
 2539SOL    HW119250   1.379   4.235   6.486  0.3324  1.5373 -1.3907
 2539SOL    HW219251   1.500   4.273   6.431  0.2367 -1.7635 -0.8907
 2540SOL     OW19252   1.381   2.057   6.806  0.0854  0.4044  0.1105
 2540SOL    HW119253   1.401   2.097   6.890  1.1864  0.0929 -0.0100
 2540SOL    HW219254   1.377   2.140   6.758  0.0001  0.8952  0.9767
 2541SOL     OW19255   2.483   4.560   2.475 -0.2116  0.2153  0.1908
 2541SOL    HW119256   2.510   4.502   2.403 -2.0933 -0.1786 -0.1853
 2541SOL    HW219257   2.565   4.608   2.483 -0.2377  0.4525 -0.9406
 2542SOL     OW19258   4.640   3.528   1.788 -0.0630 -0.3798 -0.2423
 2542SOL    HW119259   4.641   3.589   1.862  0.9410 -2.0847  1.1573
 2542SOL    HW219260   4.590   3.452   1.818  1.4162 -1.8321 -1.4615
 2543SOL     OW19261   3.309   3.142   5.499  0.1759 -0.3883 -0.3461
 2543SOL    HW119262   3.384   3.120   5.554 -0.2688 -0.6909  0.1344
 2543SOL    HW219263   3.356   3.126   5.417  0.2170  0.4772 -0.4932
 2544SOL     OW19264   0.344   1.101   2.567 -0.3778  0.0370 -0.0814
 2544SOL    HW119265   0.417   1.040   2.553  0.9413  1.1657  1.9259
 2544SOL    HW219266   0.352   1.112   2.661 -1.3616 -0.0653  0.0169
 2545SOL     OW19267   0.274   2.209   8.908 -0.8529  0.0291  0.0849
 2545SOL    HW119268   0.314   2.133   8.950  1.1108  0.8264 -0.3339
 2545SOL    HW219269   0.190   2.165   8.895 -0.3620 -0.3408 -1.8354
 2546SOL     OW19270   0.892   0.598   3.796 -0.2585  0.0441 -0.6066
 2546SOL    HW119271   0.799   0.577   3.787 -0.3371 -0.1015  0.4635
 2546SOL    HW219272   0.903   0.674   3.740  1.0512 -1.0201 -1.7831
 2547SOL     OW19273   2.326   1.872   0.060 -0.4212 -0.0230 -0.9021
 2547SOL    HW119274   2.415   1.838   0.068  0.6353  2.5922 -1.3381
 2547SOL    HW219275   2.344   1.962   0.090  1.6184 -0.6406 -0.2553
 2548SOL     OW19276   0.985   0.553   7.749  0.6689  0.0727 -0.3573
 2548SOL    HW119277   1.039   0.527   7.824 -1.1126 -2.7924 -0.0516
 2548SOL    HW219278   0.972   0.475   7.695  1.6209  0.0046 -0.4919
 2549SOL     OW19279   0.603   3.134   4.076  0.0940 -0.0706 -0.1149
 2549SOL    HW119280   0.629   3.208   4.132 -0.6751 -1.3793  1.9755
 2549SOL    HW219281   0.511   3.150   4.056  0.6216  0.7959 -1.8601
 2550SOL     OW19282   1.554   1.206   6.041 -0.3783 -0.0534 -0.2032
 2550SOL    HW119283   1.543   1.301   6.043  0.1522  0.0586 -2.8862
 2550SOL    HW219284   1.617   1.201   5.969  1.0705  0.1259  1.0700
 2551SOL     OW19285   2.765   2.055  14.859 -0.4121 -0.7863 -0.5380
 2551SOL    HW119286   2.702   2.126  14.846 -0.0086 -0.5210 -1.0584
 2551SOL    HW219287   2.843   2.077  14.807 -0.4290  1.1204  0.2449
 2552SOL     OW19288   2.538   0.800   2.037 -0.0760  0.0949 -0.3480
 2552SOL    HW119289   2.550   0.877   2.092 -2.4068  0.3714 -0.2283
 2552SOL    HW219290   2.545   0.731   2.103  2.4316  0.7684  0.0909
 2553SOL     OW19291   3.032   0.427  14.547  0.5201  0.3274 -0.2983
 2553SOL    HW119292   3.068   0.385  14.469  1.5469  0.1429  0.2822
 2553SOL    HW219293   3.080   0.393  14.622 -0.2531 -1.5082 -0.6373
 2554SOL     OW19294   0.268   3.687  11.184  0.3628 -0.7231  0.2914
 2554SOL    HW119295   0.329   3.749  11.223  1.7501 -1.1973 -1.1215
 2554SOL    HW219296   0.307   3.607  11.220 -0.1957 -0.2545  1.9093
 2555SOL     OW19297   0.050   0.065   7.495 -0.0123  0.1465  0.2035
 2555SOL    HW119298   0.008   0.024   7.420  1.3715 -1.5310  0.3525
 2555SOL    HW219299   4.717   0.127   7.520 -1.4869 -1.0042 -0.9840
 2556SOL     OW19300   4.355   1.084   8.568 -0.5182  0.0007 -0.3250
 2556SOL    HW119301   4.299   1.028   8.514 -2.9872  1.6820  0.4976
 2556SOL    HW219302   4.440   1.046   8.546 -0.0206 -0.8202  3.0409
 2557SOL     OW19303   2.773   4.337   5.245  0.1707  0.5840  0.3066
 2557SOL    HW119304   2.838   4.273   5.216 -1.5702 -0.8751 -0.3560
 2557SOL    HW219305   2.823   4.415   5.267  0.2528  1.0274 -1.4892
 2558SOL     OW19306   3.940   3.562   8.006 -0.0148  0.2221 -0.7061
 2558SOL    HW119307   3.865   3.519   8.048  0.6814 -1.7788 -1.5083
 2558SOL    HW219308   4.015   3.531   8.056  0.8136  0.6440 -1.6688
 2559SOL     OW19309   0.670   2.029   3.881 -0.3009 -0.2774 -0.0228
 2559SOL    HW119310   0.579   2.004   3.867 -1.3741  3.0798  1.0596
 2559SOL    HW219311   0.658   2.112   3.928  2.0579  0.9411 -1.6087
 2560SOL     OW19312   4.608   1.760  17.146 -0.5924  0.1483 -0.1911
 2560SOL    HW119313   4.648   1.741  17.062 -0.0968 -0.6676  0.2285
 2560SOL    HW219314   4.605   1.855  17.142  0.6849  0.2915  2.0907
 2561SOL     OW19315   4.208   3.935   4.654  0.2575  0.1038  0.0270
 2561SOL    HW119316   4.152   4.009   4.634 -1.1471 -0.8554  0.3823
 2561SOL    HW219317   4.168   3.891   4.730  0.7690  1.7543  1.2586
 2562SOL     OW19318   0.766   0.211   9.594 -0.1716 -0.4632 -0.3360
 2562SOL    HW119319   0.718   0.294   9.601 -0.2840 -0.4520 -1.2804
 2562SOL    HW219320   0.707   0.137   9.607 -1.8830  1.2623  1.8794
 2563SOL     OW19321   3.031   3.041   9.540  0.2207 -0.4142 -0.2129
 2563SOL    HW119322   3.025   3.128   9.581 -0.9341  0.3853 -2.0657
 2563SOL    HW219323   3.072   3.058   9.455 -0.7364 -0.6117 -0.7161
 2564SOL     OW19324   1.131   3.313   6.571 -0.1688  0.3676 -0.0146
 2564SOL    HW119325   1.044   3.303   6.609  1.5816  0.6283  4.0668
 2564SOL    HW219326   1.120   3.301   6.476  0.6457  0.2992 -0.1033
 2565SOL     OW19327   0.421   1.990   4.026 -0.2442 -0.0840 -0.1910
 2565SOL    HW119328   0.426   2.078   4.063 -1.5363 -0.2837  0.4858
 2565SOL    HW219329   0.450   1.942   4.104 -1.9455 -0.7256  0.0530
 2566SOL     OW19330   1.365   1.961   8.994 -0.3357 -0.0171 -0.1344
 2566SOL    HW119331   1.394   1.922   8.911 -0.0084  0.2231 -0.1296
 2566SOL    HW219332   1.433   1.938   9.057 -2.9088 -3.4054  1.4355
 2567SOL     OW19333   1.682   4.364  16.623  0.0960 -0.0247  0.4932
 2567SOL    HW119334   1.710   4.434  16.683 -0.4954 -1.6066  2.6044
 2567SOL    HW219335   1.588   4.372  16.637 -0.1659 -1.0416 -0.7506
 2568SOL     OW19336   2.363   0.595   4.828  0.0797 -0.2771 -0.1607
 2568SOL    HW119337   2.431   0.603   4.896  1.1350 -0.3246 -1.2183
 2568SOL    HW219338   2.298   0.629   4.890 -1.4881  0.0906 -2.0313
 2569SOL     OW19339   4.046   2.565   8.062  0.0189  0.7404  0.2815
 2569SOL    HW119340   4.046   2.517   8.145 -0.1322  0.4966  0.1400
 2569SOL    HW219341   3.954   2.589   8.051 -0.3770 -2.1629 -2.6181
 2570SOL     OW19342   0.538   3.540   0.528  0.1465  0.1059 -0.4283
 2570SOL    HW119343   0.542   3.548   0.623  1.8270  0.1756 -0.5082
 2570SOL    HW219344   0.620   3.581   0.502  1.5728 -2.8537 -0.6451
 2571SOL     OW19345   1.334   2.243  10.522 -0.1924  0.1003  0.3039
 2571SOL    HW119346   1.351   2.257  10.429  0.9502 -1.1009  0.3290
 2571SOL    HW219347   1.250   2.289  10.526  0.1271  0.6418  0.7351
 2572SOL     OW19348   4.320   0.085  15.289 -0.4418 -0.0663 -0.2167
 2572SOL    HW119349   4.248   0.050  15.238  0.5456 -2.6919  0.1977
 2572SOL    HW219350   4.291   0.163  15.338 -1.8071 -2.3324  2.5909
 2573SOL     OW19351   4.365   4.521   6.716  0.0591  0.1634 -0.1102
 2573SOL    HW119352   4.275   4.533   6.686  0.6122 -0.7739 -2.1515
 2573SOL    HW219353   4.359   4.432   6.752  0.8256  0.3906  0.5943
 2574SOL     OW19354   1.430   2.360   6.794 -0.1221  0.0887 -0.9825
 2574SOL    HW119355   1.382   2.428   6.748 -0.5171  1.5872  1.6576
 2574SOL    HW219356   1.515   2.404   6.795  1.3449 -2.7434 -1.1647
 2575SOL     OW19357   3.584   0.183   6.226 -0.3023 -0.3512  0.4880
 2575SOL    HW119358   3.553   0.196   6.136  0.1895  2.2262  0.6946
 2575SOL    HW219359   3.673   0.157   6.202 -0.2573  0.7568 -0.5545
 2576SOL     OW19360   1.649   3.026   1.148  0.1363 -0.3854 -0.0873
 2576SOL    HW119361   1.667   3.102   1.204 -1.4530  0.6201 -0.9338
 2576SOL    HW219362   1.573   2.986   1.192  0.4704  0.7080  1.5086
 2577SOL     OW19363   3.616   3.739   3.204 -0.2181 -0.2180  0.5347
 2577SOL    HW119364   3.579   3.820   3.168 -0.6951 -1.2764 -1.3883
 2577SOL    HW219365   3.544   3.709   3.260 -0.4989 -1.0883 -0.2988
 2578SOL     OW19366   2.496   4.637   3.285  0.3145  0.4409 -0.0034
 2578SOL    HW119367   2.443   4.581   3.227  1.3578 -0.4030 -0.1392
 2578SOL    HW219368   2.420   4.662   3.338 -0.5210 -0.8693 -0.5710
 2579SOL     OW19369   2.578   1.248  11.084 -0.6945  0.3671  0.7187
 2579SOL    HW119370   2.640   1.243  11.157  0.1755 -3.2538 -0.2676
 2579SOL    HW219371   2.585   1.338  11.054  2.7771  0.8064  2.8605
 2580SOL     OW19372   3.025   1.884  12.551 -0.4782  0.0674 -0.5514
 2580SOL    HW119373   2.987   1.838  12.626 -1.0723  1.2619 -0.1161
 2580SOL    HW219374   3.062   1.810  12.503  2.0918  1.2769 -0.4421
 2581SOL     OW19375   1.436   3.883   3.666 -0.6252  0.0044  0.0480
 2581SOL    HW119376   1.425   3.830   3.587 -2.4674 -1.3456  1.2190
 2581SOL    HW219377   1.349   3.888   3.705 -0.6300 -1.7564  0.2821
 2582SOL     OW19378   3.100   0.042   2.597 -0.7563  0.1302 -0.4037
 2582SOL    HW119379   3.051   0.124   2.604 -3.0229 -1.2425 -0.1939
 2582SOL    HW219380   3.046   4.703   2.625 -0.2252  0.5571  1.6928
 2583SOL     OW19381   0.657   1.998   7.484 -0.3303 -0.0341  0.1883
 2583SOL    HW119382   0.613   1.945   7.417 -2.5635  1.4115  0.5143
 2583SOL    HW219383   0.655   2.087   7.449  2.0124 -0.1511 -0.2141
 2584SOL     OW19384   2.176   1.666   1.200 -0.2161  0.2459  0.1333
 2584SOL    HW119385   2.235   1.738   1.179 -0.7102  1.0594  1.5882
 2584SOL    HW219386   2.142   1.639   1.114  0.0447 -2.8504  1.0043
 2585SOL     OW19387   0.251   4.539   0.293 -0.2095 -0.4383  0.3709
 2585SOL    HW119388   0.257   4.446   0.316  0.6969 -0.4217  0.2066
 2585SOL    HW219389   0.333   4.574   0.259 -0.7989  1.0405  0.4854
 2586SOL     OW19390   1.715   3.892   3.807 -0.1199  0.2209  0.3553
 2586SOL    HW119391   1.724   3.847   3.723  1.3687 -0.7486  1.0245
 2586SOL    HW219392   1.674   3.970   3.770 -0.8255 -1.3378 -2.1763
 2587SOL     OW19393   1.432   3.071   3.029  0.1128  0.0304 -0.3038
 2587SOL    HW119394   1.355   3.070   3.087  0.5454  1.2781  0.2868
 2587SOL    HW219395   1.505   3.103   3.082 -0.0364  0.3436 -0.2920
 2588SOL     OW19396   3.634   3.495  16.548 -0.5641 -0.0743 -0.3473
 2588SOL    HW119397   3.568   3.426  16.537  1.1525 -1.5830 -1.2808
 2588SOL    HW219398   3.614   3.525  16.636 -2.0413 -0.1071 -0.6729
 2589SOL     OW19399   0.005   3.701  10.144 -0.3525 -0.1988 -0.4121
 2589SOL    HW119400   4.711   3.702  10.053 -1.3861  0.6380 -0.0636
 2589SOL    HW219401   0.020   3.606  10.149  0.2918  0.0168  1.8957
 2590SOL     OW19402   3.290   2.800  12.990 -0.5837  0.2430  0.4232
 2590SOL    HW119403   3.304   2.810  12.896  0.9071  1.6871  0.8044
 2590SOL    HW219404   3.377   2.767  13.012 -1.1298 -0.1822  1.9210
 2591SOL     OW19405   2.006   0.258  10.984  0.2154 -0.1222 -0.0246
 2591SOL    HW119406   1.922   0.221  10.956  0.0859 -0.0936  0.3216
 2591SOL    HW219407   2.033   0.278  10.895  0.3010 -1.6472 -0.3369
 2592SOL     OW19408   4.551   1.414  11.988 -0.1541 -0.0207 -0.1068
 2592SOL    HW119409   4.621   1.365  11.946  0.8693  1.6254 -0.3245
 2592SOL    HW219410   4.578   1.503  11.967  0.3432 -0.0544  0.3897
 2593SOL     OW19411   2.280   1.186  15.216  0.2378  0.0776 -0.2779
 2593SOL    HW119412   2.190   1.192  15.186 -0.0595  0.4336  0.6744
 2593SOL    HW219413   2.327   1.249  15.162 -0.1000  0.5671  0.0060
 2594SOL     OW19414   3.123   1.988   8.649 -0.3346 -0.4111  0.4000
 2594SOL    HW119415   3.165   2.074   8.659  0.0534 -0.3120 -2.0857
 2594SOL    HW219416   3.053   2.000   8.713 -0.1125 -0.0022  0.5674
 2595SOL     OW19417   2.619   4.290   5.573 -0.0923 -0.1727  0.0514
 2595SOL    HW119418   2.616   4.195   5.582  0.2352 -0.2280 -0.4484
 2595SOL    HW219419   2.700   4.315   5.528 -0.0082 -1.5858 -0.5895
 2596SOL     OW19420   2.395   0.595   4.189 -0.0056  0.3348  0.0463
 2596SOL    HW119421   2.489   0.582   4.204  0.2035  0.5851 -1.0079
 2596SOL    HW219422   2.375   0.551   4.107  0.1835  1.7841 -0.7850
 2597SOL     OW19423   0.452   0.882  12.265 -0.5021  0.3365 -0.1418
 2597SOL    HW119424   0.362   0.862  12.241 -0.1896  1.3354 -2.1598
 2597SOL    HW219425   0.464   0.938  12.188 -1.9846  0.3220 -0.3762
 2598SOL     OW19426   4.159   0.173  10.571  0.1291 -0.5011 -0.2284
 2598SOL    HW119427   4.123   0.174  10.483  0.2324  0.3780 -0.2621
 2598SOL    HW219428   4.135   0.085  10.601 -0.5166  0.3371  1.7523
 2599SOL     OW19429   1.921   3.321   8.540 -0.7965 -0.9484 -0.2893
 2599SOL    HW119430   1.907   3.333   8.634  1.1063  1.8087 -0.3712
 2599SOL    HW219431   1.892   3.230   8.527  0.5113 -1.4248  0.1264
 2600SOL     OW19432   0.133   4.200  16.838 -0.8430  0.2833 -0.4249
 2600SOL    HW119433   0.076   4.133  16.873 -0.4597 -0.0519 -0.4475
 2600SOL    HW219434   0.125   4.269  16.904 -1.1369  0.9705 -1.1750
 2601SOL     OW19435   4.427   1.594   6.351 -0.0552  0.5205 -1.0876
 2601SOL    HW119436   4.431   1.641   6.434 -2.3356 -1.8647  0.4061
 2601SOL    HW219437   4.410   1.668   6.293 -0.8275  1.9321  0.9912
 2602SOL     OW19438   3.730   1.528   6.479 -0.8126 -0.1537 -0.4275
 2602SOL    HW119439   3.670   1.507   6.408 -0.5270  1.4474 -1.1206
 2602SOL    HW219440   3.726   1.623   6.487 -1.7824 -0.0821 -1.8694
 2603SOL     OW19441   1.879   1.305  16.434 -0.2195  0.3857  0.5904
 2603SOL    HW119442   1.879   1.309  16.339  1.2352 -0.5380  0.5373
 2603SOL    HW219443   1.919   1.387  16.463  1.7970 -0.6960  0.9173
 2604SOL     OW19444   0.313   0.600   3.389 -0.3396 -0.2039 -0.1164
 2604SOL    HW119445   0.327   0.669   3.454 -0.4768 -1.0032  0.7501
 2604SOL    HW219446   0.223   0.629   3.370  0.7951  2.4923 -1.5222
 2605SOL     OW19447   0.169   1.181  17.098 -0.0750 -0.2972 -0.3005
 2605SOL    HW119448   0.230   1.124  17.145 -2.1277 -1.8251  0.5236
 2605SOL    HW219449   0.202   1.175  17.008 -1.2374 -1.7180 -0.6346
 2606SOL     OW19450   3.828   4.204   7.992  0.0079 -0.2380  0.0667
 2606SOL    HW119451   3.911   4.180   7.950  0.1401  0.6152 -0.1599
 2606SOL    HW219452   3.775   4.235   7.919  0.9422 -0.8902 -0.8876
 2607SOL     OW19453   1.220   2.905  16.835 -0.4820  0.0909 -0.3733
 2607SOL    HW119454   1.262   2.821  16.856 -2.0453 -0.7437 -0.5525
 2607SOL    HW219455   1.136   2.879  16.796 -0.3976 -1.3189  0.3877
 2608SOL     OW19456   3.949   1.677   6.133  0.2083  0.0212  0.1083
 2608SOL    HW119457   3.942   1.748   6.197  0.4705  0.1682 -0.0254
 2608SOL    HW219458   3.988   1.612   6.191 -1.8378  0.3839  1.8871
 2609SOL     OW19459   3.389   2.997   9.895 -0.3447  0.4335 -0.4605
 2609SOL    HW119460   3.391   3.064   9.963 -2.5706  1.2239 -1.1596
 2609SOL    HW219461   3.479   2.966   9.907 -0.2340  1.4773  1.3657
 2610SOL     OW19462   0.742   1.662   9.983  0.0582 -0.1180  0.0881
 2610SOL    HW119463   0.690   1.739   9.961 -0.9247 -0.6656  0.5246
 2610SOL    HW219464   0.778   1.696  10.064  0.9242 -3.1392  0.9884
 2611SOL     OW19465   1.169   3.668  11.464 -0.0477 -0.6468 -0.3409
 2611SOL    HW119466   1.137   3.710  11.544 -0.1168 -0.3038 -0.5475
 2611SOL    HW219467   1.236   3.616  11.507 -1.0896 -2.0821 -0.4614
 2612SOL     OW19468   0.267   3.319   1.684 -0.2107  0.2119 -0.1307
 2612SOL    HW119469   0.325   3.243   1.686  0.1863  0.5480  1.1419
 2612SOL    HW219470   0.274   3.341   1.591 -0.2131 -0.3126 -0.2550
 2613SOL     OW19471   4.156   3.851   6.594  0.3444  0.3645  0.3124
 2613SOL    HW119472   4.186   3.807   6.514  4.6193  1.8276  1.1294
 2613SOL    HW219473   4.210   3.929   6.598  0.6789  0.2236 -1.3658
 2614SOL     OW19474   3.253   4.230   2.028  0.3338 -0.2586 -0.0560
 2614SOL    HW119475   3.203   4.283   1.966 -0.1423 -1.7229 -0.9479
 2614SOL    HW219476   3.319   4.293   2.054  1.1750 -0.8623 -0.7291
 2615SOL     OW19477   2.947   4.553  15.919 -0.3353 -0.5116  0.0859
 2615SOL    HW119478   3.033   4.523  15.887 -0.2948 -0.0656 -0.2223
 2615SOL    HW219479   2.927   4.484  15.982 -0.9216 -0.8135 -0.4273
 2616SOL     OW19480   2.490   2.120   0.106 -0.2234 -0.0506  0.1200
 2616SOL    HW119481   2.569   2.099   0.156  0.8454 -2.5067 -2.5642
 2616SOL    HW219482   2.455   2.195   0.153  0.0669  0.1158  0.0737
 2617SOL     OW19483   2.181   4.118   4.687  0.6074 -0.7539  0.3340
 2617SOL    HW119484   2.120   4.162   4.747  0.2832  0.1974 -0.6892
 2617SOL    HW219485   2.244   4.095   4.755  0.3823 -0.9487  0.4761
 2618SOL     OW19486   3.940   0.155   3.118  0.2326 -0.3364 -0.3675
 2618SOL    HW119487   3.878   0.151   3.045  0.7523 -1.8568 -0.7332
 2618SOL    HW219488   4.007   0.217   3.088  1.7975 -1.8923 -0.0952
 2619SOL     OW19489   2.617   3.811   7.360  0.1774 -0.0117  0.4675
 2619SOL    HW119490   2.704   3.828   7.322 -0.2474 -0.5125 -0.7134
 2619SOL    HW219491   2.638   3.768   7.444  0.2087 -0.1397  0.3946
 2620SOL     OW19492   3.125   3.235   6.183 -0.0410  0.5424  0.1739
 2620SOL    HW119493   3.054   3.299   6.183  3.8106  4.7305  0.4537
 2620SOL    HW219494   3.133   3.219   6.089  0.3756  1.8595 -0.0060
 2621SOL     OW19495   2.155   3.699   8.363 -0.0571  0.0291 -0.5663
 2621SOL    HW119496   2.092   3.627   8.358 -1.0533  0.6219  3.1960
 2621SOL    HW219497   2.234   3.647   8.370 -1.1817 -1.2100  2.8681
 2622SOL     OW19498   4.002   0.925  14.422  0.3413 -0.2163 -0.2394
 2622SOL    HW119499   4.050   0.842  14.414  2.1881  0.8812 -0.3904
 2622SOL    HW219500   3.978   0.936  14.330 -0.4985 -2.1715 -0.2590
 2623SOL     OW19501   0.186   3.098   9.320  0.3321  0.3966  0.1850
 2623SOL    HW119502   0.178   3.071   9.411 -0.2322 -2.6713 -0.7645
 2623SOL    HW219503   0.126   3.038   9.276 -0.8055  3.2839 -2.2159
 2624SOL     OW19504   4.207   2.574   8.445 -0.0330  0.4002 -0.2084
 2624SOL    HW119505   4.272   2.505   8.432 -1.7370 -1.2832  0.1810
 2624SOL    HW219506   4.152   2.526   8.506  1.6175 -2.1576 -0.7275
 2625SOL     OW19507   0.448   0.038   4.307 -0.1532 -0.9655 -0.0822
 2625SOL    HW119508   0.518   0.034   4.242  0.4855 -0.6203  0.5861
 2625SOL    HW219509   0.434   0.133   4.303  3.4511 -0.4923 -0.7990
 2626SOL     OW19510   0.989   4.399  14.568 -0.5789 -0.3993 -0.7151
 2626SOL    HW119511   1.043   4.388  14.489 -0.2325  0.3464 -0.5769
 2626SOL    HW219512   0.939   4.480  14.561  0.2120  0.5016  4.1031
 2627SOL     OW19513   3.350   4.712   8.145  0.2735  0.0188  1.0996
 2627SOL    HW119514   3.290   4.643   8.171 -0.4753  1.9088  4.4109
 2627SOL    HW219515   3.351   4.694   8.051  1.4554  1.5242  0.8203
 2628SOL     OW19516   2.083   1.816   2.504  0.4161  0.4048  0.5019
 2628SOL    HW119517   2.068   1.727   2.536 -0.9521  1.2898  2.3057
 2628SOL    HW219518   2.038   1.862   2.574 -0.6390  0.2897 -0.1019
 2629SOL     OW19519   3.561   0.293  11.083 -0.9140 -0.2662  0.1942
 2629SOL    HW119520   3.467   0.311  11.084 -0.9698 -0.5537  0.0521
 2629SOL    HW219521   3.599   0.378  11.104 -0.4984  0.0083 -1.6711
 2630SOL     OW19522   2.783   1.222  10.582  0.6232  0.3356  0.5559
 2630SOL    HW119523   2.724   1.204  10.654 -0.9009 -0.8805 -0.9947
 2630SOL    HW219524   2.730   1.247  10.506 -1.3101 -4.7083  0.3043
 2631SOL     OW19525   2.256   1.266   2.906 -0.0996  0.4935  0.1159
 2631SOL    HW119526   2.303   1.234   2.828 -0.8473  0.9376 -0.5160
 2631SOL    HW219527   2.195   1.332   2.873  0.6373  1.3959  0.5987
 2632SOL     OW19528   0.933   0.945   4.499  0.7562 -0.4863  0.5830
 2632SOL    HW119529   0.989   1.020   4.517  1.1548 -0.7231  0.3386
 2632SOL    HW219530   0.988   0.881   4.453  2.4954  0.9175  0.7349
 2633SOL     OW19531   4.001   4.600   1.166 -0.0500  0.3567 -0.6788
 2633SOL    HW119532   3.961   4.523   1.128 -2.5900  1.8042 -0.9050
 2633SOL    HW219533   4.084   4.561   1.195 -0.4092  1.4906  1.8677
 2634SOL     OW19534   3.801   4.201  16.351  0.2349 -0.3450  0.0296
 2634SOL    HW119535   3.850   4.272  16.310  1.4799 -0.9810  0.4332
 2634SOL    HW219536   3.708   4.223  16.352  0.2424 -0.3321  0.8805
 2635SOL     OW19537   3.856   2.813   2.290 -0.0584 -0.3723  0.6391
 2635SOL    HW119538   3.842   2.720   2.305  1.7783 -0.9836 -1.5160
 2635SOL    HW219539   3.819   2.842   2.374  0.4053  0.7795  0.4486
 2636SOL     OW19540   0.292   0.883  15.913 -0.8551 -0.4586  0.2217
 2636SOL    HW119541   0.379   0.881  15.873  0.3386 -0.6486  2.8710
 2636SOL    HW219542   0.236   0.813  15.880  0.2563 -1.1701 -0.1647
 2637SOL     OW19543   2.592   4.022   7.122  0.4485  0.5380 -0.4869
 2637SOL    HW119544   2.677   3.978   7.120  0.2869  0.0862  1.9903
 2637SOL    HW219545   2.601   4.064   7.208 -0.5395  0.3594 -0.2909
 2638SOL     OW19546   3.761   4.550   6.509 -0.2010 -0.4761  0.1855
 2638SOL    HW119547   3.726   4.637   6.490 -1.8464 -1.2221 -0.1451
 2638SOL    HW219548   3.690   4.500   6.549 -0.7264  0.5742  0.5703
 2639SOL     OW19549   1.718   2.748   2.342  0.6050 -0.1550 -0.1028
 2639SOL    HW119550   1.645   2.803   2.368  1.2205 -0.0120  1.3149
 2639SOL    HW219551   1.696   2.715   2.255  2.0669  1.6244 -1.1471
 2640SOL     OW19552   0.624   3.383   2.899  0.3310  0.6004 -0.2247
 2640SOL    HW119553   0.570   3.463   2.896 -1.7653 -0.7567  1.3726
 2640SOL    HW219554   0.609   3.355   2.989 -2.2071  0.0850 -0.7901
 2641SOL     OW19555   1.324   3.377   4.345 -0.5391 -0.0860 -0.1609
 2641SOL    HW119556   1.249   3.435   4.329 -2.5150 -2.4586  0.5377
 2641SOL    HW219557   1.307   3.349   4.435 -2.8120 -2.4949 -1.3465
 2642SOL     OW19558   0.571   2.270   9.104  0.2544  0.5150  0.3054
 2642SOL    HW119559   0.583   2.213   9.028  1.9464  0.3670  0.6787
 2642SOL    HW219560   0.594   2.209   9.174 -0.0311 -0.5229 -0.5232
 2643SOL     OW19561   0.784   0.107   5.148 -0.3889  0.3717 -0.4543
 2643SOL    HW119562   0.700   0.095   5.105 -0.4875 -2.4111  0.4986
 2643SOL    HW219563   0.836   0.133   5.072  1.7284 -3.5051 -0.3117
 2644SOL     OW19564   0.307   4.194   3.558  0.0155  0.0570 -0.1627
 2644SOL    HW119565   0.347   4.264   3.506  3.4223 -0.6697  1.4914
 2644SOL    HW219566   0.244   4.149   3.501 -0.1124 -0.7993  0.6476
 2645SOL     OW19567   2.825   2.672   3.359 -0.2644 -0.0120  0.5096
 2645SOL    HW119568   2.776   2.597   3.324  0.1221 -0.2009  0.3789
 2645SOL    HW219569   2.819   2.744   3.296  0.3909 -0.0520  0.4083
 2646SOL     OW19570   2.337   4.714   8.932  0.5099 -0.5206 -0.1039
 2646SOL    HW119571   2.345   0.068   8.899 -1.1640 -0.7331 -1.0841
 2646SOL    HW219572   2.281   4.689   8.858 -1.6032  1.6919  0.7223
 2647SOL     OW19573   0.847   1.262   9.616 -0.5532 -0.7451  0.1248
 2647SOL    HW119574   0.802   1.313   9.683  0.0126 -0.6938  0.4590
 2647SOL    HW219575   0.817   1.314   9.541 -0.8700 -0.1506  0.6674
 2648SOL     OW19576   1.457   2.707   8.917  0.0383  0.2225 -0.1858
 2648SOL    HW119577   1.405   2.692   8.996  3.2824 -0.4607  1.8093
 2648SOL    HW219578   1.460   2.626   8.867 -1.0549 -1.0936  1.8884
 2649SOL     OW19579   1.789   4.287   6.677  0.1257  0.1539 -0.0527
 2649SOL    HW119580   1.818   4.244   6.596 -0.5902  0.1357 -0.2978
 2649SOL    HW219581   1.856   4.354   6.688  0.2607 -0.2823  1.7985
 2650SOL     OW19582   4.576   0.033   2.870  0.6216  0.2656 -0.0418
 2650SOL    HW119583   4.629   0.026   2.790 -1.3518 -0.1953 -1.3172
 2650SOL    HW219584   4.538   0.121   2.859  1.3040  0.5507 -0.0903
 2651SOL     OW19585   3.260   1.401   5.437 -0.3946  0.2410  0.1492
 2651SOL    HW119586   3.324   1.413   5.367 -2.0667 -0.0332 -1.4293
 2651SOL    HW219587   3.259   1.305   5.444 -0.5525  0.2777  0.6481
 2652SOL     OW19588   2.903   0.733   2.430  0.4914  0.5868  0.5358
 2652SOL    HW119589   2.819   0.716   2.387 -1.2902  3.0838  2.9096
 2652SOL    HW219590   2.930   0.655   2.478  0.3022 -0.6915 -1.4811
 2653SOL     OW19591   3.748   4.326  13.521  0.0048 -0.3383  0.2075
 2653SOL    HW119592   3.692   4.279  13.583  0.6433 -0.8825  0.3684
 2653SOL    HW219593   3.762   4.257  13.457  0.4212  0.0555 -0.1274
 2654SOL     OW19594   4.283   2.827   2.706 -0.0714  0.2219  0.5438
 2654SOL    HW119595   4.334   2.838   2.626 -0.2224  2.2075  0.7168
 2654SOL    HW219596   4.224   2.903   2.701 -1.1704 -0.6103  1.0283
 2655SOL     OW19597   0.903   4.541  15.115 -0.2557  0.0010  0.0202
 2655SOL    HW119598   0.983   4.489  15.124 -0.6874 -0.8380 -1.0568
 2655SOL    HW219599   0.892   4.533  15.021  0.8528 -0.5780 -0.0619
 2656SOL     OW19600   3.936   0.662   7.023  0.0750  0.7513  0.4237
 2656SOL    HW119601   3.917   0.573   7.051  0.0077  0.6084 -0.0845
 2656SOL    HW219602   4.031   0.659   7.019  0.1649  0.8584  2.5171
 2657SOL     OW19603   4.498   3.707   8.254 -0.2753  0.3321  0.0507
 2657SOL    HW119604   4.535   3.731   8.169  0.7706  0.3505  0.5024
 2657SOL    HW219605   4.556   3.632   8.269  0.6207  0.4887 -2.5616
 2658SOL     OW19606   1.955   4.191   4.506  0.5081 -0.4140 -0.1725
 2658SOL    HW119607   2.041   4.169   4.543  0.6449  0.6282  0.1463
 2658SOL    HW219608   1.916   4.104   4.508 -0.7126  0.1045 -1.6716
 2659SOL     OW19609   3.505   1.251   1.664 -0.2993  0.3601 -0.0364
 2659SOL    HW119610   3.428   1.253   1.720 -0.9857 -1.3942 -0.9029
 2659SOL    HW219611   3.524   1.340   1.637 -2.5026  1.1200  0.9391
 2660SOL     OW19612   3.058   4.619  15.483  0.3192 -0.4445 -0.1398
 2660SOL    HW119613   2.968   4.590  15.503 -0.0518  0.3775 -0.6365
 2660SOL    HW219614   3.039   4.656  15.397  0.3030  0.1076  0.1081
 2661SOL     OW19615   2.701   0.341   0.959  0.3992 -0.0906  0.5681
 2661SOL    HW119616   2.673   0.346   0.867  1.3872 -1.6357  0.1835
 2661SOL    HW219617   2.620   0.367   1.002  0.2239  0.8944 -0.3477
 2662SOL     OW19618   0.408   3.703   7.895 -0.3722  0.2701 -0.4157
 2662SOL    HW119619   0.368   3.767   7.954 -1.7396  1.0000 -2.1398
 2662SOL    HW219620   0.328   3.654   7.875 -0.0544 -0.2683 -0.3746
 2663SOL     OW19621   2.737   4.583   9.248 -0.1220 -0.0502  0.1567
 2663SOL    HW119622   2.692   4.504   9.275 -0.2016  0.3647  1.2497
 2663SOL    HW219623   2.687   4.603   9.169  0.4717 -0.0260 -0.2133
 2664SOL     OW19624   2.442   3.966   7.757 -0.1596 -0.0343 -0.0809
 2664SOL    HW119625   2.433   4.049   7.803 -0.7965 -0.3633  0.3734
 2664SOL    HW219626   2.536   3.961   7.738  0.0267  2.0103  0.3136
 2665SOL     OW19627   1.335   3.655   1.112 -0.4583 -0.1752 -0.0900
 2665SOL    HW119628   1.242   3.634   1.116 -0.8153  1.7266  1.2349
 2665SOL    HW219629   1.367   3.584   1.055 -1.0980  0.4827 -1.2636
 2666SOL     OW19630   1.279   3.575   2.960 -0.5099 -0.0080 -0.3907
 2666SOL    HW119631   1.242   3.639   2.899  0.2442  2.0494  1.3535
 2666SOL    HW219632   1.307   3.504   2.902 -2.0709  0.8853 -2.2556
 2667SOL     OW19633   0.202   0.102   8.580 -0.1180 -0.1450 -0.7120
 2667SOL    HW119634   0.116   0.105   8.620 -0.0231  0.1632 -0.5278
 2667SOL    HW219635   0.255   0.046   8.638 -1.3389 -0.6220 -0.0719
 2668SOL     OW19636   3.331   2.224   2.672  0.1194 -0.1977  0.8114
 2668SOL    HW119637   3.285   2.290   2.619  2.3837  1.9753  1.5940
 2668SOL    HW219638   3.322   2.256   2.761  3.0124  2.2421  0.1875
 2669SOL     OW19639   4.686   0.645   5.814 -0.5888  0.1017  0.2342
 2669SOL    HW119640   4.731   0.607   5.889  0.5916  0.5572 -0.2402
 2669SOL    HW219641   4.598   0.654   5.851 -1.1952 -3.1252 -0.4673
 2670SOL     OW19642   1.474   2.876   2.044  0.8179  0.1836 -0.0351
 2670SOL    HW119643   1.500   2.911   1.959  1.8467  0.4636  0.3876
 2670SOL    HW219644   1.551   2.820   2.057  0.5546 -0.0062  0.6976
 2671SOL     OW19645   0.525   4.142   8.690  0.0386  0.0332  0.0218
 2671SOL    HW119646   0.451   4.133   8.750  0.6769  0.4977  0.8737
 2671SOL    HW219647   0.553   4.231   8.711 -1.1943  0.8333 -1.7243
 2672SOL     OW19648   0.086   2.724   4.524  0.5436 -0.2248  0.0220
 2672SOL    HW119649   0.059   2.802   4.573  1.3484 -0.5330  0.9536
 2672SOL    HW219650   0.051   2.658   4.583 -0.0112 -2.2503 -2.5326
 2673SOL     OW19651   0.682   0.334   2.620 -0.5699 -0.2329  0.0655
 2673SOL    HW119652   0.587   0.346   2.612 -0.4000  1.2935  0.2565
 2673SOL    HW219653   0.690   0.240   2.636  1.8512 -0.2503 -1.2755
 2674SOL     OW19654   0.702   1.774  12.418  0.3269  1.1414  0.3459
 2674SOL    HW119655   0.625   1.737  12.374  0.8476  0.4277  0.0261
 2674SOL    HW219656   0.735   1.706  12.477  0.2717  0.8111  0.0032
 2675SOL     OW19657   4.208   0.765   7.022  0.0524 -0.2370 -0.2870
 2675SOL    HW119658   4.219   0.767   7.117  0.3330  0.2160 -0.3294
 2675SOL    HW219659   4.281   0.706   7.002  0.4917 -0.3129  1.6037
 2676SOL     OW19660   3.851   1.881  17.603  0.5194 -0.4373  1.0500
 2676SOL    HW119661   3.872   1.788  17.619 -1.0732 -0.7861  1.0528
 2676SOL    HW219662   3.811   1.877  17.517  0.6829  2.6542  0.8347
 2677SOL     OW19663   1.216   4.127   4.866  0.1765  0.0491 -0.3128
 2677SOL    HW119664   1.213   4.149   4.773 -0.5571 -0.7876 -0.4869
 2677SOL    HW219665   1.275   4.191   4.905  0.5067  0.8169 -2.0765
 2678SOL     OW19666   2.296   1.603   7.372  0.2671  0.7197 -0.0886
 2678SOL    HW119667   2.301   1.684   7.320  0.3752 -0.8945 -2.5547
 2678SOL    HW219668   2.254   1.537   7.317 -0.4764  1.0755  0.0475
 2679SOL     OW19669   0.287   2.284  12.560 -0.6531 -0.6098 -0.3324
 2679SOL    HW119670   0.289   2.203  12.509  1.7301 -0.7544  0.0057
 2679SOL    HW219671   0.208   2.325  12.525 -1.4137  0.4147  2.6098
 2680SOL     OW19672   0.462   3.667   6.129 -0.5551 -0.5195 -0.6466
 2680SOL    HW119673   0.370   3.643   6.118 -1.3808  2.8382 -0.8640
 2680SOL    HW219674   0.489   3.629   6.045  1.9926  1.3958 -0.6811
 2681SOL     OW19675   1.658   2.001   7.253  0.5868  0.0179  0.3069
 2681SOL    HW119676   1.619   1.991   7.340 -0.1690 -1.0783 -0.1505
 2681SOL    HW219677   1.675   2.095   7.262 -0.5675  0.1691  1.0292
 2682SOL     OW19678   0.465   0.005  13.162 -0.3306 -0.5159 -0.2775
 2682SOL    HW119679   0.380   0.009  13.206 -0.2950 -0.3448 -0.2228
 2682SOL    HW219680   0.454   4.669  13.100 -1.8377  2.1438 -3.0627
 2683SOL     OW19681   3.845   2.088   4.840 -0.0133 -0.4436  0.5177
 2683SOL    HW119682   3.938   2.085   4.861  0.3429  0.2509 -0.9928
 2683SOL    HW219683   3.839   2.176   4.804 -0.2161 -1.5281 -2.1496
 2684SOL     OW19684   1.370   4.315   8.545 -0.1639  0.2319  0.0128
 2684SOL    HW119685   1.401   4.404   8.529  0.9365 -0.3176 -0.9842
 2684SOL    HW219686   1.354   4.304   8.639 -1.8243  1.0022 -0.1882
 2685SOL     OW19687   0.506   2.220   5.600  0.4226 -0.0829  0.2977
 2685SOL    HW119688   0.546   2.134   5.611  1.0964  0.1206 -0.5312
 2685SOL    HW219689   0.507   2.223   5.504 -0.8851  1.2115  0.3205
 2686SOL     OW19690   1.466   3.628   7.074  0.4700  0.2848 -0.2652
 2686SOL    HW119691   1.440   3.547   7.117 -0.5686 -0.2814 -1.9493
 2686SOL    HW219692   1.422   3.611   6.991  2.7301 -0.5981 -1.2947
 2687SOL     OW19693   1.267   3.213  11.631 -0.2447  0.3510 -0.3324
 2687SOL    HW119694   1.324   3.258  11.693 -0.0133 -1.5095  0.8000
 2687SOL    HW219695   1.197   3.278  11.623 -0.0423  0.3572 -2.0808
 2688SOL     OW19696   0.460   1.397   5.333  0.2019  0.4211 -0.3604
 2688SOL    HW119697   0.483   1.463   5.398  2.4091 -0.5225 -0.1719
 2688SOL    HW219698   0.380   1.429   5.291 -0.7294  1.3476  2.1159
 2689SOL     OW19699   0.341   2.622   3.824  0.1920 -0.0230 -0.1167
 2689SOL    HW119700   0.352   2.715   3.843 -0.2988  0.0699 -0.2784
 2689SOL    HW219701   0.346   2.579   3.909 -0.3739 -1.4088 -0.7797
 2690SOL     OW19702   0.578   2.750  14.200 -0.2028 -0.2700 -0.7215
 2690SOL    HW119703   0.509   2.689  14.175 -0.6194 -0.6573  1.3114
 2690SOL    HW219704   0.600   2.713  14.286 -1.6421  1.3264  0.3157
 2691SOL     OW19705   3.280   1.654   2.018  0.4196  0.1706 -0.2836
 2691SOL    HW119706   3.329   1.634   2.098  1.6485 -0.8027 -1.2954
 2691SOL    HW219707   3.345   1.639   1.950  1.3892  1.4745  0.3427
 2692SOL     OW19708   2.798   0.107   1.074 -0.7264  0.4174  0.3368
 2692SOL    HW119709   2.735   0.041   1.047 -1.0695  1.5139 -1.5951
 2692SOL    HW219710   2.770   0.185   1.026 -0.9143 -0.3980 -0.8752
 2693SOL     OW19711   2.657   0.070   8.780 -0.3752 -0.1210 -0.1863
 2693SOL    HW119712   2.635   0.108   8.695 -0.5693 -0.7491 -0.4189
 2693SOL    HW219713   2.696   0.147   8.820 -1.4815  0.0565  0.5461
 2694SOL     OW19714   3.078   1.068   2.224  0.0494  0.3054  0.3604
 2694SOL    HW119715   3.108   1.147   2.180  0.7195  0.0610  0.3768
 2694SOL    HW219716   3.151   1.046   2.281  0.7687 -1.3129 -1.1807
 2695SOL     OW19717   3.501   4.504   8.385  0.3032  0.2424 -0.0666
 2695SOL    HW119718   3.591   4.536   8.387  0.5677 -0.4176 -1.4195
 2695SOL    HW219719   3.456   4.549   8.457 -1.1919 -1.1274 -0.1512
 2696SOL     OW19720   2.079   2.199   2.199 -0.3816 -0.2164  0.5337
 2696SOL    HW119721   2.064   2.236   2.286 -1.2193  1.2313 -0.2469
 2696SOL    HW219722   2.081   2.283   2.154  2.1128  0.0491  1.1183
 2697SOL     OW19723   1.784   2.471   0.857 -0.0583  0.1949 -0.3082
 2697SOL    HW119724   1.714   2.408   0.876 -0.2752  0.3417 -0.6237
 2697SOL    HW219725   1.854   2.419   0.817 -1.4034 -1.2999 -0.6908
 2698SOL     OW19726   3.466   4.640   4.064 -0.6964 -0.0329  0.0618
 2698SOL    HW119727   3.391   4.589   4.096  0.8524 -2.1774  0.2264
 2698SOL    HW219728   3.493   4.576   3.999 -0.7064  0.4824 -0.4538
 2699SOL     OW19729   0.531   0.833  15.748 -0.3720 -0.2264 -0.1615
 2699SOL    HW119730   0.552   0.743  15.773  0.8741  0.7908  2.4385
 2699SOL    HW219731   0.620   0.848  15.718 -0.4712 -0.8934 -0.7919
 2700SOL     OW19732   4.308   0.661   4.964 -0.0935  0.0679 -0.1475
 2700SOL    HW119733   4.235   0.638   4.907 -0.5991  1.1628  0.0608
 2700SOL    HW219734   4.376   0.683   4.900  1.0586 -0.3542  0.9263
 2701SOL     OW19735   0.718   3.674   3.821 -0.1896  1.2137 -0.3348
 2701SOL    HW119736   0.795   3.617   3.817 -1.4424 -0.4832 -0.2544
 2701SOL    HW219737   0.756   3.754   3.784 -0.6834  2.5677  2.0905
 2702SOL     OW19738   3.680   2.121   1.761 -0.2384  0.4293 -0.1444
 2702SOL    HW119739   3.727   2.047   1.723  0.4785  1.2386 -0.8558
 2702SOL    HW219740   3.592   2.092   1.739  1.3295 -3.9047 -0.6139
 2703SOL     OW19741   0.189   0.221   7.273  0.0114  0.1461  0.1559
 2703SOL    HW119742   0.255   0.153   7.263 -0.9964 -0.5767 -1.6140
 2703SOL    HW219743   0.149   0.190   7.354  1.8290  0.9680  1.3897
 2704SOL     OW19744   1.140   0.763   7.171 -0.4638  0.1913  0.4935
 2704SOL    HW119745   1.128   0.711   7.091  0.0399  1.5276 -0.4517
 2704SOL    HW219746   1.236   0.771   7.177 -0.5313  0.7160  0.8390
 2705SOL     OW19747   1.585   1.509   8.696  0.1943 -0.0586 -0.6349
 2705SOL    HW119748   1.540   1.438   8.743 -0.7524  0.7961 -0.2474
 2705SOL    HW219749   1.673   1.501   8.732  0.4052 -1.6877 -1.4997
 2706SOL     OW19750   0.209   1.682   4.100  0.2798  0.1689  0.5702
 2706SOL    HW119751   0.187   1.594   4.131 -0.5687 -0.3055 -1.4266
 2706SOL    HW219752   0.299   1.686   4.134  0.4476  2.5186 -0.1125
 2707SOL     OW19753   0.986   2.148  13.061  0.3498 -0.7029  0.1896
 2707SOL    HW119754   1.047   2.129  12.990  0.0817  0.2945 -0.3157
 2707SOL    HW219755   1.047   2.195  13.119  2.2632 -2.7121 -0.1879
 2708SOL     OW19756   0.726   3.419  14.169  0.5266  0.0193 -0.0781
 2708SOL    HW119757   0.758   3.360  14.238 -1.1166 -0.4906  0.2451
 2708SOL    HW219758   0.794   3.398  14.105  3.3617  4.1069  1.5535
 2709SOL     OW19759   3.527   3.515   7.279 -0.2992 -0.3882 -0.1661
 2709SOL    HW119760   3.504   3.426   7.305 -1.0345  0.1775  1.1273
 2709SOL    HW219761   3.444   3.562   7.288  0.2049  0.7907 -1.9106
 2710SOL     OW19762   0.648   1.565  11.526 -0.1756 -0.0604 -0.0951
 2710SOL    HW119763   0.676   1.646  11.568  0.5527  0.9328 -2.5284
 2710SOL    HW219764   0.609   1.598  11.446  0.8568 -0.7857 -0.8998
 2711SOL     OW19765   2.842   3.078   0.757 -0.5478  0.5172 -0.2292
 2711SOL    HW119766   2.909   3.011   0.744  0.7127  1.7432 -0.0329
 2711SOL    HW219767   2.842   3.112   0.846 -2.0137  1.3428 -0.5390
 2712SOL     OW19768   2.684   0.219  12.706  0.3273 -0.0624  0.4743
 2712SOL    HW119769   2.730   0.139  12.680 -0.1443  0.0275 -0.6131
 2712SOL    HW219770   2.595   0.185  12.710  0.0340  0.8442  1.7099
 2713SOL     OW19771   1.912   2.986   5.965 -0.5009 -0.0397  0.1939
 2713SOL    HW119772   1.988   2.959   6.017  0.8074  1.7400 -0.7642
 2713SOL    HW219773   1.956   3.047   5.905 -1.9854  1.1298  0.2998
 2714SOL     OW19774   0.227   3.756   8.146  0.1863 -0.0145 -0.4746
 2714SOL    HW119775   0.260   3.677   8.189 -2.2538 -0.7043  0.1296
 2714SOL    HW219776   0.164   3.794   8.207 -2.5873 -0.6880 -2.9517
 2715SOL     OW19777   3.804   0.750   0.188  0.1023 -0.1688 -0.6985
 2715SOL    HW119778   3.880   0.708   0.228  0.9035  0.6666 -1.3580
 2715SOL    HW219779   3.842   0.832   0.157  1.3976 -0.9640 -1.1848
 2716SOL     OW19780   2.114   0.566   7.733 -0.2284 -0.0242 -0.3252
 2716SOL    HW119781   2.189   0.617   7.700 -1.2120  0.4547 -1.8410
 2716SOL    HW219782   2.163   0.505   7.787 -1.0619  0.7580  1.2882
 2717SOL     OW19783   1.439   1.433   2.800 -0.1802 -0.6358  0.5067
 2717SOL    HW119784   1.438   1.524   2.830 -0.0967 -0.2861 -0.5416
 2717SOL    HW219785   1.368   1.401   2.856 -1.9198 -0.8928 -1.8679
 2718SOL     OW19786   0.899   3.744   7.614 -0.2198 -0.9421  0.2768
 2718SOL    HW119787   0.989   3.712   7.614  0.3593  0.6501  0.4948
 2718SOL    HW219788   0.904   3.839   7.630 -0.5895 -0.7799 -0.5355
 2719SOL     OW19789   1.983   3.417   7.055  0.3661 -0.2821  0.0923
 2719SOL    HW119790   1.955   3.381   7.139  3.3580  1.5036  1.8727
 2719SOL    HW219791   2.020   3.339   7.015 -1.1928 -0.9268 -0.0754
 2720SOL     OW19792   3.901   2.782   6.192  0.1631  0.4322  0.5345
 2720SOL    HW119793   3.984   2.825   6.171  1.3301 -1.6068  0.9574
 2720SOL    HW219794   3.935   2.716   6.251 -0.4813  0.7941  1.3150
 2721SOL     OW19795   0.628   2.748   9.152  0.0390 -0.0490  0.2313
 2721SOL    HW119796   0.647   2.785   9.238  1.3052 -1.7376  0.6796
 2721SOL    HW219797   0.714   2.712   9.132 -0.0275 -0.0988  0.0366
 2722SOL     OW19798   2.980   2.945   8.705 -0.5363 -0.8611 -0.2276
 2722SOL    HW119799   3.056   2.951   8.647 -1.3649 -1.6322 -1.3941
 2722SOL    HW219800   3.018   2.876   8.760  0.1637  1.2383  1.9512
 2723SOL     OW19801   1.996   0.875   5.284  0.8301  0.0001 -0.5902
 2723SOL    HW119802   2.009   0.966   5.254 -2.0443  0.5600 -0.1882
 2723SOL    HW219803   2.028   0.879   5.374  0.5265 -0.1933 -0.4727
 2724SOL     OW19804   2.093   3.950   3.322 -0.1340  0.6090 -0.5848
 2724SOL    HW119805   2.034   3.978   3.392 -1.6615  0.1793 -1.7024
 2724SOL    HW219806   2.032   3.919   3.255 -0.1709  0.0569 -0.2985
 2725SOL     OW19807   1.155   1.257   6.786 -0.1976  0.0596  0.7876
 2725SOL    HW119808   1.131   1.343   6.822 -0.7682  0.3308 -0.2375
 2725SOL    HW219809   1.080   1.230   6.733  0.8165  2.0821 -1.7101
 2726SOL     OW19810   2.242   4.413   2.701  0.4538 -0.2658 -0.7961
 2726SOL    HW119811   2.153   4.380   2.717  0.2722  0.5034 -0.2352
 2726SOL    HW219812   2.288   4.351   2.644  1.5561  1.6806 -2.0434
 2727SOL     OW19813   1.636   3.015   0.860 -0.3600 -0.0409  0.0685
 2727SOL    HW119814   1.672   3.029   0.947 -3.8799  0.4881  1.4313
 2727SOL    HW219815   1.680   2.934   0.836  0.5036  0.4175  0.1129
 2728SOL     OW19816   2.592   3.115  16.160 -0.0741  0.4833  0.2647
 2728SOL    HW119817   2.514   3.113  16.215  0.5445 -1.3790  1.0878
 2728SOL    HW219818   2.597   3.023  16.134  0.9336  0.0953  1.8321
 2729SOL     OW19819   2.937   4.295   4.171  0.2240 -0.6741  0.3016
 2729SOL    HW119820   2.909   4.213   4.212 -1.0059  0.0956  1.0035
 2729SOL    HW219821   3.000   4.325   4.237  0.2444  0.3629 -0.1916
 2730SOL     OW19822   3.911   0.435  17.685 -0.5145 -0.5406 -0.2852
 2730SOL    HW119823   3.941   0.526  17.690  0.7104 -0.9832  0.2226
 2730SOL    HW219824   3.909   0.413   0.036  2.6993 -0.3048 -0.1624
 2731SOL     OW19825   0.615   1.207   3.867  0.0112  0.0428  0.3697
 2731SOL    HW119826   0.695   1.154   3.869  0.8126  1.2374  0.2551
 2731SOL    HW219827   0.622   1.245   3.955 -1.9551 -2.8716  1.7476
 2732SOL     OW19828   2.953   2.565   7.199  0.1663  0.4673  0.3735
 2732SOL    HW119829   2.931   2.647   7.157  0.0353  0.3912  0.2927
 2732SOL    HW219830   2.868   2.559   7.243 -0.7661  0.6413 -1.4198
 2733SOL     OW19831   3.046   1.079   8.891 -0.0800 -0.2135 -0.0812
 2733SOL    HW119832   2.980   1.138   8.855  1.3541 -0.2333 -2.7843
 2733SOL    HW219833   3.080   1.032   8.815 -1.4902  0.2841 -1.0267
 2734SOL     OW19834   0.794   1.171   9.979  0.5080  0.1868 -0.7819
 2734SOL    HW119835   0.773   1.256   9.941 -0.0701 -0.5988 -2.2461
 2734SOL    HW219836   0.837   1.204  10.058  1.8264  0.2590 -1.5127
 2735SOL     OW19837   1.546   4.105   6.164  0.0889  0.4700 -0.9324
 2735SOL    HW119838   1.573   4.051   6.090  0.9417  1.0682 -1.0557
 2735SOL    HW219839   1.625   4.091   6.216  0.3338  1.3430 -1.0662
 2736SOL     OW19840   2.095   4.650   0.481  0.0033 -0.7394  0.2462
 2736SOL    HW119841   2.164   4.651   0.414 -0.7074  1.8264 -0.4663
 2736SOL    HW219842   2.104   0.003   0.517 -1.7206 -0.9607  1.2084
 2737SOL     OW19843   0.568   2.410   3.090 -0.4689  0.2964  0.6840
 2737SOL    HW119844   0.572   2.405   2.995 -0.6190  1.4266  0.6242
 2737SOL    HW219845   0.653   2.450   3.110 -0.8399  2.2866 -1.8390
 2738SOL     OW19846   1.730   4.259   8.875  0.0857 -0.0830 -0.2229
 2738SOL    HW119847   1.724   4.255   8.971 -1.3786 -0.5154 -0.3343
 2738SOL    HW219848   1.697   4.348   8.878 -0.4594 -0.2358 -2.2886
 2739SOL     OW19849   0.054   1.324   8.329  0.2459 -0.4609  0.2819
 2739SOL    HW119850   0.018   1.395   8.276  0.3601 -0.1053  0.6787
 2739SOL    HW219851   4.720   1.261   8.314 -0.5374 -0.2617  3.1965
 2740SOL     OW19852   2.365   1.558   9.608 -0.1753 -0.7525 -0.0710
 2740SOL    HW119853   2.292   1.565   9.669  0.9080  1.1955  1.0557
 2740SOL    HW219854   2.331   1.490   9.551  0.6761 -1.3332  0.1131
 2741SOL     OW19855   2.574   3.089   2.596  0.4263  0.9354 -0.2453
 2741SOL    HW119856   2.637   3.132   2.653  1.1023 -0.9690  0.4443
 2741SOL    HW219857   2.494   3.141   2.612 -0.4182 -0.2124 -0.7172
 2742SOL     OW19858   1.594   0.747   3.320 -0.0819 -0.1188  0.1742
 2742SOL    HW119859   1.524   0.734   3.385 -0.7726 -0.5404 -0.6651
 2742SOL    HW219860   1.624   0.659   3.296 -0.6764  0.3997 -2.3884
 2743SOL     OW19861   4.522   1.129   3.125  0.4409 -0.2144  0.1015
 2743SOL    HW119862   4.611   1.163   3.127  0.1882  0.4332  0.5562
 2743SOL    HW219863   4.528   1.059   3.189 -1.6799 -0.5376 -0.0439
 2744SOL     OW19864   4.456   1.697  16.913  0.4363 -0.7396  0.1631
 2744SOL    HW119865   4.456   1.714  17.007 -0.9984 -0.6732  0.1554
 2744SOL    HW219866   4.548   1.675  16.899  0.5339 -0.0106 -0.4122
 2745SOL     OW19867   3.722   4.428  12.833 -0.4645 -0.0667 -0.3135
 2745SOL    HW119868   3.806   4.425  12.879 -0.3903  2.9629 -0.2823
 2745SOL    HW219869   3.693   4.337  12.846 -0.7255 -0.6895 -5.0204
 2746SOL     OW19870   4.460   3.167   4.935  0.3627  0.6955 -0.3288
 2746SOL    HW119871   4.481   3.240   4.993  3.4033 -0.2585 -0.2574
 2746SOL    HW219872   4.542   3.128   4.904  0.3691  1.0760 -0.7936
 2747SOL     OW19873   3.551   3.525  16.838  0.2062  0.4932 -0.2275
 2747SOL    HW119874   3.537   3.448  16.894 -1.8917  1.3793  0.4539
 2747SOL    HW219875   3.584   3.586  16.904  1.2482 -0.6939  0.3529
 2748SOL     OW19876   1.973   0.298   8.093 -0.8439 -1.0686  0.4683
 2748SOL    HW119877   1.903   0.281   8.030 -2.0518  1.0134  1.2647
 2748SOL    HW219878   2.013   0.211   8.096  1.7668  0.2696  4.3341
 2749SOL     OW19879   1.963   2.056   3.956 -0.0065  0.0474  0.3106
 2749SOL    HW119880   1.897   2.104   3.906 -0.1404  0.6583  1.0742
 2749SOL    HW219881   1.997   1.991   3.895 -1.0932 -1.9041  1.7858
 2750SOL     OW19882   1.160   4.732   2.363  0.2025 -0.9170  0.0948
 2750SOL    HW119883   1.251   4.704   2.365  1.1026  2.0420 -0.4423
 2750SOL    HW219884   1.123   4.678   2.293 -0.6566  1.5296 -1.3029
 2751SOL     OW19885   0.402   1.584  10.819 -0.7514 -0.4339  0.0700
 2751SOL    HW119886   0.428   1.506  10.868 -1.4928  0.0350  1.2163
 2751SOL    HW219887   0.470   1.639  10.857 -0.2322 -0.6136 -0.5953
 2752SOL     OW19888   4.504   3.578   4.995 -0.0413  0.6377 -0.6640
 2752SOL    HW119889   4.468   3.601   4.909  0.6874  1.1040 -0.8448
 2752SOL    HW219890   4.577   3.640   4.993  1.7070 -1.5064 -2.2922
 2753SOL     OW19891   0.094   2.212   4.771 -0.2460  0.1566 -0.0623
 2753SOL    HW119892   0.054   2.284   4.820 -0.0712 -0.3965  0.8847
 2753SOL    HW219893   0.140   2.276   4.717 -2.2373 -0.2363 -2.2178
 2754SOL     OW19894   1.764   0.916  15.739 -0.1961  0.2036  0.4000
 2754SOL    HW119895   1.809   0.836  15.764 -0.2578  0.5285  1.5445
 2754SOL    HW219896   1.810   0.978  15.796  1.0448  0.2946 -0.6816
 2755SOL     OW19897   2.774   3.597   6.370  0.8595  0.0106 -0.4085
 2755SOL    HW119898   2.769   3.621   6.277 -1.2129 -1.9151 -0.7938
 2755SOL    HW219899   2.765   3.680   6.417 -1.5128 -0.4052 -0.1259
 2756SOL     OW19900   3.280   2.274   2.944 -0.2549  0.3958 -0.4471
 2756SOL    HW119901   3.292   2.225   3.025  1.0256 -0.9704 -1.4720
 2756SOL    HW219902   3.200   2.323   2.961 -1.1547 -0.9024 -0.9931
 2757SOL     OW19903   2.053   2.849  16.276 -0.6090  0.2007  0.5823
 2757SOL    HW119904   1.970   2.856  16.323 -1.2870  0.7314 -0.6936
 2757SOL    HW219905   2.025   2.840  16.185 -1.5318 -1.9719  1.0814
 2758SOL     OW19906   4.106   3.471   1.658  0.0508 -0.3649 -0.4900
 2758SOL    HW119907   4.188   3.422   1.662  0.2897  0.2197  1.9483
 2758SOL    HW219908   4.062   3.432   1.583 -1.1130 -1.1092  0.5828
 2759SOL     OW19909   3.974   1.943  10.235  0.1748 -0.2735  0.4828
 2759SOL    HW119910   3.936   2.007  10.295  0.4517  0.9316 -0.6158
 2759SOL    HW219911   4.036   1.999  10.187  0.0757 -0.6342 -0.0655
 2760SOL     OW19912   2.006   2.481   7.152 -0.6510 -0.5553 -0.5696
 2760SOL    HW119913   2.085   2.532   7.136 -2.1603  1.4635 -1.6179
 2760SOL    HW219914   1.954   2.536   7.210  1.2662 -0.4487  1.0419
 2761SOL     OW19915   3.560   0.294   7.773 -0.4412 -0.1828  0.5148
 2761SOL    HW119916   3.602   0.260   7.694  1.3933  1.6517  0.6922
 2761SOL    HW219917   3.470   0.274   7.747  0.3890 -0.8707 -1.8387
 2762SOL     OW19918   2.150   1.155   6.407 -0.7911  0.1782 -0.0740
 2762SOL    HW119919   2.124   1.138   6.498 -1.1453 -1.0065 -0.3963
 2762SOL    HW219920   2.099   1.232   6.382 -1.1205  0.1719  0.5796
 2763SOL     OW19921   0.307   2.475   8.836 -0.4471 -0.1183  0.9810
 2763SOL    HW119922   0.304   2.387   8.874  1.0245 -1.0078 -0.9557
 2763SOL    HW219923   0.358   2.517   8.905  1.6303  0.7464 -1.0974
 2764SOL     OW19924   2.266   4.700  16.838  0.0511 -0.0227 -0.0244
 2764SOL    HW119925   2.240   4.608  16.825  1.5941 -0.5199  0.3572
 2764SOL    HW219926   2.206   4.720  16.910  1.2560  1.0279  0.6779
 2765SOL     OW19927   4.046   0.240   7.620  0.3295  0.2621 -0.9964
 2765SOL    HW119928   4.038   0.216   7.527  1.0739  0.6097 -1.1483
 2765SOL    HW219929   4.110   0.310   7.609  1.1509 -0.4412 -0.7306
 2766SOL     OW19930   4.244   2.342   0.179 -0.4798  0.0449  0.0369
 2766SOL    HW119931   4.297   2.390   0.115 -0.4679 -2.5404 -1.8640
 2766SOL    HW219932   4.165   2.351   0.126  1.4149  0.9994 -2.6111
 2767SOL     OW19933   0.650   1.109   8.066  0.5018 -0.2608  0.0707
 2767SOL    HW119934   0.689   1.022   8.065 -2.6595 -1.6995  1.8858
 2767SOL    HW219935   0.622   1.105   8.157  1.9448  0.5543  0.5534
 2768SOL     OW19936   0.316   1.442   7.695 -0.7160  0.0501  0.3694
 2768SOL    HW119937   0.385   1.500   7.729 -0.4723 -0.3023  0.4791
 2768SOL    HW219938   0.253   1.453   7.766 -2.0677 -0.3777 -0.7523
 2769SOL     OW19939   2.962   2.073   2.767  0.2419 -0.2532  0.0525
 2769SOL    HW119940   2.964   2.125   2.687 -0.6254  0.7473  0.6807
 2769SOL    HW219941   2.891   2.119   2.812  0.6090  2.7571 -2.4582
 2770SOL     OW19942   2.564   1.470   7.597  0.2927 -0.0768 -0.0841
 2770SOL    HW119943   2.489   1.529   7.590  0.4316  0.0787 -0.2666
 2770SOL    HW219944   2.535   1.393   7.548 -0.9281 -0.6710  1.5834
 2771SOL     OW19945   3.493   0.834   3.557 -0.6090  0.2283 -0.1547
 2771SOL    HW119946   3.490   0.914   3.504 -0.5948  0.0120 -0.4862
 2771SOL    HW219947   3.399   0.818   3.552 -0.5977  0.0950  0.0782
 2772SOL     OW19948   4.020   0.160  10.338  0.7838  0.0606  0.0031
 2772SOL    HW119949   4.077   0.100  10.289  1.1465  0.0220  0.4757
 2772SOL    HW219950   3.992   0.224  10.272 -0.9253 -0.5254  0.1637
 2773SOL     OW19951   3.921   1.771   8.589  0.4356 -0.6053 -0.0247
 2773SOL    HW119952   3.917   1.687   8.544  1.3832 -0.7638  0.1932
 2773SOL    HW219953   3.828   1.774   8.610  0.6817 -0.1851  1.0156
 2774SOL     OW19954   3.507   2.981  15.752  0.1581  0.1295  0.4921
 2774SOL    HW119955   3.558   2.907  15.784 -0.9715 -0.6418  0.5424
 2774SOL    HW219956   3.576   3.045  15.737 -0.4611  0.9683  1.2333
 2775SOL     OW19957   2.836   2.246   5.731  0.4523  0.0856  0.6339
 2775SOL    HW119958   2.872   2.289   5.809  0.0251  1.3519  0.1348
 2775SOL    HW219959   2.867   2.158   5.754 -1.2264  0.0480  2.7678
 2776SOL     OW19960   2.582   4.470  13.484  0.0319 -0.2095  0.0259
 2776SOL    HW119961   2.606   4.465  13.576 -1.3101  0.9726  0.4490
 2776SOL    HW219962   2.540   4.556  13.484  0.3340 -0.0631  0.2600
 2777SOL     OW19963   4.683   1.801   2.767 -0.6652  0.2284  0.2526
 2777SOL    HW119964   4.614   1.849   2.722  0.0743  1.1472  0.1132
 2777SOL    HW219965   4.667   1.708   2.749 -0.7824  0.0949  1.0407
 2778SOL     OW19966   2.286   0.472   3.946  0.1574 -0.1839  0.9374
 2778SOL    HW119967   2.314   0.392   3.901 -1.3828  0.9963 -2.1174
 2778SOL    HW219968   2.192   0.455   3.952  0.3290 -0.7937  1.9188
 2779SOL     OW19969   0.011   3.784   5.569  0.1233  0.3399  0.6102
 2779SOL    HW119970   0.085   3.786   5.630 -0.3695 -0.1650  1.2320
 2779SOL    HW219971   0.044   3.820   5.487  1.4018 -0.4018  0.8018
 2780SOL     OW19972   1.318   0.446   3.738 -0.0820 -0.2190  0.8345
 2780SOL    HW119973   1.275   0.480   3.660  0.3314 -0.2025  0.6173
 2780SOL    HW219974   1.249   0.464   3.802 -0.8192 -2.4050  0.6487
 2781SOL     OW19975   4.455   4.421  11.872  0.3152  0.3354  0.2871
 2781SOL    HW119976   4.550   4.431  11.875  0.5921 -1.1951 -3.3700
 2781SOL    HW219977   4.432   4.423  11.964  0.2684  3.4280  0.1876
 2782SOL     OW19978   4.674   1.709   1.869  0.1379 -0.2605  0.1435
 2782SOL    HW119979   4.667   1.660   1.788  2.1711  0.7910 -0.6757
 2782SOL    HW219980   4.584   1.739   1.884  0.3586  0.8589 -0.7744
 2783SOL     OW19981   3.087   4.491  12.033  0.0158 -0.4484  0.2084
 2783SOL    HW119982   3.168   4.496  12.083 -0.4310 -0.6786  0.9663
 2783SOL    HW219983   3.055   4.409  12.069  0.8596 -1.2983 -0.9989
 2784SOL     OW19984   3.801   3.690   8.276 -0.1789  0.1711 -0.2984
 2784SOL    HW119985   3.791   3.780   8.307  1.4985 -0.0132  0.7741
 2784SOL    HW219986   3.885   3.656   8.306 -0.2858  1.4024  1.4076
 2785SOL     OW19987   3.480   4.340   8.951 -0.1827  0.6120 -0.3856
 2785SOL    HW119988   3.431   4.283   9.010  0.2540  0.7804  0.1309
 2785SOL    HW219989   3.541   4.377   9.014  0.3912 -1.3182  0.1788
 2786SOL     OW19990   0.568   2.830   9.439  0.1774  0.7806 -0.3132
 2786SOL    HW119991   0.571   2.744   9.397 -0.1218  0.7035 -0.1758
 2786SOL    HW219992   0.659   2.848   9.462 -0.0633 -0.9359  1.9310
 2787SOL     OW19993   4.645   0.296   6.221 -0.3575  0.4491  0.1585
 2787SOL    HW119994   4.690   0.364   6.271  0.3838 -0.9935  1.4363
 2787SOL    HW219995   4.706   0.222   6.215  1.4396  1.7973  1.7298
 2788SOL     OW19996   1.137   1.079   4.841  0.2597 -0.1980 -0.4685
 2788SOL    HW119997   1.056   1.100   4.887  0.1051  0.2348 -0.9440
 2788SOL    HW219998   1.159   1.000   4.891 -1.1536  0.5385  1.3009
 2789SOL     OW19999   3.475   2.000   9.927 -0.1071 -0.0868 -0.4619
 2789SOL    HW120000   3.543   2.021   9.863  0.2197 -1.2003 -0.4840
 2789SOL    HW220001   3.510   2.043  10.005  0.2054 -1.0643 -0.0589
 2790SOL     OW20002   2.387   1.844   1.126 -0.6070  0.1610  0.0959
 2790SOL    HW120003   2.361   1.874   1.213 -0.7821  2.7267 -0.8503
 2790SOL    HW220004   2.483   1.840   1.118 -0.7233 -1.4189 -0.5871
 2791SOL     OW20005   3.732   2.444  12.203 -0.2792  0.2973  0.6396
 2791SOL    HW120006   3.771   2.397  12.130  0.6346 -0.3314  1.5190
 2791SOL    HW220007   3.807   2.457  12.262  0.4093  0.0090 -0.1686
 2792SOL     OW20008   4.286   3.857   7.645  0.0938 -0.3983  0.3433
 2792SOL    HW120009   4.289   3.796   7.718  0.3587 -1.4037 -0.5121
 2792SOL    HW220010   4.361   3.908   7.675  0.5992 -2.2897  2.2599
 2793SOL     OW20011   2.285   2.635  16.011 -0.1172  0.1022  0.0970
 2793SOL    HW120012   2.240   2.662  15.932 -0.8257  2.6430  1.3837
 2793SOL    HW220013   2.218   2.576  16.046 -1.1364  1.4662  0.4578
 2794SOL     OW20014   3.244   3.618  11.644  0.2425 -0.1193 -0.1601
 2794SOL    HW120015   3.300   3.685  11.604 -1.6375  1.2333 -0.5419
 2794SOL    HW220016   3.301   3.567  11.702  0.2201  0.3684  0.2960
 2795SOL     OW20017   4.481   0.678   8.980 -0.3700  0.2587 -0.5819
 2795SOL    HW120018   4.401   0.629   8.956 -0.9102  0.5702  0.6029
 2795SOL    HW220019   4.489   0.641   9.068 -1.2086  1.2158 -0.1004
 2796SOL     OW20020   2.912   3.785   5.888 -0.3852 -0.3012  0.1476
 2796SOL    HW120021   2.975   3.734   5.837 -0.4398  0.7188 -0.9236
 2796SOL    HW220022   2.831   3.734   5.886  1.2420 -2.9108  0.8350
 2797SOL     OW20023   4.249   3.751   3.507  0.4881 -0.1607  0.2020
 2797SOL    HW120024   4.274   3.769   3.416 -0.6318 -2.1699 -0.5085
 2797SOL    HW220025   4.334   3.737   3.549  1.1545  1.8412 -0.4510
 2798SOL     OW20026   0.022   4.466   6.949  0.0328  0.4517 -0.1051
 2798SOL    HW120027   4.684   4.527   6.948 -0.2544  0.1052 -0.4679
 2798SOL    HW220028   0.033   4.434   6.859 -3.2740  2.2413 -1.1391
 2799SOL     OW20029   3.180   4.328   6.333 -0.3843 -0.4145  0.2960
 2799SOL    HW120030   3.098   4.290   6.363 -0.7921 -0.3270 -0.7105
 2799SOL    HW220031   3.156   4.405   6.281 -3.9378 -1.4420  0.4408
 2800SOL     OW20032   2.328   1.920   2.707  0.1781  0.2744  0.1098
 2800SOL    HW120033   2.334   2.015   2.697  3.1488  0.1152  0.3556
 2800SOL    HW220034   2.315   1.888   2.618  0.1551  1.3815 -0.2818
 2801SOL     OW20035   3.893   1.840   3.145  0.2467 -0.4281  0.3820
 2801SOL    HW120036   3.907   1.920   3.095  3.4369 -0.1744  1.6672
 2801SOL    HW220037   3.832   1.872   3.211  0.5589 -0.7077  0.8088
 2802SOL     OW20038   4.252   4.129  17.371 -0.3112  0.1457  0.1924
 2802SOL    HW120039   4.289   4.049  17.409  1.9251 -0.2806 -2.8361
 2802SOL    HW220040   4.297   4.131  17.286  0.2723 -1.7130  0.4404
 2803SOL     OW20041   2.890   0.058  10.935  0.7631  0.3739  0.3062
 2803SOL    HW120042   2.936   4.720  10.895  0.2111  0.6482 -0.8283
 2803SOL    HW220043   2.881   0.025  11.024  1.5508 -0.0182  0.2365
 2804SOL     OW20044   1.432   3.317   6.211  0.1716  0.8108 -0.3156
 2804SOL    HW120045   1.428   3.332   6.117 -2.4470 -2.5527 -0.7191
 2804SOL    HW220046   1.524   3.335   6.230  0.0829 -0.2177  1.0997
 2805SOL     OW20047   2.124   3.179   0.821 -0.4944  0.3247  0.2526
 2805SOL    HW120048   2.192   3.187   0.889 -0.9831  0.9403  0.6641
 2805SOL    HW220049   2.053   3.219   0.871 -1.5837 -0.4129 -0.7202
 2806SOL     OW20050   3.057   0.862   3.007  0.1801 -0.1776  0.0613
 2806SOL    HW120051   2.985   0.819   2.962  0.8179 -0.8646 -0.2939
 2806SOL    HW220052   3.126   0.797   3.014  1.3223  0.9594 -0.5437
 2807SOL     OW20053   3.137   0.691   4.458 -0.0661 -0.0805  0.5921
 2807SOL    HW120054   3.199   0.742   4.405  1.1610  0.1584  2.2563
 2807SOL    HW220055   3.105   0.762   4.514  0.3535 -1.1779  2.2061
 2808SOL     OW20056   0.663   1.907   3.387 -0.6103  0.8826 -0.0632
 2808SOL    HW120057   0.680   1.843   3.456 -1.5766  0.0102 -0.6415
 2808SOL    HW220058   0.614   1.975   3.433  1.3562  2.1057  0.2551
 2809SOL     OW20059   3.739   1.282   5.717  0.2072 -0.8114  0.3822
 2809SOL    HW120060   3.810   1.273   5.654  0.3965 -0.1257  0.5007
 2809SOL    HW220061   3.704   1.368   5.693  2.8341  0.4419  1.0405
 2810SOL     OW20062   3.015   1.016   1.228  0.4436 -0.0432  0.2557
 2810SOL    HW120063   2.924   1.040   1.245  0.5165 -0.0500  0.6543
 2810SOL    HW220064   3.029   0.974   1.313 -0.9174 -2.3178 -0.6848
 2811SOL     OW20065   3.390   4.526   4.677  0.5631  0.1252 -0.1949
 2811SOL    HW120066   3.362   4.540   4.586  0.4809 -1.3224 -0.4002
 2811SOL    HW220067   3.365   4.609   4.716 -3.0425 -0.9640 -0.1666
 2812SOL     OW20068   0.580   3.616   9.395 -0.0431  0.3501  0.4132
 2812SOL    HW120069   0.623   3.581   9.317  0.4884  1.9484 -0.0133
 2812SOL    HW220070   0.638   3.599   9.469  0.1313 -0.2537  0.1374
 2813SOL     OW20071   0.652   1.043   6.953 -0.7570 -0.4306  0.3645
 2813SOL    HW120072   0.567   1.029   6.913 -0.3717  0.8980 -0.9399
 2813SOL    HW220073   0.646   1.132   6.987  2.1413  0.4576 -1.3872
 2814SOL     OW20074   2.245   4.563   0.245  0.0741 -0.2906  0.8894
 2814SOL    HW120075   2.274   4.473   0.232 -1.8722 -0.8001  0.0780
 2814SOL    HW220076   2.189   4.575   0.168 -0.0345 -1.5737  0.7648
 2815SOL     OW20077   3.440   0.362  13.672  0.2043 -0.7732 -0.3639
 2815SOL    HW120078   3.513   0.363  13.732 -0.6194  2.2618  0.5810
 2815SOL    HW220079   3.447   0.436  13.611 -1.5166 -1.2145 -1.1337
 2816SOL     OW20080   4.584   4.687   1.945 -0.0694 -0.0382  0.4389
 2816SOL    HW120081   4.656   4.680   1.882  0.7827  1.7759  1.2288
 2816SOL    HW220082   4.560   4.595   1.957  2.0025 -0.6109  0.1401
 2817SOL     OW20083   3.897   1.022   8.071  0.5016 -0.2098 -0.3061
 2817SOL    HW120084   3.933   1.089   8.013  0.9166 -0.3438 -0.2022
 2817SOL    HW220085   3.974   0.982   8.110  0.8013  3.6722  3.0009
 2818SOL     OW20086   4.560   4.555   1.074  0.1050 -0.2137  0.5185
 2818SOL    HW120087   4.524   4.594   1.153  0.1477  0.5343  0.1714
 2818SOL    HW220088   4.631   4.616   1.053 -0.7752  1.6082  2.9320
 2819SOL     OW20089   2.206   2.095   4.481  0.5118 -0.1819 -0.0297
 2819SOL    HW120090   2.253   2.175   4.460 -1.3561  2.0618  4.3646
 2819SOL    HW220091   2.165   2.067   4.399 -0.2105  0.7570  0.0163
 2820SOL     OW20092   4.530   3.178   0.135 -0.9590  0.0468  0.4107
 2820SOL    HW120093   4.525   3.146   0.045  1.2736  0.6656  0.0508
 2820SOL    HW220094   4.453   3.140   0.176 -0.1815 -0.6132  1.2392
 2821SOL     OW20095   1.801   4.474   3.724 -0.3260  0.0880 -0.0999
 2821SOL    HW120096   1.795   4.390   3.770 -0.6468  0.7397  1.0432
 2821SOL    HW220097   1.839   4.529   3.792  2.5019 -0.9697 -0.8110
 2822SOL     OW20098   2.768   1.711   5.020 -0.2597 -0.7019 -0.0664
 2822SOL    HW120099   2.741   1.623   4.993 -0.2670 -0.2718 -1.4281
 2822SOL    HW220100   2.839   1.728   4.958  2.2921  0.4183  3.1776
 2823SOL     OW20101   2.523   4.159   8.240 -0.2737 -0.6001  0.1311
 2823SOL    HW120102   2.488   4.167   8.152 -0.5434 -2.6722  0.0606
 2823SOL    HW220103   2.453   4.201   8.291  0.4266  0.7323 -0.0046
 2824SOL     OW20104   0.998   2.166  11.820  0.0847 -0.4740  0.3209
 2824SOL    HW120105   0.989   2.202  11.908  1.5153 -2.7784  1.4344
 2824SOL    HW220106   1.091   2.145  11.831 -0.2242 -0.5558  2.9679
 2825SOL     OW20107   2.534   2.352  12.609 -0.1755 -0.0946  0.1167
 2825SOL    HW120108   2.516   2.429  12.663 -1.2973 -1.1872  1.3099
 2825SOL    HW220109   2.535   2.382  12.518 -1.2552  0.6846  0.3583
 2826SOL     OW20110   0.970   2.388   7.773 -0.5983  0.1834 -0.0652
 2826SOL    HW120111   1.038   2.455   7.776 -1.4420  0.9953  1.0742
 2826SOL    HW220112   1.028   2.325   7.729  0.0480 -0.2267  1.3625
 2827SOL     OW20113   0.119   3.828  14.404 -0.5462 -0.3965  0.4986
 2827SOL    HW120114   0.200   3.787  14.433 -0.2639 -1.9326 -2.4104
 2827SOL    HW220115   0.100   3.785  14.320  0.8478  0.7112 -0.3849
 2828SOL     OW20116   3.604   2.220   2.583 -0.4250 -0.2737  0.0772
 2828SOL    HW120117   3.509   2.207   2.578 -0.6772  1.2185  0.8278
 2828SOL    HW220118   3.602   2.315   2.593 -0.4406 -0.3065  0.4111
 2829SOL     OW20119   1.672   3.034   3.900 -0.9385  0.4924  0.0213
 2829SOL    HW120120   1.715   3.046   3.985 -0.1706  0.4564 -0.3643
 2829SOL    HW220121   1.614   3.110   3.901  0.6408  1.7124 -0.3300
 2830SOL     OW20122   0.927   2.663   2.747 -0.1983 -0.2335  0.2101
 2830SOL    HW120123   1.005   2.675   2.801  0.9380  0.4241 -1.5582
 2830SOL    HW220124   0.874   2.740   2.766 -0.4858 -0.2384 -0.5569
 2831SOL     OW20125   3.905   3.166  10.745 -0.0892 -0.6221  0.3902
 2831SOL    HW120126   3.879   3.097  10.684  1.4413 -1.3539  0.5547
 2831SOL    HW220127   3.897   3.116  10.826  0.0942  0.0450  0.8188
 2832SOL     OW20128   3.442   4.627  15.248 -0.1531 -0.2065  0.2596
 2832SOL    HW120129   3.399   4.663  15.325 -0.5552  0.7732 -0.4242
 2832SOL    HW220130   3.446   4.701  15.188  3.8610 -0.8756 -0.3188
 2833SOL     OW20131   2.921   1.325   4.013  0.5387 -0.0689 -0.8918
 2833SOL    HW120132   2.929   1.359   4.102  1.1791  0.8041 -1.2782
 2833SOL    HW220133   3.007   1.334   3.970  0.4280  0.6506 -0.9652
 2834SOL     OW20134   3.406   0.856   8.599 -0.8604  0.2937 -0.6111
 2834SOL    HW120135   3.489   0.808   8.600 -1.1527 -0.2147 -1.5448
 2834SOL    HW220136   3.393   0.872   8.506 -1.4161 -0.2941 -0.6300
 2835SOL     OW20137   1.015   1.468   5.682 -0.3140  1.1943  0.2258
 2835SOL    HW120138   1.085   1.503   5.738 -0.1144  0.0538  0.6905
 2835SOL    HW220139   1.002   1.536   5.616 -2.5994 -0.1433 -0.6710
 2836SOL     OW20140   3.425   4.197   7.799 -0.1514  0.2385 -0.3079
 2836SOL    HW120141   3.363   4.138   7.842  1.4097  0.3309  2.0468
 2836SOL    HW220142   3.485   4.127   7.770  0.6764  0.4826  0.7939
 2837SOL     OW20143   1.932   3.006   8.543 -0.3579  0.0023  0.3190
 2837SOL    HW120144   1.923   2.912   8.557  1.0877  0.4443  4.1427
 2837SOL    HW220145   1.888   3.043   8.619  0.5137 -0.7162  1.1744
 2838SOL     OW20146   0.421   0.406   5.175 -0.1324  0.2187  0.3528
 2838SOL    HW120147   0.377   0.450   5.102 -0.4566  0.1822  0.5234
 2838SOL    HW220148   0.342   0.361   5.206 -1.6868  0.7726 -2.7470
 2839SOL     OW20149   1.700   2.667   4.080 -0.5227  0.2117 -0.2889
 2839SOL    HW120150   1.673   2.625   4.162  0.5279 -1.7797 -0.9560
 2839SOL    HW220151   1.767   2.604   4.053 -1.0301 -0.2435 -0.4980
 2840SOL     OW20152   4.606   3.992   6.274  0.1820 -0.3668 -0.2150
 2840SOL    HW120153   4.655   4.069   6.304  0.5120 -0.6513 -0.0314
 2840SOL    HW220154   4.672   3.926   6.293  1.5726  0.9355 -0.4450
 2841SOL     OW20155   2.277   1.361   5.126  0.2481  0.1424  0.0966
 2841SOL    HW120156   2.246   1.394   5.211  1.2574  3.4870 -0.8452
 2841SOL    HW220157   2.359   1.409   5.118  1.0622 -1.0063  1.3903
 2842SOL     OW20158   0.598   0.430   0.573  0.5520 -0.1539  0.1868
 2842SOL    HW120159   0.538   0.366   0.613  0.8108  0.6582  1.8879
 2842SOL    HW220160   0.624   0.475   0.654  0.3694  0.1328  0.0861
 2843SOL     OW20161   2.967   2.454   9.217 -0.4901 -0.3550  0.1551
 2843SOL    HW120162   2.903   2.522   9.197  1.9897  1.9672  0.0280
 2843SOL    HW220163   2.957   2.448   9.312 -1.3329  2.2026  0.2233
 2844SOL     OW20164   4.523   1.433   7.479 -0.4888  0.3835  0.4831
 2844SOL    HW120165   4.556   1.381   7.552  1.3125 -0.9032 -1.2814
 2844SOL    HW220166   4.570   1.400   7.403 -0.1301 -0.1547  0.9368
 2845SOL     OW20167   0.460   0.408   0.255  0.4859 -0.3421 -0.0233
 2845SOL    HW120168   0.395   0.337   0.255  0.2479 -0.1597  2.7974
 2845SOL    HW220169   0.529   0.361   0.302 -0.5063 -0.6338  1.1603
 2846SOL     OW20170   1.063   2.399   4.872 -0.5481  0.6295 -0.1510
 2846SOL    HW120171   1.047   2.395   4.777 -0.1116  1.1249 -0.2433
 2846SOL    HW220172   1.157   2.381   4.872 -0.4163  1.3053  0.2725
 2847SOL     OW20173   0.602   0.554  10.928 -0.4078  0.0170  0.7399
 2847SOL    HW120174   0.523   0.580  10.881 -0.4591  1.3355  1.5508
 2847SOL    HW220175   0.614   0.468  10.886 -1.0100  0.8168 -1.0528
 2848SOL     OW20176   1.863   2.991  10.332 -0.2719 -0.6318  0.1653
 2848SOL    HW120177   1.846   3.032  10.247  0.7035 -2.2340 -0.7972
 2848SOL    HW220178   1.935   2.933  10.309 -1.2161 -1.8640  0.3441
 2849SOL     OW20179   0.930   2.050   4.818  0.0299 -0.3028  0.5308
 2849SOL    HW120180   1.010   2.036   4.868 -0.6620 -1.7113  1.2454
 2849SOL    HW220181   0.943   2.128   4.764 -2.6175  0.0896  0.4612
 2850SOL     OW20182   0.454   2.102   4.730 -0.0424  0.4340  0.1504
 2850SOL    HW120183   0.358   2.095   4.736  0.2009 -2.0015  1.1375
 2850SOL    HW220184   0.479   2.010   4.719 -2.8443 -0.3365  0.1254
 2851SOL     OW20185   4.152   2.013   3.039 -0.4513  0.0888  0.4126
 2851SOL    HW120186   4.201   2.061   2.971  2.1911 -1.8952  0.9161
 2851SOL    HW220187   4.223   2.006   3.104 -0.0255  1.9896  0.1488
 2852SOL     OW20188   4.682   4.415   9.448  0.5916 -0.5107 -0.3840
 2852SOL    HW120189   4.670   4.504   9.414 -0.4420 -0.3082  0.5156
 2852SOL    HW220190   0.031   4.387   9.415  0.2373 -1.0571 -0.8213
 2853SOL     OW20191   1.691   3.892   1.630 -0.5022 -0.3134 -0.0303
 2853SOL    HW120192   1.647   3.819   1.673  2.1036 -0.9441  1.5565
 2853SOL    HW220193   1.781   3.858   1.639 -0.4832  0.1106  1.3052
 2854SOL     OW20194   2.398   4.509   0.797  0.1943 -0.2743 -0.1645
 2854SOL    HW120195   2.347   4.449   0.851 -1.6860  2.8213  1.5042
 2854SOL    HW220196   2.473   4.529   0.853  1.3490 -0.3165 -1.7116
 2855SOL     OW20197   3.412   0.155   0.663 -0.2510 -0.0747  0.1403
 2855SOL    HW120198   3.397   0.162   0.568  0.9523 -0.2991 -0.0667
 2855SOL    HW220199   3.474   0.225   0.683  1.1938 -0.9173 -1.4300
 2856SOL     OW20200   1.648   1.905  15.281  0.2883  0.3151 -0.3189
 2856SOL    HW120201   1.596   1.927  15.358  0.0287 -0.4852 -0.2694
 2856SOL    HW220202   1.683   1.822  15.313 -1.6380 -0.7728 -1.0266
 2857SOL     OW20203   2.365   0.854   5.586  0.3963  0.3723  0.1467
 2857SOL    HW120204   2.348   0.784   5.649  2.2591  1.0286  1.3650
 2857SOL    HW220205   2.375   0.802   5.506  0.4299 -0.9640  1.0084
 2858SOL     OW20206   3.316   1.953  12.540 -0.1141 -0.1452  0.3258
 2858SOL    HW120207   3.244   2.016  12.542  2.4142  2.6978  0.7118
 2858SOL    HW220208   3.310   1.924  12.631 -0.8187  0.6827  0.5482
 2859SOL     OW20209   3.624   4.157   3.285 -1.2454  0.2225  0.7376
 2859SOL    HW120210   3.628   4.065   3.310  0.3178  0.2000  0.4027
 2859SOL    HW220211   3.705   4.194   3.318 -0.1420  0.3565 -2.0930
 2860SOL     OW20212   2.126   3.865   7.752  0.3713 -0.0236 -0.2072
 2860SOL    HW120213   2.033   3.843   7.764  0.7352 -1.7508 -0.4656
 2860SOL    HW220214   2.125   3.939   7.812  0.0187  0.9845 -1.4496
 2861SOL     OW20215   3.748   1.623   7.253  0.1212  0.8215  0.0288
 2861SOL    HW120216   3.826   1.673   7.228  1.9011 -2.5200 -1.0857
 2861SOL    HW220217   3.755   1.632   7.348 -3.9615  1.3663  0.2385
 2862SOL     OW20218   3.774   2.824   6.781  0.3949 -0.5809 -0.6223
 2862SOL    HW120219   3.832   2.752   6.805  1.9600  0.6361 -0.7229
 2862SOL    HW220220   3.729   2.795   6.702 -1.3740  1.3810 -0.3636
 2863SOL     OW20221   0.284   4.460  10.316  0.0607  0.0841 -0.6230
 2863SOL    HW120222   0.294   4.366  10.331  0.1810  0.1654 -0.1912
 2863SOL    HW220223   0.337   4.473  10.238  0.5957  1.2158 -0.0744
 2864SOL     OW20224   0.090   3.616  13.137  0.2156  0.2075 -0.4631
 2864SOL    HW120225   0.180   3.647  13.139  0.3094 -0.0913 -0.0562
 2864SOL    HW220226   0.080   3.601  13.231 -1.3326  0.0807 -0.6390
 2865SOL     OW20227   1.445   4.223   7.141  0.2484 -0.2307 -0.2129
 2865SOL    HW120228   1.509   4.172   7.190 -1.4910 -3.0160 -0.8246
 2865SOL    HW220229   1.372   4.161   7.134  0.6987 -0.6508 -1.2998
 2866SOL     OW20230   0.556   1.778  14.438 -0.4214 -0.2694 -0.2718
 2866SOL    HW120231   0.576   1.815  14.352 -0.0797 -2.7821 -1.2759
 2866SOL    HW220232   0.597   1.849  14.488 -1.2545  0.2023 -0.2605
 2867SOL     OW20233   0.846   1.069   3.917  0.2159 -0.2789 -0.2704
 2867SOL    HW120234   0.827   1.003   3.984  2.5817  1.2103  1.8674
 2867SOL    HW220235   0.933   1.100   3.944 -1.2726  2.3057  1.4941
 2868SOL     OW20236   4.010   0.015   0.904  0.3494  0.1777  0.1499
 2868SOL    HW120237   4.003   4.694   0.981  0.5757 -1.4180 -1.0136
 2868SOL    HW220238   4.094   4.724   0.867 -0.8592 -2.1255 -0.9746
 2869SOL     OW20239   2.509   1.435   0.103  0.1840  0.0908  0.1612
 2869SOL    HW120240   2.431   1.427   0.047 -0.1616 -0.8795  0.7769
 2869SOL    HW220241   2.487   1.375   0.174  2.1995 -2.7468 -1.5626
 2870SOL     OW20242   3.803   3.451   4.961 -0.0935  0.3005 -0.0135
 2870SOL    HW120243   3.872   3.436   5.025  2.7626 -1.2404 -3.5132
 2870SOL    HW220244   3.841   3.524   4.913 -3.0454  0.6389 -1.8754
 2871SOL     OW20245   1.909   2.775  15.641  0.4857  0.1365  0.8814
 2871SOL    HW120246   1.925   2.866  15.664  0.7253  0.2851  0.1290
 2871SOL    HW220247   1.822   2.766  15.680  0.4461  0.7447  0.9237
 2872SOL     OW20248   0.511   1.274  12.692  0.1644  0.1863 -0.0393
 2872SOL    HW120249   0.450   1.241  12.626  1.0389 -1.3568 -0.0874
 2872SOL    HW220250   0.599   1.288  12.655  0.0664  2.0780  0.4608
 2873SOL     OW20251   3.299   4.141   2.946  0.7472  0.1674 -0.6283
 2873SOL    HW120252   3.256   4.101   3.022  0.4332 -1.8584 -1.8511
 2873SOL    HW220253   3.371   4.080   2.928 -0.1136 -0.5748 -1.5700
 2874SOL     OW20254   1.771   1.941   6.415  0.7080 -0.1408  0.9930
 2874SOL    HW120255   1.821   2.013   6.375 -0.3571  1.2184  2.0970
 2874SOL    HW220256   1.808   1.937   6.503  0.7198  0.1158  0.9998
 2875SOL     OW20257   3.010   0.982   4.068 -0.0081  0.3494 -0.4655
 2875SOL    HW120258   3.036   1.013   3.981  0.2658 -0.6814 -0.7496
 2875SOL    HW220259   3.088   0.927   4.079 -0.8474 -0.8268 -0.3453
 2876SOL     OW20260   0.673   0.769   1.156  0.1411 -0.2185  0.1807
 2876SOL    HW120261   0.622   0.688   1.153 -1.5423  0.8667 -1.2243
 2876SOL    HW220262   0.721   0.773   1.073 -0.9440 -1.1973 -0.4924
 2877SOL     OW20263   4.358   4.264   2.329 -0.2080  0.3878  0.3386
 2877SOL    HW120264   4.425   4.207   2.290 -1.8681 -0.8070 -0.7657
 2877SOL    HW220265   4.274   4.233   2.296 -1.0619  1.2862  1.6821
 2878SOL     OW20266   4.168   2.269  15.362 -0.0623  0.2859  0.5624
 2878SOL    HW120267   4.191   2.201  15.425 -0.6791 -1.4871 -1.1095
 2878SOL    HW220268   4.243   2.327  15.359 -0.2356  0.4837  0.0402
 2879SOL     OW20269   1.711   3.820  14.960 -0.0168 -0.0922 -0.0598
 2879SOL    HW120270   1.715   3.879  15.035 -1.1814  0.8624 -0.7432
 2879SOL    HW220271   1.799   3.832  14.924  0.3312 -0.3407  0.7214
 2880SOL     OW20272   2.195   3.037  10.079  0.4750  0.2862 -0.1012
 2880SOL    HW120273   2.192   3.133  10.069 -5.4823 -0.0033 -0.5946
 2880SOL    HW220274   2.208   3.000   9.992  2.2618  0.2064  0.2020
 2881SOL     OW20275   4.619   4.067   5.284 -0.3598 -0.3031  0.6473
 2881SOL    HW120276   4.682   4.134   5.312 -1.1234 -0.6746  3.2364
 2881SOL    HW220277   4.552   4.126   5.251  0.0882 -1.3458 -2.1315
 2882SOL     OW20278   2.969   4.205   5.511  0.6147  0.2979 -0.1587
 2882SOL    HW120279   3.024   4.142   5.464  2.7221  2.6716 -0.8596
 2882SOL    HW220280   3.038   4.268   5.533 -0.3778  1.5070 -0.5311
 2883SOL     OW20281   3.335   4.246   6.599  0.0595 -0.0770  0.0695
 2883SOL    HW120282   3.286   4.304   6.658  0.0116  0.2809 -0.3219
 2883SOL    HW220283   3.293   4.273   6.518  1.8107  1.3903 -0.3560
 2884SOL     OW20284   0.097   1.028   6.583 -0.5505  0.1207  0.0440
 2884SOL    HW120285   0.098   1.048   6.489 -0.5961  0.0448  0.0275
 2884SOL    HW220286   0.173   1.078   6.614 -0.2696 -0.5777  0.4923
 2885SOL     OW20287   3.899   2.220   0.579  0.2382 -0.4598 -0.2683
 2885SOL    HW120288   3.893   2.236   0.484 -0.5878 -2.2234 -0.5349
 2885SOL    HW220289   3.975   2.161   0.578  0.2997 -0.4011  1.2487
 2886SOL     OW20290   1.647   1.239  16.743  0.0254 -0.4141 -0.1051
 2886SOL    HW120291   1.581   1.188  16.791 -0.6709 -0.0492 -0.6661
 2886SOL    HW220292   1.687   1.271  16.824  2.6458 -0.2831 -1.4640
 2887SOL     OW20293   3.243   3.969   6.415  0.0619 -0.1631 -0.4015
 2887SOL    HW120294   3.331   3.986   6.449 -0.2305  2.4475 -0.9352
 2887SOL    HW220295   3.256   3.991   6.322  3.1028 -0.3505 -0.0259
 2888SOL     OW20296   2.738   1.777   7.301  0.7716 -0.1946  0.3056
 2888SOL    HW120297   2.662   1.803   7.353  0.1106  3.0257 -2.2670
 2888SOL    HW220298   2.807   1.784   7.367 -0.3860 -2.3621  1.7537
 2889SOL     OW20299   3.084   2.831   4.639  0.1596 -0.3078  0.5353
 2889SOL    HW120300   3.092   2.849   4.733  1.1248  1.6595  0.0833
 2889SOL    HW220301   3.152   2.765   4.624 -0.2691 -0.7663  0.6158
 2890SOL     OW20302   1.667   4.409   1.921 -0.4730 -0.0836  0.0557
 2890SOL    HW120303   1.733   4.428   1.855  1.7778 -0.2125  2.2983
 2890SOL    HW220304   1.644   4.500   1.939 -0.8527 -0.1462 -0.0992
 2891SOL     OW20305   1.913   0.192  12.460  0.0617  0.3731 -0.3198
 2891SOL    HW120306   1.906   0.220  12.551  2.2064  0.8769 -0.3182
 2891SOL    HW220307   1.887   0.274  12.416 -1.8727 -1.0195 -1.7743
 2892SOL     OW20308   3.227   0.818   3.521 -0.6651  0.2217  0.4154
 2892SOL    HW120309   3.212   0.909   3.495 -3.3410  0.2336  2.0444
 2892SOL    HW220310   3.158   0.785   3.463 -0.2973 -1.6246  1.0331
 2893SOL     OW20311   2.274   0.390   5.172  0.5484 -0.5094  0.4714
 2893SOL    HW120312   2.358   0.407   5.215  0.4262 -0.4888  0.6987
 2893SOL    HW220313   2.266   0.472   5.123 -2.5896 -1.5706 -0.7793
 2894SOL     OW20314   2.083   2.848  10.222 -0.3072  0.3882  0.6015
 2894SOL    HW120315   2.121   2.761  10.213 -0.2870  0.6972 -2.3816
 2894SOL    HW220316   2.148   2.907  10.184  0.7375  0.3142  2.2640
 2895SOL     OW20317   4.197   0.235   5.975  0.1144  0.2651  0.3286
 2895SOL    HW120318   4.223   0.323   5.947  0.0924 -0.3013 -1.4540
 2895SOL    HW220319   4.274   0.204   6.024  0.7729  1.9518  0.3577
 2896SOL     OW20320   1.324   4.523   7.793 -0.2348  0.4404 -0.5496
 2896SOL    HW120321   1.317   4.515   7.888  0.1813 -0.4270 -0.5942
 2896SOL    HW220322   1.374   4.445   7.771 -0.3019 -0.4675  2.4934
 2897SOL     OW20323   2.231   3.990   4.203 -0.5538 -0.4903  0.0736
 2897SOL    HW120324   2.155   3.937   4.178 -2.1621  0.7997  2.2698
 2897SOL    HW220325   2.218   4.014   4.294  1.2920 -2.8480  0.9531
 2898SOL     OW20326   2.223   1.579   8.585 -0.4658 -0.0860  0.0096
 2898SOL    HW120327   2.175   1.513   8.535  1.4219 -3.1529  2.2324
 2898SOL    HW220328   2.305   1.530   8.591  0.3574  1.2330 -0.4387
 2899SOL     OW20329   3.775   3.524   2.313  0.2603 -0.3219  0.0396
 2899SOL    HW120330   3.762   3.571   2.396 -0.1029 -1.7671  0.7973
 2899SOL    HW220331   3.745   3.596   2.259 -0.7523 -0.5034  0.3618
 2900SOL     OW20332   0.492   1.610  12.255  0.6337  0.0137 -0.0234
 2900SOL    HW120333   0.550   1.539  12.282 -1.3222 -0.7095  2.2510
 2900SOL    HW220334   0.411   1.594  12.304 -0.2030  2.1252 -0.7214
 2901SOL     OW20335   4.579   0.181   0.717 -0.1403 -0.1176 -0.0595
 2901SOL    HW120336   4.628   0.262   0.731 -1.7824  0.5053  2.0149
 2901SOL    HW220337   4.642   0.113   0.737 -0.1881 -0.2801 -0.4569
 2902SOL     OW20338   3.768   2.806  11.281 -0.3616  0.0557  0.3471
 2902SOL    HW120339   3.847   2.756  11.262  0.4370  2.0179 -1.4370
 2902SOL    HW220340   3.769   2.805  11.376  0.7179 -2.1381  0.3077
 2903SOL     OW20341   3.816   1.961   0.796  0.0755 -0.5057 -0.4316
 2903SOL    HW120342   3.767   1.981   0.717 -1.0278 -2.7865 -0.3287
 2903SOL    HW220343   3.799   2.050   0.827  0.6258 -0.1485 -1.1479
 2904SOL     OW20344   1.659   2.551   4.340  0.5620 -0.2933  0.2465
 2904SOL    HW120345   1.632   2.480   4.398 -2.1684  1.1160  0.6873
 2904SOL    HW220346   1.752   2.561   4.361  0.0808 -1.8175  3.0935
 2905SOL     OW20347   4.167   2.641   3.789 -0.2752  0.0205 -0.0993
 2905SOL    HW120348   4.194   2.554   3.816  0.3489 -0.0120 -0.8255
 2905SOL    HW220349   4.243   2.670   3.739  0.3149 -0.1768  0.6865
 2906SOL     OW20350   0.410   3.960   5.138 -0.0668  0.4863 -0.1650
 2906SOL    HW120351   0.502   3.935   5.135  0.3434  1.7455  2.1682
 2906SOL    HW220352   0.400   3.952   5.043 -1.2053 -0.7887  0.0618
 2907SOL     OW20353   1.711   3.585  13.432  0.4565 -0.1066 -0.1904
 2907SOL    HW120354   1.769   3.627  13.368 -0.2959  1.4663  0.1655
 2907SOL    HW220355   1.661   3.522  13.380  0.8591 -0.5677 -0.0219
 2908SOL     OW20356   1.107   1.144   5.345 -0.4179  0.3611  0.4196
 2908SOL    HW120357   1.147   1.157   5.431 -0.6334  1.3865  0.3640
 2908SOL    HW220358   1.184   1.104   5.305  0.0128  0.6779  0.9311
 2909SOL     OW20359   4.203   2.859  14.185  0.2913 -0.1989 -0.2967
 2909SOL    HW120360   4.261   2.790  14.153 -0.1707 -0.5887 -0.2926
 2909SOL    HW220361   4.129   2.858  14.125 -2.2088  0.8682  2.7850
 2910SOL     OW20362   1.662   2.169  10.069 -0.1173 -0.7231  0.7472
 2910SOL    HW120363   1.625   2.093  10.025 -1.4481 -1.6581  3.4698
 2910SOL    HW220364   1.730   2.134  10.126  1.1370  0.7675  0.1385
 2911SOL     OW20365   2.191   2.771   6.967  0.1944  0.4485  0.0650
 2911SOL    HW120366   2.182   2.825   6.889 -1.8642  1.5417  1.0417
 2911SOL    HW220367   2.110   2.776   7.019 -1.7359 -0.3254 -2.8510
 2912SOL     OW20368   3.614   0.873  16.413  0.4652 -0.7050 -0.0401
 2912SOL    HW120369   3.684   0.856  16.476 -0.6336 -4.3980  0.2058
 2912SOL    HW220370   3.541   0.818  16.441  0.4492 -0.6507  0.0244
 2913SOL     OW20371   2.834   2.982   6.955 -0.3052 -0.3465  0.8371
 2913SOL    HW120372   2.751   3.027   6.974  1.0179  1.3670  2.5078
 2913SOL    HW220373   2.844   3.026   6.871  1.2217  0.3515  1.3972
 2914SOL     OW20374   3.379   4.657   3.786 -0.0204 -0.2405  0.5733
 2914SOL    HW120375   3.470   4.651   3.757  0.4032  2.0703  1.3874
 2914SOL    HW220376   3.345   4.734   3.740  0.6008  0.3935  1.1800
 2915SOL     OW20377   3.798   4.372  16.686  0.0846  0.3084  0.5155
 2915SOL    HW120378   3.776   4.374  16.593  0.9733 -2.0259  0.2298
 2915SOL    HW220379   3.880   4.322  16.690  0.2910  0.4420 -1.7295
 2916SOL     OW20380   4.194   0.716  17.739  0.0318 -0.2317 -0.1119
 2916SOL    HW120381   4.226   0.664  17.665 -1.3728  0.4490 -1.1946
 2916SOL    HW220382   4.100   0.713  17.721  0.3906 -2.7353 -1.5872
 2917SOL     OW20383   1.374   1.712   5.929 -0.1176  0.2467 -0.1628
 2917SOL    HW120384   1.409   1.742   6.013  0.1190  0.4996 -0.3524
 2917SOL    HW220385   1.402   1.777   5.865  0.7410 -1.0074 -1.0686
 2918SOL     OW20386   2.775   3.332   6.883 -0.2228  0.5496 -0.3013
 2918SOL    HW120387   2.833   3.382   6.824  0.6335  1.5974  1.4435
 2918SOL    HW220388   2.781   3.370   6.971  0.3665  0.7738 -0.4342
 2919SOL     OW20389   1.673   2.721  15.003 -0.5175 -0.3350 -0.3642
 2919SOL    HW120390   1.658   2.742  15.095  0.8116 -2.7005  0.3986
 2919SOL    HW220391   1.749   2.664  15.006 -1.8561 -2.2119 -1.4266
 2920SOL     OW20392   0.337   1.740   8.253  0.4622 -0.7471 -0.0961
 2920SOL    HW120393   0.416   1.720   8.204  0.5901 -1.7003  0.4940
 2920SOL    HW220394   0.337   1.682   8.330 -0.5815  0.9941  1.2115
 2921SOL     OW20395   2.194   4.433   9.128 -0.5016  0.5542  0.4321
 2921SOL    HW120396   2.276   4.404   9.089 -0.0677 -0.1833  1.9076
 2921SOL    HW220397   2.131   4.420   9.057 -0.2582  0.5673  0.2171
 2922SOL     OW20398   3.626   3.761   7.634 -0.2035 -0.3780 -0.4773
 2922SOL    HW120399   3.613   3.720   7.720 -0.6458 -1.2900 -0.9781
 2922SOL    HW220400   3.720   3.756   7.617 -0.1966 -0.3012 -0.4593
 2923SOL     OW20401   0.939   0.218   2.772 -0.0149  0.0443 -0.0296
 2923SOL    HW120402   0.969   0.304   2.799 -1.4479 -0.0815  1.9599
 2923SOL    HW220403   1.009   0.195   2.711  1.3604 -1.2490  2.0332
 2924SOL     OW20404   3.192   1.338   3.946 -0.3056  0.0048  0.3285
 2924SOL    HW120405   3.267   1.308   3.998  0.2333  0.5723 -0.1321
 2924SOL    HW220406   3.230   1.400   3.884 -1.4857  0.0578 -0.3606
 2925SOL     OW20407   3.441   1.566   2.674 -0.0152 -0.2354 -0.4357
 2925SOL    HW120408   3.403   1.633   2.617  0.5875  0.3403 -0.1655
 2925SOL    HW220409   3.432   1.608   2.760 -0.1200  1.0582 -1.0820
 2926SOL     OW20410   0.374   4.351   0.697 -0.7354  0.1839 -0.4657
 2926SOL    HW120411   0.400   4.259   0.707 -0.1567  0.2583 -1.2854
 2926SOL    HW220412   0.331   4.337   0.613  0.2117 -1.4571 -0.6821
 2927SOL     OW20413   3.747   4.693  14.667  0.3157 -0.4937  0.1932
 2927SOL    HW120414   3.658   4.709  14.698 -0.1500  0.6469 -1.6796
 2927SOL    HW220415   3.769   0.038  14.620 -1.1081  1.5899  3.1017
 2928SOL     OW20416   2.428   1.905   4.563  0.0895 -0.3023  0.3145
 2928SOL    HW120417   2.339   1.940   4.571 -1.0162 -3.0522 -0.2346
 2928SOL    HW220418   2.457   1.994   4.540  2.0216 -0.9909  0.0934
 2929SOL     OW20419   1.525   2.908  13.128  0.3734  0.2213 -0.6457
 2929SOL    HW120420   1.534   2.996  13.091  1.1747  0.7787  0.8448
 2929SOL    HW220421   1.587   2.904  13.201 -0.3952 -0.8624 -0.0618
 2930SOL     OW20422   4.280   4.432   8.599  0.0591 -0.0575 -0.2050
 2930SOL    HW120423   4.314   4.423   8.688  1.9826 -1.2507 -1.0636
 2930SOL    HW220424   4.290   4.341   8.571 -0.1857 -0.3841  0.7734
 2931SOL     OW20425   3.013   1.402  11.367  0.0771 -0.3375  0.0962
 2931SOL    HW120426   3.098   1.360  11.381  0.2124 -0.2684 -0.5065
 2931SOL    HW220427   3.034   1.453  11.288  2.4537 -0.6999  0.4865
 2932SOL     OW20428   1.236   1.584  16.970  0.0432  0.0279  0.0587
 2932SOL    HW120429   1.154   1.632  16.985 -1.1570 -1.3877 -2.0476
 2932SOL    HW220430   1.220   1.507  17.025 -2.0147  0.5223  0.1631
 2933SOL     OW20431   3.028   3.278   2.158 -0.3685  0.0909 -0.4824
 2933SOL    HW120432   3.071   3.362   2.140 -0.2150  0.5256  1.9627
 2933SOL    HW220433   2.987   3.264   2.073 -0.6776  0.5460 -0.4129
 2934SOL     OW20434   0.799   2.452   4.294 -0.3130 -0.0521 -0.1839
 2934SOL    HW120435   0.873   2.482   4.242  0.3816  1.4536  1.6713
 2934SOL    HW220436   0.823   2.487   4.380 -0.1436 -2.3342  0.7011
 2935SOL     OW20437   3.482   4.521   6.320 -0.3557  0.1941  0.2264
 2935SOL    HW120438   3.447   4.573   6.392 -0.0923 -0.4111  0.7811
 2935SOL    HW220439   3.413   4.523   6.253 -0.8493  0.7873  0.7488
 2936SOL     OW20440   4.266   1.714   7.636  0.0755 -0.3094 -0.3060
 2936SOL    HW120441   4.296   1.671   7.717  3.2939  3.3216  0.4298
 2936SOL    HW220442   4.327   1.786   7.621 -3.0009  2.2326 -0.5170
 2937SOL     OW20443   3.688   0.025   2.694  0.3125 -0.0617  0.4852
 2937SOL    HW120444   3.702   4.730   2.604 -0.3143  1.1378 -0.0391
 2937SOL    HW220445   3.781   0.042   2.711  0.1619  1.4400 -0.1697
 2938SOL     OW20446   4.231   0.099   2.791 -0.5376  0.1620 -0.2038
 2938SOL    HW120447   4.303   0.065   2.737  0.6624 -1.7986  2.6835
 2938SOL    HW220448   4.261   0.181   2.831  1.5764 -0.0383 -1.4081
 2939SOL     OW20449   2.392   0.654  10.303  0.0999 -0.4169  0.3106
 2939SOL    HW120450   2.419   0.698  10.384  2.2617 -2.2624  0.5763
 2939SOL    HW220451   2.436   0.571  10.318  2.2380  0.9507  1.5798
 2940SOL     OW20452   3.428   2.279   3.232  0.8796  0.0386 -0.6019
 2940SOL    HW120453   3.474   2.304   3.152 -0.1576  1.6637 -0.7058
 2940SOL    HW220454   3.485   2.329   3.290 -0.8272 -1.0948  2.0209
 2941SOL     OW20455   1.921   4.051  14.742  0.2677  0.4317 -0.1891
 2941SOL    HW120456   1.904   4.080  14.653  0.4468 -0.7997 -0.6125
 2941SOL    HW220457   1.909   4.135  14.787 -1.6627  0.8334 -1.4848
 2942SOL     OW20458   0.847   4.361   3.338 -0.3500  0.0710 -0.3144
 2942SOL    HW120459   0.775   4.298   3.336 -1.4105  1.2323  1.2634
 2942SOL    HW220460   0.838   4.409   3.421  1.9536 -0.0302  0.0059
 2943SOL     OW20461   3.214   0.277   2.120  0.0038 -0.2293  0.0340
 2943SOL    HW120462   3.150   0.340   2.085 -0.7926 -0.0210  1.8380
 2943SOL    HW220463   3.196   0.283   2.214  0.4246 -0.4636  0.1271
 2944SOL     OW20464   3.624   0.075   8.203  0.0383  0.2090  0.1798
 2944SOL    HW120465   3.645   0.080   8.110  0.1131 -0.1980  0.1735
 2944SOL    HW220466   3.556   0.008   8.200  1.1648 -0.8453 -1.8773
 2945SOL     OW20467   4.240   4.677   5.169  0.2257 -0.1086 -0.0793
 2945SOL    HW120468   4.281   4.632   5.095  0.3935 -0.5265  0.2709
 2945SOL    HW220469   4.215   4.603   5.224 -1.8175  2.3802  2.3386
 2946SOL     OW20470   0.606   1.192   6.672  0.4930  0.1818  0.1484
 2946SOL    HW120471   0.516   1.168   6.650  0.4694  2.0322 -1.7799
 2946SOL    HW220472   0.608   1.158   6.762  3.1515 -0.3408 -0.1093
 2947SOL     OW20473   0.999   0.745   7.564 -0.8385 -0.1631  0.5609
 2947SOL    HW120474   1.095   0.744   7.570 -0.9750 -0.1462  2.9012
 2947SOL    HW220475   0.972   0.690   7.637 -0.4393  0.6892  1.3586
 2948SOL     OW20476   4.192   0.110  17.074  0.3693  0.2646 -0.0773
 2948SOL    HW120477   4.245   0.091  16.997 -2.9386 -1.0933 -2.0149
 2948SOL    HW220478   4.208   0.034  17.131  0.2273 -0.4032 -0.9308
 2949SOL     OW20479   2.048   2.728   0.623  0.4807  0.2632  0.4011
 2949SOL    HW120480   1.960   2.766   0.614  0.5175 -0.2297 -2.0097
 2949SOL    HW220481   2.084   2.781   0.695 -1.7398  0.8783  1.0713
 2950SOL     OW20482   0.257   3.518   5.319  0.0797  0.1849 -0.1492
 2950SOL    HW120483   0.347   3.499   5.290  0.8064 -3.4134  4.4292
 2950SOL    HW220484   0.251   3.611   5.295  1.3077  0.9463  2.4822
 2951SOL     OW20485   4.446   2.245   5.229 -0.9063  0.4259  0.5882
 2951SOL    HW120486   4.440   2.333   5.191 -0.6174  0.0127 -0.4112
 2951SOL    HW220487   4.541   2.241   5.241 -0.8279  2.2377  0.5545
 2952SOL     OW20488   0.718   2.252   5.956  0.6659  0.1703 -0.4645
 2952SOL    HW120489   0.734   2.234   5.864 -0.5684  0.3108 -0.7137
 2952SOL    HW220490   0.630   2.290   5.953  0.1214 -0.9633  1.2259
 2953SOL     OW20491   0.633   3.315   7.496 -0.3890  0.2604 -0.1584
 2953SOL    HW120492   0.637   3.233   7.545  0.1865  0.0286 -0.5962
 2953SOL    HW220493   0.572   3.306   7.423 -1.5933  0.2569  0.8525
 2954SOL     OW20494   0.647   1.403   0.511  0.5578 -0.6143 -0.0069
 2954SOL    HW120495   0.572   1.402   0.453  1.3017 -1.7128 -0.9305
 2954SOL    HW220496   0.613   1.357   0.588  1.1469 -1.3516 -0.1942
 2955SOL     OW20497   0.645   3.343  12.042  0.0507  0.5832 -0.6726
 2955SOL    HW120498   0.641   3.253  12.073  1.1456  1.0918  0.9702
 2955SOL    HW220499   0.552   3.362  12.036  0.5486  2.6650 -2.0582
 2956SOL     OW20500   1.716   0.307   3.095  0.2400  0.2308  0.3798
 2956SOL    HW120501   1.678   0.225   3.062 -0.8524  0.5778  0.7561
 2956SOL    HW220502   1.806   0.287   3.118 -0.0468  0.0595  1.3608
 2957SOL     OW20503   1.178   2.242   8.033  0.3511  0.0714 -0.4030
 2957SOL    HW120504   1.144   2.202   7.953  0.3699 -0.5852 -0.0768
 2957SOL    HW220505   1.178   2.334   8.004 -1.8541 -0.0363 -0.7455
 2958SOL     OW20506   2.732   3.539   2.204 -0.1993 -0.0968 -0.0738
 2958SOL    HW120507   2.740   3.497   2.119 -1.5075 -0.6699  0.0841
 2958SOL    HW220508   2.747   3.632   2.185  0.1288 -0.2900 -0.7468
 2959SOL     OW20509   4.121   0.369  15.027  0.0333  0.2475  0.2284
 2959SOL    HW120510   4.095   0.437  14.964  1.0699  0.6846  0.2653
 2959SOL    HW220511   4.100   0.410  15.110 -2.6625  1.8828 -1.2777
 2960SOL     OW20512   2.278   0.219   1.254  0.2041 -0.0779  0.2588
 2960SOL    HW120513   2.321   0.302   1.274  0.3701  0.2557 -1.5260
 2960SOL    HW220514   2.188   0.251   1.246  0.5443  0.0761 -2.7478
 2961SOL     OW20515   3.858   3.834   2.275  0.0867  0.0648  0.3055
 2961SOL    HW120516   3.840   3.866   2.187  0.6424  1.6501  0.7666
 2961SOL    HW220517   3.931   3.772   2.280 -0.0124 -0.1428 -0.9684
 2962SOL     OW20518   2.998   4.666   3.127  0.2008  0.2038 -0.8306
 2962SOL    HW120519   2.937   4.658   3.201  0.0521  2.0763 -0.7664
 2962SOL    HW220520   3.017   4.573   3.111  1.4328  0.4660 -0.8398
 2963SOL     OW20521   0.968   3.118   3.882 -0.0612 -0.1843 -0.1417
 2963SOL    HW120522   1.051   3.084   3.849  0.0991  1.1603 -1.1486
 2963SOL    HW220523   0.909   3.046   3.858  1.8965 -2.3589  1.6766
 2964SOL     OW20524   1.916   1.675   7.242 -0.7268  0.1763  0.4493
 2964SOL    HW120525   1.913   1.771   7.243 -0.7322  0.1722  0.7024
 2964SOL    HW220526   1.883   1.646   7.327 -2.0804  1.3233  0.3111
 2965SOL     OW20527   1.830   1.671   5.359 -0.3773 -0.0058  0.8110
 2965SOL    HW120528   1.788   1.674   5.445 -0.2594  1.1379  0.8258
 2965SOL    HW220529   1.922   1.693   5.376 -0.0326 -0.8766  0.0523
 2966SOL     OW20530   1.460   3.741  17.461 -0.9548  0.1413 -0.2921
 2966SOL    HW120531   1.491   3.788  17.384  2.8706  0.2216  1.2701
 2966SOL    HW220532   1.469   3.803  17.533 -1.0461 -1.8006  1.3905
 2967SOL     OW20533   0.659   1.032   5.320 -0.5838 -0.2076  0.0095
 2967SOL    HW120534   0.610   1.031   5.237  0.4307  1.2434 -0.6026
 2967SOL    HW220535   0.708   1.108   5.290 -2.4523  0.3403 -1.7178
 2968SOL     OW20536   0.170   0.509   4.418 -0.0465 -0.0947 -0.7710
 2968SOL    HW120537   0.249   0.457   4.431  0.0383 -0.3264 -2.1890
 2968SOL    HW220538   0.098   0.447   4.410  1.0919 -1.5508  0.4603
 2969SOL     OW20539   3.658   1.654  11.928 -0.5330  0.1892  0.2986
 2969SOL    HW120540   3.633   1.731  11.980  0.0438  1.2365 -0.9764
 2969SOL    HW220541   3.714   1.613  11.994 -2.0383 -0.5183  1.1242
 2970SOL     OW20542   1.412   2.232   3.559 -0.5685  0.3409 -0.0981
 2970SOL    HW120543   1.423   2.326   3.551  2.2357  0.2939  3.0769
 2970SOL    HW220544   1.481   2.195   3.504  0.3193  1.7021  0.1215
 2971SOL     OW20545   4.284   3.594   6.902  0.3032 -0.5215 -0.4628
 2971SOL    HW120546   4.254   3.684   6.897  1.3951 -0.1460 -0.3694
 2971SOL    HW220547   4.205   3.551   6.869 -0.5061 -0.3607  1.2715
 2972SOL     OW20548   1.604   1.644   2.392  0.1400 -0.7131 -0.6261
 2972SOL    HW120549   1.583   1.586   2.465  1.0497 -0.6317 -0.3091
 2972SOL    HW220550   1.636   1.714   2.448  0.1565 -0.3642 -1.0701
 2973SOL     OW20551   2.780   0.991  15.237  0.7109  0.2725 -0.3047
 2973SOL    HW120552   2.844   1.050  15.198  0.9115  0.6731  0.6198
 2973SOL    HW220553   2.801   0.992  15.331  0.3280  1.6074 -0.2341
 2974SOL     OW20554   4.249   1.087   2.569  0.1681  0.3358  0.1412
 2974SOL    HW120555   4.198   1.140   2.507 -0.0701  0.1800  0.2033
 2974SOL    HW220556   4.334   1.106   2.529 -0.8388  4.0604 -0.2228
 2975SOL     OW20557   3.960   4.632   6.938 -0.1056  0.3424 -0.1265
 2975SOL    HW120558   4.012   4.618   6.859 -0.6890 -2.0210 -0.0757
 2975SOL    HW220559   3.902   4.706   6.916 -0.0682 -0.8501 -4.1175
 2976SOL     OW20560   1.709   2.337   2.959 -0.5421  0.4441  0.1935
 2976SOL    HW120561   1.771   2.396   2.917  1.3114 -1.2330  0.6205
 2976SOL    HW220562   1.758   2.310   3.037 -0.0170 -2.0715 -1.0018
 2977SOL     OW20563   4.701   4.708   9.678  0.7550 -0.0804 -0.4601
 2977SOL    HW120564   4.691   4.701   9.583 -0.9190 -0.2999 -0.2629
 2977SOL    HW220565   4.656   0.054   9.695  0.5474 -0.4807  0.9153
 2978SOL     OW20566   0.766   4.658   7.244 -0.0679 -0.0678  0.0271
 2978SOL    HW120567   0.812   4.670   7.327  2.4503 -3.0071 -0.9276
 2978SOL    HW220568   0.696   4.596   7.266 -1.5014  0.8774 -1.7862
 2979SOL     OW20569   4.421   3.156   2.724  0.2662 -0.4232 -0.2485
 2979SOL    HW120570   4.370   3.079   2.700  0.7157 -0.4775 -1.0189
 2979SOL    HW220571   4.501   3.143   2.674  0.4190 -0.3083 -0.0371
 2980SOL     OW20572   4.229   4.488   1.210  0.1382 -0.2720 -0.8145
 2980SOL    HW120573   4.309   4.529   1.243 -0.0180  0.2177 -1.0437
 2980SOL    HW220574   4.245   4.400   1.243  3.5424  1.9118  3.2842
 2981SOL     OW20575   0.883   4.308   4.840 -0.0263  0.1182  0.1134
 2981SOL    HW120576   0.957   4.284   4.785  0.1394 -0.2426  0.4925
 2981SOL    HW220577   0.816   4.243   4.818  0.1793 -0.2632  0.6109
 2982SOL     OW20578   1.720   4.432  11.096  0.0223 -0.0821  0.2304
 2982SOL    HW120579   1.636   4.475  11.111 -0.6395 -1.1017 -0.5685
 2982SOL    HW220580   1.750   4.415  11.185  2.3020 -1.1806 -0.7548
 2983SOL     OW20581   0.504   3.230  16.056 -0.4868  0.1239 -0.2834
 2983SOL    HW120582   0.435   3.227  15.990 -0.1861  0.3932 -0.6067
 2983SOL    HW220583   0.574   3.262  15.998  0.5665  2.4415  2.2387
 2984SOL     OW20584   3.098   1.467   1.912  0.5778 -0.3609  0.0382
 2984SOL    HW120585   3.052   1.497   1.834  0.8610  1.2160  0.4690
 2984SOL    HW220586   3.155   1.540   1.937  1.2465 -2.1039  3.6103
 2985SOL     OW20587   2.913   1.746   7.513  0.1620  0.3424  0.3374
 2985SOL    HW120588   2.874   1.673   7.560 -0.6438  0.1497 -0.6303
 2985SOL    HW220589   2.967   1.691   7.457 -1.4413  1.0737 -1.9010
 2986SOL     OW20590   2.277   4.427  14.216 -0.2874 -0.3541 -1.0372
 2986SOL    HW120591   2.316   4.503  14.259  0.4802  0.4211 -3.0775
 2986SOL    HW220592   2.217   4.472  14.156 -0.2792  2.5978  1.1948
 2987SOL     OW20593   2.159   3.974   5.037 -0.5040 -0.3087  0.1816
 2987SOL    HW120594   2.173   3.886   5.070 -1.3167 -0.9705 -1.2204
 2987SOL    HW220595   2.227   3.977   4.969 -1.1326 -0.3387 -0.4502
 2988SOL     OW20596   4.416   0.963   7.060 -0.1856  0.1778 -0.0056
 2988SOL    HW120597   4.370   0.931   7.138 -1.4167  2.0627  0.0736
 2988SOL    HW220598   4.389   0.892   7.002  2.2950 -1.0216  0.3063
 2989SOL     OW20599   0.276   2.403  12.803 -0.7960  0.2513  0.1118
 2989SOL    HW120600   0.282   2.345  12.727 -1.2382 -0.4316  0.5971
 2989SOL    HW220601   0.341   2.469  12.780 -2.0081  1.1186 -0.8651
 2990SOL     OW20602   0.163   2.670   5.848  0.5586  0.3399 -0.0628
 2990SOL    HW120603   0.079   2.652   5.890 -0.0762 -0.3116 -1.6158
 2990SOL    HW220604   0.165   2.765   5.857  0.7510  0.2661  0.6965
 2991SOL     OW20605   3.032   3.279   9.734 -0.2231  0.6625  0.5481
 2991SOL    HW120606   3.101   3.300   9.797  0.8227 -1.4263  0.1052
 2991SOL    HW220607   2.962   3.250   9.792  0.2566 -1.6196 -0.0190
 2992SOL     OW20608   2.965   2.531   6.208 -0.0497  1.1087  0.6028
 2992SOL    HW120609   3.034   2.586   6.169  0.3443  1.8651  2.3837
 2992SOL    HW220610   3.010   2.457   6.247  0.2388  0.2582 -1.3219
 2993SOL     OW20611   3.129   0.258   6.261  0.0464 -0.4947 -0.5239
 2993SOL    HW120612   3.185   0.335   6.265  0.3175 -0.6883 -0.6376
 2993SOL    HW220613   3.182   0.201   6.205 -1.7814  0.1734 -2.9817
 2994SOL     OW20614   0.742   0.485   5.751  0.1373 -0.1906 -0.4042
 2994SOL    HW120615   0.675   0.476   5.684  1.0447  0.4886 -1.4031
 2994SOL    HW220616   0.812   0.509   5.690  0.8734 -1.1662  0.0507
 2995SOL     OW20617   4.117   2.302   4.825 -0.5194  0.4357  0.2297
 2995SOL    HW120618   4.021   2.299   4.821 -0.5390  0.8509  0.3850
 2995SOL    HW220619   4.126   2.397   4.814 -2.7682  0.6010 -0.2070
 2996SOL     OW20620   3.342   0.411   6.364 -0.1833  0.5213 -0.0923
 2996SOL    HW120621   3.372   0.450   6.282 -1.4167 -3.0749 -2.2671
 2996SOL    HW220622   3.410   0.432   6.428 -0.8348 -0.0190  0.7764
 2997SOL     OW20623   4.305   1.358   0.962 -0.5152  0.1237  0.0944
 2997SOL    HW120624   4.358   1.395   0.891  1.3799  0.7308  1.7895
 2997SOL    HW220625   4.246   1.299   0.915 -0.3482 -0.8485  1.1133
 2998SOL     OW20626   1.969   1.361   2.576 -0.2476 -0.5096  0.4467
 2998SOL    HW120627   2.011   1.399   2.652 -0.9410 -0.4921  0.8196
 2998SOL    HW220628   1.996   1.425   2.510 -1.3369  0.7033  1.1942
 2999SOL     OW20629   3.287   2.074  15.992 -0.4856  0.3203 -0.1118
 2999SOL    HW120630   3.279   1.985  15.958  1.0842  1.8760 -4.5687
 2999SOL    HW220631   3.254   2.115  15.912  1.9961 -2.6716 -2.6737
 3000SOL     OW20632   3.370   0.728   7.310 -0.2855 -0.3998  0.2863
 3000SOL    HW120633   3.371   0.792   7.240  3.1355 -0.3413  0.3625
 3000SOL    HW220634   3.350   0.774   7.391 -1.8179  1.3031 -1.0827
 3001SOL     OW20635   1.986   2.865   8.235  0.7531 -0.3172 -0.0716
 3001SOL    HW120636   1.899   2.876   8.196 -0.2449  0.1017  2.2208
 3001SOL    HW220637   2.004   2.958   8.224  0.6441 -0.1290  1.3435
 3002SOL     OW20638   4.680   0.298   3.717 -0.0357 -0.0748  0.3833
 3002SOL    HW120639   4.647   0.306   3.627  0.4716 -0.3243  0.1774
 3002SOL    HW220640   4.619   0.350   3.769  0.4109  2.4145 -1.6068
 3003SOL     OW20641   3.124   2.665   2.080 -0.1853  0.0320  0.5391
 3003SOL    HW120642   3.130   2.585   2.132  0.3163  0.9057  1.8035
 3003SOL    HW220643   3.217   2.685   2.074 -0.2538  0.0135 -0.5862
 3004SOL     OW20644   1.196   3.502   1.557  0.2235  0.0570  0.0007
 3004SOL    HW120645   1.262   3.560   1.517  0.1774 -0.1064 -0.3147
 3004SOL    HW220646   1.167   3.448   1.483  2.3518  0.0484 -0.8340
 3005SOL     OW20647   0.574   2.557   7.794  0.3181  0.3419  0.1795
 3005SOL    HW120648   0.641   2.611   7.752  1.5076  0.2128  1.9174
 3005SOL    HW220649   0.497   2.613   7.781  0.1107 -0.1450 -0.7490
 3006SOL     OW20650   4.198   3.818   7.186 -0.4278  0.2187  0.1233
 3006SOL    HW120651   4.294   3.814   7.186 -0.3162  3.2974  1.7611
 3006SOL    HW220652   4.170   3.908   7.200  2.8952  1.4696 -1.1164
 3007SOL     OW20653   2.545   1.287   6.601 -0.0522 -0.2887 -0.0331
 3007SOL    HW120654   2.596   1.357   6.560 -0.2341 -0.8868 -1.2845
 3007SOL    HW220655   2.505   1.245   6.525  0.4734 -0.8536  0.0016
 3008SOL     OW20656   4.253   3.464   2.738 -0.4465  0.1315  0.3490
 3008SOL    HW120657   4.296   3.405   2.799 -1.6327 -0.2530  0.8111
 3008SOL    HW220658   4.281   3.442   2.649 -2.3937  1.4062 -0.5861
 3009SOL     OW20659   0.947   1.792  16.722  0.3146  0.2453 -0.2867
 3009SOL    HW120660   0.955   1.833  16.636  0.2600  0.3253 -0.2529
 3009SOL    HW220661   0.866   1.742  16.716  0.2484  0.2062  0.8307
 3010SOL     OW20662   1.208   2.502   3.356  0.4696 -0.0459  0.4229
 3010SOL    HW120663   1.251   2.501   3.441  2.9473  1.5526 -0.8164
 3010SOL    HW220664   1.147   2.575   3.366 -0.5960 -0.9017  0.1381
 3011SOL     OW20665   2.669   0.529  17.479 -0.4494 -0.3052  0.4771
 3011SOL    HW120666   2.625   0.608  17.510  1.2446  1.0606 -0.6244
 3011SOL    HW220667   2.752   0.562  17.445  1.4487 -2.3434  3.1767
 3012SOL     OW20668   2.684   2.446   9.413 -0.4117  0.1468  0.0372
 3012SOL    HW120669   2.740   2.401   9.349  1.6637  1.7944  0.6916
 3012SOL    HW220670   2.647   2.370   9.458 -1.7467  1.2934  0.8676
 3013SOL     OW20671   0.657   2.142   8.857  0.0548  0.5159  0.3247
 3013SOL    HW120672   0.597   2.123   8.785 -0.1655 -1.0066  0.8974
 3013SOL    HW220673   0.741   2.159   8.814  1.2637 -1.0352  2.0916
 3014SOL     OW20674   3.750   4.193   4.861 -0.0666 -0.4545  0.3298
 3014SOL    HW120675   3.660   4.200   4.831  0.7235  0.6205 -1.8036
 3014SOL    HW220676   3.802   4.225   4.787  0.4998 -0.9357  0.5133
 3015SOL     OW20677   2.531   3.003   8.953  0.5834  0.1524 -0.0674
 3015SOL    HW120678   2.562   3.066   8.888  0.4342  0.5278  0.2258
 3015SOL    HW220679   2.515   2.923   8.902 -2.2105  0.4959  0.2681
 3016SOL     OW20680   0.978   3.328   8.190 -0.1978 -0.8010  0.4283
 3016SOL    HW120681   0.998   3.388   8.262  3.1825 -0.8696 -0.4287
 3016SOL    HW220682   0.959   3.247   8.237 -0.3605 -2.0608 -1.8274
 3017SOL     OW20683   4.346   1.377   2.735 -0.3428 -0.3352 -0.4503
 3017SOL    HW120684   4.376   1.291   2.764 -2.4394 -1.0341 -0.3799
 3017SOL    HW220685   4.369   1.432   2.809 -0.9252 -1.2124  0.3814
 3018SOL     OW20686   2.179   2.021   4.184  0.4811 -0.0732 -0.1467
 3018SOL    HW120687   2.116   2.054   4.120 -1.9337 -1.3825  1.5849
 3018SOL    HW220688   2.254   2.077   4.164 -0.7470  1.1304 -1.4484
 3019SOL     OW20689   4.012   1.771   2.396 -0.1364  0.7554 -0.4142
 3019SOL    HW120690   4.031   1.717   2.473 -1.0022  3.3994  1.6294
 3019SOL    HW220691   3.948   1.717   2.348  0.6122  0.2617 -0.8561
 3020SOL     OW20692   2.357   4.117  14.542  0.0347 -0.3874 -0.0539
 3020SOL    HW120693   2.357   4.021  14.547 -2.1347 -0.3463  0.9148
 3020SOL    HW220694   2.361   4.133  14.448 -2.4154  0.2004 -0.0734
 3021SOL     OW20695   2.680   1.215   4.527  0.5889  0.2484 -0.2660
 3021SOL    HW120696   2.728   1.189   4.448  1.5096 -0.1533  0.4251
 3021SOL    HW220697   2.590   1.214   4.495  0.2747  0.4451  0.6250
 3022SOL     OW20698   1.215   1.648   5.370 -0.1971 -0.3455 -0.4677
 3022SOL    HW120699   1.124   1.623   5.355  0.3905 -1.9800 -1.2705
 3022SOL    HW220700   1.209   1.702   5.449  0.0222  0.7168 -1.1815
 3023SOL     OW20701   1.026   1.511   6.422  0.2378  0.2453  0.5325
 3023SOL    HW120702   1.034   1.477   6.332  1.4754 -1.8575  1.4317
 3023SOL    HW220703   1.041   1.604   6.404  0.5397  0.1038  0.0340
 3024SOL     OW20704   4.561   1.031   6.568  0.1619 -0.3424  0.5212
 3024SOL    HW120705   4.655   1.019   6.581  0.5218  1.7986 -0.1861
 3024SOL    HW220706   4.550   1.002   6.477 -0.9845  0.5483  0.3855
 3025SOL     OW20707   1.712   0.632   3.578  0.2959 -0.6138 -0.3762
 3025SOL    HW120708   1.752   0.634   3.665 -2.7678 -1.8842  1.0760
 3025SOL    HW220709   1.679   0.721   3.590 -0.5682 -1.0920  0.7941
 3026SOL     OW20710   0.628   0.816  11.051 -0.2440 -0.5580  0.0478
 3026SOL    HW120711   0.570   0.839  11.123 -0.2949 -1.2935  0.2422
 3026SOL    HW220712   0.630   0.720  11.049 -2.0009 -0.6473  3.2965
 3027SOL     OW20713   0.499   1.980  13.970 -0.4203  0.2393 -0.1806
 3027SOL    HW120714   0.411   1.992  13.932 -1.6307 -1.8895  1.9960
 3027SOL    HW220715   0.548   1.954  13.892  1.7096  2.2031  0.5013
 3028SOL     OW20716   1.332   3.409   8.181  0.2349  0.2582  0.1733
 3028SOL    HW120717   1.337   3.502   8.204  0.3250  0.4087 -0.4712
 3028SOL    HW220718   1.299   3.369   8.262 -1.3356  1.0123 -0.0824
 3029SOL     OW20719   3.702   2.721   6.512 -0.0620 -0.3237  0.1680
 3029SOL    HW120720   3.692   2.627   6.501 -1.6397 -0.0565 -0.6594
 3029SOL    HW220721   3.786   2.733   6.468 -1.1337 -0.5155 -1.9164
 3030SOL     OW20722   1.129   3.598  15.210 -0.4583  0.0948 -0.3562
 3030SOL    HW120723   1.076   3.673  15.236  0.9497  1.1604 -0.5870
 3030SOL    HW220724   1.130   3.553  15.294 -1.8833 -1.6363 -1.2660
 3031SOL     OW20725   0.957   1.016   7.636 -0.1487 -0.0425  0.1185
 3031SOL    HW120726   0.866   1.023   7.605 -0.8932 -0.4192  2.2056
 3031SOL    HW220727   0.987   0.938   7.589 -1.1499  0.0151 -0.6282
 3032SOL     OW20728   0.815   0.154  14.916 -0.3433  0.5767 -0.3273
 3032SOL    HW120729   0.798   0.133  15.008 -0.2213  0.7301 -0.2689
 3032SOL    HW220730   0.727   0.153  14.879  0.8169 -1.6182 -3.0460
 3033SOL     OW20731   2.309   0.050   6.930  0.2104 -0.2723 -0.4817
 3033SOL    HW120732   2.392   0.004   6.921  0.1790 -0.4949  0.4384
 3033SOL    HW220733   2.247   4.713   6.931 -0.6975  0.5247  1.5200
 3034SOL     OW20734   1.078   1.817  13.798 -0.0045 -0.1664 -0.0954
 3034SOL    HW120735   1.079   1.911  13.817  0.3961  0.4421 -3.1858
 3034SOL    HW220736   1.121   1.784  13.877 -2.8668 -1.8366  0.7689
 3035SOL     OW20737   4.076   2.861   1.433  0.1086  0.4237 -0.0755
 3035SOL    HW120738   4.106   2.817   1.513  0.5024  1.2514  0.2322
 3035SOL    HW220739   4.156   2.901   1.400  0.1618  0.2062 -0.2094
 3036SOL     OW20740   1.126   3.299   6.305  0.2897 -0.3041  0.0766
 3036SOL    HW120741   1.213   3.339   6.318  0.3401 -0.6089  0.6891
 3036SOL    HW220742   1.081   3.383   6.298 -0.3204 -0.5932  0.5602
 3037SOL     OW20743   4.250   2.201   5.665  0.5228 -0.3588  0.0014
 3037SOL    HW120744   4.225   2.148   5.589 -0.9954 -0.2356  0.4097
 3037SOL    HW220745   4.324   2.256   5.639  2.5122 -0.9641  4.4324
 3038SOL     OW20746   0.791   2.392   8.486 -0.0237 -0.9673  0.4862
 3038SOL    HW120747   0.696   2.396   8.496 -0.0387  0.0312  0.0200
 3038SOL    HW220748   0.802   2.440   8.404 -3.8821  1.6921  1.5263
 3039SOL     OW20749   3.834   2.586   7.073 -0.6582  0.2493 -0.1775
 3039SOL    HW120750   3.878   2.620   6.995 -0.9593 -1.0373 -0.9168
 3039SOL    HW220751   3.897   2.619   7.137 -0.9703  0.2309  0.1380
 3040SOL     OW20752   0.207   3.439   3.971 -0.0843 -0.1079 -0.0821
 3040SOL    HW120753   0.291   3.484   3.958  0.0391 -0.1978  0.4035
 3040SOL    HW220754   0.150   3.510   4.002  2.4817  1.2627  1.5559
 3041SOL     OW20755   3.815   0.839   6.134  0.0195  0.3518  0.9493
 3041SOL    HW120756   3.846   0.821   6.045  0.4564 -0.4804  1.2803
 3041SOL    HW220757   3.848   0.763   6.181  0.1537 -0.0171  0.2622
 3042SOL     OW20758   0.602   1.245   4.216  0.2087 -0.3222 -0.5678
 3042SOL    HW120759   0.580   1.192   4.293  2.4178 -3.3996 -2.0620
 3042SOL    HW220760   0.678   1.296   4.244  1.6539 -2.7524 -0.1123
 3043SOL     OW20761   2.062   1.431  12.356 -0.2524 -0.0317 -0.4843
 3043SOL    HW120762   2.069   1.451  12.263 -1.0557  1.5532 -0.2119
 3043SOL    HW220763   2.152   1.401  12.367 -1.1396 -2.1581  1.0295
 3044SOL     OW20764   2.338   2.961   6.552 -0.0909  0.1462 -0.6187
 3044SOL    HW120765   2.369   2.884   6.599 -1.2714  0.8858  1.3690
 3044SOL    HW220766   2.413   2.984   6.497 -0.7627  1.4373 -1.0060
 3045SOL     OW20767   2.040   1.659   6.717  0.2040 -0.1855  0.1235
 3045SOL    HW120768   2.053   1.677   6.624  1.4877  1.7208  0.6693
 3045SOL    HW220769   2.013   1.568   6.708  0.7446 -0.0710 -2.5343
 3046SOL     OW20770   1.802   2.408   3.427  0.1351 -0.1030 -0.0494
 3046SOL    HW120771   1.741   2.472   3.464  0.0548 -0.1662 -0.0735
 3046SOL    HW220772   1.876   2.415   3.488  0.7852  0.7227 -0.9385
 3047SOL     OW20773   4.104   3.170   7.462  0.6420  0.4605 -0.0142
 3047SOL    HW120774   4.041   3.114   7.418 -0.6521 -2.1123  5.1296
 3047SOL    HW220775   4.058   3.217   7.532  0.2910 -0.7771  0.5896
 3048SOL     OW20776   3.571   4.529   7.735  0.1642  0.6152  0.3433
 3048SOL    HW120777   3.625   4.451   7.747 -2.6333 -1.1460  1.4863
 3048SOL    HW220778   3.640   4.575   7.688 -1.1732  3.6935  1.3863
 3049SOL     OW20779   0.052   2.674  12.159 -0.2874 -0.1683 -0.0796
 3049SOL    HW120780   0.131   2.636  12.122 -0.6782 -0.8941 -0.1734
 3049SOL    HW220781   0.080   2.764  12.172 -1.7824  0.2466  0.3630
 3050SOL     OW20782   1.274   1.082   3.481  0.3675 -0.2689 -0.1374
 3050SOL    HW120783   1.205   1.148   3.471  1.1729  0.2957 -2.0514
 3050SOL    HW220784   1.300   1.072   3.389  0.3704  2.1278 -0.4074
 3051SOL     OW20785   0.738   3.120   4.333  0.1712 -0.0278 -0.5804
 3051SOL    HW120786   0.732   3.213   4.357 -1.7980 -1.0674  2.9079
 3051SOL    HW220787   0.774   3.071   4.406 -1.7057 -1.4420 -0.6238
 3052SOL     OW20788   1.108   1.531   7.309  0.0866 -0.3660 -0.4985
 3052SOL    HW120789   1.189   1.509   7.355  0.9031 -0.2451 -1.8653
 3052SOL    HW220790   1.111   1.453   7.255 -0.9064  0.2830 -1.4765
 3053SOL     OW20791   4.732   3.939   8.730 -0.1585  0.2785 -0.0395
 3053SOL    HW120792   0.040   3.894   8.658 -1.0313  1.4599 -1.3227
 3053SOL    HW220793   4.657   3.886   8.756 -0.4086 -0.0488 -1.4253
 3054SOL     OW20794   4.313   3.192   6.374  0.0247 -0.2059 -0.6397
 3054SOL    HW120795   4.226   3.231   6.378 -0.2654 -0.9385  0.2108
 3054SOL    HW220796   4.344   3.206   6.284  0.7195 -0.9102 -0.5063
 3055SOL     OW20797   1.557   4.709   5.856 -0.6221 -0.0310  0.4282
 3055SOL    HW120798   1.499   4.633   5.849  0.5491 -0.9247  0.5869
 3055SOL    HW220799   1.488   0.039   5.870  1.4416  2.1589  0.4204
 3056SOL     OW20800   2.682   0.957   3.800  0.1614 -0.4072 -0.4228
 3056SOL    HW120801   2.661   0.868   3.827  0.0727 -1.2506 -3.2695
 3056SOL    HW220802   2.666   0.958   3.706  0.2237  0.5689 -0.4244
 3057SOL     OW20803   3.962   2.434  13.710 -0.8228  0.4178 -0.0119
 3057SOL    HW120804   3.949   2.422  13.804 -0.2425 -1.4384 -0.1659
 3057SOL    HW220805   4.055   2.420  13.697 -1.2308 -1.4251 -0.9321
 3058SOL     OW20806   3.684   3.237   0.075 -0.1099  0.0136  0.7429
 3058SOL    HW120807   3.616   3.273   0.019  0.4596  0.7117  0.4989
 3058SOL    HW220808   3.721   3.184   0.004  1.3085  0.1707  1.3629
 3059SOL     OW20809   4.104   4.118   4.002 -0.1679 -0.1818 -0.0477
 3059SOL    HW120810   4.057   4.059   4.061 -0.4650  0.7717  0.6642
 3059SOL    HW220811   4.146   4.179   4.061  1.0079 -1.0894  0.0597
 3060SOL     OW20812   0.410   2.471  15.623  0.0348  0.6836  0.2932
 3060SOL    HW120813   0.348   2.421  15.675  0.3166  0.4064  0.3668
 3060SOL    HW220814   0.382   2.466  15.531 -1.1383 -1.5036  0.7788
 3061SOL     OW20815   1.030   3.757   4.677 -0.3334  0.3018 -0.2052
 3061SOL    HW120816   0.972   3.689   4.643  2.0396 -2.0434  0.5258
 3061SOL    HW220817   1.038   3.732   4.769  0.0044  1.0443 -0.0346
 3062SOL     OW20818   3.532   0.963   8.079  0.3771 -0.1020 -0.2727
 3062SOL    HW120819   3.553   0.939   7.990  0.1790  0.5019 -0.4865
 3062SOL    HW220820   3.578   1.047   8.084  0.9378 -0.4051 -0.4407
 3063SOL     OW20821   2.818   1.990   5.891  0.2412 -0.4142  0.5439
 3063SOL    HW120822   2.749   1.937   5.932  0.9238 -0.5499  1.5194
 3063SOL    HW220823   2.825   2.067   5.948  0.4229  0.3431 -0.5055
 3064SOL     OW20824   1.800   0.179   2.289  0.1526  0.1495  0.4095
 3064SOL    HW120825   1.745   0.169   2.367 -0.7801  0.5265 -0.1975
 3064SOL    HW220826   1.791   0.090   2.256  0.0386 -0.5555  2.3175
 3065SOL     OW20827   1.755   0.919   3.689  0.0953 -0.3539  0.2319
 3065SOL    HW120828   1.713   0.913   3.775  0.6479 -1.5885  0.4129
 3065SOL    HW220829   1.703   0.979   3.635  0.2519  0.8069  1.3846
 3066SOL     OW20830   0.743   0.090   3.718 -0.0412  0.5879 -0.1612
 3066SOL    HW120831   0.700   0.049   3.643 -0.4355 -0.4284  0.6278
 3066SOL    HW220832   0.673   0.112   3.779  0.0842 -0.8512  0.5184
 3067SOL     OW20833   4.199   2.147   9.814 -0.2636  1.2848  0.0762
 3067SOL    HW120834   4.189   2.144   9.909  0.3670  3.8872  0.2405
 3067SOL    HW220835   4.237   2.234   9.798  0.6019  1.1683  1.4873
 3068SOL     OW20836   0.871   3.021  10.169  0.2948 -1.0898 -0.0611
 3068SOL    HW120837   0.858   3.070  10.250 -0.4379  1.4279 -1.6849
 3068SOL    HW220838   0.848   2.935  10.203  0.3414 -1.9657 -2.2166
 3069SOL     OW20839   2.631   0.465   8.441 -0.5494 -0.4359  0.0870
 3069SOL    HW120840   2.703   0.409   8.411  0.6606  0.7639  0.7540
 3069SOL    HW220841   2.570   0.461   8.367  1.8181 -6.4365 -1.5748
 3070SOL     OW20842   2.078   2.785  15.293 -0.0969  0.4334 -0.1880
 3070SOL    HW120843   2.115   2.766  15.207  1.7400  0.2795  0.6277
 3070SOL    HW220844   2.095   2.878  15.308  1.2283  0.6005 -2.7547
 3071SOL     OW20845   2.523   3.490   3.481 -0.2202  0.2929  0.2992
 3071SOL    HW120846   2.455   3.546   3.444 -2.7147 -2.1009  1.2647
 3071SOL    HW220847   2.484   3.403   3.467  0.0627 -0.2761  3.0337
 3072SOL     OW20848   0.946   0.305   5.921  0.6619  0.4875  0.4448
 3072SOL    HW120849   1.024   0.360   5.912  0.9769  0.2024  1.4364
 3072SOL    HW220850   0.909   0.314   5.833 -0.2453 -4.8950  0.2849
 3073SOL     OW20851   1.595   0.196   8.145  0.2493  0.1596 -0.7556
 3073SOL    HW120852   1.512   0.149   8.146 -0.3938  1.3072  1.8617
 3073SOL    HW220853   1.605   0.230   8.056 -0.2442  1.5797 -0.2699
 3074SOL     OW20854   3.462   2.193   3.667 -0.5041 -0.0188 -0.0372
 3074SOL    HW120855   3.397   2.146   3.719  1.1651 -0.1635  1.9418
 3074SOL    HW220856   3.543   2.179   3.718 -0.8663  0.7959  0.7654
 3075SOL     OW20857   0.767   3.496   4.713 -0.5186  0.0640 -0.0572
 3075SOL    HW120858   0.782   3.538   4.629  0.3296 -3.3349 -1.6158
 3075SOL    HW220859   0.749   3.566   4.776  1.1819  0.3631  0.0918
 3076SOL     OW20860   3.774   3.062   1.166 -0.3218  0.2022  0.3045
 3076SOL    HW120861   3.790   2.969   1.151 -1.3472  0.3357 -1.5451
 3076SOL    HW220862   3.831   3.094   1.236 -0.6516  4.8908 -1.5610
 3077SOL     OW20863   0.165   0.041   4.589 -0.5143 -0.1516 -0.6806
 3077SOL    HW120864   0.210   4.694   4.605 -0.7300 -0.3061 -0.8663
 3077SOL    HW220865   0.118   0.032   4.506 -0.1870  0.1772 -0.8994
 3078SOL     OW20866   3.328   0.803   4.293  0.0378 -0.4785  0.2177
 3078SOL    HW120867   3.344   0.894   4.315  1.9650 -0.7635  0.0261
 3078SOL    HW220868   3.357   0.800   4.202 -1.5290  0.2778 -0.2896
 3079SOL     OW20869   3.492   0.376  10.157  0.3099  0.8208  0.3196
 3079SOL    HW120870   3.464   0.467  10.148  1.8294  1.4098  1.5153
 3079SOL    HW220871   3.431   0.339  10.221 -1.7980  0.5998 -1.8240
 3080SOL     OW20872   1.075   1.871   1.125 -0.1038  0.0465 -0.1074
 3080SOL    HW120873   1.003   1.885   1.186 -2.0412 -0.5714 -2.2098
 3080SOL    HW220874   1.133   1.819   1.179 -2.1216 -0.3820  1.6358
 3081SOL     OW20875   3.218   4.625   7.355  0.0901 -0.5153  0.4135
 3081SOL    HW120876   3.191   4.667   7.274 -0.1518 -0.7373  0.3777
 3081SOL    HW220877   3.287   4.682   7.389 -0.5433 -0.8953  2.3524
 3082SOL     OW20878   0.402   3.295   8.239  0.1617  0.9655 -0.1976
 3082SOL    HW120879   0.456   3.373   8.249  0.5542  0.3345  2.5665
 3082SOL    HW220880   0.335   3.330   8.180 -0.7549  3.9874  2.6474
 3083SOL     OW20881   3.728   1.376  17.694  0.0488 -0.1072 -0.0761
 3083SOL    HW120882   3.706   1.358   0.043  0.4414  1.7829  0.4065
 3083SOL    HW220883   3.811   1.329  17.686  0.4407  0.3870  0.9999
 3084SOL     OW20884   2.412   2.393   5.646  0.2922  0.0444 -0.5483
 3084SOL    HW120885   2.445   2.335   5.714 -0.7205  0.3531  0.2106
 3084SOL    HW220886   2.330   2.414   5.691  0.3449  0.6909 -0.7489
 3085SOL     OW20887   2.292   2.969   2.702 -0.1461  0.4628 -0.5229
 3085SOL    HW120888   2.216   2.980   2.645 -0.6105 -1.1871 -0.2196
 3085SOL    HW220889   2.338   3.052   2.686 -2.2919  1.8217  0.4031
 3086SOL     OW20890   3.056   4.619   5.895 -0.4258  0.8350  0.5654
 3086SOL    HW120891   2.993   4.570   5.949  0.9422 -0.6251  0.8657
 3086SOL    HW220892   3.060   4.701   5.944 -0.1954  1.5996 -0.7679
 3087SOL     OW20893   2.897   2.264   3.173 -0.3493 -0.5859 -0.4939
 3087SOL    HW120894   2.938   2.252   3.258  0.3272 -3.1905 -1.1839
 3087SOL    HW220895   2.959   2.206   3.128 -1.6248 -1.3788 -1.2265
 3088SOL     OW20896   1.653   4.006   7.006 -0.4926 -0.1695 -0.0691
 3088SOL    HW120897   1.639   4.036   6.916  1.6524  0.1119 -0.3014
 3088SOL    HW220898   1.709   4.078   7.032 -1.9009  0.3645  1.4708
 3089SOL     OW20899   1.877   2.414   6.926  0.4473 -0.3800  0.3178
 3089SOL    HW120900   1.872   2.325   6.889 -2.4070 -0.1066  0.0713
 3089SOL    HW220901   1.927   2.404   7.007  2.3876 -0.1001 -0.8409
 3090SOL     OW20902   1.790   1.508   4.410  0.4018  0.4512 -0.4576
 3090SOL    HW120903   1.857   1.510   4.342  0.0435  0.9764 -0.7974
 3090SOL    HW220904   1.749   1.595   4.409 -1.2690 -0.3280 -0.6604
 3091SOL     OW20905   1.543   4.677   8.711  0.4199  0.1368 -0.5142
 3091SOL    HW120906   1.524   4.622   8.635 -0.7443  1.0964 -0.9304
 3091SOL    HW220907   1.480   0.013   8.702  1.7813  1.2862 -0.8718
 3092SOL     OW20908   1.898   0.753  14.827  0.0640  0.1438  0.0562
 3092SOL    HW120909   1.904   0.658  14.814 -0.2880  0.1932 -0.4516
 3092SOL    HW220910   1.900   0.747  14.923 -3.3962 -2.7717 -0.0670
 3093SOL     OW20911   3.043   2.497   6.620 -0.0595 -0.0482  0.0307
 3093SOL    HW120912   3.115   2.449   6.579  0.2332  0.7068 -0.3448
 3093SOL    HW220913   3.002   2.429   6.673 -2.0545  0.5455 -0.7130
 3094SOL     OW20914   0.171   0.883   4.329  0.8335 -0.0264 -0.0331
 3094SOL    HW120915   0.206   0.795   4.320  1.7250  0.2055  1.1725
 3094SOL    HW220916   0.079   0.878   4.302  1.3391 -2.7513 -1.2566
 3095SOL     OW20917   0.588   2.545  13.722 -0.2497 -0.2880  0.4754
 3095SOL    HW120918   0.530   2.476  13.690  2.4581 -1.8664 -1.0035
 3095SOL    HW220919   0.623   2.574  13.638  0.1885  1.5656  1.3033
 3096SOL     OW20920   3.362   0.825   2.267  0.1979  0.6757 -0.4131
 3096SOL    HW120921   3.395   0.806   2.355 -1.0638 -0.8139 -0.2763
 3096SOL    HW220922   3.291   0.762   2.265  1.4651 -0.7321 -0.7929
 3097SOL     OW20923   1.447   4.306   2.584  0.8221  0.5279 -0.5299
 3097SOL    HW120924   1.434   4.367   2.511  2.0498  0.9379 -0.4196
 3097SOL    HW220925   1.496   4.234   2.544  1.5076  0.2433  0.8207
 3098SOL     OW20926   0.531   4.293   7.667  0.6276 -0.1494 -0.0091
 3098SOL    HW120927   0.576   4.317   7.586  0.2695 -2.4317 -0.9083
 3098SOL    HW220928   0.470   4.363   7.689 -0.5441 -0.6656 -1.6326
 3099SOL     OW20929   0.162   2.872   4.279  0.6116 -0.2080 -0.0137
 3099SOL    HW120930   0.068   2.888   4.287  0.8333  1.6623 -1.1586
 3099SOL    HW220931   0.174   2.781   4.307 -0.1804  0.1889  1.6215
 3100SOL     OW20932   2.979   4.285  11.048 -0.5230  0.7573 -0.0752
 3100SOL    HW120933   2.896   4.333  11.044 -0.9318  0.0084 -0.7415
 3100SOL    HW220934   2.986   4.254  10.958  0.1496  2.0025 -0.4518
 3101SOL     OW20935   3.806   1.419  11.370  1.0058 -0.5998 -0.7289
 3101SOL    HW120936   3.873   1.355  11.393  0.4491 -1.0346 -0.3069
 3101SOL    HW220937   3.724   1.383  11.405  0.5913  0.7630 -0.2836
 3102SOL     OW20938   0.853   0.504   1.389  0.0375  0.0606 -0.2837
 3102SOL    HW120939   0.916   0.444   1.428  2.2549  1.0149 -2.3996
 3102SOL    HW220940   0.805   0.537   1.465 -1.8057 -3.6614  0.1853
 3103SOL     OW20941   3.534   4.127   1.090 -0.0380 -0.3371 -1.0649
 3103SOL    HW120942   3.587   4.192   1.136 -0.4212 -0.5023 -0.3804
 3103SOL    HW220943   3.468   4.182   1.048  0.9580 -0.3644 -2.6558
 3104SOL     OW20944   1.268   3.826   1.710 -0.2147 -0.2192 -0.9053
 3104SOL    HW120945   1.177   3.815   1.737  0.1257  1.7659  1.0067
 3104SOL    HW220946   1.286   3.910   1.752 -0.5787 -0.2151 -0.7579
 3105SOL     OW20947   2.205   4.339  14.514  0.2377 -0.5447  0.4763
 3105SOL    HW120948   2.247   4.400  14.454  1.1514 -1.4650  0.1788
 3105SOL    HW220949   2.265   4.264  14.516 -0.0614 -0.8439 -1.9929
 3106SOL     OW20950   4.148   2.495   1.326  0.0200  0.0906 -0.1919
 3106SOL    HW120951   4.100   2.572   1.294 -0.1658 -0.0865 -0.3408
 3106SOL    HW220952   4.088   2.452   1.387  2.0183 -2.3707  0.0428
 3107SOL     OW20953   0.378   3.538   1.999  0.3681  0.1386  0.1068
 3107SOL    HW120954   0.315   3.530   2.071  0.4167 -2.1508 -0.1286
 3107SOL    HW220955   0.348   3.482   1.928  0.5308  0.6165 -0.3352
 3108SOL     OW20956   1.814   3.456  15.916 -0.0692 -0.1310  0.4923
 3108SOL    HW120957   1.733   3.426  15.876  0.6381 -0.4959 -0.6793
 3108SOL    HW220958   1.781   3.542  15.940  2.0854  0.4901  1.2595
 3109SOL     OW20959   2.532   2.613  17.701  0.3588  0.3203  0.4524
 3109SOL    HW120960   2.545   2.601   0.053 -0.7168 -0.5091  0.4995
 3109SOL    HW220961   2.599   2.680  17.685  0.5386  0.4239  1.6511
 3110SOL     OW20962   3.081   0.022   1.105  0.1207  0.2287 -0.3010
 3110SOL    HW120963   3.026   4.733   1.180  2.1280 -0.1585  1.0600
 3110SOL    HW220964   3.021   0.069   1.047 -0.7133 -0.5552 -0.0695
 3111SOL     OW20965   3.341   1.859   8.746  0.6190 -0.3437  0.7532
 3111SOL    HW120966   3.345   1.877   8.839 -0.5584 -1.6556  1.0537
 3111SOL    HW220967   3.253   1.883   8.718  1.3722  0.5846 -0.8151
 3112SOL     OW20968   2.665   3.344   9.371 -0.3670 -0.1276 -0.1819
 3112SOL    HW120969   2.728   3.373   9.305 -0.9338  0.3798 -0.5058
 3112SOL    HW220970   2.710   3.371   9.451  2.0756  0.8084 -1.8811
 3113SOL     OW20971   2.445   3.520   5.455  0.3394  0.2835 -0.2436
 3113SOL    HW120972   2.470   3.600   5.409  1.4424  0.2511  0.3137
 3113SOL    HW220973   2.350   3.527   5.443  0.5505  1.7424 -1.0124
 3114SOL     OW20974   1.159   1.990  14.359 -0.4277 -0.1770 -0.1010
 3114SOL    HW120975   1.243   2.035  14.350  0.7077 -2.0663  1.1216
 3114SOL    HW220976   1.173   1.949  14.444  1.4820  0.9570  0.1370
 3115SOL     OW20977   4.435   2.004  15.391 -0.1563 -0.5417 -0.5314
 3115SOL    HW120978   4.474   1.967  15.469 -1.6694  0.7500  0.8455
 3115SOL    HW220979   4.358   1.948  15.392 -1.9742  1.9549 -0.7318
 3116SOL     OW20980   2.563   0.090   9.490 -0.1107  0.5234 -0.3757
 3116SOL    HW120981   2.643   0.104   9.440  0.5281 -0.0505  0.4850
 3116SOL    HW220982   2.583   0.005   9.530  0.1529  1.9357  2.5048
 3117SOL     OW20983   1.389   4.286  17.347 -0.5592 -0.1059 -0.5886
 3117SOL    HW120984   1.406   4.380  17.342 -0.5303 -0.1112 -0.5893
 3117SOL    HW220985   1.437   4.247  17.275  0.7478 -1.7796  1.1883
 3118SOL     OW20986   2.542   1.308   6.852 -0.1216  0.7177  0.3891
 3118SOL    HW120987   2.516   1.307   6.760 -2.6498 -0.3627  1.0899
 3118SOL    HW220988   2.626   1.352   6.839 -0.7558  1.5226 -1.0449
 3119SOL     OW20989   1.564   0.557   2.417 -0.9328 -0.2919  0.3687
 3119SOL    HW120990   1.549   0.605   2.335  2.7315  1.0718  0.5164
 3119SOL    HW220991   1.532   0.616   2.485 -1.3537 -0.4598  0.3173
 3120SOL     OW20992   0.131   2.132  16.935  0.1932  0.2019 -0.3226
 3120SOL    HW120993   0.139   2.080  17.015 -0.5253  1.8837  0.8448
 3120SOL    HW220994   0.052   2.185  16.950  0.6288  0.7832 -0.0782
 3121SOL     OW20995   3.313   1.862  13.755 -0.0725 -0.0408 -0.4936
 3121SOL    HW120996   3.222   1.832  13.759 -0.1282  0.0405 -1.0523
 3121SOL    HW220997   3.353   1.791  13.804 -0.1517  0.3960  0.2007
 3122SOL     OW20998   2.578   3.396   5.243 -0.2336  0.0013  0.3205
 3122SOL    HW120999   2.562   3.443   5.324 -0.4832 -0.1575  0.3642
 3122SOL    HW221000   2.589   3.309   5.282 -0.0973  1.0736  2.6541
 3123SOL     OW21001   3.032   0.942   9.261 -0.7613 -0.2219 -0.7615
 3123SOL    HW121002   3.083   0.999   9.318 -1.0885 -1.0400  0.3550
 3123SOL    HW221003   3.062   0.979   9.179  0.5235  1.8352  0.6429
 3124SOL     OW21004   1.791   3.717   9.994  0.7763 -0.3413  0.3128
 3124SOL    HW121005   1.709   3.675  10.020  1.7549 -1.6252  1.2989
 3124SOL    HW221006   1.798   3.783  10.062  1.4212 -0.6050  0.4961
 3125SOL     OW21007   4.640   3.686   9.889 -0.5091  0.3889  0.1082
 3125SOL    HW121008   4.569   3.720   9.834 -1.8504 -1.3268  0.7611
 3125SOL    HW221009   4.684   3.632   9.823  0.7257  1.2471  0.2448
 3126SOL     OW21010   1.102   4.139   0.055 -0.1512 -0.6349  0.2238
 3126SOL    HW121011   1.134   4.148  17.707  0.3233  0.6076  0.5200
 3126SOL    HW221012   1.188   4.119   0.092  0.9357  1.0977 -1.3528
 3127SOL     OW21013   4.692   2.608  15.204 -0.4193 -0.0568 -0.1678
 3127SOL    HW121014   4.717   2.647  15.120  0.0777 -1.4897 -0.6735
 3127SOL    HW221015   4.687   2.517  15.176  0.5645 -0.0563 -0.3457
 3128SOL     OW21016   0.321   1.151   5.366  0.7222  0.4594 -0.5697
 3128SOL    HW121017   0.368   1.232   5.349 -0.1027  1.2112  0.7733
 3128SOL    HW221018   0.363   1.123   5.447 -2.5409 -3.7581 -0.2711
 3129SOL     OW21019   2.468   0.231   0.385 -0.2896 -0.3174 -0.2285
 3129SOL    HW121020   2.401   0.259   0.323 -1.1785  2.0897  1.8141
 3129SOL    HW221021   2.468   0.137   0.364 -1.6542 -0.7647  1.7216
 3130SOL     OW21022   1.575   0.501   3.239  0.2176 -0.7248 -0.0560
 3130SOL    HW121023   1.611   0.433   3.182  0.9867  0.5761 -1.1250
 3130SOL    HW221024   1.562   0.453   3.321  1.9006  0.6487  1.0101
 3131SOL     OW21025   1.474   0.518   6.018  0.3849  0.3772 -0.2683
 3131SOL    HW121026   1.487   0.576   6.093 -1.4518 -1.5217  1.5312
 3131SOL    HW221027   1.556   0.542   5.976  0.2117 -0.1912 -0.9207
 3132SOL     OW21028   1.056   2.172   2.034  0.1603  0.3282 -0.3373
 3132SOL    HW121029   1.015   2.133   2.112  0.4069  1.7066  0.4838
 3132SOL    HW221030   0.993   2.147   1.967 -1.8103  0.8820  1.2947
 3133SOL     OW21031   3.758   2.542   5.168 -0.1911 -0.1076  0.3464
 3133SOL    HW121032   3.691   2.603   5.138 -2.7056 -2.9521  0.1993
 3133SOL    HW221033   3.739   2.457   5.129 -3.4900  0.6932  0.1948
 3134SOL     OW21034   1.527   2.572   1.529 -0.6155  0.3440 -0.0735
 3134SOL    HW121035   1.434   2.560   1.551 -0.7845  2.2390  0.3214
 3134SOL    HW221036   1.563   2.510   1.592 -0.8519  0.2200 -0.0593
 3135SOL     OW21037   3.523   2.056   7.825 -0.6708 -0.2345 -0.3576
 3135SOL    HW121038   3.517   2.076   7.919  1.5033 -0.1740 -0.2214
 3135SOL    HW221039   3.514   2.143   7.785 -1.3747 -1.0604 -1.9523
 3136SOL     OW21040   4.631   1.229  17.121 -0.1288  0.0188  0.3994
 3136SOL    HW121041   4.627   1.312  17.074  1.4634  0.7413  1.5315
 3136SOL    HW221042   4.724   1.213  17.104 -0.0752  0.9519 -0.1586
 3137SOL     OW21043   4.248   2.705   7.933  0.4195  0.1299  0.5904
 3137SOL    HW121044   4.190   2.663   7.996  1.1375 -1.8475 -0.0961
 3137SOL    HW221045   4.242   2.654   7.853 -0.0938 -0.3224  0.9172
 3138SOL     OW21046   2.552   1.970   3.530  0.5170  0.4010 -0.8074
 3138SOL    HW121047   2.596   2.033   3.474  0.5778 -0.3823 -1.6401
 3138SOL    HW221048   2.602   1.891   3.509 -1.7899 -1.0054 -1.1095
 3139SOL     OW21049   1.267   3.282   5.347 -0.0194  0.3165 -0.1415
 3139SOL    HW121050   1.315   3.331   5.413 -1.1223  0.4417  0.5713
 3139SOL    HW221051   1.335   3.225   5.311 -1.7157 -1.8893  0.1126
 3140SOL     OW21052   1.829   2.207   1.445 -0.1605 -0.3709 -0.5455
 3140SOL    HW121053   1.752   2.177   1.397 -0.2296 -0.0501 -0.6376
 3140SOL    HW221054   1.832   2.296   1.411 -2.0977 -0.3375 -0.6263
 3141SOL     OW21055   0.960   2.058   9.345 -0.6067  0.3441 -0.4678
 3141SOL    HW121056   0.991   2.147   9.360 -1.0175  0.3379  0.4048
 3141SOL    HW221057   1.032   2.018   9.296 -1.7883  0.9705 -2.7481
 3142SOL     OW21058   4.098   1.414   2.268 -0.4770 -0.6000  0.0609
 3142SOL    HW121059   4.102   1.498   2.222  0.8647 -0.7538 -0.0958
 3142SOL    HW221060   4.086   1.448   2.357  2.8216 -0.7943  0.5635
 3143SOL     OW21061   1.366   1.749   4.840  0.2091  0.1255  0.1960
 3143SOL    HW121062   1.400   1.813   4.777 -0.8835  1.8618  1.3755
 3143SOL    HW221063   1.446   1.738   4.892  0.6397 -0.7811 -0.6652
 3144SOL     OW21064   0.677   2.839   8.347 -0.9205 -0.1601  0.8439
 3144SOL    HW121065   0.743   2.773   8.324 -1.0553  0.4275 -1.2960
 3144SOL    HW221066   0.609   2.823   8.281 -1.2106  1.2100  0.8004
 3145SOL     OW21067   4.412   3.356   8.393  0.8821  0.0685  0.0712
 3145SOL    HW121068   4.495   3.395   8.366 -0.0045  1.9155  0.0380
 3145SOL    HW221069   4.429   3.324   8.482  1.0719 -1.4138 -0.4924
 3146SOL     OW21070   2.624   0.734   8.593 -0.3371  0.2017  0.5517
 3146SOL    HW121071   2.638   0.652   8.547 -2.2248  0.4476 -0.4715
 3146SOL    HW221072   2.559   0.772   8.533 -1.0805  0.0825  1.2751
 3147SOL     OW21073   3.622   3.338   5.199  0.1885 -0.0194  0.0602
 3147SOL    HW121074   3.708   3.357   5.162  1.8751 -2.1968  2.8867
 3147SOL    HW221075   3.635   3.259   5.251  0.2252  0.7416  1.2031
 3148SOL     OW21076   2.417   2.930   8.622 -0.3062  0.0917  0.0167
 3148SOL    HW121077   2.496   2.960   8.666  1.2228  0.4544 -2.9784
 3148SOL    HW221078   2.362   3.008   8.630 -1.0088 -0.2964 -1.0195
 3149SOL     OW21079   3.873   1.779  13.204 -0.2014 -0.3720  0.1847
 3149SOL    HW121080   3.847   1.818  13.121 -2.1033 -2.1845 -0.0551
 3149SOL    HW221081   3.787   1.770  13.244 -0.1302  0.6140  0.5715
 3150SOL     OW21082   0.985   0.885   8.187  0.1623 -0.1512 -0.8014
 3150SOL    HW121083   0.902   0.883   8.138 -0.0019  0.2368 -0.5392
 3150SOL    HW221084   1.047   0.889   8.115 -0.3975 -2.0509 -1.3952
 3151SOL     OW21085   4.673   1.101  17.715  0.2325 -0.1357 -0.2761
 3151SOL    HW121086   4.733   1.105  17.641  1.6035  0.0986  0.8603
 3151SOL    HW221087   4.733   1.107   0.047 -1.9999 -0.5779  1.6043
 3152SOL     OW21088   4.102   0.458   3.350 -0.0447 -0.1696  0.4418
 3152SOL    HW121089   4.016   0.426   3.376 -0.0323 -0.7821 -0.2910
 3152SOL    HW221090   4.079   0.549   3.334  0.7972  0.0872  0.6754
 3153SOL     OW21091   0.960   2.136   4.214 -0.0319  0.2852  0.0275
 3153SOL    HW121092   0.905   2.214   4.215  1.3382  1.2698 -1.1006
 3153SOL    HW221093   0.963   2.110   4.122  0.9301  0.1631  0.0968
 3154SOL     OW21094   2.371   0.030   6.258  0.0289  0.6691 -0.1342
 3154SOL    HW121095   2.433   0.096   6.227  1.4054 -0.3576  0.4649
 3154SOL    HW221096   2.402   4.691   6.207  0.2747  0.4138  0.3887
 3155SOL     OW21097   2.311   2.731   7.622 -0.3250  0.0701 -0.0354
 3155SOL    HW121098   2.289   2.696   7.709  0.7191 -0.8683 -0.1611
 3155SOL    HW221099   2.324   2.646   7.580  0.8695  0.9891 -1.4950
 3156SOL     OW21100   4.604   4.048  14.013  0.6411 -0.2493 -0.5000
 3156SOL    HW121101   4.661   4.001  13.952  1.3195 -1.3988  0.9988
 3156SOL    HW221102   4.519   4.019  13.981  1.8087 -2.3892 -1.7252
 3157SOL     OW21103   2.617   4.186   0.142  0.1658 -0.0162  0.5838
 3157SOL    HW121104   2.691   4.229   0.100  0.7808 -0.4905  1.1840
 3157SOL    HW221105   2.647   4.095   0.141  0.7410  0.1935 -2.1339
 3158SOL     OW21106   2.967   1.495  12.262  0.0275  0.6490  0.4723
 3158SOL    HW121107   3.002   1.458  12.343  0.8442  0.9155  0.2465
 3158SOL    HW221108   2.875   1.483  12.285  0.3170 -0.6679  0.9586
 3159SOL     OW21109   4.308   0.323   9.600  0.0123 -0.0398  0.1551
 3159SOL    HW121110   4.234   0.293   9.654  0.9149 -2.0166  0.3211
 3159SOL    HW221111   4.263   0.360   9.525  0.7494  0.5064 -0.0096
 3160SOL     OW21112   3.205   1.936   9.908 -0.1258 -0.2478  0.6078
 3160SOL    HW121113   3.295   1.941   9.940  0.2481  0.2113 -0.5016
 3160SOL    HW221114   3.196   1.844   9.882  1.4215 -0.3647  0.4939
 3161SOL     OW21115   2.726   1.711   2.861 -0.1848 -0.1505 -0.5630
 3161SOL    HW121116   2.725   1.717   2.957  1.7194 -0.2456 -0.5296
 3161SOL    HW221117   2.667   1.781   2.833  0.5907  0.9043  0.4254
 3162SOL     OW21118   2.390   3.807   6.965 -0.2917 -0.5281 -0.3073
 3162SOL    HW121119   2.477   3.767   6.970  0.0474  0.2325 -0.1398
 3162SOL    HW221120   2.365   3.792   7.056 -0.6682 -0.9752 -0.4833
 3163SOL     OW21121   3.537   1.532   7.109 -0.0716 -0.0108 -0.3007
 3163SOL    HW121122   3.496   1.448   7.129 -1.4914  0.6337 -0.4715
 3163SOL    HW221123   3.610   1.525   7.171  0.3638 -2.0268 -1.0407
 3164SOL     OW21124   0.742   3.218  11.100 -0.4606  0.1002 -0.4774
 3164SOL    HW121125   0.650   3.229  11.125  0.0428  1.4111  0.7106
 3164SOL    HW221126   0.771   3.147  11.157 -0.9409 -0.5056 -0.9792
 3165SOL     OW21127   4.174   1.493  14.255  0.4279  0.1485  0.0782
 3165SOL    HW121128   4.264   1.459  14.257  0.2960 -0.1797  0.3830
 3165SOL    HW221129   4.147   1.482  14.346  1.2933 -2.2681  0.0490
 3166SOL     OW21130   4.718   1.857   7.215 -0.0994  0.0969  0.4956
 3166SOL    HW121131   4.695   1.904   7.296 -3.2687  2.9428 -2.0653
 3166SOL    HW221132   4.730   1.768   7.249 -3.5113 -0.1131  1.1108
 3167SOL     OW21133   0.814   0.400  17.432 -0.3384 -0.1120 -0.2778
 3167SOL    HW121134   0.787   0.470  17.373 -1.0174 -0.2026 -0.0778
 3167SOL    HW221135   0.736   0.395  17.488  0.6736 -3.0465  0.8689
 3168SOL     OW21136   0.743   3.745   9.927 -0.1363  0.4057  0.0830
 3168SOL    HW121137   0.816   3.799   9.896  0.0593  0.8731  1.3633
 3168SOL    HW221138   0.666   3.754   9.871 -0.4596  1.0344  0.6289
 3169SOL     OW21139   3.752   4.615   7.540  0.1327 -0.1590 -0.1390
 3169SOL    HW121140   3.758   4.635   7.446 -1.6064  0.4918 -0.1108
 3169SOL    HW221141   3.846   4.601   7.551  0.4673  1.5528 -0.6982
 3170SOL     OW21142   4.649   0.629   3.774 -0.0573 -0.1879  0.1118
 3170SOL    HW121143   4.682   0.572   3.843 -0.2898  1.4568  1.5998
 3170SOL    HW221144   4.648   0.716   3.815  1.2667  0.3300 -0.9464
 3171SOL     OW21145   4.075   2.474   6.606  0.4151 -0.0761 -0.1411
 3171SOL    HW121146   4.153   2.477   6.550  0.0568 -0.4730 -0.6574
 3171SOL    HW221147   4.046   2.383   6.596  1.5522 -0.4752  0.2380
 3172SOL     OW21148   3.713   1.796   6.539  0.1567 -0.4124  0.1986
 3172SOL    HW121149   3.770   1.785   6.615 -1.5259  0.9184  1.6660
 3172SOL    HW221150   3.728   1.884   6.506 -3.6805  0.4488  0.6779
 3173SOL     OW21151   3.669   0.438   3.750  0.0486 -0.0505 -0.0634
 3173SOL    HW121152   3.644   0.486   3.671 -0.4380 -1.1588 -0.5794
 3173SOL    HW221153   3.585   0.428   3.795  1.1930  2.1974  2.5348
 3174SOL     OW21154   2.349   3.892   8.340  0.0967  0.0709  0.6346
 3174SOL    HW121155   2.282   3.824   8.340  1.3994 -1.2390  1.3149
 3174SOL    HW221156   2.422   3.851   8.292  0.2990 -0.0701  1.0601
 3175SOL     OW21157   0.876   0.742   5.939 -0.1501  0.4548  0.0484
 3175SOL    HW121158   0.857   0.662   5.889  0.3670 -0.4806  1.3511
 3175SOL    HW221159   0.891   0.710   6.028 -0.4047  0.7343  0.1880
 3176SOL     OW21160   3.658   1.954   0.548 -0.4604  0.1855  0.1574
 3176SOL    HW121161   3.567   1.962   0.575 -0.3067  1.2477  0.3628
 3176SOL    HW221162   3.653   2.000   0.465 -1.1175  1.2443  0.7720
 3177SOL     OW21163   3.874   4.723   0.214  0.0709  0.3793 -0.7649
 3177SOL    HW121164   3.840   4.728   0.304 -0.1248  0.7533 -0.8618
 3177SOL    HW221165   3.812   4.657   0.183  1.0469  0.1776 -2.2688
 3178SOL     OW21166   4.238   3.443   7.987 -0.4009  0.6545  0.0471
 3178SOL    HW121167   4.245   3.363   8.040  2.3793 -0.0028 -1.3254
 3178SOL    HW221168   4.270   3.505   8.053  0.7926  0.2503 -0.1434
 3179SOL     OW21169   3.566   0.294   2.781 -0.6992  0.1350 -0.2465
 3179SOL    HW121170   3.563   0.361   2.713 -1.7246  0.6740  0.3232
 3179SOL    HW221171   3.568   0.208   2.740 -2.6966 -0.3425  0.7049
 3180SOL     OW21172   0.324   2.876   6.265 -0.7513 -0.0499 -0.3775
 3180SOL    HW121173   0.377   2.816   6.317 -1.0934  0.1264  0.1745
 3180SOL    HW221174   0.355   2.954   6.312 -0.1054  0.5900 -1.8536
 3181SOL     OW21175   3.992   1.570  11.828  0.1953 -0.2606 -0.0606
 3181SOL    HW121176   3.922   1.572  11.762 -0.0726  0.7633  0.2571
 3181SOL    HW221177   4.062   1.606  11.774 -1.3068  1.1865 -1.0416
 3182SOL     OW21178   1.277   1.803  14.000  0.6602  0.1006  0.0149
 3182SOL    HW121179   1.281   1.895  13.972  3.2781 -0.0810 -0.1974
 3182SOL    HW221180   1.300   1.818  14.092 -0.0908  2.3102 -0.1526
 3183SOL     OW21181   0.946   2.150   6.034 -0.0487 -0.2129  0.0518
 3183SOL    HW121182   0.980   2.142   5.945  0.2296  0.4230  0.0975
 3183SOL    HW221183   0.855   2.177   6.023 -0.6986 -1.9405  1.2734
 3184SOL     OW21184   0.202   3.082   3.198  0.3613 -0.4554 -0.2863
 3184SOL    HW121185   0.219   2.996   3.237  0.8674 -1.0167 -1.7688
 3184SOL    HW221186   0.138   3.114   3.263  1.3709  1.1821 -0.1071
 3185SOL     OW21187   0.677   1.902   3.119  0.5171 -0.5906 -0.1999
 3185SOL    HW121188   0.671   1.889   3.214 -2.9918 -0.0139 -0.3157
 3185SOL    HW221189   0.604   1.961   3.099  1.0851  0.1977  0.0395
 3186SOL     OW21190   0.828   3.992   7.707  0.5857  0.1674 -0.4941
 3186SOL    HW121191   0.746   3.948   7.730  0.6209  0.5072  0.2839
 3186SOL    HW221192   0.804   4.084   7.716  0.8707  0.2733 -0.8139
 3187SOL     OW21193   4.603   0.402   5.969 -0.6078  0.2482  0.4174
 3187SOL    HW121194   4.548   0.480   5.974  1.6044  1.6322  3.3804
 3187SOL    HW221195   4.635   0.381   6.057 -0.3373 -0.1362  0.2259
 3188SOL     OW21196   3.878   0.753   5.896  0.4107  0.4649 -0.5812
 3188SOL    HW121197   3.825   0.777   5.820 -0.6410 -0.4888 -0.1442
 3188SOL    HW221198   3.886   0.659   5.882 -0.6620  0.4106 -0.8739
 3189SOL     OW21199   0.284   1.556   6.602  0.4876 -0.2962 -0.7848
 3189SOL    HW121200   0.354   1.491   6.601  0.3219 -0.4307 -2.6925
 3189SOL    HW221201   0.200   1.516   6.625  0.1937  0.8983  0.2438
 3190SOL     OW21202   2.454   4.618   6.592  0.1529 -0.0856 -0.2417
 3190SOL    HW121203   2.530   4.582   6.546  0.7008 -0.2546  0.7779
 3190SOL    HW221204   2.419   4.545   6.643 -1.8659 -0.3174 -1.9972
 3191SOL     OW21205   1.313   3.117   2.762 -0.0316 -0.1768  0.2711
 3191SOL    HW121206   1.332   3.060   2.688 -0.0092 -0.5372  0.5552
 3191SOL    HW221207   1.371   3.081   2.829  0.8000  1.4761  0.4327
 3192SOL     OW21208   2.550   0.737  12.246 -0.0808 -0.3981  0.3940
 3192SOL    HW121209   2.640   0.766  12.231 -0.0480 -1.2251 -1.0791
 3192SOL    HW221210   2.514   0.726  12.158 -0.3987 -0.7128  0.5631
 3193SOL     OW21211   0.139   2.650   2.717 -0.0843 -0.5030  0.1410
 3193SOL    HW121212   0.125   2.699   2.798  0.0694  0.6998 -0.5474
 3193SOL    HW221213   0.227   2.684   2.697  0.6874 -0.6258  3.4520
 3194SOL     OW21214   3.203   3.248   7.945  0.3833 -0.2366  0.4617
 3194SOL    HW121215   3.180   3.307   8.016 -1.9685  1.7491 -1.9569
 3194SOL    HW221216   3.121   3.225   7.901 -0.6424  0.8707  1.8240
 3195SOL     OW21217   3.388   4.450   9.911  0.3027 -0.2933  0.2615
 3195SOL    HW121218   3.375   4.483   9.822  0.5956 -0.4393  0.1653
 3195SOL    HW221219   3.483   4.457   9.917  0.1402  1.5433  0.7871
 3196SOL     OW21220   1.514   3.095   6.824  0.6793 -0.2816  0.7263
 3196SOL    HW121221   1.479   3.008   6.846 -0.4242 -0.0358 -0.0367
 3196SOL    HW221222   1.437   3.149   6.806 -0.0562 -0.7480  2.4222
 3197SOL     OW21223   2.032   2.286   5.829 -0.2104 -0.1014  0.2626
 3197SOL    HW121224   1.995   2.360   5.781  0.8766  1.0694  1.2230
 3197SOL    HW221225   1.971   2.278   5.902 -1.8795  0.6592 -1.0479
 3198SOL     OW21226   4.335   3.282   7.040  0.2228 -0.1539  0.1913
 3198SOL    HW121227   4.270   3.287   6.970  1.0828  0.8144 -0.5472
 3198SOL    HW221228   4.388   3.209   7.008 -0.1503 -0.2869 -0.1315
 3199SOL     OW21229   3.818   1.807  11.080 -0.1279 -0.1117 -0.6446
 3199SOL    HW121230   3.909   1.779  11.069  0.5670  1.8403  0.1114
 3199SOL    HW221231   3.836   1.901  11.092 -1.5150  0.0092  0.4570
 3200SOL     OW21232   3.411   4.118  11.980 -0.3840  0.2298  0.5199
 3200SOL    HW121233   3.355   4.068  12.038  0.9121 -2.5061 -0.5959
 3200SOL    HW221234   3.351   4.132  11.907 -0.4590 -2.8348  0.0243
 3201SOL     OW21235   0.104   0.040   8.325 -0.6805  0.2783 -0.1389
 3201SOL    HW121236   0.135   4.694   8.285 -0.3859 -1.1271  2.9777
 3201SOL    HW221237   0.134   0.045   8.415 -0.5778  1.3839 -0.2423
 3202SOL     OW21238   1.993   3.135   8.162 -0.1307 -0.1891  0.3087
 3202SOL    HW121239   1.910   3.184   8.159  1.4914  2.5544 -0.2691
 3202SOL    HW221240   2.012   3.137   8.068  0.1890  0.4262  0.3871
 3203SOL     OW21241   3.319   1.958   6.973 -0.6334 -0.4588  0.5849
 3203SOL    HW121242   3.405   1.963   6.929 -0.7399 -1.2130  0.2909
 3203SOL    HW221243   3.317   1.864   6.990 -0.4330 -0.5358  0.1917
 3204SOL     OW21244   1.737   4.651   2.112 -0.1854  0.1848 -0.1001
 3204SOL    HW121245   1.823   4.643   2.069 -0.7093  0.1732 -1.1499
 3204SOL    HW221246   1.756   4.576   2.168 -0.6391  1.1340  1.3102
 3205SOL     OW21247   3.863   1.155  11.498 -0.2041 -0.0359 -0.2494
 3205SOL    HW121248   3.818   1.110  11.426 -0.9978  0.7063 -0.2051
 3205SOL    HW221249   3.799   1.135  11.566  2.0480 -0.3701  1.7951
 3206SOL     OW21250   1.814   2.941   1.949 -0.0411 -0.3988  0.2795
 3206SOL    HW121251   1.732   2.988   1.932  1.5384  2.9536  1.9466
 3206SOL    HW221252   1.802   2.863   1.894 -1.6140 -0.2740  0.4427
 3207SOL     OW21253   2.646   3.678   3.032 -0.1644  0.4116 -0.1363
 3207SOL    HW121254   2.678   3.769   3.033 -0.4771  0.5228 -0.1577
 3207SOL    HW221255   2.697   3.642   3.104 -1.2801 -0.4193  0.2261
 3208SOL     OW21256   0.656   0.001   4.697  0.4926  0.0407 -0.1022
 3208SOL    HW121257   0.744   4.734   4.661  0.4035  0.4969 -0.3626
 3208SOL    HW221258   0.630   4.660   4.748  1.1655  2.1775  3.4729
 3209SOL     OW21259   0.748   1.753   6.224  0.1082 -0.3543  0.2007
 3209SOL    HW121260   0.724   1.703   6.146  0.5766  1.7732 -1.3073
 3209SOL    HW221261   0.683   1.823   6.216  0.3758  0.0173  1.3537
 3210SOL     OW21262   4.246   1.753   7.100  0.7724  0.3844  0.3817
 3210SOL    HW121263   4.264   1.826   7.159 -1.7147  0.8170  0.6304
 3210SOL    HW221264   4.201   1.695   7.162 -0.8378 -0.6741 -1.7795
 3211SOL     OW21265   1.361   3.945  11.695 -0.1883 -0.7686 -0.0554
 3211SOL    HW121266   1.286   3.887  11.683  0.9866 -2.3694  0.3693
 3211SOL    HW221267   1.341   3.968  11.786 -5.7604 -0.2595 -1.4021
 3212SOL     OW21268   1.483   3.403  14.577 -0.0885 -0.0453 -0.3169
 3212SOL    HW121269   1.496   3.433  14.667 -0.5343  0.4486 -0.4219
 3212SOL    HW221270   1.389   3.412  14.564 -0.2807 -3.1226 -1.2386
 3213SOL     OW21271   3.919   3.107   7.990 -0.0944  0.4093 -0.3659
 3213SOL    HW121272   3.844   3.063   8.029  0.4346 -0.0111  0.1674
 3213SOL    HW221273   3.873   3.170   7.934  2.5723  2.7697  0.1046
 3214SOL     OW21274   3.786   3.077   5.844 -0.1088 -0.5646 -0.3299
 3214SOL    HW121275   3.837   3.133   5.903  0.1076  0.7819 -1.7943
 3214SOL    HW221276   3.843   3.001   5.854 -0.4573 -0.8749 -0.7640
 3215SOL     OW21277   2.008   2.623   1.540 -0.1600 -0.2244  0.3469
 3215SOL    HW121278   1.986   2.554   1.603  0.1193 -0.3037  0.3553
 3215SOL    HW221279   1.946   2.598   1.471  0.4070 -2.0282  0.4849
 3216SOL     OW21280   4.514   2.699   6.530  0.1871 -0.1730 -0.1463
 3216SOL    HW121281   4.602   2.666   6.510  0.6010  0.5039  0.5167
 3216SOL    HW221282   4.514   2.775   6.471 -2.3516 -0.1316 -0.0918
 3217SOL     OW21283   2.694   4.110   5.019  0.3725 -0.0907 -0.3584
 3217SOL    HW121284   2.696   4.016   5.037  1.2008  0.1848  1.0045
 3217SOL    HW221285   2.773   4.138   5.066  0.7040  0.0435 -0.9938
 3218SOL     OW21286   0.051   4.155  15.730 -0.2083  0.3577 -0.7265
 3218SOL    HW121287   0.046   4.069  15.772  1.9595  1.0071  0.8525
 3218SOL    HW221288   0.002   4.142  15.649  0.2850 -0.0485 -0.9648
 3219SOL     OW21289   3.190   4.438  17.483 -0.4262  0.2219 -0.1478
 3219SOL    HW121290   3.193   4.457  17.576 -1.8461  0.8329 -0.2143
 3219SOL    HW221291   3.173   4.521  17.438 -0.0657  0.2001 -0.3226
 3220SOL     OW21292   3.779   2.580   8.041 -0.3402 -0.4692  0.4204
 3220SOL    HW121293   3.740   2.496   8.066  1.3221 -1.9870 -2.0798
 3220SOL    HW221294   3.703   2.627   8.007 -0.7368 -1.0615  0.4696
 3221SOL     OW21295   2.385   3.736   5.022  0.4833 -0.1292 -0.4198
 3221SOL    HW121296   2.442   3.701   5.091 -0.6702  0.2209  0.7160
 3221SOL    HW221297   2.382   3.667   4.956 -1.1705 -0.1638 -0.3222
 3222SOL     OW21298   1.400   1.362   3.112 -0.1748  0.4228 -0.6101
 3222SOL    HW121299   1.339   1.423   3.152 -0.8729 -0.2493 -0.6511
 3222SOL    HW221300   1.489   1.395   3.126  0.4689 -1.0262 -1.2056
 3223SOL     OW21301   1.112   4.569   7.636 -0.2082  0.8424  0.7963
 3223SOL    HW121302   1.192   4.553   7.686 -0.6988 -1.1897  0.9110
 3223SOL    HW221303   1.125   4.494   7.578 -3.5504 -0.9845  2.4243
 3224SOL     OW21304   2.730   3.525  10.342 -0.0644 -0.3092 -0.0438
 3224SOL    HW121305   2.775   3.477  10.411 -0.5927  0.3173  0.7386
 3224SOL    HW221306   2.655   3.557  10.392 -0.7098 -1.3863 -0.3035
 3225SOL     OW21307   2.509   2.314   9.598  0.0843 -0.4411 -0.6259
 3225SOL    HW121308   2.569   2.246   9.630  0.9644  1.1864  1.1924
 3225SOL    HW221309   2.437   2.262   9.562  0.1755 -0.0500 -1.3739
 3226SOL     OW21310   2.481   4.063   6.894 -0.5946  0.0323 -0.0237
 3226SOL    HW121311   2.526   4.066   6.978 -0.3627 -1.2762 -0.1031
 3226SOL    HW221312   2.456   3.971   6.898 -0.7757 -0.0149 -1.9678
 3227SOL     OW21313   0.832   4.182   9.521 -0.0607 -0.9995  0.1045
 3227SOL    HW121314   0.765   4.208   9.458 -0.0395 -1.7206 -0.2050
 3227SOL    HW221315   0.804   4.095   9.547  0.4789 -1.4460 -0.8066
 3228SOL     OW21316   1.724   1.026   1.446 -0.0836 -0.0044  0.6212
 3228SOL    HW121317   1.704   1.087   1.375 -2.6731 -2.6185 -0.8895
 3228SOL    HW221318   1.689   1.077   1.519 -0.7716  1.1934 -0.5268
 3229SOL     OW21319   3.142   2.022   9.174  0.3287  0.1788 -0.3182
 3229SOL    HW121320   3.175   2.047   9.260 -0.8795  2.9095 -0.6503
 3229SOL    HW221321   3.072   2.084   9.154  1.3890  1.2891 -0.6425
 3230SOL     OW21322   1.138   2.953  11.601  0.1760 -0.3474  0.0076
 3230SOL    HW121323   1.183   3.038  11.604  0.1075 -0.2700 -0.9910
 3230SOL    HW221324   1.124   2.931  11.508  2.2108 -2.1151  0.1345
 3231SOL     OW21325   0.195   3.538  14.687  0.4159 -0.0887 -0.7706
 3231SOL    HW121326   0.173   3.609  14.626 -0.4807  0.3804  0.1073
 3231SOL    HW221327   0.183   3.459  14.634  0.2519 -0.8780  0.4582
 3232SOL     OW21328   0.551   1.909   6.412 -0.2231 -0.0242  0.0487
 3232SOL    HW121329   0.643   1.910   6.438 -1.1863  0.4049  3.4046
 3232SOL    HW221330   0.508   1.863   6.484 -1.9892 -0.0530 -1.0308
 3233SOL     OW21331   3.279   1.348  11.128 -0.0113 -0.1607  0.3191
 3233SOL    HW121332   3.252   1.290  11.057  0.9822 -1.0389  0.6597
 3233SOL    HW221333   3.265   1.296  11.208 -2.8530  0.4158  0.1808
 3234SOL     OW21334   4.255   4.728  10.358 -0.3925 -0.2012  0.2914
 3234SOL    HW121335   4.346   4.697  10.362 -0.1807  0.4145  0.2431
 3234SOL    HW221336   4.238   4.703  10.449 -2.0336  0.3735  0.1283
 3235SOL     OW21337   0.815   3.134   5.204 -0.3452  0.2860 -0.2048
 3235SOL    HW121338   0.886   3.189   5.170  0.0145 -1.0345 -1.5775
 3235SOL    HW221339   0.853   3.046   5.209 -0.9233 -0.1228 -2.7091
 3236SOL     OW21340   2.690   3.620   5.838  0.4316  0.4439  0.1622
 3236SOL    HW121341   2.708   3.530   5.811 -0.5863 -0.0170  0.9834
 3236SOL    HW221342   2.620   3.644   5.778 -1.2775 -1.9664  1.1616
 3237SOL     OW21343   4.060   4.282  16.575  0.3945 -0.2075  0.0853
 3237SOL    HW121344   4.067   4.325  16.490  0.4296 -0.4532 -0.0352
 3237SOL    HW221345   4.152   4.253  16.569  0.2323 -0.2996 -2.0225
 3238SOL     OW21346   4.656   0.674  11.214 -0.1894  0.3255  0.0520
 3238SOL    HW121347   4.709   0.666  11.294 -0.5153  0.0164  0.2378
 3238SOL    HW221348   4.577   0.645  11.261 -0.1967  0.3499  0.0547
 3239SOL     OW21349   0.267   4.464   4.298 -0.5040  0.7313 -0.3803
 3239SOL    HW121350   0.269   4.374   4.267 -0.3214  0.5730  0.0874
 3239SOL    HW221351   0.354   4.458   4.339 -0.6739 -0.8217 -0.2622
 3240SOL     OW21352   0.058   3.094   0.158 -0.6025 -0.1954 -0.1668
 3240SOL    HW121353   4.700   3.112   0.165 -0.4136  0.2621  1.2444
 3240SOL    HW221354   0.089   3.181   0.184  1.9037 -1.5268  1.3404
 3241SOL     OW21355   3.132   3.172   0.729 -0.3875  0.0820  0.4823
 3241SOL    HW121356   3.211   3.118   0.734  0.5518  1.4712  0.7795
 3241SOL    HW221357   3.092   3.160   0.816  0.7627 -0.9338  0.8762
 3242SOL     OW21358   3.512   1.538   1.588 -0.7432  0.4123 -0.3417
 3242SOL    HW121359   3.461   1.562   1.511  0.3006 -0.1338 -1.2148
 3242SOL    HW221360   3.598   1.574   1.563 -0.3685  0.4267  1.0080
 3243SOL     OW21361   4.215   0.459   9.913 -0.3557  0.7925  0.2149
 3243SOL    HW121362   4.202   0.397   9.841 -0.9452  0.2326  0.7987
 3243SOL    HW221363   4.195   0.401   9.987  0.1952 -1.0358 -1.0814
 3244SOL     OW21364   0.677   2.406   6.818  0.6946  0.6325  0.1926
 3244SOL    HW121365   0.623   2.406   6.897  2.1930 -1.8794  1.1896
 3244SOL    HW221366   0.635   2.466   6.756  0.7561  1.5974  1.0710
 3245SOL     OW21367   3.211   3.332  13.630 -0.1237 -0.2505  1.0121
 3245SOL    HW121368   3.138   3.333  13.691 -1.1727  1.0384 -0.2476
 3245SOL    HW221369   3.207   3.238  13.610 -2.0252 -0.1944  1.1454
 3246SOL     OW21370   3.734   3.409   2.662  0.3651 -0.3924  0.3860
 3246SOL    HW121371   3.826   3.387   2.650  0.4055  0.2655 -0.5005
 3246SOL    HW221372   3.729   3.494   2.618 -0.5953 -0.5056  0.2731
 3247SOL     OW21373   1.829   1.167   4.152 -0.2887  1.0383 -0.8814
 3247SOL    HW121374   1.875   1.091   4.187  1.3228  2.8744  1.0200
 3247SOL    HW221375   1.738   1.141   4.167  0.4095 -0.8660  0.0614
 3248SOL     OW21376   2.181   1.256   8.050  0.4306 -0.3900 -0.3474
 3248SOL    HW121377   2.107   1.200   8.025  0.2340 -0.5446  0.5843
 3248SOL    HW221378   2.143   1.311   8.119  0.1576 -1.0461  0.0256
 3249SOL     OW21379   3.876   1.509   1.891  0.0492  0.0191  0.2802
 3249SOL    HW121380   3.885   1.566   1.815  2.2019  0.7909  1.0986
 3249SOL    HW221381   3.957   1.530   1.938  0.3277 -0.9491  0.2380
 3250SOL     OW21382   0.584   1.228   7.841 -0.1040 -0.7900 -0.7471
 3250SOL    HW121383   0.570   1.149   7.790 -1.7698 -1.4469  0.7284
 3250SOL    HW221384   0.585   1.184   7.926 -3.1783  0.1946 -0.1895
 3251SOL     OW21385   0.233   4.374   5.515 -0.1111 -0.1263  0.0199
 3251SOL    HW121386   0.247   4.456   5.562 -0.3572 -0.2866  0.3683
 3251SOL    HW221387   0.310   4.375   5.458  0.5738 -0.3216  0.9298
 3252SOL     OW21388   0.159   4.363  15.871  0.0463 -0.4326  0.0569
 3252SOL    HW121389   0.095   4.429  15.899  0.4882  0.6213 -1.3997
 3252SOL    HW221390   0.117   4.299  15.814  1.3393 -0.2654 -1.0822
 3253SOL     OW21391   1.777   0.152   5.846 -0.1167 -0.3455  0.2469
 3253SOL    HW121392   1.786   0.165   5.941 -2.9370 -0.5604  0.5435
 3253SOL    HW221393   1.688   0.117   5.853 -0.2543  0.0838  0.6439
 3254SOL     OW21394   4.727   1.314  17.401  0.3835  0.2712 -0.3552
 3254SOL    HW121395   0.062   1.352  17.348  1.2242  0.3148  0.8083
 3254SOL    HW221396   0.046   1.259  17.457  2.5541  2.2507 -0.5263
 3255SOL     OW21397   4.439   1.496   2.966  0.0994 -0.2583 -0.6278
 3255SOL    HW121398   4.532   1.507   2.983 -0.0122  0.9670 -0.7827
 3255SOL    HW221399   4.410   1.584   2.989  1.0838 -0.4720  1.3853
 3256SOL     OW21400   3.956   1.673   7.871 -0.0817  0.2455  0.1323
 3256SOL    HW121401   3.869   1.692   7.907  0.6247  0.2548  1.7891
 3256SOL    HW221402   3.973   1.759   7.833  0.9398 -0.0082  0.0359
 3257SOL     OW21403   0.525   4.174   2.832  0.3389 -0.6465 -0.4529
 3257SOL    HW121404   0.592   4.183   2.764 -0.5211  1.6062 -1.0010
 3257SOL    HW221405   0.456   4.132   2.782 -1.3479 -0.4385  1.7101
 3258SOL     OW21406   1.220   0.687   0.668 -0.1348 -0.2389 -0.2698
 3258SOL    HW121407   1.190   0.767   0.624 -0.6302  0.5290  1.4562
 3258SOL    HW221408   1.300   0.670   0.619  0.1007 -0.8552  0.3178
 3259SOL     OW21409   0.548   3.261   3.633 -0.2327  0.2667 -0.2748
 3259SOL    HW121410   0.540   3.357   3.629 -2.3069  0.1191  0.3127
 3259SOL    HW221411   0.634   3.256   3.675  0.1549  0.9839 -0.9852
 3260SOL     OW21412   4.550   0.707   6.227  0.0726 -0.0454  0.9900
 3260SOL    HW121413   4.621   0.733   6.285  0.3394  0.0196  0.6309
 3260SOL    HW221414   4.493   0.777   6.259 -0.4994 -0.7849  1.6003
 3261SOL     OW21415   4.427   4.065   2.954 -0.8700  0.0718  0.6222
 3261SOL    HW121416   4.490   4.034   2.890  0.4313  1.7489  1.1022
 3261SOL    HW221417   4.429   4.158   2.929 -2.3585  0.2356  1.1137
 3262SOL     OW21418   3.681   3.957   9.142  0.4265  0.2603 -0.3881
 3262SOL    HW121419   3.681   3.900   9.065 -0.5751  0.7232 -0.7296
 3262SOL    HW221420   3.610   3.918   9.193 -0.2335  0.1361 -1.3999
 3263SOL     OW21421   3.209   0.627  16.895 -0.3780 -0.1044 -0.1249
 3263SOL    HW121422   3.125   0.593  16.865  0.0231 -0.8791 -0.3642
 3263SOL    HW221423   3.278   0.574  16.856 -1.1064  0.8445 -2.6976
 3264SOL     OW21424   2.340   1.623  11.857 -0.3305  0.2481  0.1140
 3264SOL    HW121425   2.379   1.671  11.930 -0.5638  0.8308 -0.1478
 3264SOL    HW221426   2.351   1.692  11.792  0.7886  0.3601  0.4290
 3265SOL     OW21427   1.058   4.387   6.915 -0.1741 -0.9590 -0.3874
 3265SOL    HW121428   1.040   4.411   6.824 -2.3232 -0.1029  0.2660
 3265SOL    HW221429   0.997   4.440   6.966 -1.3170 -2.0999 -0.5625
 3266SOL     OW21430   1.388   2.646   2.585  0.0547  0.0329  0.4930
 3266SOL    HW121431   1.385   2.630   2.490  0.0523 -2.2897  0.8779
 3266SOL    HW221432   1.340   2.571   2.619  0.8684 -1.8942 -2.5863
 3267SOL     OW21433   1.995   3.245   4.057  0.5432  0.0376 -0.7254
 3267SOL    HW121434   1.966   3.334   4.073  1.1456  0.1949 -0.4912
 3267SOL    HW221435   1.910   3.201   4.060  1.1339 -1.1987 -1.8640
 3268SOL     OW21436   3.708   1.182   3.012  0.0379  0.5724  0.0024
 3268SOL    HW121437   3.732   1.160   2.922  0.5633  0.4477  0.1720
 3268SOL    HW221438   3.613   1.196   3.010  0.0183  0.2857 -0.9399
 3269SOL     OW21439   4.595   2.292   0.308 -0.7221 -0.3930  0.1189
 3269SOL    HW121440   4.688   2.304   0.327 -1.6934  3.1908  2.4271
 3269SOL    HW221441   4.568   2.254   0.391  0.6861 -1.5849  0.0408
 3270SOL     OW21442   1.721   1.781   3.755  0.1935  0.8029 -0.1640
 3270SOL    HW121443   1.658   1.771   3.826 -2.1257  2.4285 -1.9830
 3270SOL    HW221444   1.772   1.703   3.774  2.0996  2.0332 -0.2327
 3271SOL     OW21445   2.581   2.947   5.161 -0.2456  0.0147 -0.3578
 3271SOL    HW121446   2.644   2.993   5.107 -0.0764 -0.1938 -0.3384
 3271SOL    HW221447   2.638   2.914   5.230 -1.3008  0.1053  0.5704
 3272SOL     OW21448   3.893   4.233   3.877  0.7081 -0.2557  0.4652
 3272SOL    HW121449   3.933   4.273   3.800 -1.6031 -0.3551 -0.7923
 3272SOL    HW221450   3.966   4.192   3.924 -0.8845 -0.2843  2.8848
 3273SOL     OW21451   2.106   3.026   2.497 -0.3226 -0.3659  0.0155
 3273SOL    HW121452   2.164   2.960   2.458 -0.0380 -0.4606  0.5909
 3273SOL    HW221453   2.034   2.967   2.516 -0.1531 -0.4592  0.3762
 3274SOL     OW21454   2.542   2.488   1.540  0.2194  0.5052 -0.3392
 3274SOL    HW121455   2.583   2.571   1.515  0.8891 -0.3270 -2.0343
 3274SOL    HW221456   2.448   2.505   1.535  0.3756  1.7239  0.8114
 3275SOL     OW21457   2.581   3.748   2.088  0.1896  0.5250  0.4999
 3275SOL    HW121458   2.520   3.739   2.160 -0.6499 -0.8823 -0.4043
 3275SOL    HW221459   2.596   3.843   2.089 -0.9826  0.6946  1.0354
 3276SOL     OW21460   1.501   0.980  15.655 -0.3808 -0.3089  0.0651
 3276SOL    HW121461   1.538   1.006  15.570 -0.2979 -1.7907 -0.3434
 3276SOL    HW221462   1.587   0.961  15.692 -0.3181  0.9451  0.5499
 3277SOL     OW21463   0.151   0.251   8.072 -0.6194 -0.1927  0.2294
 3277SOL    HW121464   0.071   0.237   8.123 -0.6064  2.0188  0.8365
 3277SOL    HW221465   0.131   0.333   8.026  2.6508 -0.5387 -1.8367
 3278SOL     OW21466   1.881   1.883   9.462  0.3646 -0.0759 -0.6746
 3278SOL    HW121467   1.906   1.841   9.380  1.6094  1.1308 -0.9285
 3278SOL    HW221468   1.958   1.930   9.495  1.2154 -1.8740 -0.1166
 3279SOL     OW21469   2.882   2.823   4.463 -0.1598 -0.1700 -0.4498
 3279SOL    HW121470   2.864   2.911   4.431 -3.9584 -1.0561 -0.7379
 3279SOL    HW221471   2.963   2.831   4.513  0.7423 -2.7532 -1.4669
 3280SOL     OW21472   4.718   1.409   1.896  0.3382  0.4121 -0.7954
 3280SOL    HW121473   0.072   1.378   1.897 -0.3342 -1.4867  1.0305
 3280SOL    HW221474   4.713   1.464   1.817  1.3106  0.2355 -0.9746
 3281SOL     OW21475   1.404   1.811   3.097  0.1447 -0.3105  0.2887
 3281SOL    HW121476   1.366   1.899   3.108  0.8947  0.3220 -2.2445
 3281SOL    HW221477   1.323   1.776   3.059  0.2190 -1.0814  0.8513
 3282SOL     OW21478   0.003   1.696  16.928  0.0046 -0.6793 -0.1041
 3282SOL    HW121479   0.085   1.702  16.879 -0.8248  0.8161 -1.2983
 3282SOL    HW221480   0.028   1.620  16.981 -1.1358 -0.8744  0.1441
 3283SOL     OW21481   2.475   1.630   5.564 -0.4636 -0.0810 -0.0687
 3283SOL    HW121482   2.463   1.664   5.475  0.1324  3.2005  1.1140
 3283SOL    HW221483   2.394   1.657   5.607 -0.0564  0.6698  0.2217
 3284SOL     OW21484   0.700   2.749   3.036  0.2618  0.1258 -0.3563
 3284SOL    HW121485   0.612   2.781   3.054 -0.5227 -0.0403 -3.8887
 3284SOL    HW221486   0.735   2.769   3.123  0.9583 -2.5371 -0.0030
 3285SOL     OW21487   4.304   3.886  17.509  0.0783 -0.2438 -0.3543
 3285SOL    HW121488   4.230   3.889  17.568  2.9289  0.7011  3.1817
 3285SOL    HW221489   4.373   3.884  17.575 -0.8913  2.4749  0.7485
 3286SOL     OW21490   2.486   2.714   6.688  0.0690 -0.2206  0.0948
 3286SOL    HW121491   2.427   2.641   6.707  0.3321 -0.2954  0.6295
 3286SOL    HW221492   2.480   2.760   6.772  0.9981 -0.3851  0.2549
 3287SOL     OW21493   3.728   2.981   9.725 -0.3961 -0.3980  0.0439
 3287SOL    HW121494   3.812   2.963   9.766 -0.3410 -1.5782 -0.5810
 3287SOL    HW221495   3.700   2.890   9.723  2.0887 -1.1020 -2.9071
 3288SOL     OW21496   1.525   1.586  11.216  0.2780  0.2300 -0.7698
 3288SOL    HW121497   1.534   1.630  11.300  0.1079 -2.7146  0.7744
 3288SOL    HW221498   1.446   1.628  11.184  0.1793 -0.3036 -1.2256
 3289SOL     OW21499   3.450   3.113   1.219  0.6786 -0.2234 -0.2685
 3289SOL    HW121500   3.539   3.086   1.198  1.0832  0.0988  1.0545
 3289SOL    HW221501   3.471   3.199   1.255  4.5350 -1.5742  0.6961
 3290SOL     OW21502   1.764   4.443   7.742  0.0117 -0.4241  0.4585
 3290SOL    HW121503   1.815   4.492   7.679  1.3015 -1.0159  1.0497
 3290SOL    HW221504   1.740   4.373   7.682 -1.1202  0.7969 -0.5337
 3291SOL     OW21505   0.277   4.422   8.032  0.1998 -0.8084  0.4804
 3291SOL    HW121506   0.236   4.355   8.087  0.8848 -0.9217  0.8552
 3291SOL    HW221507   0.340   4.456   8.096  0.8558 -1.5571  0.2189
 3292SOL     OW21508   3.853   0.219   0.841  0.4755 -0.2050  0.7603
 3292SOL    HW121509   3.892   0.280   0.904 -0.4047  3.0835 -1.8496
 3292SOL    HW221510   3.904   0.140   0.855  0.4407 -0.7578 -2.1929
 3293SOL     OW21511   3.436   3.019   7.091  0.3678 -0.0403  0.1566
 3293SOL    HW121512   3.413   2.926   7.091 -1.4256  0.3902 -1.0301
 3293SOL    HW221513   3.414   3.047   7.002 -1.6080 -2.2858 -0.0641
 3294SOL     OW21514   2.769   4.392   8.395  0.5176 -0.0398  0.2035
 3294SOL    HW121515   2.786   4.320   8.456  0.8449  1.5209  1.9657
 3294SOL    HW221516   2.735   4.464   8.448  2.9341  0.9196  0.4525
 3295SOL     OW21517   4.002   1.174   3.613  0.1183  0.1599  0.3542
 3295SOL    HW121518   4.024   1.084   3.638  1.0458 -0.0514 -1.2545
 3295SOL    HW221519   3.993   1.222   3.695  0.9524  1.1027 -0.1176
 3296SOL     OW21520   0.248   2.432   4.615  0.0051 -0.1782  0.5536
 3296SOL    HW121521   0.205   2.453   4.532 -0.0270  0.2428  0.6747
 3296SOL    HW221522   0.339   2.426   4.587  0.1512 -0.9022  1.2019
 3297SOL     OW21523   1.304   3.895   2.442 -0.2411 -0.3359  0.0139
 3297SOL    HW121524   1.310   3.989   2.460  0.3122 -0.4949  0.6763
 3297SOL    HW221525   1.220   3.906   2.399 -0.1370  2.1938  0.4471
 3298SOL     OW21526   0.711   2.725   2.235 -0.0111  0.1327  0.5966
 3298SOL    HW121527   0.756   2.681   2.307 -0.7006  0.6314  1.3312
 3298SOL    HW221528   0.786   2.719   2.175  0.2986 -0.4111  1.0375
 3299SOL     OW21529   0.987   4.319   8.795 -0.0161  0.1744  0.2436
 3299SOL    HW121530   1.039   4.245   8.764  1.3357  1.7857 -1.2995
 3299SOL    HW221531   0.899   4.283   8.809 -0.3983  0.2784 -1.9844
 3300SOL     OW21532   1.444   2.959   8.993 -0.0167 -0.2268 -0.2348
 3300SOL    HW121533   1.446   2.873   8.951 -0.4006 -0.2194 -0.2627
 3300SOL    HW221534   1.400   2.945   9.077  0.8291 -1.9419 -0.0668
 3301SOL     OW21535   0.328   3.525   4.427  0.0873  0.3496  0.0845
 3301SOL    HW121536   0.341   3.449   4.370  1.4938 -0.4102  1.4092
 3301SOL    HW221537   0.304   3.489   4.512  2.2331 -1.2178  0.0260
 3302SOL     OW21538   3.733   1.112   6.168  0.0502  0.0311 -0.1518
 3302SOL    HW121539   3.761   1.024   6.143 -0.9351  0.4278 -2.6280
 3302SOL    HW221540   3.777   1.164   6.102 -1.1223  1.2701  0.0404
 3303SOL     OW21541   4.393   3.597   4.284 -0.3084  0.0090 -0.0157
 3303SOL    HW121542   4.400   3.503   4.299  0.3491  0.1345  0.4596
 3303SOL    HW221543   4.406   3.620   4.376 -1.7535 -0.9473  0.4236
 3304SOL     OW21544   2.135   3.809   5.637 -0.1140 -0.0292  0.7684
 3304SOL    HW121545   2.153   3.902   5.627  1.6536 -0.4164  0.3874
 3304SOL    HW221546   2.208   3.759   5.600  0.7545  0.8116  1.3608
 3305SOL     OW21547   3.666   0.355   3.027  0.2803  0.3552  0.4236
 3305SOL    HW121548   3.619   0.344   2.945 -1.9512  0.2847  1.7231
 3305SOL    HW221549   3.645   0.275   3.076  2.7564 -0.2146  0.5687
 3306SOL     OW21550   2.312   2.349   9.190  0.5067 -0.2846  0.1384
 3306SOL    HW121551   2.283   2.362   9.099  1.0673  1.0336  0.1473
 3306SOL    HW221552   2.272   2.264   9.208 -1.3555  0.5434 -0.0555
 3307SOL     OW21553   4.457   1.063   2.387 -0.0038  0.2319  0.0771
 3307SOL    HW121554   4.421   1.008   2.318  2.1577 -1.3760  0.2166
 3307SOL    HW221555   4.478   1.147   2.344 -0.2372 -0.2216 -0.9204
 3308SOL     OW21556   2.596   3.166   5.399 -0.0777  0.1854 -0.0069
 3308SOL    HW121557   2.522   3.118   5.362  0.2980 -1.2313  1.1011
 3308SOL    HW221558   2.604   3.127   5.486  0.0045  1.5862  0.6260
 3309SOL     OW21559   2.117   4.106  15.668  0.4174 -0.3221  0.0377
 3309SOL    HW121560   2.132   4.032  15.727  0.6684 -0.1299  0.2182
 3309SOL    HW221561   2.022   4.113  15.659  0.4786 -1.0839 -1.1395
 3310SOL     OW21562   1.598   2.439   7.982  0.7673  0.4657 -0.2038
 3310SOL    HW121563   1.583   2.517   7.929  0.7217  1.0158  0.6269
 3310SOL    HW221564   1.651   2.398   7.914 -0.1520 -1.9904  0.5512
 3311SOL     OW21565   3.663   0.176  14.479  0.1022 -0.1022 -0.9181
 3311SOL    HW121566   3.732   0.236  14.453  0.6703 -0.9064 -1.2666
 3311SOL    HW221567   3.594   0.213  14.424 -0.0084 -0.4804 -1.0338
 3312SOL     OW21568   3.610   2.467   5.770  0.0380 -0.0282  0.3796
 3312SOL    HW121569   3.669   2.410   5.721  1.1098  2.4141 -1.1968
 3312SOL    HW221570   3.545   2.401   5.793  0.1052  0.0757  0.8832
 3313SOL     OW21571   0.022   3.130  15.131 -0.2141  0.6786  0.3223
 3313SOL    HW121572   0.004   3.045  15.089  1.8748 -0.3204  1.4549
 3313SOL    HW221573   0.114   3.135  15.106 -1.1230  0.6608 -2.9939
 3314SOL     OW21574   3.056   0.749   3.334 -0.2046 -0.1228 -0.0808
 3314SOL    HW121575   3.010   0.700   3.265  0.8969  0.5773 -1.3108
 3314SOL    HW221576   3.004   0.829   3.326 -0.9787 -0.6921 -0.7323
 3315SOL     OW21577   0.501   3.678   4.826 -0.3449  0.8098  0.0120
 3315SOL    HW121578   0.446   3.630   4.888  0.5943  0.7522  0.7967
 3315SOL    HW221579   0.451   3.755   4.799  0.0423  0.1072 -2.6563
 3316SOL     OW21580   2.302   0.713   8.779 -0.2282  0.6115  0.0472
 3316SOL    HW121581   2.209   0.699   8.762 -0.6942  0.8794  2.3220
 3316SOL    HW221582   2.325   0.767   8.703  1.6552  1.4237  1.1880
 3317SOL     OW21583   3.772   0.778  14.830  0.4110  0.1638 -0.0904
 3317SOL    HW121584   3.762   0.756  14.738  2.0109  1.7100 -0.6175
 3317SOL    HW221585   3.690   0.736  14.855  1.4536  0.5049  3.8969
 3318SOL     OW21586   0.873   3.837  16.817  0.4549  0.1469 -0.0759
 3318SOL    HW121587   0.967   3.825  16.831  0.3238 -2.6902 -1.7355
 3318SOL    HW221588   0.839   3.854  16.905  1.8717  0.5810  0.3889
 3319SOL     OW21589   1.295   2.320   5.747  0.0488  0.1042 -0.2692
 3319SOL    HW121590   1.263   2.387   5.686 -0.1121 -0.9075 -1.2920
 3319SOL    HW221591   1.388   2.327   5.728 -0.2161  2.4030 -0.7012
 3320SOL     OW21592   0.196   4.328   4.537  0.6089 -0.4984 -0.1026
 3320SOL    HW121593   0.174   4.242   4.501  0.2088 -0.0754 -0.8583
 3320SOL    HW221594   0.205   4.378   4.457  1.1318  1.0492  0.9247
 3321SOL     OW21595   4.288   0.530  11.779  0.5030 -0.0205 -0.0449
 3321SOL    HW121596   4.238   0.457  11.743  3.0071 -1.2466 -1.0543
 3321SOL    HW221597   4.333   0.496  11.857  0.1825 -2.4362 -0.9295
 3322SOL     OW21598   3.238   0.525   1.035 -0.0338 -0.3644 -0.0023
 3322SOL    HW121599   3.171   0.592   1.020  0.0244  0.0065  1.3504
 3322SOL    HW221600   3.316   0.563   0.994 -0.4981  0.9330  0.3058
 3323SOL     OW21601   2.272   1.571  11.054 -0.3605 -0.2305 -0.0993
 3323SOL    HW121602   2.258   1.596  11.145 -0.0503  2.1787 -0.6990
 3323SOL    HW221603   2.259   1.477  11.060  1.0472 -0.4888 -1.2043
 3324SOL     OW21604   2.822   4.135   3.763 -0.3506 -0.6134 -0.1418
 3324SOL    HW121605   2.751   4.140   3.827  0.0169 -0.1176  0.2255
 3324SOL    HW221606   2.823   4.041   3.745 -2.3952 -0.2487 -2.3610
 3325SOL     OW21607   2.044   3.517   1.076  0.1042  0.1348  0.0521
 3325SOL    HW121608   2.083   3.433   1.100  0.4278 -0.1316 -1.4254
 3325SOL    HW221609   2.125   3.568   1.080 -0.4626  0.9726  1.3059
 3326SOL     OW21610   4.144   3.931  10.353 -0.0528  0.1139 -0.2951
 3326SOL    HW121611   4.127   3.996  10.421  1.6932  1.0587 -0.7820
 3326SOL    HW221612   4.221   3.968  10.311  0.6350  0.0016  0.8792
 3327SOL     OW21613   2.464   1.484   2.815 -0.4736  0.1643  0.3190
 3327SOL    HW121614   2.512   1.474   2.897 -1.4665  0.0050  0.8660
 3327SOL    HW221615   2.399   1.548   2.842  1.5547  2.1164  0.6436
 3328SOL     OW21616   2.079   2.286  10.063  0.1515 -0.4391  0.0355
 3328SOL    HW121617   2.100   2.279  10.156 -1.1862  0.4750  0.4097
 3328SOL    HW221618   2.164   2.313  10.028 -0.7277  1.4437 -0.6270
 3329SOL     OW21619   2.571   1.800  12.544 -0.0361 -0.0888  0.6121
 3329SOL    HW121620   2.581   1.736  12.614  0.8753 -0.3098  0.2752
 3329SOL    HW221621   2.478   1.822  12.551 -0.1308 -0.9302  2.0856
 3330SOL     OW21622   0.110   4.117   3.943  0.3890  0.7398 -0.1069
 3330SOL    HW121623   0.193   4.143   3.983  1.9422 -3.2757 -0.6742
 3330SOL    HW221624   0.138   4.077   3.860 -2.5163  0.4063 -0.9017
 3331SOL     OW21625   2.393   0.223   3.114 -0.5395 -0.0378 -0.0584
 3331SOL    HW121626   2.361   0.265   3.034  0.5076 -0.2259 -0.5792
 3331SOL    HW221627   2.488   0.224   3.106 -0.6176  0.1618 -0.9580
 3332SOL     OW21628   3.565   3.826   6.681  0.5350 -0.1771 -0.0767
 3332SOL    HW121629   3.558   3.893   6.612 -0.5096  1.5568  1.7155
 3332SOL    HW221630   3.528   3.874   6.755  0.8539  0.4174 -0.2996
 3333SOL     OW21631   2.461   1.104   9.567  0.2446  0.5952 -0.4381
 3333SOL    HW121632   2.515   1.066   9.637 -2.2893 -2.1466  0.0057
 3333SOL    HW221633   2.390   1.041   9.563  0.5530  0.2973 -1.1311
 3334SOL     OW21634   1.469   1.329   8.872 -0.6598  1.0458 -0.2132
 3334SOL    HW121635   1.378   1.303   8.857 -0.4885  0.7648 -0.7861
 3334SOL    HW221636   1.492   1.269   8.943  1.0050  0.3905 -1.2986
 3335SOL     OW21637   2.333   2.603  16.310 -0.1109 -0.6921  0.4822
 3335SOL    HW121638   2.343   2.618  16.216 -2.3518 -0.9809  0.1947
 3335SOL    HW221639   2.240   2.581  16.316 -0.2059  0.2101  2.2824
 3336SOL     OW21640   0.775   1.806   8.262  0.7855 -0.3345  0.0780
 3336SOL    HW121641   0.774   1.900   8.279 -2.3091 -0.2582 -0.5336
 3336SOL    HW221642   0.870   1.793   8.258  0.7313  0.1562 -3.0795
 3337SOL     OW21643   1.234   2.684   3.864 -0.2484 -0.2200 -0.3486
 3337SOL    HW121644   1.299   2.754   3.852  0.4730 -0.9107 -0.4682
 3337SOL    HW221645   1.149   2.727   3.857  0.1062  0.6428  0.5522
 3338SOL     OW21646   2.463   3.349   6.046 -0.3073  0.1260  0.0207
 3338SOL    HW121647   2.494   3.347   6.137  2.6189  0.7488 -0.9398
 3338SOL    HW221648   2.546   3.334   5.999 -0.2424 -2.0096  0.8448
 3339SOL     OW21649   2.791   3.234   4.812  0.0737  0.6825 -0.3547
 3339SOL    HW121650   2.779   3.220   4.718 -0.0717 -0.8439 -0.1062
 3339SOL    HW221651   2.861   3.298   4.822  0.5509  0.2187 -0.6745
 3340SOL     OW21652   1.041   2.776   7.483 -0.3163 -0.0740 -0.1890
 3340SOL    HW121653   0.990   2.709   7.437 -0.0485  0.5461 -1.3889
 3340SOL    HW221654   1.032   2.851   7.424  2.2403  0.5446  0.2027
 3341SOL     OW21655   0.262   3.576   7.333 -0.9527  0.2106  0.7581
 3341SOL    HW121656   0.274   3.481   7.332  0.5557  0.4013  0.9635
 3341SOL    HW221657   0.330   3.607   7.272 -1.7626  2.0229  0.7699
 3342SOL     OW21658   2.635   0.868   5.307  0.6939 -0.2268 -0.1309
 3342SOL    HW121659   2.729   0.855   5.319  1.4607  3.0276 -2.6234
 3342SOL    HW221660   2.630   0.957   5.273 -1.6027  0.1279  1.1882
 3343SOL     OW21661   1.305   3.853  10.214 -0.2194  0.4630 -0.1529
 3343SOL    HW121662   1.274   3.780  10.269 -0.0835 -1.1816 -2.2334
 3343SOL    HW221663   1.253   3.836  10.135  0.2425 -1.4933 -0.0522
 3344SOL     OW21664   2.001   2.551   6.711 -0.3986 -0.0187 -0.1429
 3344SOL    HW121665   1.917   2.588   6.684  0.7350  2.9187  0.4057
 3344SOL    HW221666   1.974   2.500   6.787 -0.1860  1.3952  0.8592
 3345SOL     OW21667   0.437   2.254   1.703 -0.4708  0.1025  0.0814
 3345SOL    HW121668   0.361   2.197   1.701 -0.3901 -0.0171  0.4575
 3345SOL    HW221669   0.505   2.187   1.697 -3.2044 -2.7826  1.6159
 3346SOL     OW21670   3.003   0.481   1.402 -0.4266  0.2099  0.3465
 3346SOL    HW121671   3.044   0.406   1.358 -0.3960 -0.0501  0.8131
 3346SOL    HW221672   2.924   0.480   1.349 -1.1489 -0.8120  1.4271
 3347SOL     OW21673   0.050   3.650   3.663  0.0558  0.0530  0.6403
 3347SOL    HW121674   0.010   3.577   3.616  1.9613 -0.8260  0.4126
 3347SOL    HW221675   0.094   3.696   3.591  0.8649  1.0319  1.7576
 3348SOL     OW21676   4.583   1.060   2.032 -0.1160 -0.1203 -0.5074
 3348SOL    HW121677   4.529   0.982   2.049 -2.1146  0.9434 -1.9787
 3348SOL    HW221678   4.584   1.097   2.120 -0.2205 -1.2374 -0.0368
 3349SOL     OW21679   0.802   0.583   2.758  1.0341 -0.2192 -0.2493
 3349SOL    HW121680   0.892   0.553   2.766  2.2678  3.5047 -0.1160
 3349SOL    HW221681   0.773   0.503   2.714 -1.1315  0.2616  0.3095
 3350SOL     OW21682   0.645   4.089  10.568  0.5416  0.5213 -0.4538
 3350SOL    HW121683   0.591   4.009  10.568  0.7764  0.3543  1.6090
 3350SOL    HW221684   0.665   4.108  10.660  1.0451  0.5848 -0.5808
 3351SOL     OW21685   2.419   2.340   3.010  0.6620 -0.4112  0.7758
 3351SOL    HW121686   2.345   2.300   3.057  0.1922 -1.1906 -0.6268
 3351SOL    HW221687   2.498   2.304   3.050  0.0046 -3.2878 -0.4951
 3352SOL     OW21688   1.360   2.718   7.540  0.1215 -0.6184  0.8118
 3352SOL    HW121689   1.423   2.693   7.473 -2.0094 -1.8030 -0.7864
 3352SOL    HW221690   1.286   2.759   7.494  1.3273  0.0376 -0.5350
 3353SOL     OW21691   1.498   1.932   3.956  0.5177  1.2889 -0.3816
 3353SOL    HW121692   1.506   1.989   4.033 -0.1438  1.4222 -0.4156
 3353SOL    HW221693   1.541   1.992   3.895  0.7205  0.6535 -0.8625
 3354SOL     OW21694   1.496   3.142   7.314  0.1311  0.1048 -0.5610
 3354SOL    HW121695   1.455   3.094   7.243 -1.5700 -2.0371  1.8805
 3354SOL    HW221696   1.414   3.146   7.363  0.3517  0.6537 -0.2336
 3355SOL     OW21697   1.163   4.699   0.270 -0.1999 -0.2773 -0.1604
 3355SOL    HW121698   1.183   0.055   0.252  1.9841 -1.1556 -2.1794
 3355SOL    HW221699   1.078   4.707   0.313  0.1396  0.1928  0.4163
 3356SOL     OW21700   1.430   0.104   3.871 -0.9101  0.1422 -0.0390
 3356SOL    HW121701   1.469   0.183   3.909  1.1163 -0.7797 -0.2269
 3356SOL    HW221702   1.335   0.116   3.880 -1.0382  1.1409 -2.4760
 3357SOL     OW21703   1.827   4.210   2.868 -0.0079  0.3444  0.1471
 3357SOL    HW121704   1.769   4.247   2.934  2.7563  0.8055  2.3503
 3357SOL    HW221705   1.759   4.159   2.825 -0.2041 -0.0928  0.9696
 3358SOL     OW21706   3.714   0.609  17.495  0.3654  0.2376  0.0614
 3358SOL    HW121707   3.810   0.613  17.496  0.4120 -0.4243 -1.6575
 3358SOL    HW221708   3.692   0.682  17.553 -1.2163 -2.0208  2.2738
 3359SOL     OW21709   0.897   3.581   4.142 -0.2353 -0.8378  0.0764
 3359SOL    HW121710   0.834   3.638   4.186 -0.1650  1.8927 -3.3619
 3359SOL    HW221711   0.904   3.629   4.060 -2.5115 -1.1745 -0.3269
 3360SOL     OW21712   2.599   3.372  14.824  0.0581  0.4467 -0.0832
 3360SOL    HW121713   2.552   3.370  14.908  0.4554  2.5082  0.1815
 3360SOL    HW221714   2.686   3.400  14.853  0.8341 -1.0921 -0.9261
 3361SOL     OW21715   0.225   2.496   1.439  0.0561  0.1616  0.9324
 3361SOL    HW121716   0.179   2.414   1.420  1.2251 -0.1400 -0.6242
 3361SOL    HW221717   0.298   2.484   1.380  0.1231 -0.2206  1.0958
 3362SOL     OW21718   0.029   2.942  13.156  0.2111  0.2601  0.1860
 3362SOL    HW121719   0.055   3.013  13.214  2.6125  1.2293 -2.0686
 3362SOL    HW221720   0.117   2.906  13.141  0.3296 -0.0870  1.7023
 3363SOL     OW21721   3.597   3.849   5.864 -0.1578 -0.3474 -0.0927
 3363SOL    HW121722   3.636   3.873   5.780  0.8381  2.6932  1.2459
 3363SOL    HW221723   3.503   3.865   5.858  0.1945  1.7963  0.0147
 3364SOL     OW21724   4.603   3.894  11.114  0.3344 -0.1097  0.8168
 3364SOL    HW121725   4.549   3.830  11.160  0.7776  0.0259  1.5300
 3364SOL    HW221726   4.640   3.959  11.173  1.7227 -1.7834  1.7765
 3365SOL     OW21727   4.522   0.496   8.703 -0.0520 -0.2166 -0.0026
 3365SOL    HW121728   4.435   0.517   8.736 -0.2647 -1.2842  0.1207
 3365SOL    HW221729   4.583   0.508   8.776  1.0255  0.3579 -0.9984
 3366SOL     OW21730   1.796   3.881   9.776  0.2643 -0.2679 -0.1910
 3366SOL    HW121731   1.737   3.936   9.828 -0.2407  0.5594 -1.6361
 3366SOL    HW221732   1.840   3.837   9.849  1.0698 -0.4787 -0.8088
 3367SOL     OW21733   4.239   3.044   5.052  0.1338  0.3929 -0.4955
 3367SOL    HW121734   4.322   3.067   5.009 -0.0104  1.5725 -0.1329
 3367SOL    HW221735   4.185   3.011   4.981  0.4072 -0.5696 -0.2467
 3368SOL     OW21736   0.033   2.001   2.547  0.5533  0.1046  0.1465
 3368SOL    HW121737   0.122   1.971   2.569  1.0265 -0.8734 -3.1335
 3368SOL    HW221738   0.041   2.011   2.452  0.5348 -1.7048 -0.0496
 3369SOL     OW21739   2.364   0.425  15.714  0.1278  0.1535  0.8573
 3369SOL    HW121740   2.419   0.475  15.774  0.1274 -0.9821  1.8216
 3369SOL    HW221741   2.405   0.441  15.629  1.8426 -0.1210  1.6123
 3370SOL     OW21742   3.151   3.903  11.536  0.2830 -0.1846 -0.4449
 3370SOL    HW121743   3.231   3.857  11.513  1.5912  3.2434 -2.8002
 3370SOL    HW221744   3.175   3.973  11.598  1.7356  0.4617 -1.7396
 3371SOL     OW21745   0.664   4.318  16.319 -0.4883 -0.1875 -0.2040
 3371SOL    HW121746   0.633   4.228  16.328 -1.5347 -0.1191 -3.1090
 3371SOL    HW221747   0.729   4.315  16.248  0.9966 -0.0202  1.1373
 3372SOL     OW21748   3.064   0.944  10.829 -0.5597 -0.1156 -0.5866
 3372SOL    HW121749   3.090   0.853  10.812  0.6550  0.1881 -0.3591
 3372SOL    HW221750   2.983   0.925  10.876  0.0237 -1.3554 -0.0668
 3373SOL     OW21751   3.012   1.339  13.261 -0.0656  0.2350 -0.3294
 3373SOL    HW121752   2.984   1.430  13.251 -0.1527  0.2749  0.2437
 3373SOL    HW221753   3.048   1.327  13.349 -2.2480  2.8760  0.9374
 3374SOL     OW21754   2.621   3.440  15.760  0.3093 -0.1794 -0.3883
 3374SOL    HW121755   2.596   3.386  15.835 -1.6660  2.2253  0.6769
 3374SOL    HW221756   2.671   3.501  15.814 -3.4211  1.6570  1.0343
 3375SOL     OW21757   0.009   0.568   3.382  0.2756 -0.1577 -0.1631
 3375SOL    HW121758   0.010   0.516   3.462  0.1680  1.0497  0.6353
 3375SOL    HW221759   4.726   0.659   3.405 -2.0665 -0.0698 -2.4427
 3376SOL     OW21760   0.482   3.856   8.228  0.0143 -0.5192  0.3395
 3376SOL    HW121761   0.543   3.857   8.154 -3.2617  1.8332 -2.3195
 3376SOL    HW221762   0.399   3.823   8.193 -1.5161  1.8242  1.8070
 3377SOL     OW21763   0.587   3.051  10.330  0.3726  0.2388  0.3167
 3377SOL    HW121764   0.666   3.093  10.364 -0.2642  2.2800 -0.6752
 3377SOL    HW221765   0.585   2.969  10.378 -0.1431 -0.8915 -1.6039
 3378SOL     OW21766   1.521   3.937   4.755 -0.4423  0.2313 -0.1274
 3378SOL    HW121767   1.546   3.936   4.847 -0.9884  2.0522  0.0475
 3378SOL    HW221768   1.584   4.006   4.735 -2.8612  2.2586 -0.7825
 3379SOL     OW21769   4.324   1.123   7.581  0.3752 -0.2269  0.2674
 3379SOL    HW121770   4.391   1.058   7.561  0.9567  0.3086  0.4765
 3379SOL    HW221771   4.307   1.157   7.494  2.5387  0.2721  0.0518
 3380SOL     OW21772   2.163   3.054   8.765  0.4122  0.5363  0.3856
 3380SOL    HW121773   2.236   3.116   8.771  2.0320 -1.4563  1.6254
 3380SOL    HW221774   2.099   3.119   8.737  0.1020  0.5639  1.1653
 3381SOL     OW21775   0.126   2.414   9.071  0.4654  0.3472 -0.1566
 3381SOL    HW121776   0.198   2.399   9.132  0.0256  0.3345  0.3613
 3381SOL    HW221777   0.164   2.386   8.988 -0.6206  1.6908 -1.1101
 3382SOL     OW21778   3.435   3.205  15.532  0.1682 -0.0978  0.0004
 3382SOL    HW121779   3.402   3.155  15.457 -0.4969 -0.0688  0.2723
 3382SOL    HW221780   3.354   3.227  15.578  2.0508  1.5554  2.4970
 3383SOL     OW21781   4.670   2.606   4.823 -0.2231 -0.2449  0.0705
 3383SOL    HW121782   4.643   2.554   4.899 -0.9390 -0.6421 -0.4460
 3383SOL    HW221783   4.666   2.534   4.759  0.7857 -0.0085 -0.2508
 3384SOL     OW21784   2.854   1.203   8.768  0.6617 -0.3796 -0.2000
 3384SOL    HW121785   2.807   1.164   8.694 -1.0270 -1.2180  1.3246
 3384SOL    HW221786   2.783   1.256   8.804 -0.3269 -0.8082 -1.5051
 3385SOL     OW21787   1.386   1.137   4.926  0.4490 -0.6932 -0.1336
 3385SOL    HW121788   1.306   1.135   4.874  0.3588 -0.4979 -0.0019
 3385SOL    HW221789   1.376   1.213   4.983 -0.7945 -0.2531 -0.9435
 3386SOL     OW21790   3.671   2.005   5.053 -0.4759 -0.5829 -0.1271
 3386SOL    HW121791   3.708   2.084   5.092  0.7492 -0.3591 -1.7430
 3386SOL    HW221792   3.723   2.005   4.973  0.3801  3.7578  0.4423
 3387SOL     OW21793   0.160   0.445   4.739  0.2249  0.0181  0.7529
 3387SOL    HW121794   0.228   0.430   4.673  0.1946 -0.2946  0.7895
 3387SOL    HW221795   0.130   0.532   4.715 -0.7188 -0.2890  0.8050
 3388SOL     OW21796   3.041   3.715   7.073  0.2334 -0.6425 -0.0813
 3388SOL    HW121797   3.058   3.756   6.989 -0.7255 -1.4571 -0.6694
 3388SOL    HW221798   3.053   3.623   7.050 -0.4877 -1.0981  1.3286
 3389SOL     OW21799   0.143   0.429   7.850  0.4776 -0.3883  0.6272
 3389SOL    HW121800   0.049   0.425   7.831  0.3282 -0.2042  1.3530
 3389SOL    HW221801   0.180   0.381   7.776  0.6141 -2.3892  2.0050
 3390SOL     OW21802   4.516   0.969   4.394  0.3730  0.1661  0.2263
 3390SOL    HW121803   4.431   1.009   4.410  2.1484  4.6024 -1.5811
 3390SOL    HW221804   4.525   0.902   4.462 -0.2454 -0.0453  0.1001
 3391SOL     OW21805   3.378   2.839   8.835 -0.5802  0.1505 -0.0626
 3391SOL    HW121806   3.315   2.863   8.902 -0.0706 -2.3178  1.2740
 3391SOL    HW221807   3.329   2.855   8.754 -0.4872  1.4407  0.1321
 3392SOL     OW21808   0.462   0.591  16.840 -0.0616  0.5740  0.3389
 3392SOL    HW121809   0.467   0.496  16.850  0.8406  0.7569  1.7818
 3392SOL    HW221810   0.516   0.606  16.763  0.3970 -1.3782  0.2651
 3393SOL     OW21811   0.259   1.484   7.430  0.2462 -0.4104  0.1134
 3393SOL    HW121812   0.285   1.445   7.512  1.0789  2.0747  1.0230
 3393SOL    HW221813   0.303   1.569   7.439  1.5960 -1.0894 -0.1786
 3394SOL     OW21814   3.688   3.052   6.849 -0.1606 -0.1101 -0.7104
 3394SOL    HW121815   3.600   3.042   6.813 -0.3274 -1.5097  0.0835
 3394SOL    HW221816   3.731   2.972   6.817 -0.6993 -0.3645 -0.8061
 3395SOL     OW21817   2.583   4.511   2.009  0.1384  0.0117 -0.2329
 3395SOL    HW121818   2.635   4.468   1.941 -1.8435 -0.2230 -1.6092
 3395SOL    HW221819   2.507   4.532   1.955 -0.7370 -1.7118  0.3014
 3396SOL     OW21820   4.426   2.970   6.986  0.7565  0.3788  0.0612
 3396SOL    HW121821   4.446   2.981   7.079  0.0419 -1.1563  0.4027
 3396SOL    HW221822   4.334   2.946   6.996  1.5607 -2.6392  0.2693
 3397SOL     OW21823   2.703   1.564  12.322  0.2108 -0.4820 -0.5917
 3397SOL    HW121824   2.704   1.658  12.303  0.0276 -0.6053 -1.2152
 3397SOL    HW221825   2.633   1.539  12.262  0.5288  1.2088 -1.6781
 3398SOL     OW21826   0.588   0.887  13.323 -0.6513 -0.2421  0.5735
 3398SOL    HW121827   0.555   0.891  13.413  0.6154  1.7431  0.9595
 3398SOL    HW221828   0.528   0.948  13.281  0.1537 -1.0321 -1.7245
 3399SOL     OW21829   1.301   0.808   0.881  0.0043  0.0238  0.7550
 3399SOL    HW121830   1.259   0.772   0.803  2.6383  0.4631 -0.8759
 3399SOL    HW221831   1.251   0.775   0.956 -2.0703 -0.6377 -0.9227
 3400SOL     OW21832   3.648   1.542   0.322 -0.8190 -0.3630 -0.0097
 3400SOL    HW121833   3.609   1.472   0.374  0.0661 -0.5915  0.3455
 3400SOL    HW221834   3.576   1.558   0.260 -0.5580 -2.4180 -0.8431
 3401SOL     OW21835   0.342   0.538   4.943 -0.1032 -0.2148 -0.1852
 3401SOL    HW121836   0.272   0.507   4.885  0.7895 -1.5919 -0.5246
 3401SOL    HW221837   0.406   0.479   4.903  0.8830  0.9899 -0.4148
 3402SOL     OW21838   2.592   0.705   7.859 -0.6190 -0.7341 -0.2370
 3402SOL    HW121839   2.517   0.713   7.800 -1.3994 -1.9037  0.5722
 3402SOL    HW221840   2.638   0.625   7.832 -0.7446 -0.6898 -0.5798
 3403SOL     OW21841   4.427   1.346   6.041 -0.4475 -0.0586  0.3578
 3403SOL    HW121842   4.372   1.314   5.969  0.7417  2.2015 -1.5143
 3403SOL    HW221843   4.478   1.413   5.997 -2.5317 -0.1253 -2.2083
 3404SOL     OW21844   2.667   1.493   4.375 -0.5040 -0.3955  0.1860
 3404SOL    HW121845   2.632   1.483   4.463 -2.1088  0.4202 -0.3666
 3404SOL    HW221846   2.667   1.405   4.338  0.6426 -1.0219  1.6413
 3405SOL     OW21847   0.413   3.511  13.858 -0.7099  0.5564 -0.2624
 3405SOL    HW121848   0.491   3.555  13.891 -0.8957  0.8637 -0.2306
 3405SOL    HW221849   0.416   3.533  13.765 -0.2358  0.3115 -0.3056
 3406SOL     OW21850   2.185   2.249   3.130 -0.2769 -0.4789 -0.2033
 3406SOL    HW121851   2.163   2.190   3.202 -1.3769  0.8991  0.5790
 3406SOL    HW221852   2.133   2.327   3.147  0.3403 -0.0986 -0.0554
 3407SOL     OW21853   0.148   3.961   2.029  0.4484 -0.1648  0.2680
 3407SOL    HW121854   0.065   3.952   2.077  0.1849  2.3919  0.3057
 3407SOL    HW221855   0.127   3.924   1.943 -0.2870  0.4648  0.1777
 3408SOL     OW21856   3.684   0.609   5.578  0.2879 -0.1411  0.3932
 3408SOL    HW121857   3.602   0.570   5.608 -0.3683  0.6987 -0.3289
 3408SOL    HW221858   3.748   0.539   5.592 -0.5503 -1.3880 -1.9454
 3409SOL     OW21859   1.460   1.532   3.428  0.8433  0.1499 -0.7027
 3409SOL    HW121860   1.473   1.438   3.439  0.0359  0.2850  1.3681
 3409SOL    HW221861   1.380   1.541   3.480 -0.8460  1.8997 -3.6322
 3410SOL     OW21862   1.537   2.509   0.050 -0.3086  0.4563  0.4259
 3410SOL    HW121863   1.608   2.571   0.069 -0.8426  0.7197  1.5745
 3410SOL    HW221864   1.462   2.539   0.102  0.2732  1.6728  0.5704
 3411SOL     OW21865   1.464   3.257   4.171 -0.0912  0.2197 -0.6177
 3411SOL    HW121866   1.406   3.318   4.216  1.1722  0.9534  0.0192
 3411SOL    HW221867   1.511   3.220   4.246  0.0126  1.7160  0.0633
 3412SOL     OW21868   4.459   2.871   7.995  0.5986 -0.0903  0.3718
 3412SOL    HW121869   4.400   2.797   7.983  2.0405 -1.2103  0.2318
 3412SOL    HW221870   4.473   2.905   7.907  2.5175  0.7211  0.9863
 3413SOL     OW21871   4.667   2.384  10.825 -0.0908  0.1365 -0.3834
 3413SOL    HW121872   4.727   2.316  10.855  0.7366 -0.1378 -2.6525
 3413SOL    HW221873   4.592   2.383  10.884 -0.0144 -1.9919 -0.3279
 3414SOL     OW21874   4.680   0.369   7.491  0.2517  0.3030 -0.1480
 3414SOL    HW121875   0.017   0.423   7.460  1.0137 -1.0334 -0.6823
 3414SOL    HW221876   4.660   0.415   7.573  1.6773  0.2471  0.2284
 3415SOL     OW21877   0.127   1.940   4.746  0.0952  0.5192  0.1306
 3415SOL    HW121878   0.112   2.034   4.752 -0.4414  0.3639  1.1603
 3415SOL    HW221879   0.045   1.899   4.774  0.1509  0.6104  0.4290
 3416SOL     OW21880   0.713   1.705   9.692  0.9708 -0.2170 -0.3688
 3416SOL    HW121881   0.779   1.694   9.623 -0.0174  0.1928 -1.3815
 3416SOL    HW221882   0.761   1.707   9.774  1.6836 -1.7280 -0.7528
 3417SOL     OW21883   3.371   0.980  11.730 -0.1468  0.1161  0.7494
 3417SOL    HW121884   3.429   0.985  11.806  0.1990  0.3957  0.4672
 3417SOL    HW221885   3.303   0.932  11.778 -1.9415  0.1108 -1.8125
 3418SOL     OW21886   4.314   2.006   3.279 -0.5124  0.0447  0.5797
 3418SOL    HW121887   4.325   2.101   3.276 -0.8643 -0.0133 -1.8780
 3418SOL    HW221888   4.224   1.998   3.310 -0.5764 -0.2350  0.3162
 3419SOL     OW21889   0.985   2.314   1.486  0.0623 -0.2515  0.7268
 3419SOL    HW121890   0.972   2.331   1.579 -0.2418 -1.9508  0.9900
 3419SOL    HW221891   1.029   2.230   1.499  1.7725  0.6069  0.3962
 3420SOL     OW21892   4.135   0.651  14.384  0.0923 -0.4786  0.1867
 3420SOL    HW121893   4.193   0.693  14.320 -1.6739  0.5186 -0.7481
 3420SOL    HW221894   4.168   0.562  14.400 -0.7751 -0.9305 -0.5371
 3421SOL     OW21895   0.529   2.285  14.763 -0.7842 -0.1207  0.4660
 3421SOL    HW121896   0.447   2.236  14.775 -1.7871  1.6968  0.9444
 3421SOL    HW221897   0.582   2.236  14.826 -0.5092 -0.6505 -0.1794
 3422SOL     OW21898   2.483   0.991   6.735 -0.1486  0.1125 -0.1590
 3422SOL    HW121899   2.534   0.928   6.685 -1.2368  0.3111 -1.5235
 3422SOL    HW221900   2.540   1.067   6.741  1.2727 -1.2367  3.5642
 3423SOL     OW21901   3.930   0.508  15.764  0.0390 -0.2330  0.0441
 3423SOL    HW121902   3.898   0.481  15.850  3.9527 -1.4036  1.1065
 3423SOL    HW221903   3.868   0.452  15.718  0.7320 -2.0740  1.3448
 3424SOL     OW21904   1.432   4.052   1.396 -0.1378 -0.4140  0.2435
 3424SOL    HW121905   1.501   3.994   1.362  1.7718  2.6425 -1.0718
 3424SOL    HW221906   1.364   3.986   1.387 -2.2959  1.9999 -0.9308
 3425SOL     OW21907   1.418   0.752   5.758  0.0568  0.2745  1.1769
 3425SOL    HW121908   1.359   0.677   5.747 -0.3116  0.6738  0.4465
 3425SOL    HW221909   1.471   0.756   5.678 -2.3731 -1.6438 -0.5479
 3426SOL     OW21910   3.666   4.183   8.440  0.3972 -0.3676  0.3441
 3426SOL    HW121911   3.664   4.241   8.364 -0.8004  0.9911  1.4169
 3426SOL    HW221912   3.684   4.237   8.518  1.9948 -0.1112 -0.2074
 3427SOL     OW21913   3.753   4.471   3.907 -0.6918  0.2852  0.2232
 3427SOL    HW121914   3.796   4.389   3.882 -1.6060  0.2392 -1.1873
 3427SOL    HW221915   3.668   4.439   3.938  0.6928 -1.4991  2.1877
 3428SOL     OW21916   4.698   1.664   4.368  0.5089 -0.0107 -0.3103
 3428SOL    HW121917   4.689   1.577   4.408  0.2043  0.4645  0.6649
 3428SOL    HW221918   0.042   1.691   4.415  0.9650 -0.5291 -0.7861
 3429SOL     OW21919   3.109   3.003  12.384 -0.2810 -0.3106 -0.3993
 3429SOL    HW121920   3.204   3.013  12.376 -0.2836  0.2825  0.3967
 3429SOL    HW221921   3.086   2.943  12.313  2.9092 -0.4022 -1.3377
 3430SOL     OW21922   0.833   3.657   4.506 -0.6424  0.1069  0.1284
 3430SOL    HW121923   0.786   3.641   4.424  2.5141 -1.2314 -1.4151
 3430SOL    HW221924   0.787   3.728   4.551 -0.8229  0.8033 -1.1362
 3431SOL     OW21925   4.595   1.902   4.514  0.0442  0.0235  0.2578
 3431SOL    HW121926   4.556   1.854   4.587 -1.0902 -0.3066 -0.5661
 3431SOL    HW221927   4.613   1.835   4.449  0.0156  1.0472 -0.8124
 3432SOL     OW21928   3.445   3.035   6.777  0.6490  0.0663  0.0043
 3432SOL    HW121929   3.404   2.975   6.714  1.5156  0.8109 -1.2556
 3432SOL    HW221930   3.438   3.109   6.717 -1.4560  1.0097  1.3986
 3433SOL     OW21931   2.305   3.198   6.667  0.2034 -0.4217  0.3431
 3433SOL    HW121932   2.385   3.249   6.655 -0.0516 -0.1064 -0.0050
 3433SOL    HW221933   2.319   3.120   6.613 -1.6778 -0.6321  0.1410
 3434SOL     OW21934   0.391   1.512   7.029  0.6234 -0.0573  0.1254
 3434SOL    HW121935   0.372   1.434   7.080 -1.6881  0.1412 -0.4370
 3434SOL    HW221936   0.305   1.514   6.988  0.6593 -3.1352 -0.0998
 3435SOL     OW21937   3.668   4.386   9.199  0.4868  0.0295  0.0764
 3435SOL    HW121938   3.717   4.305   9.187  1.5019  0.5405  0.7974
 3435SOL    HW221939   3.639   4.367   9.289  0.7358 -0.0004  0.1498
 3436SOL     OW21940   1.875   2.247   3.758 -0.1003 -0.2344  0.0990
 3436SOL    HW121941   1.860   2.188   3.684 -2.3935  0.8112 -0.2743
 3436SOL    HW221942   1.809   2.316   3.750 -0.4730 -0.2399  3.0591
 3437SOL     OW21943   4.285   1.801   5.080  0.4799 -0.3292 -0.0540
 3437SOL    HW121944   4.210   1.816   5.022  0.8277 -1.8702 -0.9009
 3437SOL    HW221945   4.349   1.868   5.054 -1.3802  1.6589  0.5285
 3438SOL     OW21946   4.476   2.009   8.225  0.0242 -0.1862 -0.3267
 3438SOL    HW121947   4.414   1.996   8.153 -0.5315  0.9530 -0.0493
 3438SOL    HW221948   4.532   2.072   8.179  1.1441 -1.7160 -1.0369
 3439SOL     OW21949   2.623   2.007   4.267  0.6530 -0.2108 -0.3464
 3439SOL    HW121950   2.580   2.048   4.342 -0.6379  0.4916 -1.4669
 3439SOL    HW221951   2.623   1.914   4.289 -3.0035 -0.1436 -0.1444
 3440SOL     OW21952   2.513   1.453  14.569 -0.0976  0.3224  0.4248
 3440SOL    HW121953   2.502   1.518  14.500  2.8870 -0.7121 -1.0266
 3440SOL    HW221954   2.581   1.496  14.621  1.0197 -0.5691 -0.3162
 3441SOL     OW21955   3.352   4.501   9.625 -0.2959 -0.0314 -0.0783
 3441SOL    HW121956   3.325   4.576   9.571 -0.7963  1.0101  1.6443
 3441SOL    HW221957   3.273   4.448   9.615  0.0562 -0.5048 -0.3691
 3442SOL     OW21958   2.342   0.229  16.904  0.4552  0.5770 -0.3464
 3442SOL    HW121959   2.377   0.278  16.829  1.3067  0.5884  0.0497
 3442SOL    HW221960   2.342   0.137  16.879  0.8863  0.1324  1.2821
 3443SOL     OW21961   1.434   1.872   8.250 -0.0815  0.1026 -0.2305
 3443SOL    HW121962   1.436   1.832   8.337  1.0735  3.2942  1.2044
 3443SOL    HW221963   1.345   1.908   8.251  0.2798  0.9800 -0.1681
 3444SOL     OW21964   2.756   4.035   1.832  0.4065 -0.9814  0.3151
 3444SOL    HW121965   2.772   3.968   1.898  2.8385  0.1272  0.8587
 3444SOL    HW221966   2.689   4.087   1.877  0.3160 -1.3095  0.5515
 3445SOL     OW21967   0.198   3.529   6.137  0.8717  0.1222  0.0806
 3445SOL    HW121968   0.185   3.544   6.043  0.1221 -1.4500 -0.0584
 3445SOL    HW221969   0.115   3.561   6.174 -0.0581 -0.9448 -1.0850
 3446SOL     OW21970   3.729   2.139  17.653  0.1278  0.2116  0.1066
 3446SOL    HW121971   3.799   2.080  17.622 -1.9760 -1.4460 -1.5017
 3446SOL    HW221972   3.655   2.088  17.686  0.7556 -0.4715  0.4760
 3447SOL     OW21973   1.975   2.830   5.383 -0.4546  0.1292 -0.7650
 3447SOL    HW121974   1.929   2.746   5.384  0.1076 -0.1826 -1.5243
 3447SOL    HW221975   1.927   2.878   5.451  0.9632  0.1018  0.2457
 3448SOL     OW21976   1.493   3.835   6.741  0.1821 -0.0373  0.1045
 3448SOL    HW121977   1.407   3.860   6.775 -0.2909 -0.4447 -0.7881
 3448SOL    HW221978   1.535   3.920   6.729 -0.9313 -0.0077 -3.4866
 3449SOL     OW21979   1.535   0.889   8.823 -0.2787  0.1047 -0.3080
 3449SOL    HW121980   1.532   0.846   8.908 -0.3816  1.5492  0.4157
 3449SOL    HW221981   1.619   0.928   8.847  1.3982 -3.3540 -0.5426
 3450SOL     OW21982   1.950   2.046   5.518 -0.0274 -0.7901 -0.2111
 3450SOL    HW121983   2.028   2.034   5.573  0.6727 -0.5091 -1.1455
 3450SOL    HW221984   1.991   2.068   5.435 -0.6712 -0.6897 -0.4998
 3451SOL     OW21985   3.526   0.373   9.311 -0.0121 -0.6110 -0.5713
 3451SOL    HW121986   3.547   0.404   9.223  1.1120  0.6646  0.1440
 3451SOL    HW221987   3.545   0.281   9.293 -0.5528 -1.0688  1.2711
 3452SOL     OW21988   1.424   1.477   2.010  0.5033  0.0586  0.5887
 3452SOL    HW121989   1.419   1.383   1.993  1.0574  0.1990 -0.3783
 3452SOL    HW221990   1.517   1.498   2.014  0.5717  0.6424 -3.4993
 3453SOL     OW21991   3.746   1.016   8.437  0.0740 -0.7906 -0.2644
 3453SOL    HW121992   3.794   1.094   8.467 -0.2383 -0.4870 -0.5591
 3453SOL    HW221993   3.661   1.057   8.420 -0.4461 -1.1821  1.4182
 3454SOL     OW21994   0.292   0.882  12.957  0.3847  0.1693 -0.5664
 3454SOL    HW121995   0.221   0.890  12.893 -2.0747  1.1659  2.2928
 3454SOL    HW221996   0.337   0.805  12.920 -0.1319 -0.3682 -0.0854
 3455SOL     OW21997   1.401   2.917   9.726  0.4703  0.0379 -0.4905
 3455SOL    HW121998   1.398   2.844   9.664 -0.2843  0.3192 -0.7856
 3455SOL    HW221999   1.495   2.906   9.744  0.2010 -1.5729 -0.0645
 3456SOL     OW22000   2.573   2.174   5.724  0.0796  0.1456  0.0078
 3456SOL    HW122001   2.583   2.099   5.665  0.3795 -0.4540  0.8306
 3456SOL    HW222002   2.663   2.206   5.720 -0.1371  0.7555 -0.0525
 3457SOL     OW22003   3.022   0.302   7.002  0.2754  0.3761 -0.6013
 3457SOL    HW122004   2.940   0.293   6.953  0.3408  2.9486 -1.1983
 3457SOL    HW222005   3.023   0.398   6.997  0.0477  0.3846 -0.4793
 3458SOL     OW22006   2.613   3.267   8.835  0.5452  0.2614 -0.3706
 3458SOL    HW122007   2.592   3.360   8.844  0.6472  0.1543  0.9946
 3458SOL    HW222008   2.684   3.267   8.772  0.2499 -0.5243 -0.6983
 3459SOL     OW22009   2.283   1.030   2.678  0.5102 -0.3152  0.3570
 3459SOL    HW122010   2.330   0.948   2.662  1.7985  0.4094  0.4696
 3459SOL    HW222011   2.354   1.093   2.668 -1.9608  2.5640  0.8890
 3460SOL     OW22012   2.622   2.737   5.944 -0.3258 -0.3561 -0.2520
 3460SOL    HW122013   2.681   2.666   5.967 -2.1188 -1.8781 -0.3865
 3460SOL    HW222014   2.589   2.712   5.858 -0.4842  0.0978 -0.3242
 3461SOL     OW22015   2.801   3.373   1.746  0.1765 -0.0998  0.2123
 3461SOL    HW122016   2.740   3.351   1.675  0.7293 -1.7636  0.2446
 3461SOL    HW222017   2.739   3.402   1.813  0.3577  0.8536 -0.0376
 3462SOL     OW22018   4.416   2.686  16.010 -0.1722  0.5421 -0.1263
 3462SOL    HW122019   4.466   2.759  15.973 -0.0125  0.8007  0.6061
 3462SOL    HW222020   4.390   2.645  15.927 -1.2704  0.3505  0.3217
 3463SOL     OW22021   3.674   1.987  15.119 -0.2173  0.3206  0.3160
 3463SOL    HW122022   3.602   1.953  15.066 -0.5268 -1.4799  1.8432
 3463SOL    HW222023   3.643   1.972  15.209 -0.6108  0.9992  0.2927
 3464SOL     OW22024   2.705   3.466   7.142 -0.9382 -0.0611  0.3421
 3464SOL    HW122025   2.618   3.451   7.180 -0.2226 -2.3200  1.0563
 3464SOL    HW222026   2.751   3.486   7.224  0.1315 -0.6368 -0.1171
 3465SOL     OW22027   0.218   1.114   8.232 -0.6178  0.2283  0.4171
 3465SOL    HW122028   0.177   1.201   8.229  1.8682  1.3771 -0.5086
 3465SOL    HW222029   0.159   1.082   8.300 -0.0494 -1.5977  0.0416
 3466SOL     OW22030   2.857   0.266   8.343  0.4652  0.0416 -0.4619
 3466SOL    HW122031   2.813   0.186   8.373 -0.5582  1.7776  2.7117
 3466SOL    HW222032   2.912   0.231   8.273 -0.7519 -1.6153 -0.5942
 3467SOL     OW22033   1.206   2.958  10.030  0.5277  0.2471  0.5203
 3467SOL    HW122034   1.156   2.887  10.071  0.2546 -0.4341 -0.9735
 3467SOL    HW222035   1.223   2.918   9.944 -0.7762 -0.7746  0.7386
 3468SOL     OW22036   1.248   3.194   3.839 -0.3673  0.8367  0.3841
 3468SOL    HW122037   1.344   3.198   3.843 -0.4315  0.8021  1.9115
 3468SOL    HW222038   1.232   3.241   3.757 -1.2551 -0.9123 -0.4381
 3469SOL     OW22039   3.854   3.343   8.608  0.1059 -0.0233 -0.0134
 3469SOL    HW122040   3.835   3.256   8.572 -1.0963  0.1794  0.1405
 3469SOL    HW222041   3.943   3.334   8.642 -0.7825 -0.2277  2.2390
 3470SOL     OW22042   0.737   4.584  14.632  0.4156 -0.3062  0.5630
 3470SOL    HW122043   0.788   4.653  14.590 -0.3364 -0.2727 -0.2970
 3470SOL    HW222044   0.650   4.590  14.592  1.0949  0.3047 -0.8226
 3471SOL     OW22045   3.102   0.292  12.096 -0.3738  0.3972 -0.1967
 3471SOL    HW122046   3.053   0.213  12.119 -0.0001  0.0071 -0.7433
 3471SOL    HW222047   3.066   0.319  12.012  1.9961 -0.1875 -1.4251
 3472SOL     OW22048   0.575   0.961   2.910 -0.3696 -0.1727 -0.7712
 3472SOL    HW122049   0.617   0.875   2.911 -0.1361 -0.0402  1.2447
 3472SOL    HW222050   0.648   1.022   2.928 -0.5033  0.3157 -1.8591
 3473SOL     OW22051   0.404   2.211   6.143 -0.3956 -0.7539  0.1724
 3473SOL    HW122052   0.341   2.145   6.172 -0.7659  0.3306  1.8184
 3473SOL    HW222053   0.476   2.168   6.097 -0.6689  1.8602 -2.6740
 3474SOL     OW22054   3.259   3.874  16.552  0.6671 -0.1112  0.7175
 3474SOL    HW122055   3.272   3.780  16.561 -1.4057 -0.4684 -0.1109
 3474SOL    HW222056   3.300   3.892  16.637 -0.4881 -0.8005  1.4275
 3475SOL     OW22057   0.190   1.673  10.174 -0.3267 -0.7127 -0.2886
 3475SOL    HW122058   0.204   1.601  10.113  0.2998 -0.7218 -0.1325
 3475SOL    HW222059   0.105   1.662  10.218 -1.1716  1.2630 -1.4550
 3476SOL     OW22060   1.500   3.368  12.523  0.3790 -0.5193 -0.0314
 3476SOL    HW122061   1.524   3.458  12.542 -2.0829  0.4274 -1.3150
 3476SOL    HW222062   1.459   3.380  12.437  2.3634 -3.7874 -1.4508
 3477SOL     OW22063   3.073   3.888   8.256  0.4430 -0.1649  0.2912
 3477SOL    HW122064   2.987   3.883   8.213  0.7699 -1.8965 -0.1617
 3477SOL    HW222065   3.059   3.965   8.311 -3.0207  0.2347 -1.1078
 3478SOL     OW22066   0.094   0.270   4.283  0.4345  0.5678  0.4212
 3478SOL    HW122067   0.093   0.174   4.285  1.6408  0.5608  0.6682
 3478SOL    HW222068   0.051   0.284   4.199  0.4452 -1.0160  0.1519
 3479SOL     OW22069   3.121   4.059   4.916  0.0788 -0.1774 -0.4221
 3479SOL    HW122070   3.076   3.991   4.865  0.6825 -1.9344  1.4211
 3479SOL    HW222071   3.206   4.063   4.871  2.3894 -1.0252  3.9397
 3480SOL     OW22072   1.438   0.993   7.028  0.0143 -0.3934  0.2727
 3480SOL    HW122073   1.531   1.015   7.025  0.7056 -3.2215  1.0587
 3480SOL    HW222074   1.425   0.945   7.110  2.1190 -1.8181 -0.2396
 3481SOL     OW22075   2.644   2.260   3.118  0.3365  0.2652  0.6224
 3481SOL    HW122076   2.738   2.259   3.136  0.3675  1.3227  0.5040
 3481SOL    HW222077   2.628   2.196   3.188  2.3512 -0.0067  0.8384
 3482SOL     OW22078   3.840   0.965   2.132  0.2109 -0.1787  0.6043
 3482SOL    HW122079   3.836   1.050   2.177 -0.6769 -0.1359  0.4461
 3482SOL    HW222080   3.792   0.916   2.198  2.5262  0.7886  3.0229
 3483SOL     OW22081   0.840   1.645  12.991 -0.0141 -0.2136  0.2127
 3483SOL    HW122082   0.891   1.724  13.010  0.9035 -0.7367 -0.0406
 3483SOL    HW222083   0.806   1.619  13.077  1.1585  0.0495  0.7534
 3484SOL     OW22084   0.294   2.179  14.798  0.1340  0.5791 -0.1316
 3484SOL    HW122085   0.251   2.141  14.875  1.4242 -0.2232  0.1875
 3484SOL    HW222086   0.211   2.204  14.758 -0.7112  0.3384  1.4554
 3485SOL     OW22087   0.437   1.361   0.338 -0.0089  0.5393 -0.2561
 3485SOL    HW122088   0.347   1.393   0.341 -0.4143 -0.7295  1.2039
 3485SOL    HW222089   0.471   1.443   0.303  1.1130  0.8284  1.5542
 3486SOL     OW22090   0.678   0.915   7.211  0.2034  0.5041  0.3689
 3486SOL    HW122091   0.681   0.929   7.116  0.3372 -0.3207  0.2530
 3486SOL    HW222092   0.594   0.870   7.223 -0.0629  1.0866  0.7295
 3487SOL     OW22093   0.758   1.589   2.032 -0.0406  0.3111 -0.0952
 3487SOL    HW122094   0.673   1.604   1.992  0.0585 -1.9626 -1.1993
 3487SOL    HW222095   0.791   1.678   2.043  0.0001  0.4388 -1.2362
 3488SOL     OW22096   0.877   4.268  10.853 -0.1963  0.3111 -0.2600
 3488SOL    HW122097   0.884   4.314  10.770  0.5642  0.6194 -0.0237
 3488SOL    HW222098   0.798   4.215  10.843  0.4223 -0.2500 -2.0795
 3489SOL     OW22099   2.362   1.450   2.426  0.3617 -0.0626 -0.2977
 3489SOL    HW122100   2.351   1.531   2.476 -2.4852 -1.3815  1.1926
 3489SOL    HW222101   2.443   1.472   2.378  0.2508  1.6050  0.2737
 3490SOL     OW22102   0.881   2.358   7.193  0.0913 -0.2826  0.4755
 3490SOL    HW122103   0.917   2.353   7.105  3.4401  2.1786  1.7016
 3490SOL    HW222104   0.786   2.365   7.180  0.0031  0.5422  1.5190
 3491SOL     OW22105   1.439   2.654   1.028  0.3238  0.1740 -0.7025
 3491SOL    HW122106   1.399   2.581   0.982 -0.0918  0.3697 -0.6465
 3491SOL    HW222107   1.411   2.731   0.979  1.2179  2.2211  1.9864
 3492SOL     OW22108   0.932   0.269  11.367 -0.7822 -0.0838 -0.5411
 3492SOL    HW122109   0.857   0.325  11.344 -1.3407  0.0160  1.5461
 3492SOL    HW222110   0.897   0.180  11.367 -1.1342  0.0532  0.6638
 3493SOL     OW22111   3.776   3.103   8.499 -0.6624  0.3535 -0.5907
 3493SOL    HW122112   3.788   3.034   8.433  0.0625  1.3019 -1.4520
 3493SOL    HW222113   3.682   3.105   8.515 -0.9264 -2.0928 -1.8711
 3494SOL     OW22114   3.197   3.152   4.056 -0.4216  0.1066  0.2362
 3494SOL    HW122115   3.286   3.152   4.022 -0.6741  1.6396 -0.4380
 3494SOL    HW222116   3.150   3.089   4.001 -0.1038  0.8305 -0.8557
 3495SOL     OW22117   4.712   2.760   3.445  0.0308  0.5035  0.6112
 3495SOL    HW122118   4.642   2.695   3.441  1.7565 -1.3401  0.3386
 3495SOL    HW222119   4.698   2.821   3.517  2.0625  1.5462  0.1302
 3496SOL     OW22120   1.637   1.177  14.765  0.1123  0.2637 -0.7316
 3496SOL    HW122121   1.644   1.085  14.790 -0.7343  0.7776  1.3639
 3496SOL    HW222122   1.624   1.219  14.850 -0.5972  0.6656 -1.0333
 3497SOL     OW22123   3.927   3.348   5.178 -0.5373 -0.0711 -0.9356
 3497SOL    HW122124   3.961   3.402   5.249  0.1944 -3.6144  1.4532
 3497SOL    HW222125   3.966   3.263   5.198  2.1575  1.1735 -0.9920
 3498SOL     OW22126   1.004   0.442   7.147  0.4293 -0.2550 -0.7942
 3498SOL    HW122127   1.058   0.392   7.209 -0.3894  0.1479  0.2397
 3498SOL    HW222128   0.945   0.490   7.205 -0.0333  0.2115 -1.6431
 3499SOL     OW22129   3.016   2.538   5.278 -0.5584  0.0153 -0.1097
 3499SOL    HW122130   3.034   2.612   5.336  1.0463  0.0232 -0.6035
 3499SOL    HW222131   2.966   2.482   5.337  0.5444 -0.0371  0.7845
 3500SOL     OW22132   3.112   4.436   3.439  0.3311  0.3413  0.2758
 3500SOL    HW122133   3.056   4.496   3.489  0.1980  1.9458 -1.7359
 3500SOL    HW222134   3.100   4.466   3.348 -1.7000 -2.2840 -0.3130
 3501SOL     OW22135   2.639   2.506   3.240  0.5589  0.1898 -0.9275
 3501SOL    HW122136   2.643   2.431   3.180 -2.9655 -1.3979  0.7673
 3501SOL    HW222137   2.570   2.561   3.204  0.2226 -0.0147 -0.5989
 3502SOL     OW22138   1.285   2.200  11.789 -0.6752 -0.6605 -0.3824
 3502SOL    HW122139   1.315   2.121  11.744  0.5387  0.4514 -1.5395
 3502SOL    HW222140   1.251   2.254  11.718 -1.0788 -0.2207  0.1446
 3503SOL     OW22141   0.850   2.993  11.269  0.1481  0.5816  0.1039
 3503SOL    HW122142   0.923   3.052  11.284 -0.5224  2.1534 -2.7082
 3503SOL    HW222143   0.823   2.972  11.359  1.3727  0.0891  0.3526
 3504SOL     OW22144   0.547   0.340  14.979  0.3267 -0.3027 -0.4460
 3504SOL    HW122145   0.596   0.287  15.041 -0.1956 -1.2178 -0.8194
 3504SOL    HW222146   0.566   0.293  14.898  0.4148  0.3336 -0.8021
 3505SOL     OW22147   2.071   1.179  11.277 -0.0714 -0.5390  0.4292
 3505SOL    HW122148   2.128   1.123  11.331 -0.5604  1.1628  2.7186
 3505SOL    HW222149   2.135   1.239  11.239  0.4619 -1.3221  0.0939
 3506SOL     OW22150   4.285   2.207  12.276 -0.2829  0.6492 -0.1871
 3506SOL    HW122151   4.281   2.193  12.181 -1.0532  0.6480 -0.1582
 3506SOL    HW222152   4.191   2.197  12.291 -0.4322  0.8610 -0.9583
 3507SOL     OW22153   2.252   3.151  12.601 -0.2518 -0.2227 -0.0450
 3507SOL    HW122154   2.172   3.198  12.624 -0.8413 -0.3058 -1.9709
 3507SOL    HW222155   2.272   3.198  12.520 -0.2045 -0.3713 -0.1197
 3508SOL     OW22156   3.595   4.000  11.686 -0.2323  0.0793 -0.3200
 3508SOL    HW122157   3.629   4.083  11.653  1.7291  0.4826  2.7253
 3508SOL    HW222158   3.520   4.035  11.734  0.4405  0.4999  0.4201
 3509SOL     OW22159   0.954   2.619   5.728 -0.0898 -0.5429 -0.0486
 3509SOL    HW122160   1.048   2.611   5.708 -0.1586 -0.6748 -0.3078
 3509SOL    HW222161   0.963   2.585   5.817  2.8253  1.3215  0.3990
 3510SOL     OW22162   0.782   4.698  15.650 -0.5455  0.3438  0.2575
 3510SOL    HW122163   0.846   4.705  15.579  3.6960  1.7753  4.2103
 3510SOL    HW222164   0.793   0.046  15.695 -1.4560  0.2099  0.7316
 3511SOL     OW22165   4.367   0.723   1.202  0.7185 -0.1449 -0.1151
 3511SOL    HW122166   4.317   0.642   1.207  0.1722  0.1603 -0.6444
 3511SOL    HW222167   4.297   0.775   1.163 -1.3138 -1.0012  2.3954
 3512SOL     OW22168   4.179   1.951  17.001  0.8863 -0.7006 -0.0370
 3512SOL    HW122169   4.094   1.973  16.961  2.3376  1.5353 -1.8559
 3512SOL    HW222170   4.242   2.003  16.952  0.6226 -0.7694 -0.4528
 3513SOL     OW22171   1.331   4.069  11.033 -0.0299 -0.5347  0.5846
 3513SOL    HW122172   1.256   4.065  11.093 -1.0265 -0.6480 -0.6568
 3513SOL    HW222173   1.364   3.980  11.039 -0.8315 -0.8696  0.0786
 3514SOL     OW22174   0.387   3.022  13.403  0.0634 -0.0730  0.2834
 3514SOL    HW122175   0.407   3.000  13.312  0.9931  0.4158  0.3746
 3514SOL    HW222176   0.301   2.979  13.406  1.0458 -2.1486 -1.0170
 3515SOL     OW22177   1.026   3.662  10.547 -0.2298 -0.3524  0.2215
 3515SOL    HW122178   1.016   3.583  10.599  0.0259 -0.7982 -0.4159
 3515SOL    HW222179   1.070   3.713  10.615  1.0823 -0.3589 -0.6276
 3516SOL     OW22180   1.548   0.781   8.198  0.2480  0.3381 -0.0103
 3516SOL    HW122181   1.548   0.852   8.135  1.1708  0.1319 -0.2429
 3516SOL    HW222182   1.457   0.776   8.227 -0.1918 -0.4199 -1.5365
 3517SOL     OW22183   0.936   4.443   5.948 -0.3416  0.1471  0.1235
 3517SOL    HW122184   0.908   4.368   5.894  1.1994  0.3933 -1.0214
 3517SOL    HW222185   0.911   4.406   6.033 -0.0332 -2.2446 -0.8053
 3518SOL     OW22186   2.465   3.961   2.878 -0.2052  0.0123  0.7451
 3518SOL    HW122187   2.440   4.019   2.950 -0.1325 -1.5407  2.0145
 3518SOL    HW222188   2.509   4.024   2.821 -0.1294  0.1558  0.9635
 3519SOL     OW22189   2.669   4.307  11.491 -0.2570  0.3365 -0.1164
 3519SOL    HW122190   2.663   4.211  11.495 -1.1399  0.3271 -1.4130
 3519SOL    HW222191   2.609   4.314  11.416 -0.3812  1.2434  0.0749
 3520SOL     OW22192   1.526   2.045  15.086  0.2092 -0.6127 -0.3716
 3520SOL    HW122193   1.563   1.981  15.146 -0.7933  0.8475  1.7720
 3520SOL    HW222194   1.443   2.046  15.133 -0.7958  0.1937 -2.1555
 3521SOL     OW22195   4.563   1.564   4.119 -0.0432 -0.4647 -0.4439
 3521SOL    HW122196   4.559   1.471   4.144  1.3186  0.4355  3.0622
 3521SOL    HW222197   4.647   1.584   4.159 -1.6058  1.2337  1.9776
 3522SOL     OW22198   2.588   4.620  11.070 -0.3575  0.2693  0.4653
 3522SOL    HW122199   2.545   4.667  10.998 -0.1901 -0.3324 -0.0234
 3522SOL    HW222200   2.558   4.669  11.146 -1.1173  0.4597  0.0412
 3523SOL     OW22201   1.496   1.590  17.483 -0.2650  0.1208 -0.0008
 3523SOL    HW122202   1.435   1.582  17.556  0.0420 -1.0824  0.1123
 3523SOL    HW222203   1.439   1.636  17.421 -0.0877  2.0646  1.2735
 3524SOL     OW22204   2.760   2.399  17.257  0.1059 -0.4055 -0.1909
 3524SOL    HW122205   2.778   2.383  17.350 -3.2042 -0.6168  0.4173
 3524SOL    HW222206   2.845   2.431  17.228  0.1911 -0.5689 -0.1259
 3525SOL     OW22207   2.488   0.541  15.372 -0.3880 -0.7754 -0.2774
 3525SOL    HW122208   2.546   0.542  15.296 -1.0258  0.8443 -0.7543
 3525SOL    HW222209   2.552   0.560  15.441 -1.9453  0.7877  0.7179
 3526SOL     OW22210   1.106   2.456   9.695 -0.0492 -0.5196  0.0692
 3526SOL    HW122211   1.133   2.509   9.620  1.0483 -1.1538  0.0115
 3526SOL    HW222212   1.189   2.420   9.727 -1.4464 -2.0478  1.9459
 3527SOL     OW22213   4.534   2.142   4.733 -0.6109 -0.5122 -0.1230
 3527SOL    HW122214   4.501   2.203   4.799 -0.9388 -1.3452  0.4753
 3527SOL    HW222215   4.603   2.192   4.689 -0.3819 -0.5112  0.2303
 3528SOL     OW22216   3.163   2.447   8.861  0.0133  0.3773  0.3977
 3528SOL    HW122217   3.101   2.519   8.845  1.1143  1.4100  0.7462
 3528SOL    HW222218   3.194   2.468   8.949 -4.3832  1.5786  1.6826
 3529SOL     OW22219   0.181   4.347  11.121  0.3245 -1.1397 -1.0522
 3529SOL    HW122220   0.217   4.365  11.208 -0.2924  0.9035 -1.2103
 3529SOL    HW222221   0.195   4.253  11.125  1.4182 -0.9241  0.1750
 3530SOL     OW22222   1.491   3.690  15.033  0.1416  0.0120  0.1833
 3530SOL    HW122223   1.486   3.724  15.123 -1.1542  0.5265 -0.0801
 3530SOL    HW222224   1.572   3.733  15.006 -0.8973  1.0729 -1.2215
 3531SOL     OW22225   1.902   2.734   8.492  0.3373  0.5150 -0.0459
 3531SOL    HW122226   1.992   2.726   8.460  0.9487  0.4125  1.7268
 3531SOL    HW222227   1.864   2.742   8.404  2.3681 -1.0512 -1.0517
 3532SOL     OW22228   3.591   4.591   1.524  0.4327 -0.3580 -0.0415
 3532SOL    HW122229   3.667   4.618   1.474 -0.4065 -0.4545 -1.3555
 3532SOL    HW222230   3.598   4.657   1.593  1.7066 -0.0073 -0.5079
 3533SOL     OW22231   2.547   1.917   5.612  0.0095 -0.2560 -0.4563
 3533SOL    HW122232   2.602   1.859   5.559 -0.0868 -1.7962  1.1271
 3533SOL    HW222233   2.548   1.864   5.692 -0.3061  2.0898  1.0869
 3534SOL     OW22234   0.857   3.395   2.213 -0.5105  0.1089 -0.2028
 3534SOL    HW122235   0.897   3.312   2.240 -0.8597  0.2864  0.8308
 3534SOL    HW222236   0.785   3.362   2.158 -1.1820  2.6344 -0.8054
 3535SOL     OW22237   1.494   1.037  15.108  0.6989  0.4586 -0.2327
 3535SOL    HW122238   1.462   1.125  15.089 -3.6062 -0.8195  1.1546
 3535SOL    HW222239   1.422   0.982  15.138  0.5140  1.4195  1.0961
 3536SOL     OW22240   3.146   1.894   6.030 -0.2853 -0.4001  0.1170
 3536SOL    HW122241   3.180   1.865   5.945  0.9103 -0.5476  0.6508
 3536SOL    HW222242   3.229   1.885   6.078 -0.0026  0.2175 -0.2557
 3537SOL     OW22243   3.665   4.011   4.166  0.4153 -0.0890 -0.0120
 3537SOL    HW122244   3.594   4.046   4.219  0.0246  2.0234 -1.9548
 3537SOL    HW222245   3.651   4.052   4.081  1.5945 -2.7438 -1.4798
 3538SOL     OW22246   0.094   2.851   6.803  0.5169  0.7673  0.4331
 3538SOL    HW122247   0.005   2.876   6.778  0.4514 -1.2548 -1.3165
 3538SOL    HW222248   0.137   2.888   6.725  0.9107 -0.6845 -0.0334
 3539SOL     OW22249   1.103   1.741  16.201  0.3050  0.3841  0.1754
 3539SOL    HW122250   1.150   1.709  16.124 -0.2924 -0.7423  0.2823
 3539SOL    HW222251   1.100   1.664  16.257 -1.9247 -2.1029 -3.3677
 3540SOL     OW22252   0.465   4.027   7.115 -0.7586  0.0244  0.1033
 3540SOL    HW122253   0.402   4.003   7.182 -0.9307 -0.9237 -0.3970
 3540SOL    HW222254   0.508   4.100   7.159 -2.9127  1.3505 -0.0165
 3541SOL     OW22255   4.069   0.958   1.864  0.4664 -0.0971 -0.1715
 3541SOL    HW122256   3.997   1.009   1.902  0.0066 -0.2188 -0.8793
 3541SOL    HW222257   4.034   0.958   1.775  0.1908 -0.1258 -0.0643
 3542SOL     OW22258   1.199   3.751   5.000  0.5108  0.1672  0.1130
 3542SOL    HW122259   1.127   3.812   4.988 -1.4575 -1.8783  1.4979
 3542SOL    HW222260   1.186   3.726   5.092  1.2111 -1.0879 -0.1224
 3543SOL     OW22261   2.479   0.389   5.756  0.3929 -1.2881 -0.2203
 3543SOL    HW122262   2.565   0.357   5.727  0.0956 -1.0923 -1.3363
 3543SOL    HW222263   2.462   0.457   5.690  0.3313 -1.2238 -0.1391
 3544SOL     OW22264   0.790   1.462   3.987  0.7494 -0.5410 -0.2535
 3544SOL    HW122265   0.833   1.390   4.032  0.4813  0.7726  2.0925
 3544SOL    HW222266   0.861   1.497   3.934 -0.2349  0.1735 -1.1188
 3545SOL     OW22267   0.854   4.230  10.504 -0.1540  0.0893 -0.2815
 3545SOL    HW122268   0.769   4.185  10.509 -1.4461  2.6642  1.1142
 3545SOL    HW222269   0.917   4.158  10.503  0.1601  0.3717 -0.6956
 3546SOL     OW22270   2.616   3.737   8.478  0.1426  0.1117 -0.2023
 3546SOL    HW122271   2.622   3.804   8.410 -2.4929 -0.5185 -1.0647
 3546SOL    HW222272   2.660   3.772   8.555  0.0468  1.8777 -0.9703
 3547SOL     OW22273   0.955   1.443   8.352 -0.2194 -0.0031  0.4085
 3547SOL    HW122274   0.943   1.527   8.397 -0.7765 -0.6074  1.4010
 3547SOL    HW222275   0.883   1.450   8.290 -1.1306  1.6140  1.6155
 3548SOL     OW22276   4.230   4.648  15.530  0.4434  0.1363 -0.1855
 3548SOL    HW122277   4.286   4.687  15.462  1.3090  1.7590  1.4596
 3548SOL    HW222278   4.249   4.706  15.603 -0.5334  2.3552 -1.6922
 3549SOL     OW22279   4.443   3.134  15.282 -0.4207 -0.0039  0.1535
 3549SOL    HW122280   4.512   3.082  15.241  1.6419  2.9176 -0.0339
 3549SOL    HW222281   4.489   3.217  15.284 -0.1059 -0.2919  4.1409
 3550SOL     OW22282   0.703   1.427   9.831  0.3889  0.0254  0.0100
 3550SOL    HW122283   0.737   1.497   9.885  2.4603  1.1600 -2.7623
 3550SOL    HW222284   0.633   1.480   9.792 -1.0472  0.1026  2.7049
 3551SOL     OW22285   0.405   4.436   3.062 -0.3359  0.6976  0.0619
 3551SOL    HW122286   0.374   4.430   2.972  1.3152  2.6805 -0.6399
 3551SOL    HW222287   0.397   4.530   3.072 -0.9025  0.8013 -1.4302
 3552SOL     OW22288   2.091   3.793   4.732 -0.1659 -0.0181 -0.6312
 3552SOL    HW122289   2.123   3.706   4.708 -1.0483 -0.0832 -1.5854
 3552SOL    HW222290   2.173   3.844   4.729 -1.2471  1.7447 -0.1415
 3553SOL     OW22291   3.361   0.633  12.280 -0.0098 -0.5667  0.0956
 3553SOL    HW122292   3.335   0.596  12.195  2.0776 -1.4545 -0.1734
 3553SOL    HW222293   3.275   0.626  12.320  1.1901  0.7001  2.8783
 3554SOL     OW22294   3.132   4.626   4.382 -0.2406  0.2845  0.1954
 3554SOL    HW122295   3.086   4.607   4.463  3.3721 -0.2488  2.1097
 3554SOL    HW222296   3.224   4.615   4.405 -0.3616 -0.6040  0.2465
 3555SOL     OW22297   0.096   2.118   0.986  0.7019 -0.0099  0.1458
 3555SOL    HW122298   0.176   2.066   0.984  0.9156  0.1554  3.4664
 3555SOL    HW222299   0.065   2.109   1.077  0.3849  1.1213  0.1510
 3556SOL     OW22300   0.111   1.404   6.051  0.2646 -0.4950 -0.0519
 3556SOL    HW122301   0.156   1.320   6.037 -0.3176 -1.1668  2.0611
 3556SOL    HW222302   0.184   1.462   6.073  1.8925 -3.1544  1.6268
 3557SOL     OW22303   2.792   0.376   9.079  0.1428 -0.7009  0.0041
 3557SOL    HW122304   2.777   0.358   8.986  0.0056  1.9565 -0.5024
 3557SOL    HW222305   2.883   0.353   9.094  0.4437 -0.2440 -1.1250
 3558SOL     OW22306   4.085   3.284   3.319 -0.1325 -0.1364 -0.4375
 3558SOL    HW122307   4.116   3.373   3.336 -0.9553  0.2459 -0.8988
 3558SOL    HW222308   4.146   3.247   3.254  0.8434 -2.1333  1.6484
 3559SOL     OW22309   2.275   0.762   1.912  0.9242  0.7719 -0.3911
 3559SOL    HW122310   2.358   0.810   1.912  0.8936  0.8217 -2.4475
 3559SOL    HW222311   2.215   0.825   1.951  0.5711 -0.5332  1.2005
 3560SOL     OW22312   0.260   2.360   1.026  0.1948  0.0687  0.2257
 3560SOL    HW122313   0.212   2.431   1.068 -1.9224 -1.2438  0.0133
 3560SOL    HW222314   0.192   2.296   1.007  1.8732 -2.0375  1.2525
 3561SOL     OW22315   3.660   1.314   7.866 -0.4707  0.0280  0.7036
 3561SOL    HW122316   3.711   1.351   7.794 -0.6583 -2.7703 -0.8753
 3561SOL    HW222317   3.645   1.388   7.924 -0.5736  2.5375 -2.4769
 3562SOL     OW22318   1.301   3.130   7.840  0.0273  0.1095  0.4980
 3562SOL    HW122319   1.267   3.195   7.902 -0.3364 -0.7253  1.1770
 3562SOL    HW222320   1.376   3.182   7.812 -1.9681  2.3779 -0.6682
 3563SOL     OW22321   0.078   4.684   6.600  0.1283  0.8605 -0.2529
 3563SOL    HW122322   4.723   4.662   6.580  0.2487  1.3823 -1.3528
 3563SOL    HW222323   0.092   0.026   6.546  0.3867  1.5237  0.7633
 3564SOL     OW22324   2.220   3.973   8.111 -0.2327  0.1507  0.1871
 3564SOL    HW122325   2.126   3.989   8.125 -0.4946 -2.6078  1.5298
 3564SOL    HW222326   2.251   3.981   8.201  0.8730  1.5554 -0.3236
 3565SOL     OW22327   0.252   1.212   5.861  0.2623  0.3113  0.4018
 3565SOL    HW122328   0.316   1.207   5.790  1.0559  0.8312  1.0717
 3565SOL    HW222329   0.291   1.152   5.925  2.4093  0.1172 -1.0890
 3566SOL     OW22330   1.100   1.249   2.202  0.2857  0.0374 -0.6805
 3566SOL    HW122331   1.174   1.269   2.259 -0.9882  0.2012  0.9044
 3566SOL    HW222332   1.107   1.328   2.148 -0.6765  1.8161  1.8378
 3567SOL     OW22333   4.633   3.224  14.703  0.4043 -0.3148  0.2801
 3567SOL    HW122334   4.587   3.144  14.676  0.9833 -1.0395  1.4644
 3567SOL    HW222335   4.602   3.234  14.792 -2.2909  1.0451 -0.8184
 3568SOL     OW22336   0.598   4.542  15.812  0.1978  0.4205 -0.1048
 3568SOL    HW122337   0.514   4.531  15.768  0.4974 -0.6302 -0.4133
 3568SOL    HW222338   0.654   4.588  15.749  2.0669 -0.6077  0.7948
 3569SOL     OW22339   4.421   2.637   5.766  0.1869 -0.1706 -0.3278
 3569SOL    HW122340   4.482   2.658   5.695  0.4464  1.4850  0.3788
 3569SOL    HW222341   4.476   2.671   5.836 -0.6604  0.1181  0.1933
 3570SOL     OW22342   0.373   3.809  10.073 -0.1685 -0.4035 -0.1865
 3570SOL    HW122343   0.327   3.851  10.001  0.0561  0.9787  0.4907
 3570SOL    HW222344   0.318   3.800  10.150 -0.1914  2.3296  0.0932
 3571SOL     OW22345   3.453   1.022  12.446  0.5538  0.2011 -0.0648
 3571SOL    HW122346   3.486   0.991  12.531 -1.3162 -0.0905  0.5559
 3571SOL    HW222347   3.525   1.080  12.421  0.1220  1.0330  0.6053
 3572SOL     OW22348   2.272   0.822   7.834  0.0195  0.1972  0.3508
 3572SOL    HW122349   2.299   0.903   7.877 -0.6999  0.7078 -0.1474
 3572SOL    HW222350   2.311   0.840   7.748  0.3701  0.4557  0.5682
 3573SOL     OW22351   2.841   4.684   6.585  0.0557  0.3345 -0.2064
 3573SOL    HW122352   2.795   4.725   6.659  0.7600  2.8837 -1.1948
 3573SOL    HW222353   2.892   0.026   6.564  1.1032  0.4550  2.7505
 3574SOL     OW22354   1.264   0.773   1.892  0.5913 -0.1976  0.0047
 3574SOL    HW122355   1.332   0.762   1.826  1.3874 -0.0054  0.7974
 3574SOL    HW222356   1.317   0.756   1.970 -0.5769  0.2416  0.8848
 3575SOL     OW22357   1.524   2.271   6.425  0.0400  0.0838 -0.4072
 3575SOL    HW122358   1.523   2.175   6.430 -0.8026  0.1895  1.6077
 3575SOL    HW222359   1.609   2.280   6.469  0.3218 -0.3779 -0.8606
 3576SOL     OW22360   4.013   1.888   0.957  0.1065 -0.2790 -0.5196
 3576SOL    HW122361   4.031   1.794   0.954  0.0167 -0.4383  3.7691
 3576SOL    HW222362   3.945   1.893   0.890 -1.2773 -0.1111  0.8945
 3577SOL     OW22363   0.133   0.165   5.009 -0.2497  0.6055 -0.0148
 3577SOL    HW122364   0.196   0.101   4.975 -2.9344 -0.5874 -2.7200
 3577SOL    HW222365   0.074   0.168   4.934 -1.6832  0.4476  1.1151
 3578SOL     OW22366   3.977   3.374   1.875  0.4920  0.2650  0.0803
 3578SOL    HW122367   3.911   3.306   1.870  0.4341  0.5233 -2.8803
 3578SOL    HW222368   4.005   3.391   1.784  0.6836  0.4418  0.1701
 3579SOL     OW22369   0.103   2.120   4.160 -0.2841  0.0134 -0.2724
 3579SOL    HW122370   0.057   2.039   4.180  1.4219 -0.9975 -0.4300
 3579SOL    HW222371   0.097   2.113   4.064 -1.3894 -2.0870 -0.0520
 3580SOL     OW22372   3.101   2.220   5.557  0.0057 -0.5560  0.2478
 3580SOL    HW122373   3.016   2.252   5.588  0.0965 -1.7509  1.7604
 3580SOL    HW222374   3.155   2.298   5.563  0.5227 -0.9078  0.1926
 3581SOL     OW22375   0.142   4.566   3.271 -0.2293 -0.7158  0.5345
 3581SOL    HW122376   0.205   4.632   3.240 -0.7771 -0.8255 -0.8280
 3581SOL    HW222377   0.075   4.630   3.295 -0.4902 -0.1627 -1.6804
 3582SOL     OW22378   2.534   2.575  10.756 -0.4188  0.5218  0.2481
 3582SOL    HW122379   2.579   2.592  10.838  1.2956 -1.8251 -0.2184
 3582SOL    HW222380   2.446   2.610  10.771 -1.6899 -2.7946  0.5380
 3583SOL     OW22381   0.049   3.604   8.636 -0.4940 -0.1413  0.1193
 3583SOL    HW122382   0.081   3.516   8.615 -0.7431  0.0224 -0.9372
 3583SOL    HW222383   0.017   3.589   8.725  1.4371 -0.8723  0.6880
 3584SOL     OW22384   1.021   2.829   6.735 -1.0381  0.4112  0.2975
 3584SOL    HW122385   1.017   2.878   6.653 -1.4333  0.0920  0.1296
 3584SOL    HW222386   0.945   2.772   6.734 -0.2404 -0.6806  2.1114
 3585SOL     OW22387   2.773   2.298   3.712 -0.0642  0.4532  0.0321
 3585SOL    HW122388   2.850   2.354   3.711  0.8235 -0.7242  1.6251
 3585SOL    HW222389   2.727   2.329   3.635 -2.0831  0.3719  1.1940
 3586SOL     OW22390   1.405   3.728   7.862  0.2390  0.3837  0.2512
 3586SOL    HW122391   1.324   3.737   7.914  0.3112  1.1236  0.2326
 3586SOL    HW222392   1.372   3.689   7.781  3.5041 -1.6093 -0.0946
 3587SOL     OW22393   3.338   0.519   9.477  0.1283  0.0541  0.1504
 3587SOL    HW122394   3.390   0.518   9.557 -2.7769 -0.0216  2.0656
 3587SOL    HW222395   3.383   0.443   9.441 -0.9073 -0.8546  0.7536
 3588SOL     OW22396   1.799   4.326  13.248 -0.2674  0.1758 -0.2789
 3588SOL    HW122397   1.856   4.255  13.277 -0.3332  0.3478  0.2569
 3588SOL    HW222398   1.797   4.321  13.152  1.9302 -1.4158 -0.2524
 3589SOL     OW22399   4.087   3.120   8.649  0.1292  0.1081 -0.2690
 3589SOL    HW122400   4.161   3.062   8.669 -1.2173 -1.7341 -0.6311
 3589SOL    HW222401   4.121   3.207   8.671  2.0704 -0.9560  0.9105
 3590SOL     OW22402   2.698   1.785  12.168 -0.6683  0.4502 -0.2777
 3590SOL    HW122403   2.754   1.741  12.105 -1.9623 -2.4822  0.6286
 3590SOL    HW222404   2.754   1.846  12.217 -3.9097  0.8981  2.8890
 3591SOL     OW22405   2.850   4.146  11.881  0.1868  0.0643  0.4564
 3591SOL    HW122406   2.907   4.112  11.950  1.4381  0.0994 -0.5690
 3591SOL    HW222407   2.911   4.193  11.825  2.7327 -0.8007  2.5108
 3592SOL     OW22408   1.507   4.461   7.374  0.2382 -0.5231  0.1197
 3592SOL    HW122409   1.539   4.382   7.416 -0.4764 -2.0972 -2.2867
 3592SOL    HW222410   1.591   4.501   7.351 -1.1141  1.2771 -1.7216
 3593SOL     OW22411   0.926   1.816   2.654  0.0973  0.2669  0.3779
 3593SOL    HW122412   0.906   1.828   2.747  2.0775  0.8978  0.7082
 3593SOL    HW222413   0.850   1.768   2.620  0.1440 -0.8276  1.8131
 3594SOL     OW22414   1.293   1.006   8.834 -0.3790 -0.2487  0.1762
 3594SOL    HW122415   1.381   0.969   8.844 -0.3202 -0.0035  0.5723
 3594SOL    HW222416   1.302   1.061   8.756 -0.4610 -2.5547 -1.4658
 3595SOL     OW22417   3.948   2.019  16.881 -0.2906  0.0726  0.2039
 3595SOL    HW122418   3.887   1.946  16.873  0.2293 -0.4154  0.6849
 3595SOL    HW222419   3.955   2.057  16.793 -2.5232  1.3130  0.5723
 3596SOL     OW22420   4.321   1.354   6.309 -0.3137  0.6577  0.1268
 3596SOL    HW122421   4.367   1.340   6.226 -1.5481  1.7958 -0.7409
 3596SOL    HW222422   4.355   1.442   6.328 -1.1957  1.4582 -1.9524
 3597SOL     OW22423   1.467   4.511  11.118  0.5083 -0.1123 -0.2714
 3597SOL    HW122424   1.415   4.522  11.039  1.2425  2.6693 -0.3721
 3597SOL    HW222425   1.419   4.442  11.164 -0.4413  1.3869  1.0010
 3598SOL     OW22426   4.086   2.964   4.857 -0.0655  0.0342  0.5443
 3598SOL    HW122427   4.156   2.934   4.800  0.4313  1.4605  0.3955
 3598SOL    HW222428   4.022   2.980   4.787  0.2669 -2.3339 -0.2884
 3599SOL     OW22429   2.585   3.578   9.122 -0.3521 -0.0820 -0.4405
 3599SOL    HW122430   2.646   3.628   9.068 -0.3089  0.4345  0.0879
 3599SOL    HW222431   2.650   3.516   9.157 -0.9720 -1.4898 -1.7855
 3600SOL     OW22432   0.570   3.175   6.645  0.2234  0.4560  0.3105
 3600SOL    HW122433   0.643   3.197   6.702 -1.3822 -1.3208  3.0035
 3600SOL    HW222434   0.514   3.253   6.642 -0.3101  0.0435 -0.5914
 3601SOL     OW22435   3.963   0.992  14.700  0.0806  0.2252 -0.1254
 3601SOL    HW122436   3.964   0.980  14.605  1.2644  1.6375 -0.2799
 3601SOL    HW222437   3.896   0.934  14.737  0.2897 -0.5392 -0.9230
 3602SOL     OW22438   0.255   2.743   8.993  0.4605  0.7716  0.1280
 3602SOL    HW122439   0.181   2.683   8.979  0.6233  0.7958 -0.8652
 3602SOL    HW222440   0.264   2.745   9.088  0.9494 -0.8565  0.1217
 3603SOL     OW22441   0.112   0.027   2.962 -0.0503  0.0499  1.1014
 3603SOL    HW122442   0.114   4.668   2.946 -0.2642 -0.0701  1.7860
 3603SOL    HW222443   0.020   0.049   2.951  0.3819  1.0185 -0.5529
 3604SOL     OW22444   0.294   2.209   3.741  0.2228 -0.2773 -0.0330
 3604SOL    HW122445   0.223   2.242   3.794 -0.0008  1.3240 -1.3468
 3604SOL    HW222446   0.370   2.216   3.799  0.7436 -1.4347 -0.5629
 3605SOL     OW22447   4.555   4.680  10.649  0.2258 -0.1267  0.4339
 3605SOL    HW122448   4.502   4.667  10.728 -1.1673 -3.4442 -1.0409
 3605SOL    HW222449   4.623   4.614  10.667  0.5878 -0.2547 -1.4134
 3606SOL     OW22450   3.942   2.201   8.660  0.4252  0.7349 -0.2781
 3606SOL    HW122451   3.861   2.150   8.663 -1.5586  3.7974 -1.3224
 3606SOL    HW222452   3.989   2.158   8.590  0.2914 -0.3163  0.2765
 3607SOL     OW22453   2.635   4.360   6.961 -0.2622 -0.6162  0.6877
 3607SOL    HW122454   2.678   4.287   7.005  0.8907 -0.9811 -1.0495
 3607SOL    HW222455   2.705   4.401   6.911 -0.6146 -0.3098  0.4412
 3608SOL     OW22456   0.492   1.298  10.906  0.1227  0.8570 -0.4062
 3608SOL    HW122457   0.532   1.221  10.865  0.4702  0.4702  0.6482
 3608SOL    HW222458   0.515   1.287  10.998  2.5694  0.2894 -1.0737
 3609SOL     OW22459   4.158   1.257  14.092 -0.0623 -0.5130 -0.0789
 3609SOL    HW122460   4.175   1.335  14.146 -1.1313  0.5024 -1.2130
 3609SOL    HW222461   4.135   1.193  14.160  0.3179 -0.5565  0.0086
 3610SOL     OW22462   0.379   2.384   2.234  0.8370  0.3160 -0.4914
 3610SOL    HW122463   0.314   2.410   2.299  2.0398 -1.2041  1.3182
 3610SOL    HW222464   0.437   2.460   2.230  0.1489  0.8573 -0.1845
 3611SOL     OW22465   2.226   1.485   6.558  0.2548  0.0402 -0.0222
 3611SOL    HW122466   2.318   1.483   6.530  0.0279 -1.6241 -0.6726
 3611SOL    HW222467   2.212   1.579   6.557  2.5820  0.3626 -3.0197
 3612SOL     OW22468   3.776   0.764   1.947  0.0320  0.2447 -0.0073
 3612SOL    HW122469   3.700   0.747   2.003 -0.4998  0.5511 -0.6402
 3612SOL    HW222470   3.818   0.828   2.005 -0.2888  0.2303  0.2426
 3613SOL     OW22471   4.001   4.664   5.460  0.3154 -0.4206  0.6708
 3613SOL    HW122472   4.024   4.600   5.392 -2.5700  0.0961 -0.8012
 3613SOL    HW222473   4.086   4.674   5.502  0.4709 -2.6564  0.8669
 3614SOL     OW22474   0.939   3.200   5.666  0.0168 -1.1302  0.1602
 3614SOL    HW122475   1.022   3.156   5.649  1.6556  2.4683 -1.0269
 3614SOL    HW222476   0.900   3.128   5.716 -1.0124  0.8159  2.1525
 3615SOL     OW22477   4.189   4.645  10.623 -0.4772 -0.1849 -0.0260
 3615SOL    HW122478   4.247   4.654  10.698 -2.0753  1.1383  1.0374
 3615SOL    HW222479   4.105   4.635  10.668 -0.0305 -0.6274  0.6966
 3616SOL     OW22480   0.817   2.961   4.108  0.2182  0.3704 -0.0550
 3616SOL    HW122481   0.784   3.015   4.180  1.7690  2.7742 -1.1555
 3616SOL    HW222482   0.794   3.022   4.038  1.4806 -0.1530 -0.9311
 3617SOL     OW22483   2.010   1.691   7.655 -0.0648 -0.1991 -0.0920
 3617SOL    HW122484   1.931   1.691   7.601 -1.8660  0.5286  2.5006
 3617SOL    HW222485   2.011   1.600   7.686  2.1240 -1.7098 -4.6692
 3618SOL     OW22486   3.451   3.861   9.228  0.0477 -0.0239 -0.1833
 3618SOL    HW122487   3.389   3.878   9.158 -0.9456 -0.6230  0.5502
 3618SOL    HW222488   3.400   3.785   9.257  0.3352  0.1675  0.8424
 3619SOL     OW22489   3.676   2.756   1.754 -0.2350  0.5485  0.0588
 3619SOL    HW122490   3.725   2.823   1.708 -0.6171  0.7277 -0.0869
 3619SOL    HW222491   3.740   2.686   1.746 -2.3011 -1.3456 -0.1606
 3620SOL     OW22492   0.622   0.796   0.724 -0.2728  0.3044 -0.5123
 3620SOL    HW122493   0.686   0.765   0.660 -2.1982 -0.3916 -2.1158
 3620SOL    HW222494   0.599   0.715   0.770 -2.4378  0.9867 -0.3939
 3621SOL     OW22495   0.765   3.914   4.917  0.1686 -0.4319  0.4246
 3621SOL    HW122496   0.722   3.974   4.979  0.6167  0.3792 -0.0506
 3621SOL    HW222497   0.856   3.941   4.927  0.0828 -0.1827  0.5390
 3622SOL     OW22498   1.629   2.308   5.259  0.5935 -0.4324 -0.1724
 3622SOL    HW122499   1.549   2.358   5.244 -1.2820 -2.7398  2.1775
 3622SOL    HW222500   1.698   2.375   5.268  0.6116 -0.4821  0.0601
 3623SOL     OW22501   2.293   2.942   7.422  0.1107 -0.0721 -0.0411
 3623SOL    HW122502   2.334   2.891   7.491  1.4106 -0.1024 -0.8389
 3623SOL    HW222503   2.203   2.932   7.453  0.1704 -2.1547 -0.5398
 3624SOL     OW22504   1.303   1.903  16.504 -0.1954  0.0466 -0.1755
 3624SOL    HW122505   1.264   1.823  16.540  2.2964 -0.6850  0.9280
 3624SOL    HW222506   1.396   1.890  16.521 -0.0486  1.3643  0.0778
 3625SOL     OW22507   4.124   2.909   1.146 -0.8181 -0.5521 -0.2591
 3625SOL    HW122508   4.058   2.972   1.175  0.1454 -0.4783  1.7459
 3625SOL    HW222509   4.077   2.827   1.128 -2.0247 -0.3122  1.8731
 3626SOL     OW22510   0.080   3.153   5.678  0.4918 -0.2549  0.0022
 3626SOL    HW122511   0.112   3.192   5.597 -2.7693 -0.2825 -1.3249
 3626SOL    HW222512   0.020   3.222   5.706  0.1597 -1.1785  1.6188
 3627SOL     OW22513   2.100   2.471   5.391 -0.0551 -0.7026  0.2559
 3627SOL    HW122514   2.166   2.418   5.436  2.6230  3.0972  0.8829
 3627SOL    HW222515   2.157   2.540   5.356 -0.4596  0.5117  1.9889
 3628SOL     OW22516   1.084   3.742   3.036 -0.4373  0.0942  0.5062
 3628SOL    HW122517   1.142   3.787   2.975 -0.4718  2.3131  2.1257
 3628SOL    HW222518   1.136   3.663   3.048  1.7056  1.4463 -0.0720
 3629SOL     OW22519   3.133   1.217   1.046  0.5071  0.1626 -0.1636
 3629SOL    HW122520   3.120   1.168   1.127  1.4090 -2.3142 -1.4861
 3629SOL    HW222521   3.067   1.169   0.995  0.0473  0.1575  0.4373
 3630SOL     OW22522   2.414   0.724   8.375 -0.1994 -0.5498 -0.5946
 3630SOL    HW122523   2.450   0.707   8.288 -3.1974 -1.8056 -1.6111
 3630SOL    HW222524   2.342   0.663   8.392 -1.3600  0.8003 -0.7154
 3631SOL     OW22525   4.088   4.166  12.265  0.1223  0.8780  0.0798
 3631SOL    HW122526   4.090   4.255  12.230  1.5546  1.5164  1.8179
 3631SOL    HW222527   4.009   4.144  12.216 -0.8701 -1.6104  2.8409
 3632SOL     OW22528   0.809   1.933  14.383  0.0595 -0.2856  0.4006
 3632SOL    HW122529   0.752   2.006  14.404  2.5899  1.6164  0.7287
 3632SOL    HW222530   0.778   1.920  14.294 -1.1500 -1.0966  0.9452
 3633SOL     OW22531   3.419   2.893   3.369 -0.0740  0.2677  0.1539
 3633SOL    HW122532   3.486   2.830   3.342 -0.3651 -0.2166  0.5644
 3633SOL    HW222533   3.368   2.889   3.288 -0.8859 -1.9674  0.7619
 3634SOL     OW22534   0.461   0.873  16.597 -0.0438 -0.5422 -0.2114
 3634SOL    HW122535   0.449   0.848  16.506 -0.8872  0.0757 -0.2642
 3634SOL    HW222536   0.475   0.967  16.587 -0.1077 -0.6209 -1.0066
 3635SOL     OW22537   1.271   2.217   2.323  0.2909 -0.0860 -0.7107
 3635SOL    HW122538   1.342   2.228   2.386  2.0162 -3.1661 -2.1297
 3635SOL    HW222539   1.262   2.123   2.337 -2.5564 -0.0072 -1.9337
 3636SOL     OW22540   0.959   4.217   8.192  0.0039  0.2547  0.3751
 3636SOL    HW122541   0.923   4.305   8.198 -0.6534 -0.0939  1.4629
 3636SOL    HW222542   0.925   4.177   8.272  1.9035  1.0078  1.5534
 3637SOL     OW22543   4.611   0.655   7.976 -0.0063 -0.5761  0.3480
 3637SOL    HW122544   4.631   0.636   8.068 -1.3566  0.9263  0.9379
 3637SOL    HW222545   4.521   0.623   7.970 -0.2507 -0.1380  1.6557
 3638SOL     OW22546   3.380   4.312   0.546  0.4808  0.2200 -0.1195
 3638SOL    HW122547   3.385   4.220   0.571  1.7549 -0.2290 -2.0098
 3638SOL    HW222548   3.432   4.356   0.612  1.0290 -0.4517 -0.0981
 3639SOL     OW22549   0.304   4.607   5.636  1.0716  0.0185  0.3998
 3639SOL    HW122550   0.294   4.679   5.574  3.2554 -0.5563 -0.6032
 3639SOL    HW222551   0.395   4.619   5.662  0.3718  0.0148  2.8924
 3640SOL     OW22552   0.339   0.658  12.768  0.3404 -0.4902 -0.3230
 3640SOL    HW122553   0.311   0.568  12.787 -1.8065  0.0706 -0.8625
 3640SOL    HW222554   0.307   0.669  12.678 -1.7824 -0.4746  0.4429
 3641SOL     OW22555   1.149   2.682   8.753 -0.0347  0.1201 -0.3933
 3641SOL    HW122556   1.094   2.627   8.696  2.1817 -2.1722 -0.3093
 3641SOL    HW222557   1.221   2.625   8.779  0.2263 -0.1697 -1.7485
 3642SOL     OW22558   3.632   4.146  11.068 -0.1812  0.0221 -0.3490
 3642SOL    HW122559   3.672   4.222  11.026  0.0242 -0.1625 -0.4903
 3642SOL    HW222560   3.646   4.168  11.160 -0.0104  1.0335 -0.6217
 3643SOL     OW22561   0.717   2.464   5.278 -0.1232 -0.1771  0.2558
 3643SOL    HW122562   0.702   2.465   5.183  0.4976 -1.2431  0.1539
 3643SOL    HW222563   0.701   2.556   5.302  0.2923 -0.0680  0.1164
 3644SOL     OW22564   1.103   2.054   0.921  0.3663  0.3448  0.5542
 3644SOL    HW122565   1.150   2.115   0.979 -0.7700 -0.0641  1.9136
 3644SOL    HW222566   1.088   1.983   0.983 -0.3309 -0.4802 -0.5788
 3645SOL     OW22567   4.111   1.163   2.807 -0.4934  0.1588  0.7440
 3645SOL    HW122568   4.190   1.183   2.857  0.2201 -0.2393 -0.2199
 3645SOL    HW222569   4.149   1.144   2.721 -1.1329  0.1649  0.4580
 3646SOL     OW22570   3.750   0.767  14.524 -0.1875 -0.3417 -0.0114
 3646SOL    HW122571   3.663   0.739  14.493  0.1001  1.8393 -2.7932
 3646SOL    HW222572   3.761   0.843  14.467 -1.4297  0.5307  0.9169
 3647SOL     OW22573   3.335   3.749   5.630 -0.3059 -0.3142 -0.5949
 3647SOL    HW122574   3.341   3.812   5.701 -0.0038  2.2514 -2.9128
 3647SOL    HW222575   3.384   3.794   5.561  1.2361  1.1652  1.5185
 3648SOL     OW22576   3.451   1.321   8.061 -0.2454  0.2224 -0.2635
 3648SOL    HW122577   3.487   1.285   7.980  2.0166  1.4099  0.2223
 3648SOL    HW222578   3.521   1.300   8.123 -2.0054  0.0152  1.6480
 3649SOL     OW22579   4.685   3.221  15.370  0.2475  0.2809  0.3728
 3649SOL    HW122580   4.729   3.195  15.288 -0.0992 -0.6328  0.4792
 3649SOL    HW222581   4.660   3.137  15.408  0.6412 -0.2021 -0.4306
 3650SOL     OW22582   4.603   1.522   6.798  0.5018  0.0809  0.5917
 3650SOL    HW122583   4.530   1.460   6.801  0.8780 -0.4698 -2.1067
 3650SOL    HW222584   4.597   1.567   6.883  0.6861  2.0562 -0.4353
 3651SOL     OW22585   3.858   3.667   1.887  0.1258  0.0289 -0.5414
 3651SOL    HW122586   3.844   3.679   1.793 -1.2192  0.3347 -0.3013
 3651SOL    HW222587   3.842   3.574   1.902  0.0495 -0.0978 -1.3699
 3652SOL     OW22588   2.215   3.449   1.657 -0.3712  0.6501 -0.2147
 3652SOL    HW122589   2.156   3.456   1.732 -0.3642  0.0547 -0.1460
 3652SOL    HW222590   2.271   3.382   1.698 -1.0261 -0.2723 -0.8461
 3653SOL     OW22591   3.415   1.217   7.304  0.1001 -1.1506  0.1425
 3653SOL    HW122592   3.441   1.247   7.391 -0.2385  2.0773 -0.8613
 3653SOL    HW222593   3.495   1.195   7.256  0.6654 -1.1618  1.0980
 3654SOL     OW22594   4.539   3.032  11.623 -0.3457  0.0728  0.2026
 3654SOL    HW122595   4.462   3.055  11.570  0.0889 -0.9650 -0.8827
 3654SOL    HW222596   4.527   2.937  11.630 -0.8259  0.0956 -0.3199
 3655SOL     OW22597   3.127   4.601   0.790 -0.2614 -0.6957  0.2994
 3655SOL    HW122598   3.163   4.540   0.854  1.0110 -0.3896 -0.1184
 3655SOL    HW222599   3.198   4.665   0.794 -0.7338 -0.2613  1.5334
 3656SOL     OW22600   4.100   4.396   0.172  0.1979 -0.2409 -0.7576
 3656SOL    HW122601   4.122   4.487   0.192  1.6340 -0.5615 -0.9396
 3656SOL    HW222602   4.166   4.351   0.223  1.6478  1.6499 -0.9752
 3657SOL     OW22603   2.653   0.985   2.192 -0.6818 -0.8781  0.1205
 3657SOL    HW122604   2.618   0.951   2.274  0.9577 -1.9924  0.3563
 3657SOL    HW222605   2.667   1.075   2.222  0.0676 -1.1047  0.4609
 3658SOL     OW22606   1.615   3.275   9.367 -0.0874  0.7825 -0.1357
 3658SOL    HW122607   1.594   3.281   9.274 -1.3190 -0.0563  0.0815
 3658SOL    HW222608   1.631   3.365   9.397 -2.5951  1.3331 -0.3851
 3659SOL     OW22609   3.455   2.273   4.518  0.0447 -0.2002  0.3260
 3659SOL    HW122610   3.487   2.244   4.604  0.5230 -1.2214 -0.2031
 3659SOL    HW222611   3.361   2.261   4.524 -0.0171 -0.1632 -0.5934
 3660SOL     OW22612   0.671   3.852   7.135  0.6168  0.0910  0.7879
 3660SOL    HW122613   0.603   3.913   7.106 -1.2879 -1.6372  1.6001
 3660SOL    HW222614   0.747   3.908   7.119  1.2526 -1.1484 -0.5756
 3661SOL     OW22615   1.203   4.568   3.896  0.2432 -0.0255 -0.2552
 3661SOL    HW122616   1.261   4.612   3.957  0.4548  0.7992 -1.0467
 3661SOL    HW222617   1.217   4.628   3.823  0.6785 -1.6886 -1.5534
 3662SOL     OW22618   2.129   2.302   3.919  0.4207 -0.2376 -0.3574
 3662SOL    HW122619   2.106   2.376   3.863 -0.3201 -1.3796 -1.5761
 3662SOL    HW222620   2.080   2.229   3.880 -3.4294  1.5790  1.1833
 3663SOL     OW22621   2.196   2.838   3.940  0.9992  0.0423 -0.1095
 3663SOL    HW122622   2.119   2.820   3.994  0.6946 -1.1798 -0.9403
 3663SOL    HW222623   2.225   2.747   3.930  0.3303 -0.0991 -0.7669
 3664SOL     OW22624   4.446   0.490   2.477 -0.6760 -0.0722 -0.3340
 3664SOL    HW122625   4.365   0.537   2.458  0.2503  1.0603 -1.4733
 3664SOL    HW222626   4.488   0.469   2.393  0.7392  2.3407 -0.2365
 3665SOL     OW22627   3.491   1.829   1.834 -0.5508  0.4942  0.4524
 3665SOL    HW122628   3.488   1.733   1.831 -0.9604  0.5097  0.3443
 3665SOL    HW222629   3.510   1.852   1.925  1.7575  0.2152  0.0534
 3666SOL     OW22630   3.670   1.390   1.025  0.1760  0.1030 -0.4839
 3666SOL    HW122631   3.606   1.329   0.988  0.5853  0.9128 -2.5043
 3666SOL    HW222632   3.704   1.431   0.946 -1.1062 -1.3071 -1.7783
 3667SOL     OW22633   3.482   0.542   8.865 -0.2012  0.5318 -0.1986
 3667SOL    HW122634   3.456   0.489   8.789 -2.0895  1.2138 -0.0439
 3667SOL    HW222635   3.410   0.527   8.927  0.0894  1.1151  0.2731
 3668SOL     OW22636   0.232   3.261  16.874  0.8237  0.3874 -0.0430
 3668SOL    HW122637   0.281   3.229  16.949 -2.5890 -0.0127  2.0344
 3668SOL    HW222638   0.242   3.353  16.898  3.3723 -0.1602  0.9587
 3669SOL     OW22639   1.773   0.332   2.732 -0.4609  0.4614  0.0790
 3669SOL    HW122640   1.841   0.333   2.664 -1.9259  0.1384 -1.4115
 3669SOL    HW222641   1.817   0.279   2.799 -0.2460  0.4947 -0.0360
 3670SOL     OW22642   1.660   3.172   7.039  0.4278  0.1559 -0.4416
 3670SOL    HW122643   1.592   3.136   6.981 -0.2494 -1.4895  1.3579
 3670SOL    HW222644   1.727   3.174   6.972 -0.2070 -0.0824 -1.0865
 3671SOL     OW22645   4.700   1.300   7.257  0.1380  0.6492  0.2918
 3671SOL    HW122646   4.659   1.266   7.177  1.9469  0.9230 -0.7830
 3671SOL    HW222647   4.720   1.221   7.307 -0.8878  0.4691  0.3995
 3672SOL     OW22648   4.063   0.045  16.158 -0.0808 -0.0345  0.2298
 3672SOL    HW122649   4.086   0.113  16.095  0.7162  0.3273  0.9075
 3672SOL    HW222650   3.980   0.075  16.194  0.8696  2.3144  0.4184
 3673SOL     OW22651   3.704   3.448   2.000 -0.6591 -0.1283 -0.4345
 3673SOL    HW122652   3.713   3.375   2.062  2.3068 -0.0922 -0.8290
 3673SOL    HW222653   3.625   3.490   2.034  0.5400  1.9518 -0.2435
 3674SOL     OW22654   4.172   2.503   4.288 -0.4465 -0.7783 -0.4660
 3674SOL    HW122655   4.256   2.487   4.246  0.6633 -2.4649  2.3974
 3674SOL    HW222656   4.139   2.581   4.243 -1.9125 -1.5448 -0.7317
 3675SOL     OW22657   1.619   1.159   6.304 -0.1357  0.4490 -1.0439
 3675SOL    HW122658   1.613   1.157   6.208  2.0146 -0.3876 -1.1702
 3675SOL    HW222659   1.667   1.236   6.335  2.0889 -1.4258  0.1199
 3676SOL     OW22660   0.302   2.306   8.128 -0.5886 -0.3532  0.0915
 3676SOL    HW122661   0.230   2.248   8.152  0.0214 -1.0660  0.2279
 3676SOL    HW222662   0.263   2.391   8.143  0.3778  0.5015 -2.1523
 3677SOL     OW22663   1.807   3.342   4.258  0.3280 -0.5059 -0.4131
 3677SOL    HW122664   1.725   3.335   4.307  0.4374  0.7696 -0.0516
 3677SOL    HW222665   1.867   3.353   4.332 -2.1738 -1.1447  1.7314
 3678SOL     OW22666   4.348   3.035  15.511  0.2104  0.4049 -0.1614
 3678SOL    HW122667   4.258   3.024  15.479  0.6395  1.4530 -1.6812
 3678SOL    HW222668   4.397   3.064  15.435  1.9174 -0.2201  0.6975
 3679SOL     OW22669   4.258   1.464   7.483  0.4652  0.5033  0.5479
 3679SOL    HW122670   4.339   1.415   7.494  0.7437  1.0058  0.7414
 3679SOL    HW222671   4.271   1.542   7.538 -0.8222 -0.0116  1.5791
 3680SOL     OW22672   3.340   2.099   0.290  0.1751  0.8246 -0.1164
 3680SOL    HW122673   3.325   2.026   0.349 -1.8393  1.4851  0.2189
 3680SOL    HW222674   3.434   2.090   0.279  0.4346  1.4292  1.7029
 3681SOL     OW22675   4.064   3.738   3.105  0.1269 -0.3314  0.1569
 3681SOL    HW122676   4.145   3.687   3.111  1.1843  1.3077 -0.2648
 3681SOL    HW222677   4.103   3.817   3.067 -1.0147  0.1570 -0.0059
 3682SOL     OW22678   3.241   3.524   2.178  0.6486 -0.4807  0.4081
 3682SOL    HW122679   3.294   3.596   2.146  0.3066  0.1326  1.2341
 3682SOL    HW222680   3.311   3.461   2.197  1.8907  1.0236  0.7862
 3683SOL     OW22681   3.097   3.851   6.856  0.1335  0.4576 -0.6207
 3683SOL    HW122682   3.156   3.915   6.895  0.8127 -0.1036 -0.7482
 3683SOL    HW222683   3.117   3.870   6.765 -0.8824 -0.0047 -0.9380
 3684SOL     OW22684   1.929   0.418   3.940  0.0012  0.6549  0.2228
 3684SOL    HW122685   1.865   0.352   3.968 -1.1541  0.1066 -3.7838
 3684SOL    HW222686   1.978   0.425   4.022 -1.9353  3.2696  1.1751
 3685SOL     OW22687   1.388   4.507  10.628  0.1880 -0.6707  0.1343
 3685SOL    HW122688   1.354   4.426  10.589 -0.0467  0.7289 -2.6220
 3685SOL    HW222689   1.349   4.571  10.569  0.5444  1.0341  1.7730
 3686SOL     OW22690   3.217   1.026  11.064  0.0847 -0.7398  0.4784
 3686SOL    HW122691   3.171   0.977  10.996 -1.3991 -1.2448  1.8340
 3686SOL    HW222692   3.266   0.955  11.106 -0.7518 -1.3326  0.4754
 3687SOL     OW22693   2.326   2.067  10.055  0.0302 -0.1386 -0.0709
 3687SOL    HW122694   2.258   2.070  10.122 -2.1098 -2.3028 -2.1486
 3687SOL    HW222695   2.405   2.054  10.108 -0.3344  0.9145  0.7444
 3688SOL     OW22696   2.957   2.395   4.638  0.1246  0.1233  0.2421
 3688SOL    HW122697   2.922   2.437   4.717  1.6545  0.6105  0.6653
 3688SOL    HW222698   2.933   2.465   4.578 -1.3053 -1.7233 -1.3145
 3689SOL     OW22699   2.231   0.462  15.406  0.0411 -0.7790  0.3221
 3689SOL    HW122700   2.201   0.552  15.398 -0.5537 -1.1743 -1.7598
 3689SOL    HW222701   2.320   0.467  15.372  0.0787 -0.8558  0.4089
 3690SOL     OW22702   3.940   1.523  14.959  0.4417  0.0891 -0.1363
 3690SOL    HW122703   3.942   1.535  15.054  1.4855 -1.2405 -0.0037
 3690SOL    HW222704   3.848   1.546  14.947  0.3749  0.0138  0.2171
 3691SOL     OW22705   3.070   1.374   9.450 -0.1574  0.3253 -0.0413
 3691SOL    HW122706   3.121   1.452   9.430 -2.1220  1.6598  0.2623
 3691SOL    HW222707   2.998   1.398   9.508  0.4018  2.3723 -0.2207
 3692SOL     OW22708   4.726   4.295   5.381  0.3539 -0.2417  0.0295
 3692SOL    HW122709   4.654   4.341   5.424 -0.4841 -0.5818 -0.9953
 3692SOL    HW222710   0.069   4.331   5.421 -0.0181 -0.3209  0.8232
 3693SOL     OW22711   2.806   1.983  12.955  0.5259 -0.2023  0.4309
 3693SOL    HW122712   2.740   2.044  12.921  0.2452 -0.9859 -0.3953
 3693SOL    HW222713   2.814   2.025  13.041  0.0371  1.8431 -0.5201
 3694SOL     OW22714   4.137   1.565   7.249 -0.1662  0.5564 -0.0267
 3694SOL    HW122715   4.059   1.608   7.284 -0.5669 -0.5771  0.4599
 3694SOL    HW222716   4.171   1.512   7.321 -0.2815  0.8741  0.2601
 3695SOL     OW22717   4.147   0.790   2.078 -0.0118  0.1783  0.5812
 3695SOL    HW122718   4.095   0.816   2.154  0.2332  2.1925  0.0582
 3695SOL    HW222719   4.115   0.853   2.013  0.2293  1.6442  1.8640
 3696SOL     OW22720   4.449   1.569   3.605  0.3169  0.1753 -0.7357
 3696SOL    HW122721   4.450   1.478   3.577 -0.2696 -0.0956  0.0959
 3696SOL    HW222722   4.534   1.611   3.596  0.7383 -0.2522  1.3415
 3697SOL     OW22723   0.147   4.261   8.961 -0.1962 -0.4249  0.8196
 3697SOL    HW122724   0.141   4.173   8.998  0.4065  0.0531  2.0427
 3697SOL    HW222725   0.115   4.254   8.871  0.9430  1.8906  0.2341
 3698SOL     OW22726   1.103   3.131  10.515  0.0767  0.3587 -0.0051
 3698SOL    HW122727   1.172   3.184  10.555 -1.1721 -1.3468  4.3834
 3698SOL    HW222728   1.094   3.185  10.436 -1.2165 -0.6876 -0.5701
 3699SOL     OW22729   1.832   3.476   4.790 -0.5926 -0.2620 -0.8365
 3699SOL    HW122730   1.782   3.472   4.872 -0.3977  0.8046 -0.6726
 3699SOL    HW222731   1.788   3.554   4.756  0.7381  1.3113  1.0934
 3700SOL     OW22732   1.645   2.543   8.223 -0.3492 -0.3738  0.0137
 3700SOL    HW122733   1.740   2.539   8.218 -0.5164  0.5863 -4.2272
 3700SOL    HW222734   1.626   2.523   8.131 -0.7556  2.0290 -0.4485
 3701SOL     OW22735   1.478   1.242  10.060  0.2015  0.1088 -0.2174
 3701SOL    HW122736   1.385   1.229  10.043  0.4570  0.3462 -1.7192
 3701SOL    HW222737   1.518   1.255   9.974 -0.6938  0.6189 -0.5498
 3702SOL     OW22738   0.514   2.500   8.993  0.3529  0.1203 -0.1337
 3702SOL    HW122739   0.526   2.413   9.031  2.1891  0.5892  0.3910
 3702SOL    HW222740   0.560   2.568   9.042  0.9259  1.0537 -1.9714
 3703SOL     OW22741   0.573   2.351   2.017 -0.0769 -0.4987 -0.3247
 3703SOL    HW122742   0.493   2.379   2.063 -0.7716 -2.4560 -0.3345
 3703SOL    HW222743   0.525   2.301   1.951 -0.0396  0.3043 -0.9663
 3704SOL     OW22744   3.628   4.700   1.794  0.0129 -0.6606  0.3373
 3704SOL    HW122745   3.588   0.051   1.787  0.0329 -0.4603  2.9408
 3704SOL    HW222746   3.586   4.659   1.869 -1.5767 -1.2346 -0.8555
 3705SOL     OW22747   1.130   1.962   6.130 -0.1096  0.5960  0.1748
 3705SOL    HW122748   1.221   1.990   6.124 -0.6067  2.1305 -0.1087
 3705SOL    HW222749   1.088   2.044   6.106 -2.3050 -0.1447  1.4988
 3706SOL     OW22750   3.193   3.437   0.390 -0.3693  0.2029  0.8161
 3706SOL    HW122751   3.194   3.530   0.368  2.1690  0.3583  1.5058
 3706SOL    HW222752   3.243   3.403   0.316 -1.2444 -0.3103  0.4593
 3707SOL     OW22753   1.070   3.645   5.818  0.0731  0.2921 -0.8968
 3707SOL    HW122754   1.000   3.585   5.842  0.4288 -0.0182 -0.6413
 3707SOL    HW222755   1.150   3.609   5.856 -1.2680 -2.0264 -0.2789
 3708SOL     OW22756   4.445   4.333   8.877  0.4263 -0.6890  0.4670
 3708SOL    HW122757   4.466   4.304   8.966  2.9862  0.5121  0.2580
 3708SOL    HW222758   4.513   4.287   8.829 -1.0221 -1.7241 -0.6131
 3709SOL     OW22759   3.075   3.468   6.962 -0.1209 -0.0238 -0.6446
 3709SOL    HW122760   3.022   3.470   6.882 -2.9880  1.6157  1.2712
 3709SOL    HW222761   3.145   3.405   6.945  0.4736 -0.9726  5.5745
 3710SOL     OW22762   0.443   4.719  10.488 -0.1344  0.3675  0.3396
 3710SOL    HW122763   0.535   4.733  10.510  0.3542  0.1778 -1.5352
 3710SOL    HW222764   0.458   4.642  10.433 -0.6694  0.5364 -0.0433
 3711SOL     OW22765   1.258   0.301  14.965  0.3399 -0.1929 -0.0438
 3711SOL    HW122766   1.211   0.222  14.939  1.2523 -0.2299 -1.5467
 3711SOL    HW222767   1.308   0.260  15.035 -0.5408  1.2918  1.4809
 3712SOL     OW22768   2.427   3.625   4.782  0.1388  0.7149  0.1857
 3712SOL    HW122769   2.473   3.655   4.704 -3.2805  0.1825 -2.0526
 3712SOL    HW222770   2.358   3.574   4.741  0.0288  0.9457  0.0853
 3713SOL     OW22771   3.836   3.569  10.407 -0.3799 -0.0156  0.6929
 3713SOL    HW122772   3.900   3.587  10.338 -1.3026 -1.5877 -0.5798
 3713SOL    HW222773   3.856   3.481  10.439  2.9261  1.3841  2.4624
 3714SOL     OW22774   1.101   1.202   4.571 -0.1215 -0.8690  0.2917
 3714SOL    HW122775   1.113   1.150   4.650  0.0068  1.2741  1.6747
 3714SOL    HW222776   1.155   1.279   4.587 -1.4391 -0.4079  2.5352
 3715SOL     OW22777   0.799   1.124  12.074  0.0735  0.4382 -0.5262
 3715SOL    HW122778   0.747   1.067  12.017 -1.4399  0.2481  1.0483
 3715SOL    HW222779   0.785   1.210  12.034 -1.9911  0.1242 -0.4804
 3716SOL     OW22780   0.213   3.043   9.591 -0.1122  0.4465 -0.2703
 3716SOL    HW122781   0.303   3.075   9.580 -0.1063  0.0169 -1.3980
 3716SOL    HW222782   0.202   3.035   9.686 -2.7435  2.9606 -0.3704
 3717SOL     OW22783   1.733   2.809  14.044  0.5559  0.1615  0.9912
 3717SOL    HW122784   1.647   2.812  14.084  0.1891 -1.9060  0.3275
 3717SOL    HW222785   1.714   2.846  13.957 -0.0582 -2.1531  0.1472
 3718SOL     OW22786   3.833   2.397  17.631  0.1010 -0.7135 -0.0322
 3718SOL    HW122787   3.791   2.313  17.649  1.2971 -1.2513  0.2277
 3718SOL    HW222788   3.837   2.390  17.535 -0.1092  1.6828 -0.2208
 3719SOL     OW22789   2.314   4.616   4.859 -0.5653 -0.2838 -0.1418
 3719SOL    HW122790   2.345   4.706   4.864 -1.0710 -0.1028 -0.3216
 3719SOL    HW222791   2.324   4.606   4.764  0.5631  1.8379 -0.2487
 3720SOL     OW22792   0.245   1.227  13.087 -0.1516  0.0092  0.0141
 3720SOL    HW122793   0.174   1.208  13.025 -0.4081 -0.4932  0.4693
 3720SOL    HW222794   0.263   1.315  13.052  1.7535 -0.6378 -0.6506
 3721SOL     OW22795   0.087   0.503   9.754  0.2190 -0.2543 -0.7547
 3721SOL    HW122796   0.119   0.454   9.678  0.7605  2.6092 -2.3857
 3721SOL    HW222797   4.729   0.486   9.765  0.5131 -0.3680  1.5724
 3722SOL     OW22798   3.732   1.481   9.991  0.3221 -0.1268 -0.0890
 3722SOL    HW122799   3.821   1.486  10.023  0.3398  3.1016 -0.5391
 3722SOL    HW222800   3.690   1.560  10.027  0.1435 -1.2885  2.1849
 3723SOL     OW22801   0.008   3.028   7.574 -0.5776  0.5882  0.1386
 3723SOL    HW122802   4.681   3.051   7.643 -0.3875  1.0607  0.1591
 3723SOL    HW222803   0.026   3.115   7.537 -3.7656 -0.2478 -3.4246
 3724SOL     OW22804   1.461   1.261   8.394  0.1173 -0.1845  0.1618
 3724SOL    HW122805   1.376   1.276   8.353  0.1852  0.0063  0.0956
 3724SOL    HW222806   1.433   1.228   8.480 -0.7778  0.3001  0.0534
 3725SOL     OW22807   0.603   0.697   6.349 -0.4162 -0.6677  0.2369
 3725SOL    HW122808   0.518   0.724   6.384  0.4603  1.9834  0.3498
 3725SOL    HW222809   0.587   0.709   6.255 -0.0045 -2.1606 -0.0113
 3726SOL     OW22810   3.849   2.818   5.849 -0.3069  0.3500  0.0625
 3726SOL    HW122811   3.824   2.749   5.910  3.9984 -1.3731 -0.0923
 3726SOL    HW222812   3.869   2.773   5.766 -0.9184  1.7082 -0.8153
 3727SOL     OW22813   4.551   4.598   8.856 -0.1132 -0.1618  0.1523
 3727SOL    HW122814   4.511   4.512   8.848  0.1734 -0.3334  0.5670
 3727SOL    HW222815   4.606   4.610   8.778 -0.2638 -0.5974 -0.0206
 3728SOL     OW22816   1.239   3.703   2.655 -0.2596 -0.0192  0.1961
 3728SOL    HW122817   1.279   3.743   2.579  1.1955 -0.0557  0.9466
 3728SOL    HW222818   1.277   3.616   2.661 -0.0320  0.1620  1.6027
 3729SOL     OW22819   0.754   2.225   2.925 -0.1555  0.1383  0.2511
 3729SOL    HW122820   0.850   2.225   2.931 -0.0933  1.0328 -0.5509
 3729SOL    HW222821   0.727   2.317   2.921 -1.6937 -0.3443 -0.7244
 3730SOL     OW22822   3.116   0.669   9.184 -0.1147  0.3835  0.2764
 3730SOL    HW122823   3.028   0.706   9.183 -0.2155  0.1958  3.1826
 3730SOL    HW222824   3.162   0.741   9.142  1.8911 -1.1096 -0.0863
 3731SOL     OW22825   4.009   4.593   2.478  0.2043 -0.2859  0.4423
 3731SOL    HW122826   3.930   4.543   2.456  0.1591 -0.0314  0.0142
 3731SOL    HW222827   4.082   4.544   2.440 -0.7794 -0.8220 -0.7756
 3732SOL     OW22828   3.088   3.571   0.099  0.4364  0.3764 -0.6321
 3732SOL    HW122829   3.113   3.642   0.158  0.6250  0.6551 -1.0487
 3732SOL    HW222830   3.172   3.527   0.085 -0.2361 -0.8374 -0.8151
 3733SOL     OW22831   0.324   1.243  16.410  0.0316 -1.3553 -0.3581
 3733SOL    HW122832   0.307   1.306  16.340 -2.4189 -1.6778 -0.0672
 3733SOL    HW222833   0.398   1.291  16.448  0.3572 -1.4656 -0.8615
 3734SOL     OW22834   3.954   3.318  12.159  0.1608  0.6181 -0.2958
 3734SOL    HW122835   3.942   3.348  12.069  2.0995 -0.0133 -0.7671
 3734SOL    HW222836   4.027   3.367  12.198  0.4662 -0.6796  0.7565
 3735SOL     OW22837   3.026   4.245   3.912  0.7420 -0.2339 -0.1144
 3735SOL    HW122838   2.992   4.246   4.002 -2.4289 -0.3157 -1.3091
 3735SOL    HW222839   2.949   4.216   3.863  0.6876 -0.5617  0.1651
 3736SOL     OW22840   3.298   1.710   3.945 -0.1795 -0.5322  0.2217
 3736SOL    HW122841   3.373   1.658   3.916  1.3150  1.2899  0.9038
 3736SOL    HW222842   3.315   1.708   4.039  0.4040 -1.5987  0.0987
 3737SOL     OW22843   4.693   4.477  10.729 -0.1357  0.0775 -0.4877
 3737SOL    HW122844   0.021   4.484  10.799  0.3142 -0.7173 -0.8059
 3737SOL    HW222845   4.724   4.405  10.674  2.2006 -0.0285  0.9893
 3738SOL     OW22846   1.432   0.816  14.881  0.3561  0.0898 -0.0111
 3738SOL    HW122847   1.522   0.842  14.862 -1.4537  2.0858 -5.5936
 3738SOL    HW222848   1.415   0.838  14.973  2.2971  1.4811  0.0062
 3739SOL     OW22849   0.852   0.692   8.825 -0.1262 -0.0292  0.2306
 3739SOL    HW122850   0.802   0.773   8.819  0.3490  0.4752  2.8984
 3739SOL    HW222851   0.939   0.724   8.800 -1.3015  4.3896  1.6549
 3740SOL     OW22852   4.054   3.177   5.412 -0.8531  0.4160  0.4782
 3740SOL    HW122853   4.092   3.193   5.498  2.0262 -0.7810 -0.5573
 3740SOL    HW222854   4.115   3.112   5.377 -0.2121  2.3262 -1.9179
 3741SOL     OW22855   1.524   2.256   5.992 -0.2190 -0.2539  0.6107
 3741SOL    HW122856   1.502   2.333   6.045  2.7075  0.6153  0.5866
 3741SOL    HW222857   1.568   2.307   5.925 -1.4430 -0.4145 -0.3106
 3742SOL     OW22858   2.680   4.568  16.522 -0.2416 -0.3880 -0.6818
 3742SOL    HW122859   2.616   4.614  16.575  1.5673  1.9058 -0.4705
 3742SOL    HW222860   2.696   4.486  16.569 -1.7566  0.4446  1.2667
 3743SOL     OW22861   4.118   4.248   4.957 -0.4427  0.2612 -0.9601
 3743SOL    HW122862   4.117   4.160   4.921 -2.4770 -0.1426  0.0946
 3743SOL    HW222863   4.204   4.279   4.929 -0.2603  2.0871  1.6418
 3744SOL     OW22864   1.851   1.468   5.167  0.2571 -0.1142 -0.8068
 3744SOL    HW122865   1.796   1.467   5.089  1.6027  0.3073 -1.7739
 3744SOL    HW222866   1.829   1.541   5.225 -2.8158 -1.2810 -0.4993
 3745SOL     OW22867   4.108   0.551   5.595 -0.7079 -0.0592  0.8587
 3745SOL    HW122868   4.127   0.631   5.545 -1.0036  0.2537  1.2464
 3745SOL    HW222869   4.029   0.575   5.644 -1.3475 -1.1244  0.3466
 3746SOL     OW22870   3.956   3.109  14.075 -0.1430  0.6249 -0.3175
 3746SOL    HW122871   3.929   3.138  13.988  0.0533  2.4092  0.2323
 3746SOL    HW222872   3.933   3.016  14.075  3.8580 -0.3449 -0.5936
 3747SOL     OW22873   0.844   1.871   2.899 -0.2153  0.0615  0.2027
 3747SOL    HW122874   0.917   1.918   2.939 -0.6193  0.1464  0.8449
 3747SOL    HW222875   0.788   1.868   2.977  2.2825  1.0656  2.0084
 3748SOL     OW22876   0.239   4.200   9.948 -0.1423 -0.4101 -0.2330
 3748SOL    HW122877   0.150   4.235   9.948  0.7591  1.8058  2.1125
 3748SOL    HW222878   0.211   4.112   9.921 -3.1421  1.1381 -2.2689
 3749SOL     OW22879   4.268   4.150   8.567 -0.0687 -0.5853 -0.4788
 3749SOL    HW122880   4.323   4.084   8.524 -1.0791 -1.2994 -0.6795
 3749SOL    HW222881   4.234   4.098   8.640 -0.1286  0.5417  0.2880
 3750SOL     OW22882   1.952   3.210   3.625 -0.0026  0.1656  0.3512
 3750SOL    HW122883   2.019   3.233   3.689  0.3156 -0.6843  0.3218
 3750SOL    HW222884   1.995   3.245   3.546  1.7375  0.4932  1.4460
 3751SOL     OW22885   1.102   1.176   4.055 -0.2086 -0.0388  0.6692
 3751SOL    HW122886   1.150   1.216   4.127 -0.0168  2.1739 -0.6949
 3751SOL    HW222887   1.078   1.097   4.103 -0.0744 -0.2831  0.3356
 3752SOL     OW22888   2.070   0.219   2.174 -0.4701  0.0027 -0.2860
 3752SOL    HW122889   2.123   0.283   2.221 -0.8116  0.6244 -0.7631
 3752SOL    HW222890   1.987   0.231   2.222  0.4320 -3.3170  2.1295
 3753SOL     OW22891   1.224   0.835   4.964  0.1996 -0.1960  0.2553
 3753SOL    HW122892   1.211   0.803   5.054 -0.0956 -0.0139  0.2740
 3753SOL    HW222893   1.304   0.783   4.951 -0.0687 -0.4789 -0.2656
 3754SOL     OW22894   0.052   2.597  10.408  0.1918 -0.2979 -0.5389
 3754SOL    HW122895   4.725   2.663  10.379  1.8925  1.1479 -0.9336
 3754SOL    HW222896   4.728   2.554  10.470  0.4782 -0.5094 -0.4119
 3755SOL     OW22897   0.951   3.819   6.713  0.3953  0.0593  0.3725
 3755SOL    HW122898   0.984   3.812   6.803 -0.0829  0.8050  0.6116
 3755SOL    HW222899   1.013   3.772   6.659  0.7272  0.2238  0.6110
 3756SOL     OW22900   2.234   4.067   6.326 -0.5932  0.6712  0.5169
 3756SOL    HW122901   2.317   4.046   6.368 -1.2551 -0.4438  1.2608
 3756SOL    HW222902   2.195   4.143   6.370 -0.5583  2.1681 -2.0068
 3757SOL     OW22903   0.959   3.497   9.205 -0.1826  0.8412 -0.0967
 3757SOL    HW122904   1.036   3.443   9.223  0.5436  1.5734 -1.0164
 3757SOL    HW222905   0.984   3.540   9.123  1.3242  0.5654  0.2257
 3758SOL     OW22906   1.626   4.613   1.571 -0.2248  0.0777 -0.4831
 3758SOL    HW122907   1.562   4.547   1.597 -1.7510  1.1946 -1.4631
 3758SOL    HW222908   1.661   4.568   1.494  2.6223  1.5119 -0.0375
 3759SOL     OW22909   2.890   4.425   2.104  1.0582  0.1607  1.0584
 3759SOL    HW122910   2.831   4.437   2.029  1.2070  2.5535  1.3465
 3759SOL    HW222911   2.948   4.500   2.090  1.5629 -0.4188  0.0389
 3760SOL     OW22912   3.248   4.475  10.136 -0.2861 -0.3543 -0.0571
 3760SOL    HW122913   3.160   4.504  10.115 -0.6206 -0.3369  1.3404
 3760SOL    HW222914   3.284   4.470  10.048 -0.2993 -0.4364 -0.0574
 3761SOL     OW22915   4.285   2.812   4.520  0.1148  0.4191  0.1929
 3761SOL    HW122916   4.333   2.804   4.437 -1.2884 -0.6342 -0.5206
 3761SOL    HW222917   4.335   2.766   4.587 -1.7900 -0.0251  1.3157
 3762SOL     OW22918   0.972   3.167   8.596 -0.6183  0.1107  0.0799
 3762SOL    HW122919   0.882   3.135   8.603 -0.6135 -0.0494 -0.5470
 3762SOL    HW222920   1.016   3.105   8.654  0.9060 -0.8750 -2.1249
 3763SOL     OW22921   2.069   1.751  11.518  0.2116  0.1106 -0.1457
 3763SOL    HW122922   2.069   1.755  11.613 -2.6032 -0.2202 -0.1266
 3763SOL    HW222923   1.974   1.752  11.504  0.0759  1.0355  0.8926
 3764SOL     OW22924   2.099   2.874   0.868 -0.2536 -0.3525 -0.1007
 3764SOL    HW122925   2.152   2.950   0.843 -0.0437 -0.9451 -1.4615
 3764SOL    HW222926   2.022   2.916   0.907  0.9299  2.5535 -0.9186
 3765SOL     OW22927   2.416   0.187  12.729  0.3202  0.5454 -0.1701
 3765SOL    HW122928   2.324   0.201  12.753  0.4691  1.1840  0.0376
 3765SOL    HW222929   2.425   0.099  12.765  2.2775  0.7701 -0.1145
 3766SOL     OW22930   1.799   0.740   1.048  0.0311 -0.8159  0.3524
 3766SOL    HW122931   1.860   0.667   1.036 -1.9201 -2.6336  1.5550
 3766SOL    HW222932   1.848   0.813   1.010 -0.3477 -0.8580 -0.2236
 3767SOL     OW22933   0.309   4.641   4.909 -0.3637 -0.1214 -0.1031
 3767SOL    HW122934   0.230   4.588   4.923 -0.0897 -1.0626 -2.0647
 3767SOL    HW222935   0.327   4.623   4.816  1.2795 -1.4620  0.4622
 3768SOL     OW22936   1.753   2.742   3.744 -0.0854 -0.2163 -0.0309
 3768SOL    HW122937   1.772   2.817   3.801 -0.6862 -0.9762  1.1790
 3768SOL    HW222938   1.836   2.712   3.706  0.2020  1.3251 -0.6158
 3769SOL     OW22939   3.261   2.125   6.438 -0.7268 -0.4058  0.5500
 3769SOL    HW122940   3.300   2.053   6.488 -2.7759 -0.4013  2.1810
 3769SOL    HW222941   3.168   2.124   6.463 -1.0339 -0.4414 -0.5962
 3770SOL     OW22942   1.079   2.749   9.244 -0.6094  0.6098  0.5375
 3770SOL    HW122943   1.104   2.840   9.228  0.8712  0.2126  0.6560
 3770SOL    HW222944   0.996   2.731   9.199 -0.8975  1.3525  0.7716
 3771SOL     OW22945   1.577   0.106   8.995  0.4157  0.1644  0.5775
 3771SOL    HW122946   1.584   0.119   9.090  0.0699  1.0626  0.4773
 3771SOL    HW222947   1.495   0.058   8.981 -0.0694  0.6211  1.8099
 3772SOL     OW22948   0.022   0.885  12.862 -0.3442 -0.1122  0.3075
 3772SOL    HW122949   4.672   0.899  12.822 -1.2158 -2.0507  1.4629
 3772SOL    HW222950   0.009   0.918  12.951 -0.5462  0.8608 -0.0867
 3773SOL     OW22951   0.725   4.194  14.875  0.6527  0.1599 -0.2620
 3773SOL    HW122952   0.780   4.163  14.946 -0.0871 -0.9081 -0.1583
 3773SOL    HW222953   0.783   4.199  14.799  0.2785  1.4398 -0.4619
 3774SOL     OW22954   2.818   0.231   4.022 -0.0051  0.1087  0.0507
 3774SOL    HW122955   2.911   0.222   4.001  0.1956  1.1296  0.4911
 3774SOL    HW222956   2.809   0.190   4.108 -1.4051 -1.3704 -0.8060
 3775SOL     OW22957   3.235   0.493   8.990 -0.0092 -0.0561 -0.3093
 3775SOL    HW122958   3.188   0.530   8.915 -0.3604  0.7497  0.2935
 3775SOL    HW222959   3.185   0.533   9.062  0.7494  2.9723 -1.4447
 3776SOL     OW22960   1.021   3.167   6.015 -0.6877 -0.0312  0.2997
 3776SOL    HW122961   1.049   3.115   6.090  1.7812  0.4352 -0.2923
 3776SOL    HW222962   0.971   3.105   5.964 -1.0341  0.3227  0.2098
 3777SOL     OW22963   3.069   4.580   3.887  0.7168 -0.2449 -0.2026
 3777SOL    HW122964   3.141   4.601   3.946  1.3407 -1.3266 -0.5790
 3777SOL    HW222965   2.999   4.562   3.950 -0.0157  0.7760 -0.7272
 3778SOL     OW22966   1.252   2.898   2.182 -0.1258 -0.0543  0.5576
 3778SOL    HW122967   1.328   2.879   2.127 -2.5270 -0.8170 -2.4596
 3778SOL    HW222968   1.275   2.982   2.221  0.8084  1.0851 -2.4452
 3779SOL     OW22969   4.029   3.534   2.226 -0.0474 -0.0950 -1.0438
 3779SOL    HW122970   3.939   3.546   2.255  0.0681  1.2230 -1.2230
 3779SOL    HW222971   4.039   3.438   2.229  0.5532  0.0414  1.1602
 3780SOL     OW22972   1.146   0.313   5.675 -0.4120 -0.1039  0.9001
 3780SOL    HW122973   1.222   0.361   5.707 -1.1223  2.4322 -1.2468
 3780SOL    HW222974   1.177   0.273   5.593  2.2046  0.5779  1.5512
 3781SOL     OW22975   2.947   3.062   7.988 -0.7057  0.0886 -0.0641
 3781SOL    HW122976   3.002   2.999   8.034 -0.4754 -0.6278 -1.3255
 3781SOL    HW222977   2.863   3.023   8.010 -0.9496  0.4716 -0.3267
 3782SOL     OW22978   1.593   3.243   9.104 -0.1801 -0.1960 -0.2673
 3782SOL    HW122979   1.567   3.151   9.111  0.9549 -0.2838  2.4295
 3782SOL    HW222980   1.596   3.260   9.009  1.4193 -0.1240 -0.2056
 3783SOL     OW22981   4.570   2.712   7.535 -0.5518 -1.0393 -0.2808
 3783SOL    HW122982   4.501   2.702   7.469 -0.3854  1.6181 -0.8467
 3783SOL    HW222983   4.652   2.690   7.491  0.4842 -1.9824  2.1464
 3784SOL     OW22984   1.298   3.832   3.259  0.3638  0.1840  0.0003
 3784SOL    HW122985   1.320   3.925   3.254  0.5940  0.0979 -0.5657
 3784SOL    HW222986   1.289   3.815   3.165 -1.5021 -1.1420  0.4128
 3785SOL     OW22987   3.875   1.253   0.258  0.4482 -0.6179  0.1754
 3785SOL    HW122988   3.961   1.277   0.225  1.0763 -0.2216  2.0849
 3785SOL    HW222989   3.887   1.246   0.352  1.5209  0.2255  0.0968
 3786SOL     OW22990   1.935   2.553   4.334 -0.4888  0.2399 -0.2008
 3786SOL    HW122991   1.944   2.458   4.321 -1.0234  0.3292 -1.2057
 3786SOL    HW222992   1.996   2.576   4.404  1.8472 -1.9398 -1.4848
 3787SOL     OW22993   4.483   1.173  15.842 -0.6015 -0.3683 -0.1459
 3787SOL    HW122994   4.461   1.234  15.771  1.9097  0.4709 -0.2296
 3787SOL    HW222995   4.398   1.151  15.880  0.6474 -2.7479  1.2578
 3788SOL     OW22996   3.619   0.465   7.312 -0.2937  0.4908  0.4203
 3788SOL    HW122997   3.594   0.492   7.400 -1.4636  0.2391  0.1547
 3788SOL    HW222998   3.541   0.430   7.269  1.0436 -0.5742 -1.1543
 3789SOL     OW22999   3.882   3.043   2.583  0.5070 -0.1524 -0.0335
 3789SOL    HW123000   3.819   3.078   2.520  0.1142  0.7706  0.8768
 3789SOL    HW223001   3.844   2.955   2.581 -0.3608  0.2610 -2.1956
 3790SOL     OW23002   1.089   2.025   1.469 -0.1806  0.3298 -0.0346
 3790SOL    HW123003   1.019   2.006   1.532  0.2058 -1.5392 -0.1597
 3790SOL    HW223004   1.087   1.947   1.413  2.1075 -1.2758  2.1164
 3791SOL     OW23005   3.239   0.624   0.725  0.4433  0.0136  0.4607
 3791SOL    HW123006   3.299   0.683   0.771  0.5394 -0.2909  0.7227
 3791SOL    HW223007   3.293   0.554   0.687 -0.3064 -1.5397  2.2857
 3792SOL     OW23008   2.245   2.591   7.378 -0.4657  0.1733  0.6840
 3792SOL    HW123009   2.275   2.653   7.311 -1.3046 -0.5645 -0.3843
 3792SOL    HW223010   2.163   2.631   7.408  0.4738  1.5887  1.3897
 3793SOL     OW23011   2.237   2.411  12.509 -0.1227  0.3972  0.1905
 3793SOL    HW123012   2.241   2.506  12.523  2.4218  0.5914 -1.9292
 3793SOL    HW223013   2.328   2.388  12.490  0.6444  0.6980  3.4874
 3794SOL     OW23014   1.377   1.719   8.477 -0.1825  0.3022 -0.0470
 3794SOL    HW123015   1.451   1.665   8.452  1.0399  2.2502 -0.6267
 3794SOL    HW223016   1.374   1.707   8.572  2.0712 -1.1798 -0.1692
 3795SOL     OW23017   3.941   2.794   5.029  0.1012  0.6707  0.6736
 3795SOL    HW123018   3.979   2.861   4.973  0.9925 -1.8727 -1.7626
 3795SOL    HW223019   3.879   2.749   4.972  1.1915  1.1461 -0.8775
 3796SOL     OW23020   4.112   0.395   0.271  0.0249 -0.1448 -0.1888
 3796SOL    HW123021   4.198   0.396   0.230 -0.8119 -0.3353 -1.9558
 3796SOL    HW223022   4.059   0.332   0.222 -1.0084 -0.8273  1.8365
 3797SOL     OW23023   4.488   1.338  17.558  0.1679 -0.1907  0.1169
 3797SOL    HW123024   4.566   1.365  17.510 -1.7846 -0.5973 -3.3226
 3797SOL    HW223025   4.504   1.251  17.594  0.0306 -1.6293 -3.2720
 3798SOL     OW23026   3.345   1.918   9.022 -0.2255  0.2287  0.7926
 3798SOL    HW123027   3.276   1.926   9.088 -0.9494 -1.4155  0.2560
 3798SOL    HW223028   3.414   1.972   9.059 -0.7157  2.3877 -1.4365
 3799SOL     OW23029   1.125   3.867   1.945  0.0435 -0.4903  0.2169
 3799SOL    HW123030   1.029   3.860   1.942  0.0451 -0.5770  0.3615
 3799SOL    HW223031   1.146   3.954   1.912 -1.0041 -1.2296 -2.4334
 3800SOL     OW23032   0.450   0.165   4.675 -0.2902 -0.0319 -0.4688
 3800SOL    HW123033   0.517   0.098   4.662  1.2853  1.3748  0.3424
 3800SOL    HW223034   0.365   0.122   4.681 -0.0596 -0.3939  0.2327
 3801SOL     OW23035   1.553   0.535  12.356 -0.9560 -0.3885  0.1020
 3801SOL    HW123036   1.564   0.618  12.310 -4.1772  0.1538  0.2567
 3801SOL    HW223037   1.484   0.556  12.418 -0.5507 -1.7222  1.0054
 3802SOL     OW23038   4.641   0.739   5.168  0.4707 -0.6722  0.0503
 3802SOL    HW123039   4.567   0.797   5.149 -0.4911 -1.8994  0.0934
 3802SOL    HW223040   4.626   0.668   5.106  1.9751  1.2575 -2.5459
 3803SOL     OW23041   4.538   3.753   4.137  0.4875 -0.1920  0.2163
 3803SOL    HW123042   4.503   3.720   4.054 -0.4574 -0.4567  0.7180
 3803SOL    HW223043   4.474   3.712   4.195  0.4539 -3.0973 -1.8788
 3804SOL     OW23044   2.119   1.057   7.461 -0.1926  0.1090  0.2623
 3804SOL    HW123045   2.128   1.109   7.381 -0.0456 -0.7406 -0.2725
 3804SOL    HW223046   2.165   1.111   7.525 -1.7276 -0.0601  1.5177
 3805SOL     OW23047   1.039   3.261  10.286  0.2047  0.2989  0.1159
 3805SOL    HW123048   1.090   3.251  10.205 -0.1854 -2.7849  0.2753
 3805SOL    HW223049   1.022   3.355  10.272 -1.0495  0.2797  1.5547
 3806SOL     OW23050   4.640   2.671   3.156 -0.0297 -0.3911 -0.1900
 3806SOL    HW123051   4.642   2.723   3.236  0.6681 -0.4327 -0.1811
 3806SOL    HW223052   4.731   2.641   3.154 -0.3266 -1.2408 -0.9473
 3807SOL     OW23053   4.426   0.922   6.333 -0.5179  0.1377 -0.1886
 3807SOL    HW123054   4.435   0.963   6.247  2.2724  2.6748  1.2781
 3807SOL    HW223055   4.335   0.939   6.356 -0.9233 -0.3179 -1.4899
 3808SOL     OW23056   4.244   1.937  17.261  0.6315  0.0003 -0.2509
 3808SOL    HW123057   4.230   1.842  17.264 -0.5843  0.2056  0.4916
 3808SOL    HW223058   4.199   1.957  17.179 -3.5896 -2.9007  1.3286
 3809SOL     OW23059   1.978   2.277   6.613 -0.6318  0.5304  0.1412
 3809SOL    HW123060   1.936   2.225   6.683 -1.5916  0.4253 -0.5116
 3809SOL    HW223061   1.943   2.363   6.635  1.3500  1.4569 -0.3874
 3810SOL     OW23062   1.891   3.848  13.340  0.9528 -0.2503  0.0845
 3810SOL    HW123063   1.888   3.873  13.248 -1.1385 -1.8316 -0.2779
 3810SOL    HW223064   1.882   3.934  13.379 -0.6260 -0.4694  0.2125
 3811SOL     OW23065   0.382   2.210   3.358  0.4388 -0.0188  0.0974
 3811SOL    HW123066   0.438   2.151   3.408 -0.4008  1.0613  2.3474
 3811SOL    HW223067   0.377   2.169   3.272 -0.2182  2.2455 -0.9419
 3812SOL     OW23068   3.359   3.979   4.796 -0.4793  0.4353  0.1969
 3812SOL    HW123069   3.444   3.945   4.768 -0.9198 -1.5631  1.2900
 3812SOL    HW223070   3.294   3.922   4.756 -0.4576  0.0929  0.6508
 3813SOL     OW23071   1.753   2.828   1.519 -0.3570 -0.2254 -0.0238
 3813SOL    HW123072   1.805   2.792   1.447  0.2583 -0.5613  0.5839
 3813SOL    HW223073   1.791   2.915   1.527  1.1789 -0.8012 -1.1040
 3814SOL     OW23074   0.576   2.541   9.927  0.2148  0.1157 -0.1090
 3814SOL    HW123075   0.518   2.490   9.871 -1.7609  1.1046  1.0417
 3814SOL    HW223076   0.554   2.517  10.017 -0.1761  1.7615  0.2418
 3815SOL     OW23077   0.706   0.357   8.761 -0.6297 -0.0689  0.1280
 3815SOL    HW123078   0.708   0.330   8.669 -1.0161  2.9038 -0.7752
 3815SOL    HW223079   0.612   0.362   8.781 -0.8894 -0.0100 -1.0853
 3816SOL     OW23080   0.353   3.927  10.943  0.2843 -0.0520  0.1634
 3816SOL    HW123081   0.433   3.916  10.995  1.4064 -0.0678 -1.5800
 3816SOL    HW223082   0.382   3.987  10.875  0.7649  0.8082  1.1251
 3817SOL     OW23083   1.636   4.628  17.489  0.3736 -0.1396  0.2483
 3817SOL    HW123084   1.688   4.694  17.444 -1.8398  1.8627  0.6432
 3817SOL    HW223085   1.557   4.611  17.438  1.0903 -1.6239 -0.3964
 3818SOL     OW23086   4.438   3.440   5.743 -0.3041 -0.5340  0.3468
 3818SOL    HW123087   4.415   3.508   5.807 -1.3201 -0.1780 -0.3993
 3818SOL    HW223088   4.406   3.480   5.662  0.9884 -1.8652 -0.8233
 3819SOL     OW23089   0.792   4.455  10.651 -0.0917 -0.8941 -0.8107
 3819SOL    HW123090   0.701   4.477  10.632 -0.9632 -5.2445 -1.6742
 3819SOL    HW223091   0.812   4.406  10.570 -2.2170 -1.6479 -0.8835
 3820SOL     OW23092   0.266   4.564   7.008  0.2274  0.2241  0.1940
 3820SOL    HW123093   0.183   4.520   6.989  0.7670 -0.2469 -1.1042
 3820SOL    HW223094   0.316   4.558   6.927 -0.7625 -2.5625 -0.2026
 3821SOL     OW23095   0.909   4.344   0.066  0.2910  0.2854  0.0368
 3821SOL    HW123096   0.903   4.417   0.128  0.3823  1.3676 -1.2353
 3821SOL    HW223097   0.985   4.292   0.094  0.6317  1.2706  0.9315
 3822SOL     OW23098   1.300   1.122   6.270  0.1139 -0.4301 -0.4203
 3822SOL    HW123099   1.285   1.197   6.212 -2.1716  0.4140  1.2720
 3822SOL    HW223100   1.392   1.137   6.292 -0.6524  2.3648  0.8807
 3823SOL     OW23101   2.170   3.258   9.882  0.5739 -0.3577 -0.2608
 3823SOL    HW123102   2.192   3.350   9.869  0.7424 -0.1730  1.4112
 3823SOL    HW223103   2.077   3.267   9.863  0.9515  0.6314 -1.6986
 3824SOL     OW23104   2.654   1.248  11.744 -0.0422 -0.1829 -0.6250
 3824SOL    HW123105   2.614   1.335  11.741  0.5478  0.0943 -0.4260
 3824SOL    HW223106   2.717   1.273  11.676 -1.2960  0.1887 -1.6424
 3825SOL     OW23107   1.003   4.567   4.140 -0.6631 -0.3323 -0.4384
 3825SOL    HW123108   1.050   4.603   4.065  0.8376  1.5951  1.4341
 3825SOL    HW223109   0.930   4.527   4.093 -1.0242 -1.2340  0.8977
 3826SOL     OW23110   1.971   2.906  12.806 -0.1536  0.4097  0.3833
 3826SOL    HW123111   1.970   2.829  12.750  0.3455  2.0959 -1.9247
 3826SOL    HW223112   1.900   2.884  12.866  0.3154 -1.5728  0.2031
 3827SOL     OW23113   1.471   1.789  11.442  0.0138  0.3039  0.5145
 3827SOL    HW123114   1.455   1.860  11.504 -1.9027  0.1947  0.1390
 3827SOL    HW223115   1.483   1.719  11.506 -0.0948 -1.8116 -1.7724
 3828SOL     OW23116   1.522   1.214  13.648 -0.1182  0.3533  0.3230
 3828SOL    HW123117   1.525   1.263  13.731  3.1869  0.6460  0.0290
 3828SOL    HW223118   1.459   1.269  13.601  0.6969  1.6920  0.8124
 3829SOL     OW23119   2.804   3.660   8.963  0.6529 -0.2229  0.3513
 3829SOL    HW123120   2.826   3.695   9.050  1.5333 -0.6859  0.3161
 3829SOL    HW223121   2.887   3.633   8.924 -0.0312 -1.6284 -0.1350
 3830SOL     OW23122   0.000   2.590   6.407 -0.0318  0.1635  0.1371
 3830SOL    HW123123   0.052   2.512   6.429 -0.5129 -0.0954  0.3560
 3830SOL    HW223124   0.067   2.628   6.352 -0.9903  2.2924  0.4497
 3831SOL     OW23125   4.412   3.996   5.463 -0.3681 -0.6773 -0.1474
 3831SOL    HW123126   4.497   3.993   5.419  0.0028 -0.6846  0.5750
 3831SOL    HW223127   4.360   4.007   5.383 -1.3900  1.5002  0.8225
 3832SOL     OW23128   3.414   3.507   4.561 -0.0593 -0.0498  0.0550
 3832SOL    HW123129   3.477   3.439   4.581  1.0443  1.0657  0.3138
 3832SOL    HW223130   3.356   3.451   4.509  0.7773  0.2427 -1.1941
 3833SOL     OW23131   2.238   0.156  10.644  0.0998  0.2826 -0.3034
 3833SOL    HW123132   2.184   0.206  10.705 -2.1918 -1.3376 -0.9913
 3833SOL    HW223133   2.322   0.142  10.688 -0.8007  0.8646  1.5989
 3834SOL     OW23134   2.879   1.580   3.816 -0.0520 -0.0816 -0.2290
 3834SOL    HW123135   2.819   1.520   3.861 -0.5364  0.0085 -0.7533
 3834SOL    HW223136   2.934   1.606   3.890 -0.1262  1.2683 -0.6692
 3835SOL     OW23137   1.729   2.316   0.052  0.3039  0.7075  0.0638
 3835SOL    HW123138   1.764   2.311   0.141  0.9890 -1.0174 -0.2964
 3835SOL    HW223139   1.657   2.378   0.060  1.4782  2.2989 -1.7117
 3836SOL     OW23140   2.245   0.106   0.917 -0.0374  0.6179 -0.4242
 3836SOL    HW123141   2.156   0.069   0.919  0.8063 -1.3783  0.1564
 3836SOL    HW223142   2.296   0.059   0.852  1.9044  2.0530  0.0656
 3837SOL     OW23143   3.605   0.916   4.117 -0.0210 -0.5508  0.0924
 3837SOL    HW123144   3.545   0.958   4.056  0.5036  0.7638  0.4784
 3837SOL    HW223145   3.607   0.828   4.078  0.3595  0.9846 -3.3780
 3838SOL     OW23146   1.838   4.415   5.299 -0.0327  0.5002 -0.1844
 3838SOL    HW123147   1.865   4.415   5.391  2.0643 -2.3357 -0.7951
 3838SOL    HW223148   1.771   4.347   5.296 -0.7479  1.2165 -0.2715
 3839SOL     OW23149   1.906   2.469   9.187  0.2715  0.4511 -0.4649
 3839SOL    HW123150   1.988   2.441   9.147  0.0526 -0.6711 -0.1206
 3839SOL    HW223151   1.881   2.534   9.122 -1.8926 -1.4996 -1.6013
 3840SOL     OW23152   3.272   2.393   6.535 -0.0766  0.1672 -0.1662
 3840SOL    HW123153   3.343   2.435   6.487 -0.8402 -0.7156 -2.0640
 3840SOL    HW223154   3.276   2.302   6.505 -2.4545 -0.2212  0.6602
 3841SOL     OW23155   4.395   2.871   1.040  0.2897 -0.0951  0.2488
 3841SOL    HW123156   4.449   2.938   1.082  1.2447 -1.3604  1.0413
 3841SOL    HW223157   4.310   2.885   1.081 -0.2614 -2.0699 -0.2180
 3842SOL     OW23158   3.918   1.928  14.780 -0.3748  0.4700  0.8186
 3842SOL    HW123159   3.930   1.842  14.741 -1.4359  0.5784  0.2342
 3842SOL    HW223160   3.849   1.958  14.720 -0.9804 -0.1370  1.1998
 3843SOL     OW23161   2.798   1.266  11.268 -0.2632  0.2273  0.2939
 3843SOL    HW123162   2.841   1.207  11.206 -0.1375 -0.0090  0.6056
 3843SOL    HW223163   2.876   1.296  11.314  0.1738 -0.1451 -0.2037
 3844SOL     OW23164   1.714   3.696   6.911  0.0295  0.1721  0.4473
 3844SOL    HW123165   1.624   3.726   6.901 -0.3771 -0.2285  2.9468
 3844SOL    HW223166   1.707   3.659   6.998 -0.8370 -1.1408 -0.1872
 3845SOL     OW23167   3.053   4.112   6.232 -0.3161 -0.2717  0.2670
 3845SOL    HW123168   3.021   4.022   6.241  0.5316 -0.6011 -0.0168
 3845SOL    HW223169   2.975   4.163   6.209 -1.7403 -1.4046  2.5617
 3846SOL     OW23170   2.748   0.958   8.645  0.7259  0.0017  0.2345
 3846SOL    HW123171   2.807   0.978   8.573  0.9055 -0.3715  0.2767
 3846SOL    HW223172   2.724   0.866   8.631 -1.9563  0.8784 -0.7512
 3847SOL     OW23173   1.294   4.659   4.151 -0.4382  0.2447 -0.3570
 3847SOL    HW123174   1.300   4.616   4.236 -0.6796 -2.3922 -1.6661
 3847SOL    HW223175   1.225   4.725   4.155 -1.3260 -0.4831 -3.3670
 3848SOL     OW23176   4.515   0.183   7.326 -0.1341 -0.0542  0.1996
 3848SOL    HW123177   4.557   0.155   7.245 -0.2285 -0.3493  0.2531
 3848SOL    HW223178   4.562   0.266   7.339  1.9515 -1.2695  0.4374
 3849SOL     OW23179   2.393   1.516   3.148  0.2369 -0.0622 -0.0023
 3849SOL    HW123180   2.459   1.546   3.210 -1.1147  0.9210  0.9450
 3849SOL    HW223181   2.319   1.547   3.200 -0.0968 -0.0012 -0.5154
 3850SOL     OW23182   1.928   1.167   8.324 -0.3023  0.0025  0.2741
 3850SOL    HW123183   1.890   1.136   8.242 -0.5907 -0.4815  0.5931
 3850SOL    HW223184   1.846   1.179   8.372 -0.6542 -0.0219 -0.3227
 3851SOL     OW23185   1.278   0.730   4.175 -0.4422 -0.3584 -0.7597
 3851SOL    HW123186   1.284   0.677   4.255  0.7686  0.1361 -0.5190
 3851SOL    HW223187   1.193   0.704   4.140 -1.3905  1.2066  0.3815
 3852SOL     OW23188   2.779   2.915   5.344 -0.2961  0.2232 -0.0145
 3852SOL    HW123189   2.733   2.998   5.348  0.1333  0.4630  0.0077
 3852SOL    HW223190   2.871   2.940   5.335 -0.6166  2.0354  1.6265
 3853SOL     OW23191   0.005   4.339   9.973  0.1124  0.3143  0.1862
 3853SOL    HW123192   0.009   4.381   9.887 -1.3613  2.7184  1.2837
 3853SOL    HW223193   4.646   4.348   9.983  0.4986  2.1037  2.1969
 3854SOL     OW23194   0.993   4.016  11.829 -0.1369  0.1802 -0.2532
 3854SOL    HW123195   1.055   4.087  11.812 -0.1821  0.8089  2.1414
 3854SOL    HW223196   1.012   4.006  11.923 -0.3630 -3.6438 -0.5784
 3855SOL     OW23197   1.710   1.572   2.139 -0.0966  0.8327  0.0162
 3855SOL    HW123198   1.785   1.563   2.198 -1.7390 -2.0337  1.6804
 3855SOL    HW223199   1.649   1.600   2.207  0.3930 -0.5411  1.0110
 3856SOL     OW23200   2.711   4.107  12.235  0.3256 -0.0234  0.4744
 3856SOL    HW123201   2.784   4.052  12.205 -0.6288 -0.6390 -0.7287
 3856SOL    HW223202   2.629   4.061  12.218 -1.1917  2.6521  0.7229
 3857SOL     OW23203   1.356   2.327  10.232  0.0956 -0.2039  0.7090
 3857SOL    HW123204   1.348   2.382  10.155 -0.5199 -1.5676 -0.2071
 3857SOL    HW223205   1.445   2.353  10.255 -0.4632  0.2263  2.3901
 3858SOL     OW23206   1.671   1.859   2.533 -0.6387  0.1555  0.0473
 3858SOL    HW123207   1.589   1.888   2.574 -0.5969 -1.9427  1.6322
 3858SOL    HW223208   1.726   1.933   2.559 -1.8009  0.3492  1.9463
 3859SOL     OW23209   3.777   2.882   8.345  0.0503 -0.0854  0.3396
 3859SOL    HW123210   3.869   2.855   8.341  0.2231  0.7403 -1.1118
 3859SOL    HW223211   3.752   2.889   8.253  0.7448 -2.1564 -0.0195
 3860SOL     OW23212   3.826   3.214   4.014  0.3681 -0.3914  0.8487
 3860SOL    HW123213   3.848   3.163   4.092 -0.7244 -1.7038  0.2843
 3860SOL    HW223214   3.823   3.149   3.943 -0.9514  0.4044  0.1811
 3861SOL     OW23215   2.561   0.314   6.006  0.0923  0.1679 -0.3332
 3861SOL    HW123216   2.497   0.323   6.077  1.9061  0.5942  1.2246
 3861SOL    HW223217   2.516   0.358   5.933 -0.9734 -1.3636 -0.6003
 3862SOL     OW23218   2.696   2.853   2.545 -0.0312 -0.2687  0.1454
 3862SOL    HW123219   2.643   2.778   2.572  1.2637 -0.4523  2.1053
 3862SOL    HW223220   2.642   2.929   2.568 -0.1449 -0.7976  1.5933
 3863SOL     OW23221   3.272   4.169   5.130  0.2999 -0.3365 -0.1056
 3863SOL    HW123222   3.288   4.128   5.046 -0.2390  0.9713 -0.8419
 3863SOL    HW223223   3.333   4.242   5.118  0.3507 -0.3575  0.0139
 3864SOL     OW23224   4.684   2.277  12.798 -0.0048  0.3087  0.0432
 3864SOL    HW123225   4.652   2.200  12.750 -1.6736  2.0494 -1.6595
 3864SOL    HW223226   0.012   2.239  12.858 -0.4803  1.5512  1.3173
 3865SOL     OW23227   0.186   4.432  12.239  0.2869 -0.4218  0.2343
 3865SOL    HW123228   0.181   4.339  12.218 -3.3482 -0.2399  0.2685
 3865SOL    HW223229   0.266   4.459  12.194  0.4830 -3.8984 -1.5357
 3866SOL     OW23230   2.686   3.591  16.940 -0.1248 -0.2671  0.6392
 3866SOL    HW123231   2.701   3.596  17.035  1.0384 -0.5718  0.4654
 3866SOL    HW223232   2.759   3.536  16.914  0.8004  0.4455  1.7277
 3867SOL     OW23233   0.588   0.343   5.910  0.0600  0.0687 -0.7972
 3867SOL    HW123234   0.645   0.385   5.845  0.3924 -0.5134 -0.8823
 3867SOL    HW223235   0.619   0.375   5.994  2.3232  1.4415 -2.1646
 3868SOL     OW23236   4.257   3.549   3.094  0.2846 -0.2329 -0.7807
 3868SOL    HW123237   4.322   3.543   3.165 -0.2838  2.5263 -0.0539
 3868SOL    HW223238   4.270   3.471   3.040  1.1433  0.9862 -2.3395
 3869SOL     OW23239   2.754   3.174   7.657  0.7555  0.3313  0.1337
 3869SOL    HW123240   2.664   3.201   7.678  0.7845 -0.8426  1.8223
 3869SOL    HW223241   2.734   3.175   7.564  2.0303 -2.1985 -0.1648
 3870SOL     OW23242   2.695   0.023  11.525 -0.3592  0.2490  0.1904
 3870SOL    HW123243   2.761   0.087  11.499  1.2293 -0.7738  1.7395
 3870SOL    HW223244   2.646   0.023  11.442  1.9571  0.0872 -1.1723
 3871SOL     OW23245   0.281   4.395  11.383  0.1616 -0.2270 -0.4360
 3871SOL    HW123246   0.344   4.350  11.440 -1.6837 -0.2400  1.6076
 3871SOL    HW223247   0.197   4.399  11.429  0.3728 -0.3730 -0.0371
 3872SOL     OW23248   3.073   3.664   5.712 -0.1891 -0.0661 -0.1134
 3872SOL    HW123249   3.151   3.675   5.657  2.4933 -0.0637  3.6827
 3872SOL    HW223250   3.055   3.573   5.688  2.4008 -0.6774  0.2680
 3873SOL     OW23251   3.189   3.370   4.478 -0.0058 -0.5599  0.1833
 3873SOL    HW123252   3.176   3.462   4.456  0.8342 -0.1773  1.2710
 3873SOL    HW223253   3.131   3.321   4.420 -1.1541 -1.4891  2.1500
 3874SOL     OW23254   3.815   0.762   8.124  0.0664  0.4108  0.0237
 3874SOL    HW123255   3.800   0.853   8.098 -1.6174 -0.7677 -3.1780
 3874SOL    HW223256   3.828   0.722   8.037  0.7884  1.8040 -0.5024
 3875SOL     OW23257   1.353   4.305   6.238  0.1677 -0.6209  0.1400
 3875SOL    HW123258   1.381   4.221   6.201 -1.3613 -1.2133  0.3070
 3875SOL    HW223259   1.392   4.354   6.165  0.4386 -1.0975 -0.0333
 3876SOL     OW23260   0.212   2.716   4.834 -0.8663  0.5945 -0.6118
 3876SOL    HW123261   0.121   2.686   4.839 -0.0756 -1.8905 -0.9654
 3876SOL    HW223262   0.204   2.795   4.886  0.7481  1.4561 -1.6804
 3877SOL     OW23263   3.054   0.338   3.431 -0.0027  0.7489 -0.5340
 3877SOL    HW123264   3.016   0.401   3.493  0.5229  1.5950 -1.0718
 3877SOL    HW223265   2.974   0.320   3.381  0.7014 -1.3271 -0.9001
 3878SOL     OW23266   0.439   3.955  16.513 -0.0814  0.0442  0.0736
 3878SOL    HW123267   0.516   3.983  16.463  0.5632 -0.3302  0.8609
 3878SOL    HW223268   0.465   3.895  16.583  1.0163 -1.5430 -1.6852
 3879SOL     OW23269   1.156   4.170   5.920  0.1582 -0.1619  0.1868
 3879SOL    HW123270   1.200   4.086   5.932  0.3545 -0.1408 -0.3694
 3879SOL    HW223271   1.077   4.156   5.973 -0.5552  0.3309 -0.7439
 3880SOL     OW23272   4.384   2.810   0.771 -0.1245 -0.5459 -0.3696
 3880SOL    HW123273   4.386   2.715   0.783  3.4386 -0.3148  0.9901
 3880SOL    HW223274   4.392   2.843   0.860  0.6806  0.0104 -0.6403
 3881SOL     OW23275   0.746   2.574   3.779 -0.1406 -0.3385  0.4379
 3881SOL    HW123276   0.756   2.577   3.874 -0.6468 -2.0482  0.5521
 3881SOL    HW223277   0.776   2.485   3.757 -1.3251 -0.7242  0.4041
 3882SOL     OW23278   0.647   0.047   6.254 -0.5939  0.1552  0.1227
 3882SOL    HW123279   0.684   0.105   6.320 -2.2196  2.3807 -0.9428
 3882SOL    HW223280   0.721   4.722   6.245  0.2625  1.0634  1.0161
 3883SOL     OW23281   0.685   1.366  12.100  0.4085  0.1780 -0.0922
 3883SOL    HW123282   0.598   1.338  12.072  0.0090  3.4791 -2.1627
 3883SOL    HW223283   0.675   1.382  12.194  0.1454  1.3933 -0.3180
 3884SOL     OW23284   3.719   4.452   6.972  0.2592 -0.2533 -0.1002
 3884SOL    HW123285   3.802   4.498   6.969 -1.5813  3.0254 -0.4311
 3884SOL    HW223286   3.676   4.486   7.051  2.0749 -0.8635  1.1454
 3885SOL     OW23287   4.019   3.622   7.099 -0.1427  0.4317  0.0281
 3885SOL    HW123288   4.078   3.694   7.122 -0.2851  0.8047 -0.7536
 3885SOL    HW223289   4.031   3.568   7.177 -0.3775 -0.3298 -0.4693
 3886SOL     OW23290   0.577   0.101   6.747 -0.5433 -0.0577 -0.2193
 3886SOL    HW123291   0.595   0.150   6.828 -0.4804 -1.6632  0.7430
 3886SOL    HW223292   0.481   0.096   6.749 -0.5438 -0.8631 -2.2621
 3887SOL     OW23293   3.350   4.094   2.607  0.4184 -0.0821  0.4310
 3887SOL    HW123294   3.338   4.188   2.624 -2.3990 -0.6604  1.5762
 3887SOL    HW223295   3.427   4.091   2.665  0.6128 -0.1194  0.1706
 3888SOL     OW23296   4.361   4.568   4.647 -0.1288 -1.0795  0.0990
 3888SOL    HW123297   4.398   4.636   4.590 -0.6177 -0.7058  0.2324
 3888SOL    HW223298   4.311   4.625   4.705  1.5976  0.2262  0.3068
 3889SOL     OW23299   3.241   3.991  14.847  0.5137 -0.3766 -0.2511
 3889SOL    HW123300   3.262   3.931  14.919  0.2067  0.2902  0.3999
 3889SOL    HW223301   3.165   3.945  14.810  0.9141  0.5867 -2.2116
 3890SOL     OW23302   0.779   0.928  14.500  0.1181  0.1854  0.3758
 3890SOL    HW123303   0.771   1.009  14.450 -1.3145 -0.1265  0.1115
 3890SOL    HW223304   0.834   0.954  14.574  0.9138 -2.2605  0.6618
 3891SOL     OW23305   3.191   4.522   2.120  0.6762 -0.3964 -0.7003
 3891SOL    HW123306   3.172   4.479   2.203  2.7370  1.7812  0.8983
 3891SOL    HW223307   3.212   4.612   2.147 -1.4681 -0.0211 -0.2721
 3892SOL     OW23308   0.175   0.505   1.322  0.3138 -0.3421 -0.3048
 3892SOL    HW123309   0.100   0.469   1.370 -0.7362  2.7288  0.3691
 3892SOL    HW223310   0.135   0.561   1.256 -0.2751  1.0239  1.2044
 3893SOL     OW23311   4.330   3.059  12.654 -0.1714  0.0465  0.4345
 3893SOL    HW123312   4.251   3.068  12.708 -1.6067 -0.4400 -1.6005
 3893SOL    HW223313   4.286   3.106  12.583 -0.9001 -2.0972 -0.5131
 3894SOL     OW23314   0.497   0.176   5.582  0.2928  0.3240 -0.1649
 3894SOL    HW123315   0.434   0.167   5.510 -0.6397 -0.6000  0.7647
 3894SOL    HW223316   0.535   0.091   5.603 -1.7502 -0.6508 -0.4337
 3895SOL     OW23317   3.031   4.044   6.618 -0.2389  0.1795  0.1010
 3895SOL    HW123318   3.107   4.019   6.565  0.5296 -2.9138  2.6280
 3895SOL    HW223319   3.066   4.095   6.690  0.5784 -0.3449  0.0769
 3896SOL     OW23320   0.557   0.370   4.904 -0.0346  0.4349  0.1183
 3896SOL    HW123321   0.526   0.284   4.932  2.9621 -0.4985  0.6214
 3896SOL    HW223322   0.635   0.392   4.955 -0.0976  1.1045 -0.0795
 3897SOL     OW23323   2.476   3.952   5.647  0.4206  0.0713  0.5779
 3897SOL    HW123324   2.561   3.956   5.604  0.5990 -0.1549  0.9070
 3897SOL    HW223325   2.461   3.857   5.647 -3.7061  0.7443  1.5914
 3898SOL     OW23326   1.442   1.892   2.674 -1.2563 -0.1529  0.1506
 3898SOL    HW123327   1.364   1.836   2.672 -2.5975  1.7116  1.2804
 3898SOL    HW223328   1.426   1.949   2.749  2.6188  2.5091 -1.0712
 3899SOL     OW23329   0.867   1.610   7.839  0.2252  0.3355 -0.1306
 3899SOL    HW123330   0.914   1.625   7.921 -1.3652 -2.7174  1.3879
 3899SOL    HW223331   0.940   1.581   7.785  1.3541  3.7333 -0.4027
 3900SOL     OW23332   0.528   3.504  12.336  0.0533  0.0779  0.0618
 3900SOL    HW123333   0.620   3.488  12.354  0.1749  2.8078  1.9695
 3900SOL    HW223334   0.530   3.600  12.344 -1.5382  0.0527  0.7870
 3901SOL     OW23335   2.465   0.316   7.621  0.8035 -0.1698  0.5430
 3901SOL    HW123336   2.378   0.336   7.588  0.6418  0.8837  1.6320
 3901SOL    HW223337   2.516   0.367   7.557  0.5030  0.0834  0.5107
 3902SOL     OW23338   3.788   4.333   1.456 -0.3755  0.0607 -0.2881
 3902SOL    HW123339   3.815   4.291   1.537 -0.8310  1.3042  0.5097
 3902SOL    HW223340   3.763   4.418   1.493  1.5047  1.4233 -2.1903
 3903SOL     OW23341   4.534   2.660   2.912  0.0037  0.3949  0.6162
 3903SOL    HW123342   4.467   2.724   2.936 -0.2512  0.7508 -1.1034
 3903SOL    HW223343   4.586   2.673   2.992  2.1400  1.1752 -0.9055
 3904SOL     OW23344   1.996   0.160   5.403  0.2808 -0.0299  0.3946
 3904SOL    HW123345   2.083   0.133   5.435  0.7748  1.4763  0.3451
 3904SOL    HW223346   1.991   0.130   5.313  1.1708  0.4491  0.1797
 3905SOL     OW23347   2.670   1.786  10.779 -0.5190 -0.5333  0.1823
 3905SOL    HW123348   2.611   1.801  10.854 -0.8405 -1.7117  0.1608
 3905SOL    HW223349   2.645   1.858  10.721  2.2642  0.7241  0.5373
 3906SOL     OW23350   3.476   2.723   2.923 -0.3826 -0.1298  0.5533
 3906SOL    HW123351   3.444   2.765   2.844 -1.0651  2.9083  2.4235
 3906SOL    HW223352   3.411   2.755   2.986 -1.7643  1.1844 -1.5813
 3907SOL     OW23353   2.380   0.846   7.123  0.2397 -0.6318  0.4057
 3907SOL    HW123354   2.342   0.916   7.069  0.1719  0.0705  1.3819
 3907SOL    HW223355   2.334   0.869   7.203  2.8021 -0.0753  1.7244
 3908SOL     OW23356   0.047   0.327  10.382 -0.1345  0.2178  0.4505
 3908SOL    HW123357   0.028   0.271  10.458 -2.0668 -1.9068 -1.5824
 3908SOL    HW223358   0.111   0.274  10.334 -0.1013 -0.8295  1.6517
 3909SOL     OW23359   4.432   1.588  16.274 -0.1202 -0.3093 -0.1675
 3909SOL    HW123360   4.370   1.602  16.346 -0.2090  0.1214 -0.3254
 3909SOL    HW223361   4.508   1.642  16.293  1.2558 -2.1601 -0.4780
 3910SOL     OW23362   4.379   2.416   4.509  0.6888  0.0936 -0.3948
 3910SOL    HW123363   4.354   2.327   4.534  0.9404  1.0302  3.2230
 3910SOL    HW223364   4.336   2.424   4.424 -2.2903 -0.2254  1.0491
 3911SOL     OW23365   1.625   4.503   8.907  0.1001 -0.4842 -0.0748
 3911SOL    HW123366   1.586   4.566   8.846  0.1193  0.0930  0.5053
 3911SOL    HW223367   1.635   4.557   8.986  1.0449 -1.9985  0.8355
 3912SOL     OW23368   4.508   3.640  14.382 -0.0312 -0.2753 -0.5480
 3912SOL    HW123369   4.504   3.582  14.458  0.8684  1.2681  0.6917
 3912SOL    HW223370   4.414   3.647  14.365 -0.0629 -1.7513 -0.9698
 3913SOL     OW23371   3.836   4.225  10.286  0.0180 -0.2362 -0.9154
 3913SOL    HW123372   3.740   4.234  10.284 -0.1924 -2.1551  0.3505
 3913SOL    HW223373   3.844   4.131  10.303 -0.4678 -0.5995 -2.7129
 3914SOL     OW23374   0.951   0.890   6.840  0.0706  0.1312 -0.1229
 3914SOL    HW123375   0.905   0.961   6.886  0.5512  0.9310 -0.9015
 3914SOL    HW223376   1.035   0.935   6.835  1.9059 -3.3745 -0.7190
 3915SOL     OW23377   0.867   0.637   7.276 -0.4071  0.1995 -0.1915
 3915SOL    HW123378   0.874   0.696   7.201  1.7220  0.1842 -0.0077
 3915SOL    HW223379   0.934   0.679   7.330 -1.2502  2.6406 -1.0611
 3916SOL     OW23380   1.805   1.028   7.668 -0.4957  0.8802  0.4372
 3916SOL    HW123381   1.807   1.109   7.720  2.4401  0.5981  0.7654
 3916SOL    HW223382   1.880   0.983   7.708 -0.2766  0.2195 -0.7165
 3917SOL     OW23383   4.059   4.535   8.905  0.1255 -0.5966 -0.1267
 3917SOL    HW123384   4.013   4.601   8.854  1.9387  1.3559  0.7856
 3917SOL    HW223385   3.995   4.514   8.973 -1.0059  2.5086 -0.2299
 3918SOL     OW23386   0.085   1.010  16.793 -0.2544 -0.3707  0.2879
 3918SOL    HW123387   0.083   0.915  16.782  1.6962 -0.3172 -0.5814
 3918SOL    HW223388   0.091   1.041  16.702  1.4106 -1.4833  0.0175
 3919SOL     OW23389   3.849   3.735   1.607 -0.4727 -0.3068  0.3927
 3919SOL    HW123390   3.821   3.822   1.634  2.9236  0.7379  0.5665
 3919SOL    HW223391   3.890   3.752   1.522 -2.4537  0.3510 -0.4231
 3920SOL     OW23392   2.182   1.400   5.383 -0.2257  0.2745 -0.0140
 3920SOL    HW123393   2.101   1.349   5.385  1.2187 -2.0092  0.5312
 3920SOL    HW223394   2.221   1.378   5.467 -0.4072 -1.8009 -0.4528
 3921SOL     OW23395   1.991   4.723   0.901  1.1278  0.3074 -1.2053
 3921SOL    HW123396   1.911   4.734   0.849 -0.5445 -0.8230  1.0976
 3921SOL    HW223397   1.980   4.630   0.922 -1.1606  0.6063 -1.0853
 3922SOL     OW23398   4.383   0.756   7.510 -0.3961 -0.0822  0.5464
 3922SOL    HW123399   4.369   0.725   7.600 -2.2233 -0.1358  0.2379
 3922SOL    HW223400   4.377   0.670   7.469  1.7800 -0.2852  0.6546
 3923SOL     OW23401   3.171   4.084   4.269  0.1783  0.1470 -0.5631
 3923SOL    HW123402   3.116   4.032   4.211  0.5815 -0.7070 -0.1771
 3923SOL    HW223403   3.109   4.143   4.312 -1.4193 -0.3297 -2.2109
 3924SOL     OW23404   1.611   4.335   4.535  0.3586 -0.3621  0.1237
 3924SOL    HW123405   1.628   4.275   4.608  0.6952 -0.7782 -0.2988
 3924SOL    HW223406   1.629   4.421   4.574  1.3678 -1.0700  1.2434
 3925SOL     OW23407   1.046   3.366   0.333  0.0939  0.3338  0.4665
 3925SOL    HW123408   1.033   3.416   0.413 -0.1174 -1.2863  1.4459
 3925SOL    HW223409   1.093   3.289   0.365 -0.3651 -0.8692 -1.7669
 3926SOL     OW23410   2.390   3.781   1.706  0.0054 -0.0055 -0.4612
 3926SOL    HW123411   2.431   3.740   1.782 -0.4647  0.6229  0.1290
 3926SOL    HW223412   2.317   3.720   1.693  0.2202 -0.4821  0.5486
 3927SOL     OW23413   3.227   3.971   3.988  0.4018 -0.4658 -0.0719
 3927SOL    HW123414   3.274   3.888   3.983 -0.0826 -0.7713  0.4221
 3927SOL    HW223415   3.136   3.943   4.000  0.4769 -0.9128 -0.5050
 3928SOL     OW23416   2.375   1.692   2.530 -0.3412  0.8962 -0.6752
 3928SOL    HW123417   2.447   1.738   2.487 -0.7878 -1.0388 -3.4323
 3928SOL    HW223418   2.375   1.718   2.623  2.4805  0.2483 -0.4922
 3929SOL     OW23419   0.665   3.834   2.358 -0.4517  0.1176 -0.1606
 3929SOL    HW123420   0.743   3.780   2.369 -1.1251 -0.4379  1.9099
 3929SOL    HW223421   0.639   3.806   2.270  1.0191  1.3639 -0.9828
 3930SOL     OW23422   1.441   4.357   4.339  0.3823 -0.5476  0.4357
 3930SOL    HW123423   1.510   4.353   4.405  0.7538  1.0384  0.1343
 3930SOL    HW223424   1.476   4.406   4.265 -4.4467  0.8160 -0.9957
 3931SOL     OW23425   4.206   3.349  15.548 -0.1768 -0.5298  0.2592
 3931SOL    HW123426   4.270   3.394  15.493 -0.7233 -0.5452 -0.3784
 3931SOL    HW223427   4.129   3.338  15.492  1.6186 -0.6010 -2.1640
 3932SOL     OW23428   4.123   3.988   3.542 -0.5570  0.1799 -0.3398
 3932SOL    HW123429   4.156   3.900   3.529 -1.5133 -0.3807  1.1020
 3932SOL    HW223430   4.041   3.987   3.493  0.1027  2.1778 -1.5255
 3933SOL     OW23431   3.645   3.699   7.899 -0.1091 -1.1286 -0.8648
 3933SOL    HW123432   3.583   3.733   7.964  0.5696  1.6281 -1.6891
 3933SOL    HW223433   3.724   3.699   7.952 -0.3102  0.5368 -0.5696
 3934SOL     OW23434   1.101   1.504   8.622  0.2727  0.4394 -0.2739
 3934SOL    HW123435   1.170   1.508   8.555  0.9228  2.3157  0.5042
 3934SOL    HW223436   1.045   1.437   8.582  1.4505  0.1279 -1.4100
 3935SOL     OW23437   2.908   1.030   8.437  0.5449 -0.4209  0.6230
 3935SOL    HW123438   2.865   1.090   8.376 -0.1845  0.8164  2.3578
 3935SOL    HW223439   2.998   1.042   8.408 -0.3239 -0.9336 -2.3287
 3936SOL     OW23440   0.364   2.508   6.941  0.1930 -0.1228  0.6332
 3936SOL    HW123441   0.341   2.425   6.982  1.2078  0.2920  2.0123
 3936SOL    HW223442   0.366   2.565   7.017  0.3921 -0.8412  1.1591
 3937SOL     OW23443   2.906   1.650   1.277  0.2613  0.1053 -0.9952
 3937SOL    HW123444   2.950   1.664   1.361 -1.5425  2.0728 -0.3800
 3937SOL    HW223445   2.952   1.573   1.244 -2.6046 -1.9859 -0.1312
 3938SOL     OW23446   3.340   0.954  17.517  0.3659 -0.3208  0.4141
 3938SOL    HW123447   3.400   1.026  17.495 -0.8846 -0.7498 -4.3251
 3938SOL    HW223448   3.260   0.989  17.479  2.8103  1.8805 -2.7416
 3939SOL     OW23449   1.748   1.052   5.796 -0.4516 -0.1220  0.5076
 3939SOL    HW123450   1.753   0.967   5.841  1.6391 -0.3092 -0.0985
 3939SOL    HW223451   1.660   1.051   5.760  1.6581 -0.3303 -4.6000
 3940SOL     OW23452   2.501   0.447   5.371  0.1346 -0.7125  0.2189
 3940SOL    HW123453   2.469   0.536   5.358  1.4897 -0.2298  0.2684
 3940SOL    HW223454   2.595   0.465   5.368 -0.0474 -0.0533 -1.7388
 3941SOL     OW23455   2.687   2.017  15.109  0.0738 -0.4554 -0.1025
 3941SOL    HW123456   2.719   2.044  15.023 -0.1735 -0.7111 -0.2768
 3941SOL    HW223457   2.619   2.081  15.129  0.9814  0.3082  0.5123
 3942SOL     OW23458   4.611   1.456   5.911 -1.4128  0.4317  0.0743
 3942SOL    HW123459   4.697   1.443   5.951 -0.7649  1.7247 -0.8502
 3942SOL    HW223460   4.638   1.395   5.842 -1.8633 -0.5836  0.7973
 3943SOL     OW23461   0.024   1.935   5.933 -0.2772  0.1744 -0.4825
 3943SOL    HW123462   4.683   1.906   5.981 -2.0692  0.6766 -3.0227
 3943SOL    HW223463   0.022   1.868   5.864  0.5123  0.0757 -0.4126
 3944SOL     OW23464   3.980   2.369   5.073  0.2812 -0.6224 -0.1345
 3944SOL    HW123465   4.035   2.411   5.007  0.0198 -0.0316  0.0140
 3944SOL    HW223466   3.980   2.433   5.144  0.0408 -0.8349  0.0586
 3945SOL     OW23467   3.645   1.696   3.825  0.5544 -0.2205 -0.1874
 3945SOL    HW123468   3.734   1.663   3.815  0.1650 -1.9228  1.8800
 3945SOL    HW223469   3.613   1.704   3.735  0.5313 -1.5640 -0.3130
 3946SOL     OW23470   2.367   3.891   0.188 -0.8212 -0.2190 -0.2422
 3946SOL    HW123471   2.365   3.987   0.184 -0.2666 -0.2412 -0.9412
 3946SOL    HW223472   2.461   3.875   0.189 -0.9751 -1.1534 -0.8251
 3947SOL     OW23473   3.980   3.750   1.384  0.2399 -0.1766  0.0977
 3947SOL    HW123474   3.932   3.684   1.334  1.6471 -1.9981  1.1841
 3947SOL    HW223475   4.064   3.736   1.340 -0.0978  0.1264 -0.6542
 3948SOL     OW23476   2.041   2.263   2.812  0.1755  0.5194 -1.1822
 3948SOL    HW123477   1.958   2.286   2.770 -1.2508 -1.1254  0.7203
 3948SOL    HW223478   2.050   2.341   2.867 -0.7618  0.0134 -0.3046
 3949SOL     OW23479   1.348   4.006   2.155 -0.2642  0.2406  0.3940
 3949SOL    HW123480   1.381   4.009   2.065  0.9941  0.3539  0.8483
 3949SOL    HW223481   1.321   3.915   2.161 -0.4934  0.2457 -0.5180
 3950SOL     OW23482   3.873   3.686   3.279 -0.4463 -0.4247  0.2280
 3950SOL    HW123483   3.933   3.695   3.205 -1.0844  1.2232 -0.0855
 3950SOL    HW223484   3.785   3.691   3.242  0.2602 -1.6907 -1.6223
 3951SOL     OW23485   0.921   0.754  17.585 -0.2767 -0.0748 -0.5027
 3951SOL    HW123486   0.837   0.714  17.567 -0.8020  0.9063 -0.2499
 3951SOL    HW223487   0.878   0.836  17.609  0.8311 -0.1185  1.6412
 3952SOL     OW23488   1.646   0.870   5.050  0.1622 -0.2772  0.2869
 3952SOL    HW123489   1.621   0.778   5.056 -2.2879  0.5123  2.1594
 3952SOL    HW223490   1.625   0.904   5.137 -0.5311 -2.2591  0.8853
 3953SOL     OW23491   1.820   1.186  11.186 -0.1076 -0.1670  0.7502
 3953SOL    HW123492   1.800   1.278  11.202  0.2348  0.1486 -0.6212
 3953SOL    HW223493   1.915   1.190  11.200  0.3221  0.9458 -2.2769
 3954SOL     OW23494   0.077   2.663   7.441 -0.5127  0.4872  0.2207
 3954SOL    HW123495   0.143   2.694   7.503 -0.3094 -0.5400  0.5307
 3954SOL    HW223496   0.133   2.632   7.369 -1.7780  0.2128 -0.6522
 3955SOL     OW23497   2.943   1.667   2.670  0.3837 -0.1607 -0.1019
 3955SOL    HW123498   2.937   1.756   2.634 -0.6860 -1.3041 -2.6997
 3955SOL    HW223499   2.884   1.674   2.745  0.6358  0.8076  0.0073
 3956SOL     OW23500   3.103   0.286   2.902  0.3301  0.3213 -0.3575
 3956SOL    HW123501   3.170   0.260   2.965 -1.3929 -1.0631  0.8867
 3956SOL    HW223502   3.034   0.225   2.926 -0.2220  0.0386 -2.6258
 3957SOL     OW23503   2.541   0.032   1.170  0.5990  0.4199  0.4714
 3957SOL    HW123504   2.521   0.114   1.124 -2.0247  0.9608  2.6099
 3957SOL    HW223505   2.479   0.028   1.243  0.2867  0.5062  0.2102
 3958SOL     OW23506   0.932   3.130   7.147 -0.1890  0.1768 -0.5054
 3958SOL    HW123507   1.014   3.094   7.114  0.3824  2.2829 -1.3651
 3958SOL    HW223508   0.952   3.221   7.169 -0.0202 -0.5644  2.4460
 3959SOL     OW23509   1.070   1.246   3.476  0.2040  0.0113 -0.4433
 3959SOL    HW123510   1.001   1.241   3.541  0.4236 -0.2618 -0.2331
 3959SOL    HW223511   1.060   1.333   3.437  0.0987 -0.1738 -0.8298
 3960SOL     OW23512   1.131   1.576  16.419  0.6152 -0.0494 -0.3092
 3960SOL    HW123513   1.169   1.492  16.392  1.0646  0.0247  0.0992
 3960SOL    HW223514   1.190   1.603  16.490 -0.3082  1.4652 -0.1121
 3961SOL     OW23515   2.602   4.213  11.827  0.9104  0.1013  0.8866
 3961SOL    HW123516   2.694   4.190  11.845  1.3491  1.7838  0.7602
 3961SOL    HW223517   2.567   4.125  11.817  1.4162  0.1616 -1.3748
 3962SOL     OW23518   1.866   1.357   9.195  0.0980 -0.2324 -0.3140
 3962SOL    HW123519   1.814   1.366   9.275 -0.1110  0.7455 -0.5642
 3962SOL    HW223520   1.832   1.269   9.177  1.2686 -0.6000 -0.7055
 3963SOL     OW23521   0.984   3.891   8.022  0.4407  0.5443  0.1713
 3963SOL    HW123522   0.939   3.812   7.991 -0.3037  0.7940  0.6091
 3963SOL    HW223523   1.037   3.900   7.943  0.9575 -2.0045  0.2401
 3964SOL     OW23524   3.341   0.733   3.035 -0.1346 -0.4609 -0.1036
 3964SOL    HW123525   3.315   0.681   2.959 -0.2299  0.8394 -0.9534
 3964SOL    HW223526   3.306   0.668   3.096 -3.5513  1.6543  0.2252
 3965SOL     OW23527   3.476   2.038  17.699 -0.1531 -0.0775  0.1833
 3965SOL    HW123528   3.418   2.067  17.628  0.6487  1.0863 -0.0031
 3965SOL    HW223529   3.468   1.943  17.695 -0.6731 -0.0916  1.7452
 3966SOL     OW23530   3.926   2.429   4.474  0.2194 -0.5239  0.5772
 3966SOL    HW123531   3.953   2.513   4.436 -1.4074  0.2550  1.1005
 3966SOL    HW223532   3.830   2.433   4.471  0.2598 -0.1953 -0.2177
 3967SOL     OW23533   3.879   2.605  15.559 -0.1084 -0.7060  0.4310
 3967SOL    HW123534   3.799   2.654  15.577 -1.7427 -2.6218 -1.7874
 3967SOL    HW223535   3.878   2.600  15.464 -2.3601  0.4751  0.3947
 3968SOL     OW23536   2.134   1.519  12.086  0.0325 -0.7366 -0.1121
 3968SOL    HW123537   2.060   1.578  12.076 -0.3879 -1.1249  0.7616
 3968SOL    HW223538   2.194   1.561  12.025  0.1148 -0.6703  0.0152
 3969SOL     OW23539   3.960   0.680   3.024 -0.2523  0.1725  0.2267
 3969SOL    HW123540   3.875   0.704   2.986  0.0635 -1.4260 -1.5027
 3969SOL    HW223541   3.956   0.586   3.007  1.6568  0.1653 -0.1130
 3970SOL     OW23542   3.598   4.434   3.488  0.5830  0.1462 -0.5504
 3970SOL    HW123543   3.512   4.398   3.467  0.2333  1.0165 -0.5875
 3970SOL    HW223544   3.617   4.379   3.564 -0.2735  1.1865  0.4058
 3971SOL     OW23545   2.122   1.186   5.979  0.2194  0.2488  0.1412
 3971SOL    HW123546   2.132   1.091   5.983 -1.2505  0.0932  0.0687
 3971SOL    HW223547   2.177   1.215   6.052  1.2975  0.0477 -0.6007
 3972SOL     OW23548   3.100   2.918  15.244 -0.2556 -0.2891  0.0760
 3972SOL    HW123549   3.041   2.990  15.224  1.2615  0.5237 -1.4755
 3972SOL    HW223550   3.159   2.940  15.171  1.1200 -0.1396  1.2389
 3973SOL     OW23551   2.139   1.210  15.459 -0.1717  0.1182 -0.0206
 3973SOL    HW123552   2.127   1.129  15.409  2.7839 -1.4086  1.7021
 3973SOL    HW223553   2.224   1.237  15.426 -0.7704  0.5307 -1.2252
 3974SOL     OW23554   3.587   0.436  16.958 -0.0681 -0.0341  0.1202
 3974SOL    HW123555   3.666   0.411  16.909  0.6317  2.3349  0.0540
 3974SOL    HW223556   3.520   0.433  16.889 -0.6758  3.1475  0.5706
 3975SOL     OW23557   1.231   4.384  17.712 -0.3259  0.7392 -0.0463
 3975SOL    HW123558   1.187   4.464  17.683 -1.9474  0.2556  1.1036
 3975SOL    HW223559   1.219   4.389   0.065  1.0739  1.3176  0.0986
 3976SOL     OW23560   2.449   4.313   1.023 -0.2466 -0.2784 -0.9989
 3976SOL    HW123561   2.410   4.238   0.977 -0.2875 -0.4051 -0.7603
 3976SOL    HW223562   2.416   4.292   1.111  1.3953  1.9417  0.1286
 3977SOL     OW23563   3.794   2.653  16.105 -0.4592  0.2824  0.4255
 3977SOL    HW123564   3.767   2.709  16.032 -1.4866  0.2937  0.8021
 3977SOL    HW223565   3.885   2.679  16.116  0.4422 -1.9651 -1.5359
 3978SOL     OW23566   2.029   1.450   5.970  0.2053  0.4425  0.2353
 3978SOL    HW123567   2.119   1.479   5.954 -0.7769  2.4238 -1.7713
 3978SOL    HW223568   2.033   1.356   5.987 -1.9933  0.5313  1.2498
 3979SOL     OW23569   0.948   0.005   5.565  0.6617  0.0246 -0.4699
 3979SOL    HW123570   0.924   0.096   5.548  1.2165  0.5926  1.8743
 3979SOL    HW223571   0.925   0.001   5.658  1.3998  0.8859 -0.2474
 3980SOL     OW23572   2.560   1.696   7.027  0.0914 -0.8937  0.3966
 3980SOL    HW123573   2.554   1.600   7.025  2.6654 -1.0887  1.2087
 3980SOL    HW223574   2.597   1.713   7.114  0.1883 -0.1687  0.2108
 3981SOL     OW23575   3.821   1.752   3.479 -0.0350 -0.0794  0.4545
 3981SOL    HW123576   3.869   1.698   3.416  0.7694  1.5138 -0.3073
 3981SOL    HW223577   3.734   1.712   3.490  0.1057 -0.3432  0.6067
 3982SOL     OW23578   3.681   1.473   0.766  0.5590 -0.2991 -0.2330
 3982SOL    HW123579   3.595   1.447   0.735  0.4298  0.4118 -0.4806
 3982SOL    HW223580   3.702   1.553   0.717  0.4462  0.2388  0.5978
 3983SOL     OW23581   4.140   1.713   1.689 -0.7034 -0.0508  0.0772
 3983SOL    HW123582   4.122   1.764   1.768  0.2906 -3.8605  2.7452
 3983SOL    HW223583   4.048   1.703   1.665 -0.4231 -1.0210 -0.5484
 3984SOL     OW23584   0.475   1.875   6.165 -0.2370 -0.4867  0.4157
 3984SOL    HW123585   0.385   1.858   6.192 -0.3342 -1.8513 -0.8199
 3984SOL    HW223586   0.512   1.908   6.248  0.3012 -0.2903  0.0998
 3985SOL     OW23587   3.085   0.994   3.809  0.5818  0.1547  0.1613
 3985SOL    HW123588   3.076   1.081   3.771 -2.0009  0.4726  1.5486
 3985SOL    HW223589   3.166   0.978   3.760  1.8890  2.5369  1.5502
 3986SOL     OW23590   3.387   0.585   5.296  0.0736  0.0128 -0.1702
 3986SOL    HW123591   3.383   0.489   5.297 -1.7131  0.1076  1.0617
 3986SOL    HW223592   3.440   0.607   5.220  0.9598 -1.5524 -0.0243
 3987SOL     OW23593   1.074   4.364  10.353  0.5417 -0.1922  0.2882
 3987SOL    HW123594   1.136   4.319  10.410 -1.2487  0.3818  2.6758
 3987SOL    HW223595   0.991   4.324  10.377  1.6591 -4.0424 -2.2669
 3988SOL     OW23596   0.345   4.027   5.797 -0.3113 -0.0490 -0.2856
 3988SOL    HW123597   0.369   4.112   5.833  1.2894 -0.2502 -0.8591
 3988SOL    HW223598   0.392   4.030   5.713 -1.1869  0.1166 -0.7714
 3989SOL     OW23599   2.922   3.143  12.500 -0.0894  0.0114 -0.3519
 3989SOL    HW123600   2.886   3.159  12.413 -1.0501  0.7712  0.1787
 3989SOL    HW223601   3.002   3.091  12.492 -0.1375  0.3351 -2.9959
 3990SOL     OW23602   2.509   2.029  12.966 -0.2130 -0.3622 -0.8560
 3990SOL    HW123603   2.524   1.935  12.981 -1.1199 -0.2982  0.4761
 3990SOL    HW223604   2.547   2.041  12.879  0.0833  0.0817 -0.6596
 3991SOL     OW23605   4.357   2.598   1.195 -0.7334  0.2522  0.0412
 3991SOL    HW123606   4.348   2.578   1.102  0.8494  2.1190 -0.5216
 3991SOL    HW223607   4.289   2.546   1.238  0.4825 -1.5008 -0.1798
 3992SOL     OW23608   0.221   3.719   4.768 -0.8924  0.2456 -0.3267
 3992SOL    HW123609   0.187   3.687   4.685 -0.7654  1.3367 -0.7951
 3992SOL    HW223610   0.188   3.655   4.831 -1.4796  0.9431  0.0765
 3993SOL     OW23611   1.529   4.061   2.368 -0.2954 -0.8477  0.3347
 3993SOL    HW123612   1.455   4.000   2.366 -0.1747 -0.9537 -0.4955
 3993SOL    HW223613   1.513   4.102   2.283  1.4002  2.1009  1.4511
 3994SOL     OW23614   4.330   2.726   2.076 -0.2821 -0.2075 -0.0786
 3994SOL    HW123615   4.247   2.739   2.122 -0.2876 -0.5906  0.0200
 3994SOL    HW223616   4.370   2.648   2.115  2.1026 -0.1261 -2.3558
 3995SOL     OW23617   0.221   2.306   6.766  0.6245  0.1763  0.3010
 3995SOL    HW123618   0.236   2.396   6.794  0.8635  0.0567  0.5635
 3995SOL    HW223619   0.296   2.299   6.707  0.0012  0.4858 -0.5217
 3996SOL     OW23620   2.030   1.947   1.826  0.3672 -0.7620 -0.6743
 3996SOL    HW123621   1.948   1.916   1.864  0.4124  0.1884  0.2211
 3996SOL    HW223622   2.013   1.965   1.734 -0.7303  0.4586 -0.2452
 3997SOL     OW23623   2.631   3.803  15.485  0.1679  0.0869  0.3441
 3997SOL    HW123624   2.689   3.814  15.410 -0.1646 -0.7484 -0.0291
 3997SOL    HW223625   2.635   3.883  15.538  0.6411  0.4457 -0.2304
 3998SOL     OW23626   1.161   0.540   7.961  0.5244  0.1794 -0.3029
 3998SOL    HW123627   1.141   0.545   8.055 -0.6201 -1.6243 -0.4456
 3998SOL    HW223628   1.235   0.601   7.954  1.2002 -0.6462 -0.3934
 3999SOL     OW23629   4.468   1.542  17.268 -0.3983  0.8723  0.0750
 3999SOL    HW123630   4.515   1.592  17.335 -0.6062  1.8340 -0.4965
 3999SOL    HW223631   4.509   1.591  17.196 -2.7614  0.4274 -1.5822
 4000SOL     OW23632   2.476   0.364   4.715 -0.3116 -0.4623 -0.6940
 4000SOL    HW123633   2.437   0.434   4.767  0.4305 -0.2404 -0.4360
 4000SOL    HW223634   2.413   0.350   4.644 -0.8555 -0.5594 -0.1885
 4001SOL     OW23635   1.826   2.540   7.414  0.0583  0.2199  0.5273
 4001SOL    HW123636   1.871   2.537   7.498 -2.1654 -1.4281  1.6447
 4001SOL    HW223637   1.755   2.605   7.417  1.6886  2.0587 -1.0062
 4002SOL     OW23638   4.303   3.811   4.954  0.3314 -0.0515  0.1897
 4002SOL    HW123639   4.231   3.873   4.967 -2.1529 -2.3089 -2.6529
 4002SOL    HW223640   4.364   3.876   4.919  0.3061 -0.9815 -1.5907
 4003SOL     OW23641   2.629   2.922  13.749 -0.4447  0.0568  0.6626
 4003SOL    HW123642   2.627   2.842  13.801  0.3049 -1.0462 -1.0055
 4003SOL    HW223643   2.541   2.936  13.713  0.0966  3.9499  0.9133
 4004SOL     OW23644   4.684   0.757   7.747  0.2013  0.5279 -0.4126
 4004SOL    HW123645   4.672   0.746   7.841 -1.1374  2.6538 -0.3342
 4004SOL    HW223646   0.025   0.811   7.766  0.5335  0.1994 -0.8212
 4005SOL     OW23647   1.785   0.072   8.551  0.5410 -0.5205 -0.2829
 4005SOL    HW123648   1.880   0.064   8.560  0.3237 -2.6774 -0.0333
 4005SOL    HW223649   1.781   0.063   8.456  0.6228 -1.4874 -0.1949
 4006SOL     OW23650   3.366   0.801   9.284  0.5277 -0.3325 -0.2911
 4006SOL    HW123651   3.383   0.895   9.279  1.4721 -0.4681  0.3593
 4006SOL    HW223652   3.436   0.762   9.231  3.1106  0.7605  2.2773
 4007SOL     OW23653   3.702   4.421  10.965  0.3329  0.1593  0.1178
 4007SOL    HW123654   3.716   4.470  10.884 -1.7876 -0.4972 -0.6292
 4007SOL    HW223655   3.619   4.450  11.002  1.0584 -0.7180  2.4219
 4008SOL     OW23656   4.708   1.171   4.442  0.4174  0.0996  0.1737
 4008SOL    HW123657   0.040   1.115   4.479  3.2621  4.3349  1.3403
 4008SOL    HW223658   4.648   1.099   4.422  0.9275 -0.4945  0.8144
 4009SOL     OW23659   2.066   3.638   7.158 -0.7193 -0.2791 -0.2810
 4009SOL    HW123660   2.162   3.634   7.162 -0.5598  2.8344 -1.2073
 4009SOL    HW223661   2.048   3.564   7.100 -1.1165  0.0880 -0.6282
 4010SOL     OW23662   0.102   2.969   9.095 -0.0193  0.2509 -0.2746
 4010SOL    HW123663   0.166   2.905   9.063 -0.6431 -1.5998  2.1321
 4010SOL    HW223664   0.038   2.977   9.024  0.6341 -0.1888 -0.9117
 4011SOL     OW23665   3.697   2.281   6.239 -0.1028 -0.0151 -0.2675
 4011SOL    HW123666   3.755   2.319   6.172  0.4728 -0.8586 -0.2450
 4011SOL    HW223667   3.723   2.189   6.236  1.4800  0.4573 -1.1091
 4012SOL     OW23668   3.328   0.735   6.616  0.4338 -0.4197 -0.0519
 4012SOL    HW123669   3.350   0.694   6.532  0.8236  0.5295 -0.4023
 4012SOL    HW223670   3.309   0.826   6.597  0.8664  0.2676  2.7821
 4013SOL     OW23671   4.410   1.105   5.716 -0.1327 -0.1558  0.3033
 4013SOL    HW123672   4.485   1.119   5.659  1.1885  0.6726  2.2652
 4013SOL    HW223673   4.366   1.188   5.698  0.2202 -0.1585 -0.5939
 4014SOL     OW23674   2.871   2.118  13.178 -0.4951  0.0434 -0.0322
 4014SOL    HW123675   2.956   2.120  13.222  0.6371  3.2227 -2.3833
 4014SOL    HW223676   2.841   2.208  13.175  1.8546  0.7923 -1.0798
 4015SOL     OW23677   4.637   1.299   0.809  0.5155 -0.2455  0.5071
 4015SOL    HW123678   4.669   1.212   0.785 -0.0258 -0.1184 -0.6586
 4015SOL    HW223679   4.649   1.294   0.904 -0.7384 -0.3430  0.6677
 4016SOL     OW23680   1.598   3.245   2.503 -0.1923  0.0944 -0.3665
 4016SOL    HW123681   1.522   3.304   2.511 -1.8299 -1.8593 -1.4486
 4016SOL    HW223682   1.643   3.294   2.435  2.8198 -2.5136 -0.2110
 4017SOL     OW23683   2.342   3.756   3.305 -0.4303 -0.3086 -0.3408
 4017SOL    HW123684   2.362   3.727   3.216  0.6446 -2.5181  0.6060
 4017SOL    HW223685   2.249   3.780   3.305 -0.0200  1.2838 -1.1974
 4018SOL     OW23686   1.130   3.028   6.264  0.1673 -0.4759  0.2577
 4018SOL    HW123687   1.222   3.026   6.239  0.2053  0.6525  0.2921
 4018SOL    HW223688   1.120   3.118   6.296  1.0446  0.7174 -2.8039
 4019SOL     OW23689   2.795   3.032   1.949 -0.0918  0.0512  0.0079
 4019SOL    HW123690   2.862   3.094   1.922 -2.0763  1.6929 -1.1594
 4019SOL    HW223691   2.847   2.952   1.949  1.9297  1.3646 -1.1673
 4020SOL     OW23692   1.784   3.470   6.509  0.0291  0.1371 -0.1552
 4020SOL    HW123693   1.854   3.497   6.449  2.4263 -2.4461  1.4756
 4020SOL    HW223694   1.813   3.382   6.530 -1.2530 -0.1466  0.4470
 4021SOL     OW23695   4.447   2.501   5.088 -0.0489  0.1679  0.0261
 4021SOL    HW123696   4.401   2.572   5.043 -1.4093 -0.6635  0.1112
 4021SOL    HW223697   4.515   2.541   5.142 -0.1017  0.7149 -0.3029
 4022SOL     OW23698   1.804   3.570   3.648  0.0378  0.5962  0.2874
 4022SOL    HW123699   1.766   3.494   3.604  2.0358 -0.1016 -0.2638
 4022SOL    HW223700   1.836   3.537   3.732  0.3085 -0.4159 -0.2094
 4023SOL     OW23701   0.361   4.461  15.714 -0.3491 -0.0211 -0.5495
 4023SOL    HW123702   0.301   4.417  15.775 -0.6885  0.4670 -0.5324
 4023SOL    HW223703   0.293   4.491  15.653  1.2548  3.7502 -0.4729
 4024SOL     OW23704   1.470   2.330   7.628  0.3652  0.4234  0.0212
 4024SOL    HW123705   1.424   2.331   7.544 -0.6138 -0.5800  0.5399
 4024SOL    HW223706   1.484   2.238   7.649 -0.1663  0.2967 -0.1597
 4025SOL     OW23707   1.735   3.394   2.281 -0.0077  0.1059 -0.4988
 4025SOL    HW123708   1.725   3.422   2.190  0.6022 -1.6120 -1.0871
 4025SOL    HW223709   1.787   3.315   2.267  1.7619  1.5248 -1.9257
 4026SOL     OW23710   3.384   1.250   3.005 -0.0322 -0.1617  0.2613
 4026SOL    HW123711   3.368   1.345   3.010 -2.9207 -0.5580 -1.6385
 4026SOL    HW223712   3.375   1.233   3.099 -1.8429  0.0895  0.1220
 4027SOL     OW23713   0.649   2.868   8.040 -0.1336  0.1214 -0.1721
 4027SOL    HW123714   0.722   2.900   7.987 -0.0540 -0.4801 -0.4290
 4027SOL    HW223715   0.593   2.945   8.043  1.1873  1.0496  1.2038
 4028SOL     OW23716   4.538   3.660   0.802 -0.3720  0.0392  1.0523
 4028SOL    HW123717   4.476   3.727   0.772  0.3194 -0.8136 -2.3635
 4028SOL    HW223718   4.607   3.722   0.823  0.8304  0.0230 -2.7356
 4029SOL     OW23719   2.018   1.922  13.291 -0.1296 -0.2126  0.4212
 4029SOL    HW123720   1.938   1.956  13.251 -0.5206 -3.0685 -1.3084
 4029SOL    HW223721   2.038   1.847  13.234 -1.1707 -1.0144  1.0924
 4030SOL     OW23722   4.064   1.668   2.654  0.0523  0.1544  0.3544
 4030SOL    HW123723   4.029   1.642   2.739 -0.6921  1.1002  0.3309
 4030SOL    HW223724   4.131   1.725   2.691  1.0286 -1.3117  0.8825
 4031SOL     OW23725   2.881   1.785  12.748 -0.4903  0.3647 -0.1177
 4031SOL    HW123726   2.843   1.854  12.802 -1.9345  0.4388 -1.2271
 4031SOL    HW223727   2.814   1.718  12.758  0.8836 -1.0009 -0.0218
 4032SOL     OW23728   2.182   4.072   2.398  0.4233  0.3458  0.0169
 4032SOL    HW123729   2.125   4.020   2.342  2.2111 -1.2925 -0.2919
 4032SOL    HW223730   2.164   4.163   2.377 -1.4856  0.1696  0.8665
 4033SOL     OW23731   1.320   0.093  15.810  0.6003 -0.0458 -0.7532
 4033SOL    HW123732   1.311   0.020  15.749  0.7465 -2.1852  1.8395
 4033SOL    HW223733   1.229   0.125  15.811  0.6434  0.0457  0.1193
 4034SOL     OW23734   3.477   1.057   3.884  0.7611  0.1482  0.0546
 4034SOL    HW123735   3.451   1.105   3.963  1.4655  0.5068  0.0646
 4034SOL    HW223736   3.528   1.124   3.838  0.2683  1.2074  1.0451
 4035SOL     OW23737   3.633   4.483   9.607  0.2044 -0.0868  0.2759
 4035SOL    HW123738   3.633   4.421   9.534  0.8793 -1.4966  1.4960
 4035SOL    HW223739   3.539   4.491   9.619  0.0502  0.9570 -1.5182
 4036SOL     OW23740   3.312   3.777   2.048  0.1318  0.0574  0.0487
 4036SOL    HW123741   3.302   3.838   2.121  2.2923  1.2229 -0.6464
 4036SOL    HW223742   3.347   3.843   1.988 -0.6346  2.4364  2.1887
 4037SOL     OW23743   1.268   3.224   8.396 -0.6273 -0.2290 -0.0949
 4037SOL    HW123744   1.247   3.131   8.386  1.6823 -0.6333 -1.3127
 4037SOL    HW223745   1.309   3.219   8.483 -1.4956  0.3141  0.3396
 4038SOL     OW23746   0.744   0.998   3.631 -0.0325  0.6087  0.4872
 4038SOL    HW123747   0.823   0.949   3.607 -0.1695  1.4477 -1.6801
 4038SOL    HW223748   0.775   1.038   3.713  1.4266  0.2128  0.1295
 4039SOL     OW23749   2.411   2.620   3.131 -0.3442  0.4106 -0.5080
 4039SOL    HW123750   2.397   2.698   3.186  3.7489 -0.1471  1.3466
 4039SOL    HW223751   2.396   2.650   3.042 -0.2193  0.4858 -0.5039
 4040SOL     OW23752   0.182   2.990   6.572 -0.0666  0.1757 -0.2342
 4040SOL    HW123753   0.120   3.062   6.567 -0.1305 -0.1104 -3.7691
 4040SOL    HW223754   0.266   3.032   6.550 -0.0586  0.5658  0.5570
 4041SOL     OW23755   1.918   3.855   6.874 -0.5550 -0.5666 -0.5133
 4041SOL    HW123756   1.982   3.786   6.893 -1.6827 -1.4586  0.0009
 4041SOL    HW223757   1.832   3.814   6.882  0.0445 -1.6986  0.1573
 4042SOL     OW23758   2.489   2.170   4.499 -0.2350  0.4628  0.4618
 4042SOL    HW123759   2.464   2.183   4.591 -2.3849  1.2887 -0.2261
 4042SOL    HW223760   2.527   2.252   4.468 -1.1824  0.8125  0.2165
 4043SOL     OW23761   4.221   2.803   5.687 -0.4062  0.0617  0.1977
 4043SOL    HW123762   4.147   2.742   5.681  0.3054 -0.7093 -0.6986
 4043SOL    HW223763   4.295   2.742   5.694 -2.3239 -2.1048  1.7665
 4044SOL     OW23764   2.079   0.692   7.248 -0.1240 -0.2895  0.1792
 4044SOL    HW123765   2.019   0.714   7.319 -1.1044 -0.8548 -0.4712
 4044SOL    HW223766   2.011   0.644   7.200 -1.2942  0.7131  0.8263
 4045SOL     OW23767   3.781   4.576   8.410  0.0786 -0.4212 -0.2555
 4045SOL    HW123768   3.835   4.646   8.373  1.5147 -1.2747  0.2392
 4045SOL    HW223769   3.826   4.503   8.368  4.0257  0.6684  2.1675
 4046SOL     OW23770   1.207   2.459   3.070  0.2247  0.1746 -0.5168
 4046SOL    HW123771   1.280   2.402   3.045 -0.4889 -0.7734 -0.4274
 4046SOL    HW223772   1.202   2.454   3.165 -0.1507  1.7466 -0.4504
 4047SOL     OW23773   4.010   1.033   5.785  0.5864 -0.4673  0.0864
 4047SOL    HW123774   4.050   1.048   5.699 -0.2042  0.9685 -0.0279
 4047SOL    HW223775   3.956   0.959   5.761 -1.3734  0.9718  0.0312
 4048SOL     OW23776   4.672   2.792   2.313  0.5226  0.3314 -0.3149
 4048SOL    HW123777   0.003   2.841   2.360  2.2241 -2.4894  0.2529
 4048SOL    HW223778   4.679   2.708   2.359  1.1274  0.1865 -0.6696
 4049SOL     OW23779   1.306   3.439   4.972  0.2420  0.0303  0.1088
 4049SOL    HW123780   1.217   3.471   4.954 -0.8138 -2.9186  0.0555
 4049SOL    HW223781   1.330   3.393   4.892  1.5438  0.5704  0.2029
 4050SOL     OW23782   2.179   3.033   9.230 -0.3632 -0.5221 -0.4306
 4050SOL    HW123783   2.249   2.969   9.223 -0.2173 -0.3650 -0.4201
 4050SOL    HW223784   2.216   3.110   9.185 -3.1287  0.3551 -1.2473
 4051SOL     OW23785   3.500   0.894  12.206 -0.0725 -0.6193  0.2242
 4051SOL    HW123786   3.489   0.800  12.220 -2.2590 -0.5751 -1.1405
 4051SOL    HW223787   3.478   0.918  12.296 -1.4641 -1.3565  0.0856
 4052SOL     OW23788   0.549   3.706   2.120 -0.4477  0.6289 -0.1207
 4052SOL    HW123789   0.479   3.651   2.085  0.2645  0.8423 -1.8796
 4052SOL    HW223790   0.504   3.790   2.115 -0.9537  0.3060 -0.9180
 4053SOL     OW23791   1.579   2.554  14.010  0.1347 -0.1953 -0.5476
 4053SOL    HW123792   1.561   2.646  14.029  1.3067 -0.0802 -0.0365
 4053SOL    HW223793   1.673   2.552  13.990  0.6917 -0.7191  2.1996
 4054SOL     OW23794   2.548   4.647   6.888 -0.0309 -0.2006 -0.6224
 4054SOL    HW123795   2.621   4.662   6.828 -0.2787  0.7617 -0.6731
 4054SOL    HW223796   2.582   4.633   6.977 -0.9938  2.0662  0.0948
 4055SOL     OW23797   0.869   3.997   0.064  0.3157  0.2379  0.4359
 4055SOL    HW123798   0.930   4.067   0.088 -0.1554  1.1293 -0.9550
 4055SOL    HW223799   0.928   3.922   0.065  0.9972  0.7679 -1.0806
 4056SOL     OW23800   2.990   3.266  16.985 -0.1204 -0.4612  0.6297
 4056SOL    HW123801   2.985   3.355  16.950  0.0898 -1.0383 -0.8622
 4056SOL    HW223802   2.914   3.265  17.044 -1.4187 -2.0178 -1.0983
 4057SOL     OW23803   0.405   4.647   9.636  0.5079  0.0183 -0.0016
 4057SOL    HW123804   0.344   4.703   9.683 -2.5619 -1.5592 -2.1566
 4057SOL    HW223805   0.393   4.570   9.691  0.0334  1.7603  2.3161
 4058SOL     OW23806   2.145   4.531   5.792  0.0876 -0.3305 -0.0570
 4058SOL    HW123807   2.238   4.517   5.775  0.0325 -0.4840 -0.2417
 4058SOL    HW223808   2.122   4.518   5.885  0.7806  1.2942  0.3278
 4059SOL     OW23809   2.660   1.228  10.319 -0.6448 -0.6713  0.2095
 4059SOL    HW123810   2.733   1.191  10.270  0.3746 -0.2760  1.4255
 4059SOL    HW223811   2.657   1.318  10.289  1.3077 -0.0619  1.8589
 4060SOL     OW23812   1.323   3.754  12.144  0.3012  0.0357 -0.1857
 4060SOL    HW123813   1.351   3.665  12.167  1.5083  0.2443 -0.8126
 4060SOL    HW223814   1.359   3.796  12.222  1.1392  1.3579 -1.2749
 4061SOL     OW23815   3.433   3.147   5.267  0.1343  0.1202 -0.3188
 4061SOL    HW123816   3.475   3.230   5.245 -0.8522  1.0677  1.3910
 4061SOL    HW223817   3.421   3.091   5.190  0.6543 -0.4369  0.0013
 4062SOL     OW23818   3.321   2.581  11.921  0.7617 -0.2479  0.2433
 4062SOL    HW123819   3.409   2.567  11.955  1.0321  0.9622  0.0309
 4062SOL    HW223820   3.288   2.655  11.972 -0.0964 -0.8376  0.5418
 4063SOL     OW23821   4.586   1.198   7.009  0.0335 -0.3218 -0.0284
 4063SOL    HW123822   4.551   1.267   6.953  0.0327  0.2948  0.7350
 4063SOL    HW223823   4.524   1.127   6.993  0.1221 -0.8651  2.0113
 4064SOL     OW23824   3.241   3.879  15.566 -0.2071  0.0611 -0.0321
 4064SOL    HW123825   3.160   3.914  15.605  0.0847 -0.2584  0.8684
 4064SOL    HW223826   3.307   3.933  15.609  0.9713 -2.0561  0.7853
 4065SOL     OW23827   0.189   0.800  12.200 -0.0628 -0.3208  0.2351
 4065SOL    HW123828   0.158   0.720  12.159  0.6060 -1.0852  1.2296
 4065SOL    HW223829   0.111   0.855  12.201  0.0759 -0.0881 -2.1106
 4066SOL     OW23830   1.108   1.753   3.432 -0.1067  0.2753  0.3158
 4066SOL    HW123831   1.074   1.812   3.365 -2.6373  0.8702  2.1463
 4066SOL    HW223832   1.149   1.819   3.488 -0.2290  1.3993 -0.9153
 4067SOL     OW23833   2.276   3.961   9.023 -0.3222  0.0892 -0.3043
 4067SOL    HW123834   2.281   3.868   9.002  1.9971 -0.2443  1.7367
 4067SOL    HW223835   2.280   3.964   9.118 -1.2486 -0.4244 -0.2540
 4068SOL     OW23836   0.489   3.537   5.895 -0.0487  0.0102 -0.1392
 4068SOL    HW123837   0.422   3.540   5.827  1.1962  0.4019 -1.3488
 4068SOL    HW223838   0.534   3.458   5.866 -0.4331 -0.2393 -0.0615
 4069SOL     OW23839   2.340   1.588   0.962 -0.0754 -0.5591 -0.4742
 4069SOL    HW123840   2.386   1.642   0.897 -0.4410  0.3869  0.0505
 4069SOL    HW223841   2.366   1.647   1.034 -0.9200 -1.2649  0.3976
 4070SOL     OW23842   3.413   4.274   8.236  0.0070  0.5291  0.2771
 4070SOL    HW123843   3.475   4.341   8.267 -0.1171  0.6683  0.2232
 4070SOL    HW223844   3.388   4.329   8.163 -0.5632  2.1418  1.6967
 4071SOL     OW23845   2.924   2.709   0.221 -0.3994 -0.3915 -0.5768
 4071SOL    HW123846   2.937   2.616   0.202  0.1545 -0.3905 -0.1891
 4071SOL    HW223847   2.829   2.721   0.215 -0.2457  0.2546 -1.7275
 4072SOL     OW23848   1.397   2.386   4.152  0.0437  0.7812  0.2887
 4072SOL    HW123849   1.472   2.405   4.209 -0.7839  0.2140  1.5747
 4072SOL    HW223850   1.370   2.476   4.135 -0.4999  0.9898  2.2836
 4073SOL     OW23851   2.749   1.668   3.137  0.5148 -0.3933  0.2022
 4073SOL    HW123852   2.813   1.739   3.128  1.4170 -1.1635  0.5577
 4073SOL    HW223853   2.750   1.636   3.227  0.7439 -1.3522 -0.1405
 4074SOL     OW23854   0.529   1.846   1.812  0.1576 -0.4176  0.0373
 4074SOL    HW123855   0.455   1.816   1.758  0.9505 -0.9234 -0.7827
 4074SOL    HW223856   0.600   1.831   1.749 -0.6812  0.4502 -1.1310
 4075SOL     OW23857   0.019   3.447   2.079 -0.0443  0.0417 -0.2564
 4075SOL    HW123858   0.078   3.465   2.152  0.0522 -1.2952 -0.0093
 4075SOL    HW223859   4.703   3.527   2.073 -1.9069 -1.3031 -2.1947
 4076SOL     OW23860   1.522   1.277   9.661  0.6934 -0.1023 -0.4753
 4076SOL    HW123861   1.455   1.232   9.713 -0.8255  2.2849 -0.3436
 4076SOL    HW223862   1.466   1.313   9.591  0.2097  1.3902  0.6824
 4077SOL     OW23863   0.508   2.297   7.439  0.0105  0.3041  0.5982
 4077SOL    HW123864   0.457   2.339   7.508 -0.2766 -0.2882  0.7409
 4077SOL    HW223865   0.446   2.236   7.400 -0.8331  0.4194  1.7498
 4078SOL     OW23866   2.868   3.854   1.976 -0.1123 -0.7188  0.3197
 4078SOL    HW123867   2.876   3.860   2.071  1.8812 -0.0118  0.1229
 4078SOL    HW223868   2.860   3.760   1.959 -1.6377 -0.4561 -0.4285
 4079SOL     OW23869   3.914   2.966  14.564  0.6224  0.2928 -0.1749
 4079SOL    HW123870   3.866   3.049  14.566  0.3449  0.1070  0.5550
 4079SOL    HW223871   3.911   2.925  14.650  3.3045 -0.4462 -0.4266
 4080SOL     OW23872   1.611   1.865   9.077 -0.3801  0.2870 -0.5487
 4080SOL    HW123873   1.630   1.895   9.166 -3.0740 -0.4267  0.2411
 4080SOL    HW223874   1.641   1.774   9.080  0.1969  0.5923  2.7047
 4081SOL     OW23875   3.892   0.992   3.111  0.5114  0.1530  0.5050
 4081SOL    HW123876   3.830   1.032   3.050  1.6529  0.4784 -0.4334
 4081SOL    HW223877   3.863   0.901   3.115 -1.0690  0.7601  2.5599
 4082SOL     OW23878   0.389   3.104   4.717  0.3325  0.2350  0.5806
 4082SOL    HW123879   0.302   3.079   4.687 -0.4848  1.5500  1.8791
 4082SOL    HW223880   0.447   3.041   4.673 -2.1172 -1.6189 -0.0202
 4083SOL     OW23881   2.366   3.831  15.175 -0.2657 -0.4199 -0.5014
 4083SOL    HW123882   2.448   3.878  15.194 -0.8210  0.3191  0.0637
 4083SOL    HW223883   2.389   3.742  15.202  2.6252  1.0870  1.9988
 4084SOL     OW23884   0.046   3.069   3.447  0.1464  0.8740 -0.0288
 4084SOL    HW123885   0.071   3.119   3.524 -0.9852 -0.2917  1.1079
 4084SOL    HW223886   0.106   2.996   3.462  0.1904  0.8854 -0.1500
 4085SOL     OW23887   3.414   2.875   6.548  0.3566  0.1699 -0.0427
 4085SOL    HW123888   3.333   2.827   6.533  0.2889  0.2577  0.0421
 4085SOL    HW223889   3.471   2.873   6.471  0.0608 -0.7609 -0.2399
 4086SOL     OW23890   0.316   0.754  10.233  0.0894  0.7721 -0.5296
 4086SOL    HW123891   0.383   0.689  10.254 -0.3332  0.7215  0.6699
 4086SOL    HW223892   0.358   0.778  10.151  1.2634 -1.1030 -0.4743
 4087SOL     OW23893   1.057   4.503   9.943  0.2704 -0.7017  0.1333
 4087SOL    HW123894   1.084   4.439  10.009 -1.4240 -1.3025  0.2509
 4087SOL    HW223895   1.131   4.564   9.941  0.2519 -0.6927 -0.2347
 4088SOL     OW23896   0.544   2.850   2.737  0.2814  0.2325 -0.0867
 4088SOL    HW123897   0.622   2.903   2.720 -0.6268  0.5352 -3.2038
 4088SOL    HW223898   0.523   2.871   2.828  0.6569 -1.0011  0.2911
 4089SOL     OW23899   0.026   1.862   4.200  0.1933  0.5821 -0.1407
 4089SOL    HW123900   0.004   1.797   4.267  0.3649 -0.6283 -1.2740
 4089SOL    HW223901   0.100   1.816   4.161  0.9327  3.2894 -1.9219
 4090SOL     OW23902   2.628   3.889   0.203 -0.3592 -0.0708  0.5632
 4090SOL    HW123903   2.696   3.830   0.172 -1.1116  0.8905 -3.0216
 4090SOL    HW223904   2.659   3.928   0.284 -1.9283 -1.5328  1.8780
 4091SOL     OW23905   2.413   3.037  15.911  0.6571  0.0118 -0.1310
 4091SOL    HW123906   2.349   3.064  15.977  2.0448 -0.1375  1.2694
 4091SOL    HW223907   2.359   3.042  15.832 -0.7262  0.5500  0.8426
 4092SOL     OW23908   1.789   1.222  13.594 -0.3995 -0.1350 -0.0756
 4092SOL    HW123909   1.855   1.169  13.639 -1.7755 -1.7779  0.0353
 4092SOL    HW223910   1.703   1.189  13.621  0.4357 -2.0019  0.3268
 4093SOL     OW23911   1.641   0.211  13.661 -0.5580 -0.2374 -0.3136
 4093SOL    HW123912   1.625   0.276  13.730 -0.4089  0.9848 -1.4364
 4093SOL    HW223913   1.681   0.144  13.717 -1.7787 -0.2847  0.5031
 4094SOL     OW23914   1.370   3.018   4.483 -0.1981 -0.1802 -0.6642
 4094SOL    HW123915   1.301   2.953   4.492  1.9842 -2.4103  0.0342
 4094SOL    HW223916   1.436   2.954   4.512 -0.0040 -0.6658 -2.1801
 4095SOL     OW23917   0.278   2.854  13.031  0.0559  0.1779  0.3414
 4095SOL    HW123918   0.271   2.880  12.939  2.4658  1.5852  0.5516
 4095SOL    HW223919   0.236   2.768  13.023  0.4835 -0.0619  0.7310
 4096SOL     OW23920   3.135   0.302   7.837 -0.0698 -0.0904  0.3022
 4096SOL    HW123921   3.052   0.258   7.859 -0.3129  0.2171  0.0014
 4096SOL    HW223922   3.153   0.350   7.917 -0.0388  0.1185  0.1696
 4097SOL     OW23923   3.680   1.595   6.120  0.0092 -0.1049  0.0798
 4097SOL    HW123924   3.629   1.617   6.198 -0.9987 -2.0408 -0.0365
 4097SOL    HW223925   3.769   1.627   6.140 -0.3481  1.2990 -0.5737
 4098SOL     OW23926   3.235   4.143  11.756 -0.6632 -0.5829  0.0893
 4098SOL    HW123927   3.178   4.219  11.772  0.6176  0.0415  1.8139
 4098SOL    HW223928   3.257   4.163  11.665 -0.2721 -0.8827  0.1175
 4099SOL     OW23929   2.219   1.081   5.038  0.1318 -0.2477 -0.3001
 4099SOL    HW123930   2.136   1.078   5.086  2.1164 -0.2496  3.1035
 4099SOL    HW223931   2.254   1.168   5.056  0.4458 -0.2255 -0.9897
 4100SOL     OW23932   1.083   1.839  17.426  0.0899 -0.3119 -0.1115
 4100SOL    HW123933   0.993   1.866  17.442  0.5309  1.4615 -0.5955
 4100SOL    HW223934   1.138   1.917  17.437 -1.6148  0.5986  1.8820
 4101SOL     OW23935   1.492   2.407   9.988  0.1558 -0.4926  0.6447
 4101SOL    HW123936   1.547   2.484   9.973 -2.4563  1.8836  3.3792
 4101SOL    HW223937   1.559   2.342  10.010 -0.4745 -1.1125  0.7067
 4102SOL     OW23938   0.379   4.556   8.236 -0.1924 -0.1212 -0.1877
 4102SOL    HW123939   0.429   4.537   8.315  0.4702  0.0956 -0.5485
 4102SOL    HW223940   0.292   4.538   8.272  0.2296 -0.7661  0.5107
 4103SOL     OW23941   0.455   2.774  17.399 -0.6738  0.0788 -0.0482
 4103SOL    HW123942   0.526   2.833  17.372 -0.5258  0.8211  1.9544
 4103SOL    HW223943   0.418   2.815  17.477  0.1924 -0.7673  0.8172
 4104SOL     OW23944   1.799   4.095   9.983  0.3503 -0.2243  0.3608
 4104SOL    HW123945   1.706   4.111   9.998  0.7155 -0.1553  2.5372
 4104SOL    HW223946   1.828   4.186   9.980  2.2205 -0.8261  0.0675
 4105SOL     OW23947   4.015   4.186  13.951 -0.1052 -0.0784  0.1674
 4105SOL    HW123948   4.018   4.281  13.967 -2.0221 -0.1976  1.2511
 4105SOL    HW223949   4.010   4.145  14.038  1.1080  0.9162  0.7064
 4106SOL     OW23950   0.353   4.112   2.589  0.2198  0.5136 -0.5311
 4106SOL    HW123951   0.293   4.175   2.549 -0.2219 -0.3730 -1.2713
 4106SOL    HW223952   0.353   4.051   2.515  0.7944  0.0371 -0.1469
 4107SOL     OW23953   0.789   0.823  16.371  0.2590  0.0928 -0.2378
 4107SOL    HW123954   0.746   0.908  16.376  0.4041  0.0821  1.1314
 4107SOL    HW223955   0.722   0.760  16.347  0.2549 -0.1341  0.3681
 4108SOL     OW23956   2.562   4.132  14.065 -0.3506  0.2306 -1.1363
 4108SOL    HW123957   2.499   4.177  14.008 -0.7266  1.4534  0.2371
 4108SOL    HW223958   2.531   4.042  14.053 -0.2314 -0.1253  1.2658
 4109SOL     OW23959   0.188   2.648  16.615  0.5049  0.5386 -0.3063
 4109SOL    HW123960   0.276   2.669  16.585  1.3823 -1.2292  1.0251
 4109SOL    HW223961   0.139   2.655  16.533  1.0490  0.1278 -0.6716
 4110SOL     OW23962   3.212   0.536   3.200  0.1295  0.2370  0.0168
 4110SOL    HW123963   3.247   0.450   3.224  0.4438 -0.4082 -2.7513
 4110SOL    HW223964   3.184   0.579   3.281 -0.0383  0.1555  0.0014
 4111SOL     OW23965   1.291   2.780   3.193 -0.1537 -0.4430 -0.2583
 4111SOL    HW123966   1.253   2.733   3.119 -1.1345 -1.7296  1.0635
 4111SOL    HW223967   1.254   2.868   3.187 -1.5049 -1.1101 -1.6008
 4112SOL     OW23968   0.629   3.779   6.866  0.7294 -0.6966  0.2170
 4112SOL    HW123969   0.536   3.781   6.891  0.6629 -2.3808  0.1011
 4112SOL    HW223970   0.659   3.742   6.949 -1.4361  1.9328  2.2115
 4113SOL     OW23971   0.317   1.705   9.036 -0.1565  0.0538 -0.2224
 4113SOL    HW123972   0.290   1.652   8.961 -2.9370  0.6233  0.3835
 4113SOL    HW223973   0.291   1.642   9.104  0.6052  0.4373  0.4231
 4114SOL     OW23974   2.610   3.627  15.221 -0.4004 -0.3036  0.3001
 4114SOL    HW123975   2.611   3.592  15.310 -1.0393 -0.1627  0.3611
 4114SOL    HW223976   2.653   3.713  15.221 -0.0978 -0.4577  2.5536
 4115SOL     OW23977   1.886   3.896   4.915 -0.3759 -0.4582 -0.3015
 4115SOL    HW123978   1.966   3.843   4.914 -0.1784 -0.2272  2.5968
 4115SOL    HW223979   1.825   3.846   4.861 -1.7118  0.3175  0.5084
 4116SOL     OW23980   3.936   4.537   8.082  0.0707  0.1785 -0.3929
 4116SOL    HW123981   3.842   4.534   8.063 -0.0983 -1.9429  0.7369
 4116SOL    HW223982   3.983   4.538   7.999 -2.0642 -0.2184 -1.6187
 4117SOL     OW23983   1.515   3.596   6.571  0.1631 -0.3237  0.3315
 4117SOL    HW123984   1.503   3.655   6.646  0.0149 -1.4819  1.2190
 4117SOL    HW223985   1.610   3.587   6.568  0.2649  0.9162 -0.2546
 4118SOL     OW23986   1.924   2.469   8.189 -0.1019 -0.5713  0.0182
 4118SOL    HW123987   1.970   2.415   8.254  1.8588 -2.1967 -2.7360
 4118SOL    HW223988   1.891   2.398   8.134  2.1899 -0.2610 -1.7511
 4119SOL     OW23989   4.285   0.028   7.070  0.3272 -0.5609 -0.3671
 4119SOL    HW123990   4.233   0.081   7.010  0.5146  0.4327  0.3297
 4119SOL    HW223991   4.302   0.097   7.135 -0.9706 -0.2781 -0.3443
 4120SOL     OW23992   2.260   4.167   6.788  0.0375 -0.2193 -0.1426
 4120SOL    HW123993   2.193   4.103   6.765 -0.4755  0.5739 -0.8328
 4120SOL    HW223994   2.336   4.112   6.809 -0.3824 -0.7156  0.0829
 4121SOL     OW23995   1.709   3.516   5.020  0.1773  0.2777 -0.6428
 4121SOL    HW123996   1.617   3.539   5.030 -0.2295 -1.6298 -0.0070
 4121SOL    HW223997   1.753   3.597   5.049 -0.0260  0.2733 -0.3267
 4122SOL     OW23998   3.078   0.454  13.484 -0.5529 -0.0166  0.5197
 4122SOL    HW123999   3.005   0.398  13.513 -1.0107 -0.9143 -2.3573
 4122SOL    HW224000   3.095   0.503  13.564  3.6651  1.3728 -1.2276
 4123SOL     OW24001   3.485   1.221   6.174 -0.3132 -0.0998 -0.3953
 4123SOL    HW124002   3.572   1.182   6.173  0.0565  0.6985  0.8344
 4123SOL    HW224003   3.441   1.136   6.180 -2.3034  1.0843  1.6589
 4124SOL     OW24004   4.100   2.236   6.285  0.0857  0.1843 -0.2824
 4124SOL    HW124005   4.193   2.230   6.265 -0.0228  0.0175 -0.7408
 4124SOL    HW224006   4.089   2.331   6.292  0.4658  0.1856  0.2830
 4125SOL     OW24007   4.446   2.811  17.339 -0.2933  0.4488  0.4808
 4125SOL    HW124008   4.534   2.799  17.374 -0.4313  1.4903  1.1846
 4125SOL    HW224009   4.394   2.777  17.412 -0.3484  0.3795  0.4085
 4126SOL     OW24010   1.842   4.307   8.092  0.2684 -0.1468 -0.1555
 4126SOL    HW124011   1.790   4.373   8.046 -2.4666 -1.4183  1.1006
 4126SOL    HW224012   1.903   4.365   8.136 -0.9279  2.2704 -1.6730
 4127SOL     OW24013   0.928   4.394   0.417  0.0774 -0.3460  0.6498
 4127SOL    HW124014   0.894   4.465   0.362 -2.4639 -1.5639  0.6156
 4127SOL    HW224015   0.974   4.452   0.478 -1.0727 -0.4106  1.5764
 4128SOL     OW24016   1.288   2.259   9.122 -0.3120 -0.3848  0.2723
 4128SOL    HW124017   1.239   2.300   9.051  1.5723  0.7952 -0.3604
 4128SOL    HW224018   1.226   2.188   9.140  0.3255 -1.2745 -1.0809
 4129SOL     OW24019   2.238   3.214  14.465  0.4103  0.3667 -0.0622
 4129SOL    HW124020   2.240   3.283  14.399 -2.0651 -0.1595 -0.6587
 4129SOL    HW224021   2.170   3.258  14.515  0.4045  1.0384 -0.6530
 4130SOL     OW24022   4.282   1.166  11.660 -0.2422  0.0000  0.0833
 4130SOL    HW124023   4.287   1.212  11.744  0.6450  0.0693 -0.0004
 4130SOL    HW224024   4.252   1.079  11.688  1.1211 -0.2137  0.9273
 4131SOL     OW24025   4.131   1.945  14.559 -0.3850  0.5961 -0.7731
 4131SOL    HW124026   4.170   1.865  14.594  0.2457  1.0448 -0.4537
 4131SOL    HW224027   4.070   1.972  14.627 -1.3727 -1.2104 -0.9192
 4132SOL     OW24028   3.703   0.432  15.634  0.7342  0.4348  0.4944
 4132SOL    HW124029   3.712   0.360  15.571 -0.1254 -1.0977  2.1461
 4132SOL    HW224030   3.671   0.509  15.586 -1.0866 -1.4057 -1.2141
 4133SOL     OW24031   0.488   0.009  16.543 -0.0712  0.2575 -0.0978
 4133SOL    HW124032   0.480   4.691  16.622  0.5945 -2.7781 -2.1076
 4133SOL    HW224033   0.542   4.695  16.481 -1.6285 -1.0994 -0.3592
 4134SOL     OW24034   2.637   0.382  11.563 -0.9328  0.5629 -0.5416
 4134SOL    HW124035   2.632   0.312  11.498  0.8600 -0.9439  0.9231
 4134SOL    HW224036   2.615   0.339  11.645 -0.8474  0.5826 -0.5080
 4135SOL     OW24037   0.576   0.819   0.037  0.3447 -0.4357  0.0006
 4135SOL    HW124038   0.567   0.768   0.118 -0.5608  0.5673  0.5331
 4135SOL    HW224039   0.599   0.741  17.728 -0.9980 -0.7603 -0.1117
 4136SOL     OW24040   4.143   3.135   2.012  0.1405  0.1357 -0.0215
 4136SOL    HW124041   4.236   3.129   2.035  0.3427  0.3950 -0.7699
 4136SOL    HW224042   4.142   3.162   1.920 -1.2387 -2.0878 -0.6424
 4137SOL     OW24043   3.231   1.865   0.409 -0.3240  0.1363 -0.3351
 4137SOL    HW124044   3.135   1.864   0.408 -0.2861 -2.0848 -1.3740
 4137SOL    HW224045   3.249   1.828   0.495 -0.3881  1.0632  0.0699
 4138SOL     OW24046   0.630   0.346  11.324 -0.1308  0.3377  0.1408
 4138SOL    HW124047   0.615   0.302  11.241 -0.9315 -0.2147  0.5830
 4138SOL    HW224048   0.605   0.277  11.386 -1.0959  0.4582 -0.1195
 4139SOL     OW24049   3.662   0.353  17.227 -0.3752  0.4426  0.1572
 4139SOL    HW124050   3.635   0.361  17.136 -1.9820 -2.1187  0.4243
 4139SOL    HW224051   3.609   0.424  17.264 -0.9877  0.1924 -0.2422
 4140SOL     OW24052   4.464   3.697  10.929 -0.1037 -0.0922 -0.2536
 4140SOL    HW124053   4.455   3.658  11.016  2.8511 -0.0169  0.0862
 4140SOL    HW224054   4.440   3.786  10.957  0.3752  1.0171 -3.3098
 4141SOL     OW24055   4.008   3.474   6.875  0.3329 -0.3052  0.2268
 4141SOL    HW124056   4.014   3.531   6.952  2.0453  1.4952 -1.2527
 4141SOL    HW224057   3.920   3.436   6.885  0.1121 -0.1547 -1.1382
 4142SOL     OW24058   1.167   0.165   3.875 -0.3444 -0.2876 -0.3926
 4142SOL    HW124059   1.131   0.207   3.797 -1.7018 -0.4432  0.1333
 4142SOL    HW224060   1.167   0.238   3.937 -2.9107 -0.3853 -0.2397
 4143SOL     OW24061   1.923   0.129   3.315 -0.1093  0.9848 -0.0530
 4143SOL    HW124062   1.962   0.057   3.366 -0.4427  1.0362  0.2788
 4143SOL    HW224063   1.841   0.140   3.363 -0.0153 -1.0622  0.5812
 4144SOL     OW24064   2.556   2.096   6.015  0.4611 -0.4836  0.3107
 4144SOL    HW124065   2.496   2.059   6.079  0.1457 -1.4318 -0.5206
 4144SOL    HW224066   2.522   2.063   5.931 -1.1470  1.1278  0.3416
 4145SOL     OW24067   2.371   3.492   2.185  0.3066  0.0213 -0.1271
 4145SOL    HW124068   2.416   3.503   2.268 -1.1451  1.5212  0.4694
 4145SOL    HW224069   2.399   3.403   2.162  1.4065  0.7868 -1.7030
 4146SOL     OW24070   1.037   1.585  11.821 -0.0436  0.0088  0.4736
 4146SOL    HW124071   1.065   1.517  11.760  1.9509 -0.6992  2.1630
 4146SOL    HW224072   0.976   1.544  11.882 -0.3514 -1.2935 -0.7297
 4147SOL     OW24073   3.024   1.742   8.064  0.0590  0.0720  0.3154
 4147SOL    HW124074   2.980   1.704   8.140  1.4337 -1.0798  0.5290
 4147SOL    HW224075   2.953   1.762   8.004  0.3121  1.0845  0.3520
 4148SOL     OW24076   1.605   2.053   3.416  0.4885 -0.2399  0.1802
 4148SOL    HW124077   1.675   2.044   3.480  1.1021 -1.7535 -0.7122
 4148SOL    HW224078   1.575   1.965   3.438  0.5129 -1.0510 -3.0131
 4149SOL     OW24079   3.914   1.691   5.869  0.0149 -0.0291 -0.2159
 4149SOL    HW124080   3.925   1.692   5.964  2.8798 -3.3053 -0.5332
 4149SOL    HW224081   3.974   1.762   5.848  0.0395  0.2034  0.6603
 4150SOL     OW24082   3.659   2.304   3.378 -0.4309  0.4782  0.5766
 4150SOL    HW124083   3.624   2.369   3.439  2.1953  1.2123  1.2963
 4150SOL    HW224084   3.745   2.341   3.358 -0.7630  1.1018  0.2987
 4151SOL     OW24085   3.009   4.120   0.578  0.2596  0.0894  0.3225
 4151SOL    HW124086   3.103   4.118   0.558  0.3523 -1.4770  0.8766
 4151SOL    HW224087   2.991   4.032   0.545 -1.5780  1.6938 -2.9046
 4152SOL     OW24088   1.951   1.600  17.727 -0.5266 -0.0388 -0.6953
 4152SOL    HW124089   1.943   1.681   0.034  0.7866 -1.1644  1.3720
 4152SOL    HW224090   2.005   1.548   0.045 -1.5966  0.3300  0.5985
 4153SOL     OW24091   0.384   3.043   8.373  0.5739  0.1493  0.4059
 4153SOL    HW124092   0.380   3.136   8.351  1.6734 -0.3260 -1.8564
 4153SOL    HW224093   0.430   3.045   8.457  0.2466 -2.1408  0.6423
 4154SOL     OW24094   2.728   2.867   7.231  0.2713  0.0065 -0.5510
 4154SOL    HW124095   2.823   2.861   7.228  0.2859 -0.8810  1.9658
 4154SOL    HW224096   2.707   2.781   7.270  0.3005  0.7833  1.1653
 4155SOL     OW24097   2.007   1.942   8.091 -0.0317  0.3065  0.2393
 4155SOL    HW124098   2.021   1.887   8.168  1.3169 -1.6637 -1.4013
 4155SOL    HW224099   2.057   2.020   8.115 -0.7215  0.9365 -0.3939
 4156SOL     OW24100   4.145   0.327   3.104 -0.1479 -0.4008  0.1889
 4156SOL    HW124101   4.105   0.381   3.035  0.6685  0.3788  0.3252
 4156SOL    HW224102   4.132   0.378   3.184 -2.0614  1.5654 -1.3699
 4157SOL     OW24103   3.123   3.590   3.648  0.3290  0.1224  0.7113
 4157SOL    HW124104   3.212   3.621   3.664  1.3756 -2.5633  0.1767
 4157SOL    HW224105   3.111   3.618   3.557  0.5669 -0.6729  0.4356
 4158SOL     OW24106   0.244   0.926   5.223 -0.2882  0.0366 -0.1353
 4158SOL    HW124107   0.275   1.000   5.275  0.6953 -1.4551  1.4523
 4158SOL    HW224108   0.179   0.889   5.284 -0.9982 -0.8019 -1.3957
 4159SOL     OW24109   4.102   0.963   0.275 -0.0444  0.0192  0.3348
 4159SOL    HW124110   4.181   1.016   0.281 -0.1138  0.3557 -1.6102
 4159SOL    HW224111   4.129   0.873   0.290  1.4808  0.3164 -0.7245
 4160SOL     OW24112   0.205   1.738   4.947  0.2325  0.0238 -0.4182
 4160SOL    HW124113   0.226   1.829   4.970  1.3131 -0.2264 -0.4134
 4160SOL    HW224114   0.161   1.750   4.863 -0.4479  0.9020  0.0545
 4161SOL     OW24115   0.279   1.628  15.468 -0.2260 -0.1228  0.2530
 4161SOL    HW124116   0.204   1.687  15.469  0.7919  1.1715 -0.5129
 4161SOL    HW224117   0.308   1.643  15.378 -2.9601  0.7778 -0.4710
 4162SOL     OW24118   0.121   0.898   6.088 -0.5547 -0.2923  0.2385
 4162SOL    HW124119   0.200   0.863   6.046  0.7712  2.2289  0.6559
 4162SOL    HW224120   0.073   0.930   6.011  0.6473 -0.0366 -0.4143
 4163SOL     OW24121   3.435   3.298   2.471  0.0481  0.8482  0.3931
 4163SOL    HW124122   3.389   3.366   2.520 -0.8099 -0.6421  1.6667
 4163SOL    HW224123   3.374   3.225   2.468  0.5431  0.3784  1.7307
 4164SOL     OW24124   3.794   3.425   7.224 -0.5994  0.1142  0.4888
 4164SOL    HW124125   3.710   3.468   7.240  0.5157  2.4140  0.0366
 4164SOL    HW224126   3.760   3.336   7.211 -2.7476  0.8431  1.1412
 4165SOL     OW24127   1.117   0.390   4.026 -0.5354 -0.8595 -0.2049
 4165SOL    HW124128   1.043   0.359   4.079 -1.8870  2.3340 -0.2641
 4165SOL    HW224129   1.096   0.483   4.028  1.1418 -0.5302  1.9073
 4166SOL     OW24130   3.637   3.737   4.832 -0.0789 -0.2336 -0.2254
 4166SOL    HW124131   3.566   3.726   4.769 -1.5324 -2.6867  1.8264
 4166SOL    HW224132   3.713   3.723   4.776 -1.4077  1.9574 -2.6097
 4167SOL     OW24133   0.392   1.800  12.095 -0.0517  0.8398  0.1338
 4167SOL    HW124134   0.463   1.737  12.101 -0.2162  0.5442 -1.0139
 4167SOL    HW224135   0.410   1.854  12.172 -0.7477 -2.1880  2.3902
 4168SOL     OW24136   2.561   0.754  13.474 -0.4025  0.2359  0.7404
 4168SOL    HW124137   2.552   0.692  13.546 -3.9173 -0.1453 -0.0086
 4168SOL    HW224138   2.560   0.689  13.404 -0.0519 -1.7818  2.6111
 4169SOL     OW24139   1.530   3.886   2.602 -0.2204 -0.4617 -0.4457
 4169SOL    HW124140   1.455   3.836   2.570 -0.8923  1.0496 -1.2373
 4169SOL    HW224141   1.550   3.950   2.534  1.6749  0.8722  1.3800
 4170SOL     OW24142   1.946   0.807   9.426 -0.4241 -0.0297 -0.8963
 4170SOL    HW124143   2.029   0.762   9.440  0.3336  0.6242 -3.4450
 4170SOL    HW224144   1.974   0.862   9.353  1.6496 -0.8463 -0.6964
 4171SOL     OW24145   2.016   3.133   0.554  0.3594 -0.1435 -0.1780
 4171SOL    HW124146   1.940   3.077   0.573 -0.5427  0.3672 -2.2727
 4171SOL    HW224147   2.060   3.116   0.637  2.2667 -0.1965 -1.2207
 4172SOL     OW24148   1.850   1.983  15.094 -0.6526 -0.2399  0.8181
 4172SOL    HW124149   1.880   1.909  15.041 -0.8252 -0.4878  1.0670
 4172SOL    HW224150   1.770   1.947  15.132  0.1291  0.3945  3.0554
 4173SOL     OW24151   3.441   1.904   5.003  0.1767  0.2585  0.0960
 4173SOL    HW124152   3.528   1.939   5.019 -0.1977  1.2199  0.0750
 4173SOL    HW224153   3.479   1.817   5.004 -0.2758  0.0551 -0.3985
 4174SOL     OW24154   1.257   4.431   0.244  0.1341 -0.1476 -0.0972
 4174SOL    HW124155   1.244   4.521   0.273 -0.3995 -1.1746  2.9053
 4174SOL    HW224156   1.352   4.427   0.235  0.0708 -0.5730 -0.5839
 4175SOL     OW24157   1.212   3.063   3.546  0.1845 -0.4668  0.1184
 4175SOL    HW124158   1.210   3.156   3.568  1.1815 -0.9169  2.1381
 4175SOL    HW224159   1.118   3.044   3.545 -0.2338  1.7136 -0.3375
 4176SOL     OW24160   2.664   2.479   2.768 -0.3368  0.0435 -0.3593
 4176SOL    HW124161   2.724   2.502   2.697  1.5222 -1.5053  0.7389
 4176SOL    HW224162   2.703   2.402   2.809 -1.1823 -0.1416  0.1023
 4177SOL     OW24163   0.346   3.858   6.813  0.1472  0.1490 -0.1300
 4177SOL    HW124164   0.283   3.853   6.885  0.1718 -0.1256 -0.1284
 4177SOL    HW224165   0.354   3.953   6.802  0.3235 -0.0115 -1.3864
 4178SOL     OW24166   0.132   2.940  13.414  0.0913  0.4058  0.5536
 4178SOL    HW124167   0.040   2.919  13.426  0.2559  0.2238  1.4420
 4178SOL    HW224168   0.148   2.945  13.508  1.4847 -1.1683  0.4065
 4179SOL     OW24169   4.309   0.754   0.290  0.5686 -0.1730 -0.1932
 4179SOL    HW124170   4.365   0.677   0.297 -2.5499 -2.6015 -1.5792
 4179SOL    HW224171   4.236   0.718   0.238  1.7110  0.1386 -2.0247
 4180SOL     OW24172   0.534   2.075  13.332 -0.5407 -0.0336 -0.3957
 4180SOL    HW124173   0.558   2.075  13.239  0.5619  0.2329 -0.1090
 4180SOL    HW224174   0.486   2.158  13.332  0.1119  0.3643  3.9180
 4181SOL     OW24175   0.855   2.834  15.001 -0.7433 -0.3219  0.0324
 4181SOL    HW124176   0.811   2.854  14.919 -0.1218 -2.2067 -0.7541
 4181SOL    HW224177   0.941   2.867  14.977  0.3205 -1.7465  1.8822
 4182SOL     OW24178   0.853   4.472  14.860 -0.4423  0.6185  0.6980
 4182SOL    HW124179   0.817   4.383  14.863  0.0210  0.4200  0.4412
 4182SOL    HW224180   0.797   4.516  14.797 -1.5419 -1.4891  0.1967
 4183SOL     OW24181   2.557   0.311   7.902 -0.2727  0.0433  0.5131
 4183SOL    HW124182   2.500   0.304   7.825 -1.7081 -1.2881  1.7091
 4183SOL    HW224183   2.591   0.399   7.887  1.6983 -1.2725 -2.8425
 4184SOL     OW24184   2.048   0.363   6.787  0.8033 -0.2720  0.3534
 4184SOL    HW124185   2.025   0.343   6.696  2.4039 -1.9699  0.3327
 4184SOL    HW224186   2.136   0.325   6.791  0.2977 -1.5435 -0.7273
 4185SOL     OW24187   2.393   3.678   3.016  0.3367  0.3303 -0.2080
 4185SOL    HW124188   2.400   3.759   2.965  2.9716 -1.8638 -3.3626
 4185SOL    HW224189   2.486   3.666   3.036  0.1845 -0.3500  0.0801
 4186SOL     OW24190   2.231   4.436   8.065 -0.2027  0.4769  0.3560
 4186SOL    HW124191   2.213   4.417   7.973  0.0268 -0.5434  0.5151
 4186SOL    HW224192   2.148   4.475   8.091  0.5137  2.3087 -0.1098
 4187SOL     OW24193   3.713   2.359   4.114  0.2489 -0.1300  0.7056
 4187SOL    HW124194   3.746   2.278   4.152  1.0784 -0.2533 -0.2786
 4187SOL    HW224195   3.619   2.355   4.132  0.3325 -0.8532  0.9773
 4188SOL     OW24196   3.330   1.422   3.627 -0.0409  0.5094 -0.2741
 4188SOL    HW124197   3.286   1.504   3.650  0.2607  1.4172 -2.9367
 4188SOL    HW224198   3.273   1.398   3.554 -0.4376 -0.3605  0.3254
 4189SOL     OW24199   0.163   4.620  16.431 -0.3061 -0.1173 -0.0427
 4189SOL    HW124200   0.201   4.616  16.519  3.2131  1.7599 -1.4656
 4189SOL    HW224201   0.238   4.589  16.381 -0.1978 -2.8402  1.8542
 4190SOL     OW24202   0.025   1.590   5.177  0.0927  0.5805 -0.2235
 4190SOL    HW124203   4.679   1.619   5.136  0.6906  1.8306 -0.5546
 4190SOL    HW224204   0.068   1.673   5.153 -1.0663  0.8002 -1.5579
 4191SOL     OW24205   0.099   0.583   2.052  0.2789  0.6168 -0.4104
 4191SOL    HW124206   0.099   0.587   2.148  2.1496  0.5616 -0.4049
 4191SOL    HW224207   0.079   0.667   2.011 -1.0399 -0.9147 -2.8920
 4192SOL     OW24208   4.576   2.172   3.980 -0.0523 -0.0435  0.0027
 4192SOL    HW124209   4.527   2.104   4.025  2.0267 -1.0853  0.7153
 4192SOL    HW224210   4.512   2.239   3.958 -1.1060 -1.1468 -0.2933
 4193SOL     OW24211   3.242   2.669   3.904 -0.2255  0.0286  0.6305
 4193SOL    HW124212   3.196   2.706   3.829  1.2159  2.8620  1.1626
 4193SOL    HW224213   3.191   2.714   3.971  1.9027  0.4973  1.9386
 4194SOL     OW24214   0.402   2.290   6.524  0.2345  0.3409 -0.0174
 4194SOL    HW124215   0.407   2.198   6.548 -1.3000  0.2807  0.0846
 4194SOL    HW224216   0.367   2.297   6.436  2.1153 -0.0244 -0.7936
 4195SOL     OW24217   4.102   4.155  10.532 -0.0670  0.1445  0.5844
 4195SOL    HW124218   4.097   4.235  10.480  1.4537  0.2050  0.5208
 4195SOL    HW224219   4.183   4.184  10.574  0.8274  0.2946 -1.2763
 4196SOL     OW24220   2.583   1.455   4.684 -0.4076  0.3041 -0.3728
 4196SOL    HW124221   2.653   1.448   4.749  0.2449 -0.7155 -1.1793
 4196SOL    HW224222   2.512   1.407   4.728  2.2657 -1.1731  2.3716
 4197SOL     OW24223   1.718   0.232   7.883  0.3147 -0.2085  0.2471
 4197SOL    HW124224   1.662   0.288   7.829  0.3917  0.6594  1.0630
 4197SOL    HW224225   1.796   0.279   7.850 -0.4000  2.1025  1.8288
 4198SOL     OW24226   2.966   1.436   2.362  0.4724 -0.0770  0.4894
 4198SOL    HW124227   2.997   1.392   2.283  0.0737  0.5946 -0.0368
 4198SOL    HW224228   3.008   1.389   2.434  1.2783 -1.5670 -0.9399
 4199SOL     OW24229   0.815   3.152  10.406 -0.1306 -0.5854 -0.0392
 4199SOL    HW124230   0.866   3.219  10.361 -0.5681  0.7316  1.4077
 4199SOL    HW224231   0.876   3.124  10.474 -0.5930  0.8757  0.9885
 4200SOL     OW24232   1.052   2.194   5.786 -0.3136  0.0151 -0.0098
 4200SOL    HW124233   1.127   2.246   5.758  0.5965  0.2607  2.8234
 4200SOL    HW224234   0.975   2.249   5.774 -1.1019 -1.3105 -1.0432
 4201SOL     OW24235   4.017   1.398  17.433 -0.0124 -0.1798 -0.4989
 4201SOL    HW124236   4.103   1.439  17.430 -0.5857  0.8860 -2.6085
 4201SOL    HW224237   4.039   1.338  17.361 -0.3895 -1.6795  0.6372
 4202SOL     OW24238   0.542   0.536  15.795 -0.4923 -0.4564 -0.2805
 4202SOL    HW124239   0.516   0.533  15.703  1.0885 -0.9765 -0.7063
 4202SOL    HW224240   0.474   0.478  15.831 -0.0866 -0.6813  0.1187
 4203SOL     OW24241   3.796   3.343   3.157  0.1733  0.1963 -0.5966
 4203SOL    HW124242   3.857   3.334   3.083  0.6220  1.2906 -0.3510
 4203SOL    HW224243   3.831   3.429   3.182 -2.8083  1.5593 -1.1492
 4204SOL     OW24244   3.237   2.623  14.352 -0.6599 -0.0102  0.1975
 4204SOL    HW124245   3.307   2.664  14.301 -0.9485 -0.1491 -0.3165
 4204SOL    HW224246   3.219   2.694  14.414 -1.8444  0.7208 -0.9862
 4205SOL     OW24247   2.833   3.206   9.015 -0.1806 -0.5405 -0.4982
 4205SOL    HW124248   2.758   3.147   9.022 -2.5653  2.4108 -0.9629
 4205SOL    HW224249   2.802   3.270   8.951 -0.5739  1.6869  1.9185
 4206SOL     OW24250   3.133   1.804   6.648  0.2745 -0.6962  0.6617
 4206SOL    HW124251   3.223   1.816   6.619  1.3245 -1.1528  3.6557
 4206SOL    HW224252   3.135   1.874   6.714  0.0267  0.1042 -0.1828
 4207SOL     OW24253   1.158   1.422  14.319  0.7042  0.4484  0.5876
 4207SOL    HW124254   1.223   1.354  14.340 -1.4678 -1.6008  0.6915
 4207SOL    HW224255   1.206   1.498  14.351 -0.2289  0.3793  2.1601
 4208SOL     OW24256   4.046   2.804  13.946 -0.3546 -0.1551 -0.2827
 4208SOL    HW124257   4.084   2.724  13.908  1.1014 -0.0754  1.0126
 4208SOL    HW224258   3.963   2.813  13.899 -1.7863 -0.4598  2.2263
 4209SOL     OW24259   3.474   4.390   3.917  0.1647 -0.1366  0.1919
 4209SOL    HW124260   3.435   4.382   3.830  2.1105  0.1038 -0.7190
 4209SOL    HW224261   3.395   4.361   3.963  1.1027 -0.2881  1.7030
 4210SOL     OW24262   0.184   0.589   0.244 -0.0632  0.8159  0.1166
 4210SOL    HW124263   0.200   0.678   0.214 -1.4971  1.5084  1.4224
 4210SOL    HW224264   0.219   0.537   0.172 -0.1201  2.1408 -0.8588
 4211SOL     OW24265   0.354   2.814   8.256  0.5256 -0.2417 -0.3299
 4211SOL    HW124266   0.351   2.767   8.339 -2.3224 -0.3876 -0.5186
 4211SOL    HW224267   0.394   2.895   8.289 -1.5313  0.0432  1.4819
 4212SOL     OW24268   1.338   3.947   7.158  0.3999 -0.0630 -0.3879
 4212SOL    HW124269   1.375   3.876   7.106  1.1691  1.2234 -1.6090
 4212SOL    HW224270   1.255   3.903   7.176  0.9025 -1.3667 -1.2480
 4213SOL     OW24271   2.190   2.758   8.582  0.0285  0.1971 -0.0775
 4213SOL    HW124272   2.177   2.774   8.675  1.8013 -1.2180  0.3923
 4213SOL    HW224273   2.263   2.819   8.574  0.9092 -0.6731  1.3917
 4214SOL     OW24274   4.499   3.926   2.435 -0.3445 -0.1896  0.6480
 4214SOL    HW124275   4.519   3.986   2.362 -2.1360 -1.6138 -1.0090
 4214SOL    HW224276   4.404   3.925   2.429 -0.1849 -0.4530 -2.2058
 4215SOL     OW24277   4.409   4.061   3.534 -0.1363  0.0797 -0.1265
 4215SOL    HW124278   4.321   4.047   3.498 -0.2448 -0.7964  0.4801
 4215SOL    HW224279   4.388   4.076   3.626 -0.1187 -2.1815  0.2424
 4216SOL     OW24280   2.941   4.569   5.267  0.5835 -0.0326 -0.0603
 4216SOL    HW124281   2.944   4.605   5.356 -2.9349 -0.0765  0.0589
 4216SOL    HW224282   3.013   4.618   5.226  0.7156 -1.3759 -1.4025
 4217SOL     OW24283   2.727   2.523   6.855 -0.4060 -0.1207 -0.0631
 4217SOL    HW124284   2.687   2.528   6.941 -0.8117  0.5468 -0.2930
 4217SOL    HW224285   2.783   2.600   6.868 -1.1438  0.3447  0.3244
 4218SOL     OW24286   1.368   0.371   2.561  0.5544 -0.2127  0.5554
 4218SOL    HW124287   1.452   0.387   2.520  0.9613  0.6444  1.7506
 4218SOL    HW224288   1.323   0.455   2.561 -0.6023 -0.8280  1.0905
 4219SOL     OW24289   4.706   0.059   8.995  0.2964 -0.0139  0.1964
 4219SOL    HW124290   4.705   0.098   8.908 -1.0057  0.8274  0.5991
 4219SOL    HW224291   4.639   4.728   8.976  1.5021 -1.4283  0.8715
 4220SOL     OW24292   0.426   1.164   7.384  0.1926 -0.6735 -0.3218
 4220SOL    HW124293   0.455   1.161   7.475 -1.0616  1.4639  0.1538
 4220SOL    HW224294   0.363   1.093   7.383  0.1461 -0.6106 -2.8035
 4221SOL     OW24295   3.151   1.633   5.730  0.5829 -0.0575  0.0482
 4221SOL    HW124296   3.220   1.656   5.668 -0.4299  1.7164 -0.4171
 4221SOL    HW224297   3.092   1.706   5.712 -0.0893 -0.9108 -1.2095
 4222SOL     OW24298   4.050   1.983  13.536 -0.3587  0.3471 -0.3244
 4222SOL    HW124299   3.970   2.031  13.560 -0.1295 -0.7014  2.4439
 4222SOL    HW224300   4.101   2.049  13.488 -0.1899  0.4957  0.0615
 4223SOL     OW24301   0.792   4.429   3.065 -0.5395  0.2173  0.4382
 4223SOL    HW124302   0.794   4.346   3.018 -0.4687 -0.1853  1.1511
 4223SOL    HW224303   0.816   4.399   3.152 -2.5193 -0.3210  0.7848
 4224SOL     OW24304   4.362   2.353   9.825 -0.0948 -0.1516  0.2424
 4224SOL    HW124305   4.365   2.430   9.767  3.4304 -0.0481  0.5656
 4224SOL    HW224306   4.379   2.384   9.914 -0.1817  1.8403 -0.4258
 4225SOL     OW24307   1.062   0.363   1.518  0.0671  0.0408  0.3520
 4225SOL    HW124308   1.034   0.363   1.610  1.3850  0.4495  0.7675
 4225SOL    HW224309   1.155   0.382   1.534  0.2462  0.2442 -0.9558
 4226SOL     OW24310   0.234   1.212  11.523 -0.0004 -0.6444 -0.1641
 4226SOL    HW124311   0.198   1.124  11.514  2.6762 -1.6372 -1.3011
 4226SOL    HW224312   0.156   1.258  11.554  0.9864 -0.2958  1.8144
 4227SOL     OW24313   3.277   0.535   2.864  0.2538  0.1023 -0.3447
 4227SOL    HW124314   3.281   0.439   2.872 -2.5456  0.1172  1.3654
 4227SOL    HW224315   3.182   0.538   2.856 -0.0022 -1.7609  2.1160
 4228SOL     OW24316   4.307   2.544  13.002 -0.5337  0.0086  0.8025
 4228SOL    HW124317   4.334   2.540  13.093  1.4900  0.0204  0.2040
 4228SOL    HW224318   4.395   2.533  12.965  0.0916 -1.6508  2.7984
 4229SOL     OW24319   1.162   4.229   5.671  0.1423  0.0122  0.0122
 4229SOL    HW124320   1.162   4.221   5.767 -1.4878 -2.9492 -0.2153
 4229SOL    HW224321   1.199   4.145   5.642  1.6332  1.8182 -3.2775
 4230SOL     OW24322   4.662   0.857   0.918  0.2232  0.4733  0.4651
 4230SOL    HW124323   4.646   0.785   0.856  0.9586  1.1185 -0.4660
 4230SOL    HW224324   4.636   0.821   1.003  2.6037  0.5572  1.2375
 4231SOL     OW24325   2.136   2.665  15.798  0.1660 -0.2326  0.0686
 4231SOL    HW124326   2.046   2.632  15.793  0.8843 -1.6742 -3.1460
 4231SOL    HW224327   2.143   2.732  15.730 -1.6132 -1.4706 -1.3097
 4232SOL     OW24328   1.205   2.994   4.032  0.7006 -0.3429 -0.8009
 4232SOL    HW124329   1.235   3.063   3.974 -1.3927 -0.5401 -2.1305
 4232SOL    HW224330   1.275   2.996   4.097 -0.4718 -0.7538  0.4742
 4233SOL     OW24331   0.106   2.129   8.593  0.1090 -0.2057  0.3177
 4233SOL    HW124332   0.162   2.180   8.652  0.8715 -1.0041  0.2902
 4233SOL    HW224333   0.034   2.101   8.649  0.5501  0.2810  1.1334
 4234SOL     OW24334   2.300   3.558  14.672  0.1967  0.0666  0.3394
 4234SOL    HW124335   2.271   3.616  14.743 -0.3545 -0.4037  0.5028
 4234SOL    HW224336   2.291   3.478  14.724 -3.2681  0.8561  0.9747
 4235SOL     OW24337   3.958   1.888   8.850 -0.3662  0.7480  0.0859
 4235SOL    HW124338   4.032   1.947   8.863 -0.7176  1.2525 -0.1958
 4235SOL    HW224339   3.977   1.867   8.759 -0.1015  0.6196  0.1699
 4236SOL     OW24340   2.362   3.219   8.748  0.2937  0.2505 -0.5359
 4236SOL    HW124341   2.321   3.266   8.675  0.7189 -0.0467 -0.9697
 4236SOL    HW224342   2.454   3.248   8.744  0.5897 -1.0908 -3.1934
 4237SOL     OW24343   0.797   2.360  15.411 -0.5446  0.4612 -0.0352
 4237SOL    HW124344   0.758   2.444  15.434 -0.5642 -0.3830  2.9646
 4237SOL    HW224345   0.732   2.306  15.454 -0.1417 -0.9728 -1.2121
 4238SOL     OW24346   3.685   0.241   4.011 -0.5853  0.2108  0.3562
 4238SOL    HW124347   3.726   0.261   4.095  1.3209 -0.9330 -0.3146
 4238SOL    HW224348   3.761   0.239   3.953  0.3616 -3.2737  1.6855
 4239SOL     OW24349   0.871   1.821   5.538 -0.4027  0.0294  0.1874
 4239SOL    HW124350   0.885   1.893   5.477  0.7164 -0.0026  0.3975
 4239SOL    HW224351   0.777   1.836   5.551 -1.4071 -3.6484 -2.9007
 4240SOL     OW24352   3.799   3.626   8.603 -0.2429  0.5742 -0.5238
 4240SOL    HW124353   3.811   3.531   8.598 -1.2135  0.3886  0.5210
 4240SOL    HW224354   3.821   3.645   8.512 -1.7105  1.4639 -0.6935
 4241SOL     OW24355   2.190   4.638   3.502 -0.0315 -0.1194 -1.3290
 4241SOL    HW124356   2.102   4.623   3.537  0.5030 -2.1761 -0.8407
 4241SOL    HW224357   2.177   4.677   3.416 -2.9816  1.5043 -0.1180
 4242SOL     OW24358   2.356   4.655  12.444  0.3757 -0.3877  0.0597
 4242SOL    HW124359   2.430   4.713  12.461  1.2950 -1.0336 -1.7177
 4242SOL    HW224360   2.281   4.713  12.427  1.4470  1.2045  0.8083
 4243SOL     OW24361   3.930   1.377   2.881  0.1574  0.1758  0.6261
 4243SOL    HW124362   3.934   1.351   2.973  0.6674 -1.4476  0.1420
 4243SOL    HW224363   4.000   1.321   2.849 -0.7157 -0.2961 -0.4473
 4244SOL     OW24364   4.508   1.875  13.680  0.2952  0.0273 -0.0277
 4244SOL    HW124365   4.559   1.818  13.738  0.8824 -0.7534 -1.3082
 4244SOL    HW224366   4.416   1.853  13.692  0.5153 -0.4368  0.8501
 4245SOL     OW24367   1.344   3.140   8.677  0.1139  0.0535 -0.2661
 4245SOL    HW124368   1.415   3.078   8.660  1.1027  0.7195  1.4924
 4245SOL    HW224369   1.322   3.127   8.769  3.0214 -3.0223 -0.0102
 4246SOL     OW24370   3.635   2.958  10.019 -0.5464  1.2901  0.3397
 4246SOL    HW124371   3.720   2.996   9.997  0.2926 -1.6308 -1.4868
 4246SOL    HW224372   3.662   2.905  10.093 -1.5981  0.0006 -0.2058
 4247SOL     OW24373   0.109   4.698   4.292  0.2460  0.2166 -0.6487
 4247SOL    HW124374   0.158   4.616   4.293  3.1307  1.9568 -0.3041
 4247SOL    HW224375   0.019   4.674   4.314  0.7011 -1.3789 -0.5390
 4248SOL     OW24376   1.038   3.608   0.494 -0.2397 -0.2632 -0.0931
 4248SOL    HW124377   1.075   3.586   0.580  2.0924 -3.8892 -2.0318
 4248SOL    HW224378   1.125   3.631   0.461 -0.7045 -0.3153 -1.3299
 4249SOL     OW24379   4.519   3.815   6.513  0.8352  0.5178 -0.0588
 4249SOL    HW124380   4.612   3.820   6.535  1.1238 -1.9148 -0.7869
 4249SOL    HW224381   4.483   3.896   6.550 -2.2233 -1.4596  1.3467
 4250SOL     OW24382   0.460   4.527   6.838 -0.3559 -0.2534 -0.4766
 4250SOL    HW124383   0.475   4.438   6.871 -1.4117 -1.7647 -4.0603
 4250SOL    HW224384   0.549   4.561   6.842 -0.2284 -0.2278 -3.4999
 4251SOL     OW24385   1.997   0.872   3.865  0.2552  0.9053 -0.0902
 4251SOL    HW124386   2.017   0.809   3.796 -1.0557 -1.3762  1.6126
 4251SOL    HW224387   1.920   0.917   3.830 -0.8981 -0.6181  0.5167
 4252SOL     OW24388   1.547   2.368   1.947  0.3680 -0.9624  0.0089
 4252SOL    HW124389   1.572   2.382   1.855 -0.1548  2.6944  0.4244
 4252SOL    HW224390   1.600   2.292   1.971  1.3398  0.2195  1.5974
 4253SOL     OW24391   0.381   3.397   8.877  0.3085 -0.1516  0.6845
 4253SOL    HW124392   0.308   3.457   8.863  0.6596  0.0205 -0.4033
 4253SOL    HW224393   0.399   3.366   8.788  1.8293  0.6515  0.7154
 4254SOL     OW24394   1.313   1.363   5.108  0.3826  0.7128 -0.3408
 4254SOL    HW124395   1.375   1.320   5.167  2.1089  0.2261 -2.5424
 4254SOL    HW224396   1.342   1.452   5.125  4.2388 -0.6342  0.1582
 4255SOL     OW24397   2.155   3.411   5.176  0.1391 -0.1763  0.3582
 4255SOL    HW124398   2.163   3.441   5.267  0.6085  2.1380 -0.4535
 4255SOL    HW224399   2.066   3.376   5.179  0.1899 -0.5717 -2.4400
 4256SOL     OW24400   2.331   1.410   3.708  0.6057 -0.0468  0.6334
 4256SOL    HW124401   2.264   1.345   3.732  0.5776  0.1793  1.1636
 4256SOL    HW224402   2.276   1.488   3.710 -1.5812 -1.5740  0.9999
 4257SOL     OW24403   3.099   4.484   9.512 -0.2581 -0.1467 -0.1019
 4257SOL    HW124404   3.134   4.561   9.467 -1.4033 -0.2755 -1.2362
 4257SOL    HW224405   3.029   4.526   9.563 -1.0059  1.5413 -2.5285
 4258SOL     OW24406   3.460   3.972   6.889 -0.5423  0.3231 -0.4116
 4258SOL    HW124407   3.386   4.005   6.940 -0.1454 -0.2358  0.5193
 4258SOL    HW224408   3.519   3.953   6.961  0.0881  0.6764 -0.8404
 4259SOL     OW24409   4.593   3.274  14.977  0.4976  0.0399  0.6250
 4259SOL    HW124410   4.570   3.358  15.017 -1.1301 -0.2327  0.2598
 4259SOL    HW224411   4.668   3.251  15.031 -0.3953  0.2985  2.0083
 4260SOL     OW24412   3.526   2.723   5.711  0.1992 -0.1939 -0.2640
 4260SOL    HW124413   3.611   2.740   5.669  0.2975  0.8698  0.3744
 4260SOL    HW224414   3.532   2.639   5.756 -0.5459 -0.2546 -0.2803
 4261SOL     OW24415   1.085   2.104   3.954 -0.0305  0.4533 -0.3280
 4261SOL    HW124416   1.154   2.111   3.888  1.8476 -0.3107  1.5507
 4261SOL    HW224417   1.103   2.015   3.983  0.0797  0.4073 -0.5326
 4262SOL     OW24418   4.561   3.402   5.436 -0.8646  0.2556 -0.1914
 4262SOL    HW124419   4.521   3.317   5.454 -1.4773  0.5702 -0.0876
 4262SOL    HW224420   4.487   3.462   5.437 -0.8362  0.2798  0.6633
 4263SOL     OW24421   2.578   3.855   3.811 -0.2318  0.4802  0.1776
 4263SOL    HW124422   2.512   3.803   3.765  1.0348 -1.0179  0.0547
 4263SOL    HW224423   2.577   3.929   3.749 -2.8088  1.1395  1.0090
 4264SOL     OW24424   2.027   0.404   4.475 -0.7210  0.4009  0.9526
 4264SOL    HW124425   2.100   0.373   4.529  0.6698  0.4424 -0.8947
 4264SOL    HW224426   1.980   0.458   4.538 -1.0439  1.0544  0.1590
 4265SOL     OW24427   2.629   2.299   7.752 -0.3068 -0.4056  0.2821
 4265SOL    HW124428   2.623   2.231   7.819 -0.1020  0.5448  1.2548
 4265SOL    HW224429   2.669   2.241   7.687 -0.7113 -0.9722  0.5337
 4266SOL     OW24430   3.749   4.305   7.725  0.7953  0.5896  0.3566
 4266SOL    HW124431   3.836   4.305   7.684  0.4934 -1.0798 -0.2780
 4266SOL    HW224432   3.722   4.219   7.693  0.1304  0.6479  0.7681
 4267SOL     OW24433   2.485   4.691   0.288  0.5597  0.0617  0.1286
 4267SOL    HW124434   2.554   4.626   0.272 -0.0208 -0.5041 -0.0490
 4267SOL    HW224435   2.422   4.642   0.237 -0.3005  0.8983  0.3882
 4268SOL     OW24436   1.787   1.216   9.542 -0.4500  0.0646 -0.2412
 4268SOL    HW124437   1.698   1.182   9.555  0.1090 -0.7320  1.4120
 4268SOL    HW224438   1.776   1.302   9.502 -1.7269  0.0896  0.1833
 4269SOL     OW24439   0.523   4.648   7.789 -0.0969 -0.0229 -0.3980
 4269SOL    HW124440   0.445   4.686   7.830  1.1556  2.1911 -0.0655
 4269SOL    HW224441   0.572   4.619   7.865 -0.2206  0.4283 -0.1419
 4270SOL     OW24442   3.558   0.339   1.576  0.0347 -0.2055  0.0495
 4270SOL    HW124443   3.560   0.384   1.660 -0.3483  0.3892 -0.2626
 4270SOL    HW224444   3.482   0.385   1.539  0.8738  0.2414 -1.1054
 4271SOL     OW24445   3.990   2.262  12.666 -0.6720  0.2107 -0.0503
 4271SOL    HW124446   3.950   2.337  12.710 -0.0336 -0.0058  0.9111
 4271SOL    HW224447   3.922   2.199  12.643 -0.2140 -0.3469  0.1252
 4272SOL     OW24448   3.668   0.712   7.711 -0.0274 -0.0733  0.0652
 4272SOL    HW124449   3.642   0.711   7.804 -3.0685  1.4839 -0.7648
 4272SOL    HW224450   3.713   0.796   7.700  0.5020 -0.2771  0.6385
 4273SOL     OW24451   2.181   1.803   3.135 -0.7665 -0.7486 -0.1213
 4273SOL    HW124452   2.143   1.761   3.212 -1.1425  0.2132  0.2156
 4273SOL    HW224453   2.236   1.864   3.185  0.1897 -2.9046  1.4908
 4274SOL     OW24454   1.370   3.161  17.472 -0.7151  0.0058 -0.0020
 4274SOL    HW124455   1.386   3.208  17.390  1.3043  0.1598  0.4844
 4274SOL    HW224456   1.452   3.114  17.487  0.7070  2.0737 -1.2605
 4275SOL     OW24457   1.611   3.711   2.806  0.3535 -0.4565 -0.1448
 4275SOL    HW124458   1.597   3.728   2.713 -2.6267 -0.2133  0.3193
 4275SOL    HW224459   1.700   3.745   2.805  0.6739 -1.3257 -2.3021
 4276SOL     OW24460   4.078   2.193  17.511 -0.0212 -0.2463  0.4189
 4276SOL    HW124461   4.014   2.222  17.447 -0.5103  1.0890  1.5266
 4276SOL    HW224462   4.131   2.133  17.458  2.0347  0.8690  1.2189
 4277SOL     OW24463   2.670   3.883   2.495 -0.1216 -0.6710  0.0230
 4277SOL    HW124464   2.581   3.901   2.462  0.3060  1.5705  0.0923
 4277SOL    HW224465   2.711   3.865   2.411  1.6344  0.7462  0.5660
 4278SOL     OW24466   4.548   4.432   5.562  0.4463  0.1550  0.2789
 4278SOL    HW124467   4.547   4.527   5.550 -1.8271 -0.1526 -1.8792
 4278SOL    HW224468   4.456   4.410   5.549  0.9451 -1.0390 -1.1553
 4279SOL     OW24469   0.081   0.340   5.750 -0.5261 -0.0930 -0.3641
 4279SOL    HW124470   0.017   0.339   5.821  0.0718 -4.0350  0.1369
 4279SOL    HW224471   0.157   0.297   5.789 -0.1370  0.1830 -0.8200
 4280SOL     OW24472   4.644   3.965  16.557 -0.1157  0.1526  0.3383
 4280SOL    HW124473   4.666   4.049  16.519 -0.3003 -0.7517 -1.7504
 4280SOL    HW224474   4.732   3.945  16.590 -0.1494 -0.0777  0.2937
 4281SOL     OW24475   3.960   1.849   6.322 -0.1141 -0.2995  0.0463
 4281SOL    HW124476   3.952   1.859   6.416  1.7908  1.9572 -0.0534
 4281SOL    HW224477   3.938   1.932   6.281  1.4980 -0.1185 -0.4511
 4282SOL     OW24478   4.295   2.648  16.295  0.0230 -0.3769 -0.2496
 4282SOL    HW124479   4.247   2.567  16.312  0.4413 -0.8415 -1.2878
 4282SOL    HW224480   4.358   2.616  16.231  1.6896  3.1074 -0.3623
 4283SOL     OW24481   4.642   2.946   2.962 -0.6880 -0.4386 -0.6339
 4283SOL    HW124482   4.556   2.912   2.989 -0.3549 -1.5477 -0.9459
 4283SOL    HW224483   4.645   2.945   2.867  0.4060  0.7853 -0.6220
 4284SOL     OW24484   3.757   2.999   2.106 -0.0686  0.5451  0.1339
 4284SOL    HW124485   3.779   3.079   2.153  1.2578  0.5730 -0.5434
 4284SOL    HW224486   3.785   2.931   2.167  0.6867  2.3283  1.7587
 4285SOL     OW24487   0.309   0.353   9.895  0.2640 -0.4778 -0.5956
 4285SOL    HW124488   0.294   0.398   9.812 -2.0422  2.3123  1.3439
 4285SOL    HW224489   0.220   0.343   9.928  1.1101  0.4359  1.9892
 4286SOL     OW24490   3.630   0.727   4.677 -0.4358  0.3149  0.0978
 4286SOL    HW124491   3.617   0.762   4.765  1.1090  0.7179  0.1689
 4286SOL    HW224492   3.719   0.692   4.663 -1.5014 -1.1351 -2.9433
 4287SOL     OW24493   3.251   1.116   2.771 -0.3029  0.3632  0.3694
 4287SOL    HW124494   3.291   1.147   2.852  0.9356  2.5381 -1.0952
 4287SOL    HW224495   3.287   1.182   2.711 -1.6454 -0.0952 -0.9472
 4288SOL     OW24496   0.609   0.820   3.790 -0.0562  0.6190 -0.9163
 4288SOL    HW124497   0.635   0.888   3.728  1.1571 -0.8476 -2.0082
 4288SOL    HW224498   0.694   0.782   3.811  0.5890  2.3934 -0.3277
 4289SOL     OW24499   4.245   2.631   6.061 -0.1590  0.0665  0.1504
 4289SOL    HW124500   4.242   2.541   6.029  0.9389  0.1221 -0.0823
 4289SOL    HW224501   4.319   2.661   6.008  0.6954  1.4292  2.1559
 4290SOL     OW24502   3.053   4.562   6.264  0.0997  0.2484  0.0510
 4290SOL    HW124503   3.032   4.655   6.256 -2.9779 -0.4239  0.0396
 4290SOL    HW224504   2.967   4.518   6.265  1.4377 -2.3890 -1.3021
 4291SOL     OW24505   1.661   2.340  13.284 -0.7599  0.1319 -0.1426
 4291SOL    HW124506   1.727   2.409  13.275  0.1637 -0.8358 -0.7866
 4291SOL    HW224507   1.703   2.288  13.352  0.5162  0.2365 -0.8589
 4292SOL     OW24508   3.190   3.132   9.326  0.1261 -0.3200  0.3319
 4292SOL    HW124509   3.268   3.112   9.275 -1.5026  0.5071 -2.4724
 4292SOL    HW224510   3.123   3.115   9.260 -0.9304 -0.1332  1.3405
 4293SOL     OW24511   3.219   2.467   3.239 -0.4844  0.0353  0.1327
 4293SOL    HW124512   3.302   2.511   3.252 -0.7872  0.3109  1.2027
 4293SOL    HW224513   3.261   2.381   3.235  0.4494  0.6092 -2.0350
 4294SOL     OW24514   3.631   0.987   1.465  0.1400 -0.8052 -0.6664
 4294SOL    HW124515   3.655   0.948   1.549 -1.0436  0.8841  0.4497
 4294SOL    HW224516   3.570   1.057   1.487  1.6766  0.5450 -0.7517
 4295SOL     OW24517   3.023   2.131   4.633 -0.0631  0.2131  0.2703
 4295SOL    HW124518   2.938   2.087   4.642 -0.3329  1.1550  2.1533
 4295SOL    HW224519   2.997   2.217   4.666 -0.5268 -0.5353  1.8758
 4296SOL     OW24520   3.926   1.259   3.150  0.0904  0.1327  0.1401
 4296SOL    HW124521   3.850   1.253   3.092  0.0880  2.7060 -0.1090
 4296SOL    HW224522   3.941   1.169   3.180 -1.7409 -0.2786 -0.1816
 4297SOL     OW24523   3.578   4.273   8.710  0.3681 -0.2363 -0.1184
 4297SOL    HW124524   3.515   4.300   8.778  1.5584  0.8640  0.5441
 4297SOL    HW224525   3.583   4.180   8.731  0.4991  0.0000  0.9112
 4298SOL     OW24526   4.259   1.266   3.739 -0.3148  0.0968  0.3566
 4298SOL    HW124527   4.263   1.282   3.645 -1.6331  1.9755  0.6327
 4298SOL    HW224528   4.329   1.200   3.744 -0.4096 -0.1036 -1.0307
 4299SOL     OW24529   1.949   4.073   3.552  0.5191 -0.3024 -0.4297
 4299SOL    HW124530   1.931   3.991   3.599 -0.2920 -0.6899 -1.4049
 4299SOL    HW224531   1.873   4.077   3.493  0.3667  1.6442 -0.1042
 4300SOL     OW24532   1.829   0.651   8.569  1.3756 -0.2882  0.0475
 4300SOL    HW124533   1.812   0.664   8.475 -0.4994  1.5593  0.6212
 4300SOL    HW224534   1.747   0.619   8.607  0.8776  1.5439  0.5684
 4301SOL     OW24535   0.305   2.622   4.340 -0.1711 -0.3292  0.1518
 4301SOL    HW124536   0.368   2.557   4.370  3.0298  2.3947 -0.6999
 4301SOL    HW224537   0.286   2.663   4.425 -1.4469  1.1689 -0.8533
 4302SOL     OW24538   4.194   1.365  11.870 -0.8439  0.2975 -0.3504
 4302SOL    HW124539   4.206   1.421  11.793  0.4156 -0.6373 -0.8331
 4302SOL    HW224540   4.112   1.402  11.904  0.0664  1.8318  0.1578
 4303SOL     OW24541   2.577   3.980   5.254  0.5327 -0.3724  0.6187
 4303SOL    HW124542   2.623   4.007   5.333  0.3875  2.1772 -0.1551
 4303SOL    HW224543   2.547   4.062   5.214 -2.2806 -0.7382  1.9904
 4304SOL     OW24544   1.112   1.695   2.033 -0.2472  0.6656 -0.7139
 4304SOL    HW124545   1.195   1.660   2.065  0.8256  1.6684 -2.4060
 4304SOL    HW224546   1.075   1.739   2.109  0.3400  0.4917 -0.3253
 4305SOL     OW24547   0.076   1.068   0.256 -0.2339  0.1018  0.0091
 4305SOL    HW124548   0.069   1.031   0.344 -0.6342  1.4560  0.5404
 4305SOL    HW224549   0.132   1.145   0.266 -0.7493  0.1292  2.6422
 4306SOL     OW24550   1.971   3.322  13.462  0.3034 -0.7935 -0.0511
 4306SOL    HW124551   1.916   3.279  13.396 -0.8165 -0.6709  0.7878
 4306SOL    HW224552   1.996   3.398  13.411  0.1592 -0.8250 -0.1702
 4307SOL     OW24553   0.878   4.047   7.118 -0.2083  0.0086 -0.7198
 4307SOL    HW124554   0.931   4.088   7.186 -2.9636 -0.8437  1.9787
 4307SOL    HW224555   0.841   4.126   7.078  0.6696  1.0061  0.4458
 4308SOL     OW24556   3.852   4.538   1.827 -0.1885  0.4545  0.0670
 4308SOL    HW124557   3.929   4.588   1.800  1.2966 -1.8197  0.1361
 4308SOL    HW224558   3.774   4.576   1.787 -0.8819  1.4616  2.3653
 4309SOL     OW24559   0.762   4.484   3.982 -0.1151  0.3082 -0.7784
 4309SOL    HW124560   0.706   4.550   4.021  0.4068  0.2872  0.0074
 4309SOL    HW224561   0.702   4.439   3.922 -1.7385  2.4230 -0.7503
 4310SOL     OW24562   2.205   1.225   8.655  0.3342 -0.1614  0.1101
 4310SOL    HW124563   2.297   1.236   8.679  0.7345 -1.2160 -0.9163
 4310SOL    HW224564   2.161   1.274   8.724 -1.4497 -3.1437  1.1162
 4311SOL     OW24565   3.372   3.503   5.313  0.3697 -0.4547  0.7835
 4311SOL    HW124566   3.391   3.437   5.379  1.5501 -1.9702 -1.0553
 4311SOL    HW224567   3.429   3.482   5.239 -1.8968  0.1171 -1.1536
 4312SOL     OW24568   4.468   3.428  15.189  0.2476  0.3411 -1.0339
 4312SOL    HW124569   4.439   3.453  15.277  2.6692 -1.6781  0.3547
 4312SOL    HW224570   4.548   3.480  15.184  0.5111  0.1706  1.2851
 4313SOL     OW24571   0.533   4.523   8.978  0.2066  0.0725 -0.2293
 4313SOL    HW124572   0.565   4.524   8.888  0.0797  1.2136 -0.2612
 4313SOL    HW224573   0.609   4.507   9.033 -0.9034 -2.4019  0.6096
 4314SOL     OW24574   1.272   0.262  11.193  0.3976 -0.0817  0.0045
 4314SOL    HW124575   1.283   0.280  11.287  1.0725 -0.3507 -0.0210
 4314SOL    HW224576   1.357   0.294  11.160 -1.1950  1.7119 -2.3516
 4315SOL     OW24577   2.968   1.630   0.163  0.3625 -0.6726 -0.0062
 4315SOL    HW124578   2.913   1.700   0.197 -1.5151 -1.5926 -1.1047
 4315SOL    HW224579   2.994   1.667   0.079  1.6780  0.2467  0.8203
 4316SOL     OW24580   3.527   3.320   4.207  0.5889 -0.5432  0.4898
 4316SOL    HW124581   3.521   3.288   4.117  2.1692  0.8296 -0.1179
 4316SOL    HW224582   3.537   3.236   4.252  0.9870 -0.5619  0.3700
 4317SOL     OW24583   3.390   2.612  13.679  0.7476  0.8105  0.2011
 4317SOL    HW124584   3.401   2.684  13.741 -0.1320 -1.4406  2.9815
 4317SOL    HW224585   3.314   2.564  13.712  0.6230  0.0043 -1.2552
 4318SOL     OW24586   3.959   2.886   9.845  0.2021  0.3324 -0.6423
 4318SOL    HW124587   4.038   2.838   9.821 -0.8903 -1.8791  0.1366
 4318SOL    HW224588   3.992   2.958   9.898  1.0862  0.3761 -1.2538
 4319SOL     OW24589   3.109   3.364  11.115  0.0021 -0.9099  0.0496
 4319SOL    HW124590   3.146   3.430  11.174  0.7227 -1.6651  0.4391
 4319SOL    HW224591   3.100   3.418  11.037 -0.5459 -0.6428  0.2999
 4320SOL     OW24592   0.118   0.117   0.098 -0.3806 -0.0397 -0.4788
 4320SOL    HW124593   0.085   0.030   0.074 -0.1032 -0.6092  1.1504
 4320SOL    HW224594   0.045   0.176   0.083 -1.9000 -0.7909  3.9084
 4321SOL     OW24595   0.482   3.941  14.546  0.1347 -0.0747  0.1837
 4321SOL    HW124596   0.525   3.962  14.629  0.7311  0.1341 -0.1843
 4321SOL    HW224597   0.548   3.960  14.479  0.2108 -0.3286  0.1881
 4322SOL     OW24598   3.705   0.049   2.312 -0.2149  0.0450  0.8176
 4322SOL    HW124599   3.692   0.083   2.223  2.5592 -0.9743  0.0324
 4322SOL    HW224600   3.798   0.030   2.316 -0.0543  0.9592  1.5151
 4323SOL     OW24601   0.345   3.213  15.848  0.0082  0.0798 -0.5946
 4323SOL    HW124602   0.323   3.301  15.817 -1.1985  0.3901  1.1167
 4323SOL    HW224603   0.377   3.184  15.763 -0.4539 -3.6254  0.4714
 4324SOL     OW24604   0.220   2.365  17.574  0.2364 -0.0209 -0.4015
 4324SOL    HW124605   0.316   2.367  17.571  0.2749 -0.8871  0.2658
 4324SOL    HW224606   0.211   2.418  17.653 -1.2217 -2.6929  1.2182
 4325SOL     OW24607   3.382   3.537   1.930 -0.1443  0.1398 -0.7361
 4325SOL    HW124608   3.426   3.591   1.864 -0.5049  4.7439  2.7686
 4325SOL    HW224609   3.351   3.607   1.989  0.7064 -0.0636 -0.0382
 4326SOL     OW24610   0.894   2.275  12.792 -0.0253 -0.1072  0.2246
 4326SOL    HW124611   0.971   2.328  12.812 -0.5749  0.3767  1.0967
 4326SOL    HW224612   0.911   2.195  12.843 -0.7674 -0.6341 -0.3453
 4327SOL     OW24613   1.236   3.376   7.235  0.2911  0.2865 -0.4198
 4327SOL    HW124614   1.248   3.363   7.141  0.6190  1.0600 -0.4877
 4327SOL    HW224615   1.141   3.379   7.247  0.7804  2.0622  2.8768
 4328SOL     OW24616   2.040   2.085   4.711 -0.6071  0.1772  0.0333
 4328SOL    HW124617   2.087   2.074   4.794 -0.0323  0.2122 -0.2860
 4328SOL    HW224618   2.108   2.074   4.645 -3.0175 -2.1255 -2.0398
 4329SOL     OW24619   0.660   1.391   9.030 -0.5789  0.0637  0.0930
 4329SOL    HW124620   0.645   1.315   9.086 -1.4728  0.2970  0.1764
 4329SOL    HW224621   0.704   1.443   9.097 -0.0436  0.2431 -0.3959
 4330SOL     OW24622   4.288   0.847   0.723 -0.4013  0.0231 -0.6801
 4330SOL    HW124623   4.294   0.941   0.705 -0.1144  0.2077  0.3679
 4330SOL    HW224624   4.375   0.819   0.694  0.1969  0.0333  1.1508
 4331SOL     OW24625   3.385   0.179  13.234  0.3718 -0.0920  0.4307
 4331SOL    HW124626   3.463   0.150  13.282  0.9537 -1.1663 -1.1683
 4331SOL    HW224627   3.375   0.268  13.268 -0.1483 -0.1483  0.4275
 4332SOL     OW24628   0.531   3.556  13.248  0.2701  0.5125 -0.0768
 4332SOL    HW124629   0.492   3.486  13.300 -0.5655  0.4784 -0.7604
 4332SOL    HW224630   0.461   3.619  13.264 -0.8777 -0.2409 -2.1720
 4333SOL     OW24631   2.771   2.294   4.464 -0.2617  0.5614 -0.7348
 4333SOL    HW124632   2.832   2.323   4.532 -1.8527 -2.0676  1.8111
 4333SOL    HW224633   2.757   2.378   4.420 -1.1086  1.1060  0.5760
 4334SOL     OW24634   3.570   3.150   2.795 -0.5581  0.3279 -0.0994
 4334SOL    HW124635   3.615   3.201   2.727 -0.4214 -1.0386 -1.0289
 4334SOL    HW224636   3.646   3.130   2.850  0.0221 -1.2241 -1.4708
 4335SOL     OW24637   3.842   2.184  15.032 -0.1220 -0.4994  0.1699
 4335SOL    HW124638   3.841   2.185  14.937 -3.4950  0.4421  0.2202
 4335SOL    HW224639   3.784   2.115  15.064 -1.1833 -0.5545 -1.9375
 4336SOL     OW24640   1.859   4.616   9.767 -0.1737 -0.4406  0.3177
 4336SOL    HW124641   1.804   4.538   9.762 -0.3845 -0.1984 -0.9183
 4336SOL    HW224642   1.803   4.688   9.740  1.6743  1.2432  0.9522
 4337SOL     OW24643   0.053   0.588   6.641 -0.0247 -0.1250  0.4369
 4337SOL    HW124644   0.024   0.562   6.729 -0.6894 -1.6777 -0.2331
 4337SOL    HW224645   4.708   0.625   6.606  0.1942  1.4448  1.5966
 4338SOL     OW24646   2.432   4.228   7.489  0.0306 -0.0942  0.4918
 4338SOL    HW124647   2.513   4.198   7.448  0.2997  1.9518 -0.4536
 4338SOL    HW224648   2.371   4.175   7.436 -2.0373  2.9489 -0.1868
 4339SOL     OW24649   0.314   2.095   7.376  0.0910  0.2830 -0.0261
 4339SOL    HW124650   0.274   2.053   7.452  1.8319 -0.3462  0.5630
 4339SOL    HW224651   0.284   2.044   7.301 -0.3719 -1.8800  1.6392
 4340SOL     OW24652   2.104   2.387   9.006  0.2338 -0.2590  0.5920
 4340SOL    HW124653   2.047   2.389   8.929  2.5999 -0.1981 -1.1609
 4340SOL    HW224654   2.102   2.293   9.019  1.6326  0.1125  3.5275
 4341SOL     OW24655   2.693   3.678  10.034  0.6317  0.4072  0.2935
 4341SOL    HW124656   2.619   3.725   9.995 -0.4161 -1.5820 -0.1009
 4341SOL    HW224657   2.677   3.592   9.997 -1.3295  0.7509  0.3521
 4342SOL     OW24658   1.882   1.520   7.977  0.2023 -0.0205  0.4506
 4342SOL    HW124659   1.804   1.506   8.030 -0.5333  0.2453 -0.5598
 4342SOL    HW224660   1.858   1.608   7.947 -0.3230  0.1079  1.2507
 4343SOL     OW24661   1.212   2.380   5.479  0.2156  0.0734 -0.0184
 4343SOL    HW124662   1.288   2.325   5.460  1.1388  1.9559 -1.7615
 4343SOL    HW224663   1.170   2.352   5.398  0.4906  0.9906 -0.4683
 4344SOL     OW24664   4.161   4.521   9.650  0.0564  0.6998 -0.0031
 4344SOL    HW124665   4.126   4.552   9.567 -1.5031  0.9227  0.7405
 4344SOL    HW224666   4.218   4.447   9.630  1.8025  1.3747  2.4230
 4345SOL     OW24667   1.829   0.103   8.280  0.3839  0.2952  0.6892
 4345SOL    HW124668   1.763   0.154   8.234  1.2603 -1.1571 -2.2232
 4345SOL    HW224669   1.912   0.109   8.231  0.5409 -1.5498  0.6907
 4346SOL     OW24670   2.246   3.675   0.375  0.3987 -0.4069 -0.1541
 4346SOL    HW124671   2.255   3.585   0.343 -2.4524 -0.3285 -1.1708
 4346SOL    HW224672   2.292   3.724   0.307 -0.3399  0.4023 -0.0738
 4347SOL     OW24673   0.511   2.910  13.160  0.1446  0.6394 -0.2641
 4347SOL    HW124674   0.442   2.878  13.101 -1.0562 -0.5769  1.8188
 4347SOL    HW224675   0.559   2.967  13.099  1.5766 -0.2875 -0.0020
 4348SOL     OW24676   3.975   2.483  14.854 -0.3283  0.0444  0.0620
 4348SOL    HW124677   4.001   2.480  14.946 -0.0492  1.5181  0.0240
 4348SOL    HW224678   3.892   2.529  14.860 -0.6013 -0.6044  1.2138
 4349SOL     OW24679   3.298   4.557   8.890  0.0326 -0.1015 -0.3307
 4349SOL    HW124680   3.254   4.606   8.960 -0.7232 -0.2640 -0.6892
 4349SOL    HW224681   3.341   4.483   8.933 -1.2002 -1.1283 -0.8354
 4350SOL     OW24682   2.790   3.883  15.796 -0.0390 -0.2876 -0.2159
 4350SOL    HW124683   2.744   3.902  15.714 -1.4536 -0.9878  0.4150
 4350SOL    HW224684   2.874   3.926  15.780  0.6533 -1.8331 -0.6768
 4351SOL     OW24685   4.080   0.699   3.253  0.2555  0.1465 -0.4141
 4351SOL    HW124686   4.036   0.778   3.285  0.6312  1.2104 -2.5296
 4351SOL    HW224687   4.043   0.694   3.165  0.6295 -0.1700 -0.5568
 4352SOL     OW24688   2.237   3.832  11.570 -0.0760  0.1611  0.0247
 4352SOL    HW124689   2.250   3.814  11.663  4.0043  2.4734 -0.0880
 4352SOL    HW224690   2.217   3.925  11.564  0.2158  0.2625  0.6014
 4353SOL     OW24691   0.868   3.265   6.592 -0.0456 -0.1678  0.2588
 4353SOL    HW124692   0.852   3.319   6.514 -1.6951 -0.1047  0.6369
 4353SOL    HW224693   0.830   3.182   6.562 -1.1255  1.0814 -1.8423
 4354SOL     OW24694   4.175   3.278   6.762  0.3511  0.5128 -0.2575
 4354SOL    HW124695   4.113   3.348   6.783  0.2117  0.8293 -1.7309
 4354SOL    HW224696   4.116   3.205   6.778 -1.1868  1.8233  0.0878
 4355SOL     OW24697   1.564   3.403  15.766 -0.0524 -0.6094  0.3669
 4355SOL    HW124698   1.483   3.354  15.749 -0.5880 -0.4867  2.5329
 4355SOL    HW224699   1.585   3.427  15.676 -2.3627 -0.9527 -0.2656
 4356SOL     OW24700   2.644   0.381   3.888  0.6359  0.1076  0.7515
 4356SOL    HW124701   2.590   0.303   3.873  1.2678  0.5236 -3.7459
 4356SOL    HW224702   2.721   0.341   3.927  0.9530  0.6096  0.6358
 4357SOL     OW24703   1.977   0.376   3.666  0.0741  0.1943  0.2090
 4357SOL    HW124704   1.984   0.383   3.761  3.1346  0.5333 -0.0531
 4357SOL    HW224705   1.923   0.298   3.653 -0.1213  0.4930 -0.8032
 4358SOL     OW24706   4.277   0.770  12.954 -0.4718  0.0897 -0.7188
 4358SOL    HW124707   4.343   0.832  12.985  0.2153 -1.3866  0.7775
 4358SOL    HW224708   4.313   0.733  12.874  0.2055 -1.1649  0.1707
 4359SOL     OW24709   0.276   1.871   2.469 -0.7464  0.5122  0.0078
 4359SOL    HW124710   0.295   1.811   2.396  0.2939  0.4199  0.3484
 4359SOL    HW224711   0.360   1.917   2.469 -0.2123 -0.4679  0.5601
 4360SOL     OW24712   1.911   0.431  16.031  0.1116 -0.4827  0.0326
 4360SOL    HW124713   1.862   0.349  16.037  3.3809 -2.4671 -0.3313
 4360SOL    HW224714   1.997   0.411  15.995  0.8514 -1.0860  2.1340
 4361SOL     OW24715   0.866   3.489   7.492  0.4553 -0.4087 -0.5926
 4361SOL    HW124716   0.889   3.543   7.568 -1.3387  1.4429 -1.3580
 4361SOL    HW224717   0.780   3.453   7.510  0.8194  0.2269  2.4708
 4362SOL     OW24718   3.123   4.101   8.042 -0.0312  0.3910  0.1592
 4362SOL    HW124719   3.150   4.125   8.130  0.9959  1.1764 -0.3788
 4362SOL    HW224720   3.039   4.062   8.069  0.1618 -0.9669 -1.1461
 4363SOL     OW24721   4.328   0.243   1.942 -0.2654  0.6870 -0.3652
 4363SOL    HW124722   4.270   0.307   1.986 -0.5252  0.7156 -0.7546
 4363SOL    HW224723   4.361   0.298   1.871 -0.9019  0.7236 -0.6311
 4364SOL     OW24724   1.693   0.605   4.854  0.1843  0.1045 -0.0153
 4364SOL    HW124725   1.730   0.586   4.940  0.6275 -0.0609 -0.2454
 4364SOL    HW224726   1.759   0.560   4.802 -1.9010 -1.4310 -1.3707
 4365SOL     OW24727   0.006   4.061  14.478 -0.4221  0.2490 -0.0435
 4365SOL    HW124728   0.030   4.104  14.396 -0.5204  1.3949  0.5321
 4365SOL    HW224729   0.031   3.970  14.461 -2.0068 -0.6671  2.5138
 4366SOL     OW24730   0.955   2.079   2.551 -0.5793 -0.4641  1.0106
 4366SOL    HW124731   0.874   2.105   2.594 -0.9229  1.3488 -0.6909
 4366SOL    HW224732   0.955   1.986   2.573  2.6549 -0.3038  1.7018
 4367SOL     OW24733   3.277   1.973   8.234  0.1169  0.0202 -0.6659
 4367SOL    HW124734   3.208   2.030   8.199  1.4955  1.2466 -1.4134
 4367SOL    HW224735   3.230   1.919   8.297  1.0947  0.1475  0.1674
 4368SOL     OW24736   4.637   2.271   2.308 -0.4748  0.3625  0.1904
 4368SOL    HW124737   4.589   2.238   2.384  0.1331  0.0805  0.4486
 4368SOL    HW224738   4.610   2.205   2.244  4.6717 -1.9913  0.4550
 4369SOL     OW24739   1.759   3.255   1.842 -0.3531 -0.6580  0.5613
 4369SOL    HW124740   1.836   3.217   1.883  0.2010 -0.4236 -0.2425
 4369SOL    HW224741   1.749   3.335   1.894 -0.0206 -0.7550  0.7671
 4370SOL     OW24742   4.311   2.531   0.927 -0.1275 -0.0315  0.2777
 4370SOL    HW124743   4.283   2.547   0.837  2.9301  0.9818 -0.4748
 4370SOL    HW224744   4.361   2.449   0.926  0.3051  0.2636 -1.5673
 4371SOL     OW24745   1.463   0.963   7.592 -0.2413  0.1933 -0.3937
 4371SOL    HW124746   1.512   0.884   7.616  1.6226  1.0372 -1.4378
 4371SOL    HW224747   1.452   1.003   7.678  0.4699  1.0981 -0.7323
 4372SOL     OW24748   0.179   1.472   7.948  0.4768 -0.4829 -0.3210
 4372SOL    HW124749   0.108   1.473   8.011  0.5249 -0.0994 -0.2714
 4372SOL    HW224750   0.252   1.457   8.008 -0.6278 -2.6019  0.4534
 4373SOL     OW24751   4.388   1.041   3.440 -0.1541  0.3858  0.6102
 4373SOL    HW124752   4.412   0.995   3.359 -0.6701 -0.2458  0.8099
 4373SOL    HW224753   4.294   1.056   3.429 -0.0384  0.0851 -0.7942
 4374SOL     OW24754   2.481   2.203  15.152 -0.2392  0.2430 -0.0882
 4374SOL    HW124755   2.479   2.293  15.185 -0.3838  0.9726 -2.1076
 4374SOL    HW224756   2.391   2.183  15.174  0.7685 -3.5632  0.5128
 4375SOL     OW24757   2.948   3.410   8.461  0.3094  0.5153 -0.5946
 4375SOL    HW124758   2.898   3.459   8.527  0.5996  0.1705 -0.1130
 4375SOL    HW224759   2.925   3.477   8.397  0.1086 -0.7422 -1.8214
 4376SOL     OW24760   1.075   2.730  10.079  0.2364  0.4741 -0.5744
 4376SOL    HW124761   1.102   2.686  10.159 -0.1616 -0.6544 -1.0577
 4376SOL    HW224762   0.980   2.722  10.077  0.2384  0.1529  0.7658
 4377SOL     OW24763   3.950   4.715   4.291  0.4948 -0.7342  0.1051
 4377SOL    HW124764   3.981   4.682   4.206  1.2125 -0.0891  0.1125
 4377SOL    HW224765   3.858   4.704   4.269 -0.1435 -0.1997  2.5168
 4378SOL     OW24766   4.205   3.378   3.817  0.2966 -0.0186  0.6069
 4378SOL    HW124767   4.129   3.427   3.847  0.3012  0.3711 -0.0142
 4378SOL    HW224768   4.242   3.354   3.902 -1.2660  0.5702  1.4371
 4379SOL     OW24769   1.194   3.687   7.651 -0.1705  0.2052  0.3478
 4379SOL    HW124770   1.247   3.686   7.571  3.2668  0.2434  2.6310
 4379SOL    HW224771   1.185   3.594   7.669  1.9982 -0.0302  0.1628
 4380SOL     OW24772   2.743   3.169   2.976 -0.1212 -0.1829  0.1873
 4380SOL    HW124773   2.774   3.204   3.060  2.7174 -1.1488 -0.4832
 4380SOL    HW224774   2.792   3.232   2.923 -0.1959  0.0981  0.4505
 4381SOL     OW24775   1.585   1.742   6.670  0.7416  0.0973 -0.0167
 4381SOL    HW124776   1.642   1.805   6.714 -0.1959  0.7547  0.2325
 4381SOL    HW224777   1.498   1.772   6.694  1.4149  1.0295  1.2717
 4382SOL     OW24778   4.006   0.336   2.519  0.6556 -0.2962 -0.0960
 4382SOL    HW124779   3.971   0.255   2.557 -0.1738  0.5721  0.9735
 4382SOL    HW224780   4.049   0.301   2.440  2.2740 -0.5376  0.8903
 4383SOL     OW24781   2.892   1.455  10.673 -0.2710 -0.1090  0.7887
 4383SOL    HW124782   2.964   1.412  10.719  0.1139  0.6615  0.9165
 4383SOL    HW224783   2.849   1.376  10.641 -0.9241  0.2752  0.7060
 4384SOL     OW24784   1.895   2.852   2.528 -0.7237  0.9594  0.2396
 4384SOL    HW124785   1.840   2.882   2.600 -0.1742  0.6505  0.7855
 4384SOL    HW224786   1.828   2.867   2.461 -0.6142  0.6957  0.0703
 4385SOL     OW24787   1.480   2.548   3.912  0.7802  0.1976  0.2637
 4385SOL    HW124788   1.544   2.618   3.922  1.0887 -0.3929  2.2843
 4385SOL    HW224789   1.396   2.594   3.918 -0.5773 -1.8686 -2.8777
 4386SOL     OW24790   3.198   4.451   6.728 -0.0147  0.4364  0.1360
 4386SOL    HW124791   3.135   4.517   6.758  0.2470  0.5453  0.4449
 4386SOL    HW224792   3.279   4.495   6.702  0.4154 -0.5756 -0.2104
 4387SOL     OW24793   4.678   3.296  13.342 -0.0643 -0.0534  0.2681
 4387SOL    HW124794   4.666   3.269  13.251  0.8311  0.0756  0.1166
 4387SOL    HW224795   4.622   3.374  13.342 -1.8918 -1.3857 -1.5716
 4388SOL     OW24796   1.668   3.050  17.528  0.2341  0.3831 -0.3637
 4388SOL    HW124797   1.681   3.136  17.488  0.6405  1.2432  1.6000
 4388SOL    HW224798   1.761   3.032  17.540 -0.0751 -1.9909 -1.4947
 4389SOL     OW24799   0.635   0.689   1.851 -0.8681  0.2307  0.4000
 4389SOL    HW124800   0.626   0.665   1.759  1.9874  1.2611 -0.1613
 4389SOL    HW224801   0.708   0.632   1.876 -0.0463  0.9847 -0.2875
 4390SOL     OW24802   2.766   0.221   1.332 -0.1166 -0.1447 -0.1981
 4390SOL    HW124803   2.689   0.170   1.358 -0.7386  0.7556 -0.2618
 4390SOL    HW224804   2.776   0.201   1.239  0.2157 -1.0270  0.0328
 4391SOL     OW24805   2.176   0.705   9.489  0.5172 -0.1775  0.1073
 4391SOL    HW124806   2.182   0.627   9.433 -1.2163  0.6705 -1.2618
 4391SOL    HW224807   2.215   0.666   9.567  0.8175 -0.9812 -0.4384
 4392SOL     OW24808   0.675   2.697   3.311  0.2505 -0.2172  0.3044
 4392SOL    HW124809   0.653   2.742   3.393  2.7643  2.0681 -0.2933
 4392SOL    HW224810   0.686   2.605   3.335  0.5764 -0.7081 -1.7295
 4393SOL     OW24811   1.183   2.352   0.336 -0.5608 -0.2591 -0.5237
 4393SOL    HW124812   1.184   2.375   0.243  3.3570  1.7941  0.0506
 4393SOL    HW224813   1.112   2.413   0.360  1.2119  0.9231  1.6428
 4394SOL     OW24814   1.213   4.692  15.608 -0.2582 -0.1505 -0.0933
 4394SOL    HW124815   1.252   4.681  15.522 -1.2542 -2.9076 -0.1757
 4394SOL    HW224816   1.128   4.717  15.571 -1.5932 -0.1580  2.9195
 4395SOL     OW24817   2.848   2.721   7.992  0.0916 -0.3474  0.0060
 4395SOL    HW124818   2.853   2.720   7.896 -1.5655 -0.8856 -0.0684
 4395SOL    HW224819   2.821   2.629   8.000  0.3876 -0.4257  0.1298
 4396SOL     OW24820   3.835   0.458   7.487  0.1737 -0.0375 -0.2676
 4396SOL    HW124821   3.814   0.374   7.528 -0.7495  0.2670 -0.1191
 4396SOL    HW224822   3.762   0.476   7.427  3.2799  2.7127 -3.2264
 4397SOL     OW24823   2.457   1.771  12.065  0.0398  0.2183  0.5277
 4397SOL    HW124824   2.538   1.776  12.116  0.9610 -0.5827 -0.8627
 4397SOL    HW224825   2.412   1.849  12.095 -0.2031  0.1906  0.2352
 4398SOL     OW24826   2.219   0.357  12.926 -0.3776  0.3589  0.1886
 4398SOL    HW124827   2.177   0.365  13.012  1.3955  0.2207  1.0682
 4398SOL    HW224828   2.309   0.330  12.946 -1.2013 -0.5747  2.5727
 4399SOL     OW24829   1.174   2.396   3.940 -0.0105  0.2121  0.2745
 4399SOL    HW124830   1.255   2.396   3.992  0.2915  0.4328 -0.1979
 4399SOL    HW224831   1.210   2.316   3.902  0.8702  0.7079  0.0652
 4400SOL     OW24832   3.835   4.387   4.211  0.7179  0.7977 -0.1712
 4400SOL    HW124833   3.871   4.425   4.131  2.6801  1.2024  0.9041
 4400SOL    HW224834   3.915   4.350   4.250  0.1017  0.7053  1.0209
 4401SOL     OW24835   1.299   4.621   9.085 -0.1843  0.2820 -0.0639
 4401SOL    HW124836   1.326   4.580   9.168 -0.4443  1.9480  0.8428
 4401SOL    HW224837   1.283   4.545   9.029 -0.7049 -2.3181  3.5717
 4402SOL     OW24838   3.472   3.177   3.367 -0.1980  0.3517  0.0404
 4402SOL    HW124839   3.392   3.218   3.333  0.6906  2.0722  0.0431
 4402SOL    HW224840   3.443   3.085   3.360 -0.0142  0.4031 -1.3488
 4403SOL     OW24841   2.250   1.727  17.579 -0.1673  0.1487  0.5921
 4403SOL    HW124842   2.170   1.768  17.546 -0.5384 -0.3744  0.8505
 4403SOL    HW224843   2.281   1.774  17.656  0.6484  0.6591 -0.0401
 4404SOL     OW24844   3.535   2.740   7.586 -0.3530  0.0321 -0.4960
 4404SOL    HW124845   3.502   2.809   7.528 -0.4127  1.3152  1.0734
 4404SOL    HW224846   3.516   2.782   7.670 -0.5246 -0.1189 -0.4589
 4405SOL     OW24847   1.883   0.799   2.725  0.7301 -0.5756 -0.2486
 4405SOL    HW124848   1.880   0.710   2.688  0.3063 -0.4946 -0.4032
 4405SOL    HW224849   1.841   0.847   2.654  0.9876 -1.7276 -1.1915
 4406SOL     OW24850   2.152   2.964   3.443  0.0914  0.0637  0.0907
 4406SOL    HW124851   2.123   2.962   3.352 -0.7212  3.4467  0.2704
 4406SOL    HW224852   2.134   3.053   3.472 -2.0570 -0.6381  0.8953
 4407SOL     OW24853   3.503   2.891   4.063  0.2450  0.0936 -0.0087
 4407SOL    HW124854   3.561   2.861   3.993 -0.5755 -1.3707 -0.0588
 4407SOL    HW224855   3.433   2.916   4.002 -0.0389  0.3690  0.4261
 4408SOL     OW24856   2.879   2.391   5.478  0.4252 -0.1245 -0.2034
 4408SOL    HW124857   2.846   2.349   5.557  0.8056 -0.5822 -0.2820
 4408SOL    HW224858   2.813   2.457   5.461  0.6056 -0.0155 -0.4888
 4409SOL     OW24859   1.087   2.978   8.751  0.3807 -0.2464  0.1181
 4409SOL    HW124860   1.093   2.890   8.713 -0.3373 -0.6706  0.9992
 4409SOL    HW224861   1.136   2.965   8.833  1.4128 -2.1856 -0.7869
 4410SOL     OW24862   2.869   2.464   8.018  0.4844  0.0679  0.0035
 4410SOL    HW124863   2.918   2.382   8.027 -0.5585 -0.6395 -0.7204
 4410SOL    HW224864   2.792   2.424   7.978 -1.3577  1.4125  2.2075
 4411SOL     OW24865   0.792   2.990   7.463 -0.0505 -0.9673  0.6382
 4411SOL    HW124866   0.797   2.934   7.385 -1.0499  1.2948 -1.0268
 4411SOL    HW224867   0.726   3.049   7.428  1.6619 -0.4950 -1.8088
 4412SOL     OW24868   3.945   0.668   3.543  1.0185 -0.1080  0.0506
 4412SOL    HW124869   3.881   0.659   3.613  2.4095  0.8084  1.4481
 4412SOL    HW224870   3.912   0.599   3.487 -2.2706  0.7212  0.9892
 4413SOL     OW24871   2.131   0.726   4.231  0.1977 -0.3478  0.3211
 4413SOL    HW124872   2.191   0.651   4.228 -1.3464 -1.5994  0.8929
 4413SOL    HW224873   2.183   0.784   4.175  1.1830 -0.8826  0.6776
 4414SOL     OW24874   0.610   3.604  13.612 -0.2843  0.2486 -0.2252
 4414SOL    HW124875   0.630   3.697  13.602 -2.6874  0.6994 -0.9370
 4414SOL    HW224876   0.522   3.610  13.575 -0.4337 -1.3223 -0.1374
 4415SOL     OW24877   3.955   1.436   0.836  0.1442 -0.1675 -0.3818
 4415SOL    HW124878   3.883   1.411   0.777 -1.0223  1.5590  0.3053
 4415SOL    HW224879   4.011   1.369   0.797 -2.5374 -0.8696 -3.0756
 4416SOL     OW24880   1.289   3.786  13.914 -0.5994  0.1280 -0.1593
 4416SOL    HW124881   1.345   3.864  13.917 -2.1957  1.2919 -0.7048
 4416SOL    HW224882   1.313   3.733  13.990  0.1999  0.4869 -0.1551
 4417SOL     OW24883   0.260   2.006   0.728  0.2205 -0.3179 -0.7027
 4417SOL    HW124884   0.282   2.053   0.808 -0.4668 -0.1665 -0.6018
 4417SOL    HW224885   0.246   1.916   0.757 -0.3150 -0.0315 -0.0859
 4418SOL     OW24886   0.403   0.693   5.629 -0.1926 -0.2631  1.2047
 4418SOL    HW124887   0.415   0.687   5.535 -0.3090  4.0283  0.9531
 4418SOL    HW224888   0.447   0.611   5.651  0.2200 -0.0721  1.0859
 4419SOL     OW24889   3.957   4.169   9.956  0.9477 -0.1662  0.8860
 4419SOL    HW124890   3.906   4.122  10.022 -2.7061 -0.5317 -2.2361
 4419SOL    HW224891   3.887   4.205   9.903  0.4854 -2.3925 -0.0333
 4420SOL     OW24892   2.481   2.851  16.170  0.0018 -0.2958 -0.5919
 4420SOL    HW124893   2.436   2.841  16.086 -0.8236 -0.2741 -0.1460
 4420SOL    HW224894   2.532   2.771  16.161  1.4991  0.4049  1.5863
 4421SOL     OW24895   2.046   1.947   7.763 -0.5242 -0.5808  0.2204
 4421SOL    HW124896   1.994   1.944   7.843 -0.6177 -0.8624  0.1498
 4421SOL    HW224897   2.043   1.858   7.729 -0.3302 -0.4540 -0.1281
 4422SOL     OW24898   4.573   0.641   2.756 -0.3923  0.3925 -0.1468
 4422SOL    HW124899   4.611   0.557   2.732 -3.2612 -1.4080  1.4733
 4422SOL    HW224900   4.590   0.706   2.689 -0.7109 -0.1281 -0.7286
 4423SOL     OW24901   1.301   1.188  13.902 -0.4987 -0.2131  0.4291
 4423SOL    HW124902   1.284   1.277  13.870 -1.5577 -0.3658  0.5881
 4423SOL    HW224903   1.263   1.184  13.989 -1.3416  1.7539  0.1534
 4424SOL     OW24904   3.411   4.466  13.483 -0.5825 -0.1505  0.5015
 4424SOL    HW124905   3.363   4.545  13.508  0.6430 -0.0183  2.4785
 4424SOL    HW224906   3.494   4.488  13.525  2.4368  0.0492 -5.5227
 4425SOL     OW24907   0.359   0.405   0.729 -0.2369  0.0551 -0.2632
 4425SOL    HW124908   0.293   0.398   0.798  0.3261  0.4814  0.3211
 4425SOL    HW224909   0.298   0.414   0.656 -1.1533 -0.7474  0.3951
 4426SOL     OW24910   1.211   3.155   8.962 -0.1969  0.7160  0.1001
 4426SOL    HW124911   1.280   3.092   8.983  0.3061  1.1966 -0.1299
 4426SOL    HW224912   1.153   3.136   9.036  0.3011 -0.0039  0.3099
 4427SOL     OW24913   4.146   2.421  16.260  0.2493  0.1964 -0.2803
 4427SOL    HW124914   4.136   2.391  16.351 -1.9748  1.0156 -0.2368
 4427SOL    HW224915   4.058   2.458  16.250 -0.5766 -1.4978  0.6908
 4428SOL     OW24916   0.613   2.459   7.143  0.6970  0.1105  0.3967
 4428SOL    HW124917   0.546   2.521   7.114 -0.0396 -0.5786  0.6238
 4428SOL    HW224918   0.576   2.442   7.230 -1.9525 -2.4562 -1.2131
 4429SOL     OW24919   2.983   2.439  12.744 -0.4039 -0.0564  0.6914
 4429SOL    HW124920   3.043   2.451  12.817 -0.0373  0.4641  0.3006
 4429SOL    HW224921   2.970   2.344  12.742 -0.1394 -0.0943  0.7599
 4430SOL     OW24922   0.619   0.691  10.131  0.1479 -0.5114  0.0262
 4430SOL    HW124923   0.708   0.665  10.108  0.2103  0.8636 -1.2950
 4430SOL    HW224924   0.639   0.721  10.219 -1.0905 -1.9327  0.7933
 4431SOL     OW24925   3.690   3.224   4.829  0.5588 -0.4349  0.3963
 4431SOL    HW124926   3.758   3.184   4.775 -0.3484  0.5970 -1.5126
 4431SOL    HW224927   3.724   3.301   4.875 -1.7426 -0.1036  1.4972
 4432SOL     OW24928   0.053   2.945   4.691 -0.2246  0.9305  0.1228
 4432SOL    HW124929   0.106   2.927   4.769  1.1922  1.9107 -0.6197
 4432SOL    HW224930   4.728   3.009   4.727 -0.7057 -0.0759  1.0815
 4433SOL     OW24931   1.323   4.531   9.344  0.0335  0.2549 -0.1529
 4433SOL    HW124932   1.386   4.565   9.408 -0.7175  0.3622  0.5325
 4433SOL    HW224933   1.245   4.548   9.397 -1.7541  0.3213 -2.8223
 4434SOL     OW24934   0.825   3.000   0.288 -0.1364 -0.4313 -0.1270
 4434SOL    HW124935   0.893   3.011   0.222 -0.5054 -0.1810 -0.4654
 4434SOL    HW224936   0.748   3.037   0.244 -1.1433 -1.1973  0.9711
 4435SOL     OW24937   2.816   3.408   9.588 -0.3470 -0.4395 -0.3021
 4435SOL    HW124938   2.769   3.393   9.670 -0.7752 -0.3416 -0.5266
 4435SOL    HW224939   2.903   3.374   9.609  0.2718  1.9476  0.9635
 4436SOL     OW24940   2.081   0.896   2.865  0.1369  0.5746 -0.5176
 4436SOL    HW124941   2.004   0.871   2.814 -1.1403  3.2730  0.0754
 4436SOL    HW224942   2.102   0.972   2.810  1.2271  0.5988 -0.0646
 4437SOL     OW24943   2.328   0.317   7.371 -0.8888  0.2446 -1.4752
 4437SOL    HW124944   2.338   0.223   7.358  4.6684  0.5730  0.7498
 4437SOL    HW224945   2.373   0.346   7.292 -2.1139  2.6530 -1.2941
 4438SOL     OW24946   2.490   4.017   6.475 -1.1160 -0.7521  0.1866
 4438SOL    HW124947   2.516   4.088   6.534 -0.8453 -1.2736  0.7014
 4438SOL    HW224948   2.465   3.946   6.535 -0.7255 -1.9264 -1.0267
 4439SOL     OW24949   3.156   4.169   3.682  0.5900 -0.1193 -0.1805
 4439SOL    HW124950   3.102   4.190   3.759 -1.3511 -2.9626 -0.7786
 4439SOL    HW224951   3.209   4.249   3.682  0.8043 -0.2631  0.4763
 4440SOL     OW24952   1.636   4.211  13.812  0.5917  0.2869 -0.8471
 4440SOL    HW124953   1.643   4.154  13.736 -1.1471 -0.1003 -0.7376
 4440SOL    HW224954   1.549   4.177  13.835  1.5184 -0.4211  1.5557
 4441SOL     OW24955   3.821   2.568  17.217 -0.2615  0.4738  0.0324
 4441SOL    HW124956   3.777   2.609  17.292 -2.4056  2.3659 -2.2721
 4441SOL    HW224957   3.896   2.624  17.198  0.2606 -0.2736 -0.1578
 4442SOL     OW24958   1.478   3.487   3.155  0.5365 -0.1286 -0.2451
 4442SOL    HW124959   1.432   3.477   3.071  0.7961 -0.4162 -0.3529
 4442SOL    HW224960   1.515   3.575   3.153 -0.8335  0.4854  2.6576
 4443SOL     OW24961   0.938   0.676   6.188 -0.2646  0.2673 -0.4156
 4443SOL    HW124962   1.033   0.667   6.190 -0.6313 -3.7896 -1.5915
 4443SOL    HW224963   0.912   0.591   6.222 -2.2390  1.5929  1.3766
 4444SOL     OW24964   4.000   0.445   4.271 -0.2379  0.3075 -0.4501
 4444SOL    HW124965   4.037   0.512   4.214  0.5617  1.1545  1.0754
 4444SOL    HW224966   3.911   0.478   4.271 -0.1897  0.4840 -2.6033
 4445SOL     OW24967   1.507   0.718   8.601 -0.0088 -0.1458 -0.2647
 4445SOL    HW124968   1.535   0.629   8.624  0.1918  0.1639  0.6710
 4445SOL    HW224969   1.535   0.770   8.676  0.6579 -0.3253 -0.3876
 4446SOL     OW24970   3.993   3.364   2.674  0.1542 -0.5260  0.2352
 4446SOL    HW124971   4.068   3.422   2.687  1.1328 -1.8823  0.6784
 4446SOL    HW224972   4.031   3.294   2.620 -0.2626 -0.3625 -0.2726
 4447SOL     OW24973   0.971   0.780   8.435 -0.0345 -0.1493  0.0116
 4447SOL    HW124974   0.973   0.848   8.367  0.3053 -1.8316 -1.6368
 4447SOL    HW224975   1.024   0.814   8.508 -0.3618  1.6031 -0.5721
 4448SOL     OW24976   4.214   0.051   8.246  0.0154  0.1855 -0.2730
 4448SOL    HW124977   4.174   0.135   8.269 -0.4178 -0.0511 -0.1719
 4448SOL    HW224978   4.187   0.052   8.154  0.2999 -0.8030 -0.3647
 4449SOL     OW24979   0.366   3.812   3.039  0.4566 -0.6209  0.1719
 4449SOL    HW124980   0.290   3.868   3.026  0.5803 -0.0627  1.7676
 4449SOL    HW224981   0.315   3.764   3.105 -2.8183  1.9723 -0.4743
 4450SOL     OW24982   2.341   0.498   8.086 -0.3606  0.9135  0.4157
 4450SOL    HW124983   2.308   0.585   8.110  0.6837  0.9070  1.8818
 4450SOL    HW224984   2.432   0.525   8.070  0.1218 -0.4582  0.8824
 4451SOL     OW24985   0.916   3.022   2.709 -0.2207 -0.0839  0.8127
 4451SOL    HW124986   0.936   3.002   2.801  0.4479  1.7155  1.0614
 4451SOL    HW224987   0.835   3.070   2.726  0.3570  1.5573 -1.1864
 4452SOL     OW24988   3.711   4.675   5.234 -0.2141 -0.2417 -0.2336
 4452SOL    HW124989   3.755   0.024   5.232 -2.1482  0.7894  0.7043
 4452SOL    HW224990   3.747   4.640   5.316 -0.6072 -2.2250 -0.9007
 4453SOL     OW24991   3.758   3.415   4.319  0.1125 -0.6741 -0.7360
 4453SOL    HW124992   3.673   3.386   4.287 -0.4781 -0.6623  0.8270
 4453SOL    HW224993   3.799   3.450   4.240  0.4048 -0.2086 -0.3768
 4454SOL     OW24994   3.764   0.402   9.461  0.1861  0.3445 -0.1142
 4454SOL    HW124995   3.792   0.321   9.419  0.4638  1.2499 -1.6811
 4454SOL    HW224996   3.671   0.396   9.440 -0.0306  0.6001  0.7624
 4455SOL     OW24997   3.011   0.605   7.656  0.4129  0.1062 -0.0407
 4455SOL    HW124998   3.022   0.685   7.708  2.1496 -0.2372  0.1201
 4455SOL    HW224999   3.099   0.571   7.672  0.2973  2.0412  4.8002
 4456SOL     OW25000   3.296   2.799   3.599 -0.5265 -0.3916 -0.1621
 4456SOL    HW125001   3.326   2.710   3.579 -0.6001  0.2382 -3.0010
 4456SOL    HW225002   3.339   2.840   3.524 -3.0128  1.9787 -0.2922
 4457SOL     OW25003   3.028   3.266  13.821  0.0962 -0.3157  0.1144
 4457SOL    HW125004   3.086   3.258  13.897  1.9042 -0.1876 -1.2365
 4457SOL    HW225005   2.954   3.207  13.833  0.0685 -0.2722  0.1602
 4458SOL     OW25006   0.746   0.514   6.973 -0.1796  0.6880  0.1150
 4458SOL    HW125007   0.682   0.529   7.042  0.3482  0.1797  0.7150
 4458SOL    HW225008   0.791   0.433   6.996 -1.9697 -0.1471  0.6468
 4459SOL     OW25009   3.964   2.861  12.825 -0.5460 -0.0052  0.2447
 4459SOL    HW125010   4.027   2.825  12.762 -0.5978  1.0672 -0.4232
 4459SOL    HW225011   3.968   2.956  12.814  0.2326 -0.1676 -0.8357
 4460SOL     OW25012   1.644   0.091   6.385  0.6077  0.2316 -0.5030
 4460SOL    HW125013   1.693   0.027   6.436 -0.0354 -0.4019 -0.6721
 4460SOL    HW225014   1.555   0.061   6.406  0.4831  1.6897  1.0272
 4461SOL     OW25015   0.660   3.987  12.825  0.2285 -0.0545  0.0542
 4461SOL    HW125016   0.710   3.932  12.885 -0.7863 -1.7730 -0.6507
 4461SOL    HW225017   0.660   4.073  12.866  3.0652  0.2162 -0.5008
 4462SOL     OW25018   0.123   3.129   2.226  0.3603 -0.1688 -0.0014
 4462SOL    HW125019   0.093   3.039   2.221 -1.0433  0.2587  0.5513
 4462SOL    HW225020   0.114   3.128   2.322  3.7148 -0.6750  0.2841
 4463SOL     OW25021   4.562   1.041  17.338  0.4097  0.3655  0.4830
 4463SOL    HW125022   4.505   1.117  17.343 -2.1743 -1.5325 -0.0582
 4463SOL    HW225023   4.643   1.084  17.312  2.0039 -0.9096  3.3154
 4464SOL     OW25024   4.523   0.523   0.498 -0.2192  0.1883  0.3231
 4464SOL    HW125025   4.517   0.542   0.404  2.2908 -0.3114  0.0710
 4464SOL    HW225026   4.430   0.513   0.518 -0.0928  0.6454  1.1253
 4465SOL     OW25027   1.515   1.867   5.414 -0.2101 -0.4501 -0.5078
 4465SOL    HW125028   1.590   1.846   5.470 -0.8505 -3.9413 -0.9562
 4465SOL    HW225029   1.563   1.859   5.331  1.0306 -1.9168  0.3529
 4466SOL     OW25030   1.110   3.807  11.689  0.1605 -0.1575 -0.2248
 4466SOL    HW125031   1.048   3.873  11.720 -1.2143 -1.0336 -1.0997
 4466SOL    HW225032   1.074   3.743  11.750  2.8426 -0.9671  0.4655
 4467SOL     OW25033   3.767   1.452   4.992  0.6187  0.2707 -0.3594
 4467SOL    HW125034   3.861   1.458   5.012 -0.2833  0.9830  3.6399
 4467SOL    HW225035   3.762   1.441   4.897  0.8004 -0.0032 -0.3373
 4468SOL     OW25036   4.493   3.441   7.420  0.5546 -0.0320  0.0747
 4468SOL    HW125037   4.409   3.439   7.376 -0.0065  0.5503  1.1071
 4468SOL    HW225038   4.541   3.392   7.353 -2.1990 -0.3866 -1.6090
 4469SOL     OW25039   3.398   1.584   2.246 -0.0952 -0.0846 -0.2467
 4469SOL    HW125040   3.363   1.603   2.333  1.1893  0.9488  0.0575
 4469SOL    HW225041   3.437   1.497   2.257  1.1793  0.5230  0.0774
 4470SOL     OW25042   2.602   1.747   8.114  0.1250 -0.1451  0.5019
 4470SOL    HW125043   2.532   1.691   8.081  0.9937  0.7041 -2.8451
 4470SOL    HW225044   2.671   1.680   8.124 -1.0461 -1.3218  0.7479
 4471SOL     OW25045   1.148   2.173   6.460  0.0793 -0.0529 -0.0195
 4471SOL    HW125046   1.081   2.188   6.393 -2.3342  0.9240  2.6296
 4471SOL    HW225047   1.216   2.127   6.410  0.9035  0.3164  0.7629
 4472SOL     OW25048   1.783   4.659   9.453  0.2831 -0.2562  0.4910
 4472SOL    HW125049   1.719   4.604   9.499  0.9972 -1.3820  0.1384
 4472SOL    HW225050   1.823   4.585   9.407 -0.3323 -1.7268  2.3298
 4473SOL     OW25051   1.956   1.899   2.721 -0.1869  0.0117 -0.3596
 4473SOL    HW125052   1.911   1.978   2.691  2.1913  0.7492 -1.9921
 4473SOL    HW225053   1.984   1.926   2.808 -1.3075  0.8972 -0.2734
 4474SOL     OW25054   1.880   2.793  11.636  0.2090  0.1884  0.0489
 4474SOL    HW125055   1.840   2.840  11.709 -2.5494 -1.5755 -0.3133
 4474SOL    HW225056   1.951   2.853  11.611  0.0278  0.5692  0.4433
 4475SOL     OW25057   0.708   0.407   8.379 -0.2163 -0.7505  0.3824
 4475SOL    HW125058   0.724   0.480   8.439 -0.6991 -1.4262  1.3289
 4475SOL    HW225059   0.614   0.422   8.369  0.0031  1.0976  1.0472
 4476SOL     OW25060   2.402   0.119   0.674  0.1907  0.5847 -0.1475
 4476SOL    HW125061   2.469   0.055   0.651  2.2122  2.0544  1.6267
 4476SOL    HW225062   2.437   0.201   0.639  1.1284  1.8238  3.6908
 4477SOL     OW25063   1.490   0.313   5.138 -0.7598 -0.2126 -0.4135
 4477SOL    HW125064   1.564   0.297   5.196  0.1250  3.2346 -0.6047
 4477SOL    HW225065   1.458   0.227   5.109  1.4977 -0.6853 -1.4729
 4478SOL     OW25066   2.266   1.448   5.842  0.2276  0.0947 -0.1316
 4478SOL    HW125067   2.257   1.388   5.768  1.9070 -1.2626  0.7691
 4478SOL    HW225068   2.346   1.406   5.873  0.3087  1.0798  0.9574
 4479SOL     OW25069   0.395   1.885   8.565  0.3752  0.0250 -0.0632
 4479SOL    HW125070   0.401   1.809   8.622 -0.3746 -1.6540 -2.2611
 4479SOL    HW225071   0.433   1.957   8.617  0.2544  0.6618 -0.8588
 4480SOL     OW25072   3.842   1.433   6.885 -0.1065  0.1705  0.4753
 4480SOL    HW125073   3.826   1.375   6.811 -0.0625  0.3479  0.3254
 4480SOL    HW225074   3.927   1.469   6.860  0.2373 -0.2907  0.9739
 4481SOL     OW25075   2.169   3.479  16.395 -0.5942  0.2413 -0.4886
 4481SOL    HW125076   2.263   3.488  16.377 -0.4531  0.4166  0.3134
 4481SOL    HW225077   2.128   3.506  16.314  0.9883 -0.0755 -1.3937
 4482SOL     OW25078   3.239   4.704   1.608 -0.1436 -0.4358 -0.2106
 4482SOL    HW125079   3.179   0.006   1.673  0.6572 -2.1081  1.4882
 4482SOL    HW225080   3.254   4.617   1.645 -2.3701 -0.4179  0.7398
 4483SOL     OW25081   1.907   4.478   4.628 -0.2329 -0.1668  0.5613
 4483SOL    HW125082   1.997   4.466   4.597 -1.0821  1.8263 -2.6748
 4483SOL    HW225083   1.875   4.501   4.541 -1.4171 -0.8641  0.8145
 4484SOL     OW25084   2.255   2.125   1.558  0.4259  0.3111 -0.3824
 4484SOL    HW125085   2.258   2.184   1.633 -2.3845  0.6204 -0.4896
 4484SOL    HW225086   2.193   2.060   1.591  0.5232 -0.0658 -0.9449
 4485SOL     OW25087   0.302   1.298   8.469  0.1298  0.3904  0.1542
 4485SOL    HW125088   0.211   1.297   8.438  0.0649  4.1424  0.2021
 4485SOL    HW225089   0.329   1.388   8.448 -0.8734  0.4530 -0.8924
 4486SOL     OW25090   0.806   3.966   8.219  0.4460  0.0111  0.6161
 4486SOL    HW125091   0.833   3.966   8.127  0.9894 -0.4235  0.7781
 4486SOL    HW225092   0.892   3.984   8.257  0.3505  0.3862  0.6457
 4487SOL     OW25093   2.289   4.292   4.911 -0.0326  0.3258  0.3354
 4487SOL    HW125094   2.233   4.267   4.984  0.8393  0.2595  0.9814
 4487SOL    HW225095   2.327   4.377   4.934  0.2477  0.5823 -1.0347
 4488SOL     OW25096   2.073   3.790   9.918 -0.4094 -0.8421 -0.4299
 4488SOL    HW125097   2.023   3.774   9.998 -0.9138  1.1336 -0.3315
 4488SOL    HW225098   2.043   3.872   9.878  0.7422  0.7155  1.8527
 4489SOL     OW25099   4.422   2.006  16.869 -1.0261 -0.1740  0.2352
 4489SOL    HW125100   4.437   1.914  16.848  1.8144  0.4957 -0.6695
 4489SOL    HW225101   4.476   2.011  16.947  0.2903  1.4182 -0.7841
 4490SOL     OW25102   0.440   0.660   0.518 -0.1753 -0.0305  0.1914
 4490SOL    HW125103   0.381   0.595   0.556  0.6269 -2.1821 -2.2343
 4490SOL    HW225104   0.525   0.624   0.544  0.0749  0.0705 -0.4823
 4491SOL     OW25105   2.426   0.290   2.608  0.0604 -0.0805 -0.0575
 4491SOL    HW125106   2.387   0.331   2.686 -1.5093  1.1247 -1.4785
 4491SOL    HW225107   2.359   0.309   2.542 -0.4375 -1.0882  0.1605
 4492SOL     OW25108   0.457   0.367   3.494 -0.6651 -0.0534 -0.3092
 4492SOL    HW125109   0.447   0.346   3.587 -1.9778  1.1154 -0.2076
 4492SOL    HW225110   0.383   0.422   3.473 -1.4365 -1.8467 -2.2810
 4493SOL     OW25111   2.620   1.134   9.351 -0.3583  0.2868 -0.1241
 4493SOL    HW125112   2.556   1.119   9.421 -1.3105 -0.8937 -1.2483
 4493SOL    HW225113   2.656   1.045   9.342 -2.1986 -0.4499 -0.1178
 4494SOL     OW25114   3.068   2.512  15.038 -0.2243  0.0992  0.0992
 4494SOL    HW125115   3.028   2.583  15.089  1.7922  0.8629  0.5966
 4494SOL    HW225116   2.998   2.519  14.973 -0.8574 -1.4494  0.6049
 4495SOL     OW25117   1.769   2.804  16.959 -0.4103  0.1431 -0.3993
 4495SOL    HW125118   1.796   2.826  17.048  1.1765 -1.9951 -0.3518
 4495SOL    HW225119   1.768   2.897  16.938  0.3846 -0.0985 -1.5418
 4496SOL     OW25120   0.496   2.758   5.848  0.2021 -0.3672  0.7549
 4496SOL    HW125121   0.486   2.675   5.802 -2.4449  0.8036 -0.7602
 4496SOL    HW225122   0.576   2.748   5.899  0.5507 -0.4901  0.1852
 4497SOL     OW25123   2.049   0.669   2.023 -0.3925  0.0568  0.1430
 4497SOL    HW125124   2.090   0.738   2.074 -1.3615  1.6994 -1.3004
 4497SOL    HW225125   2.107   0.673   1.947 -1.1285 -0.1430 -0.4347
 4498SOL     OW25126   3.258   3.212   1.821 -0.1599 -0.4056 -0.2090
 4498SOL    HW125127   3.338   3.262   1.834  1.1901 -2.8753  1.0274
 4498SOL    HW225128   3.280   3.130   1.777 -0.2132  0.0272 -1.0342
 4499SOL     OW25129   2.275   1.331  11.192  0.2661 -0.0444 -0.1874
 4499SOL    HW125130   2.339   1.298  11.129 -1.2101 -0.8471 -1.2522
 4499SOL    HW225131   2.325   1.328  11.274 -1.9686 -1.6637  1.1080
 4500SOL     OW25132   3.782   3.294   6.655  0.3949 -0.0174 -0.1516
 4500SOL    HW125133   3.781   3.347   6.734 -0.6059 -1.0166  0.4880
 4500SOL    HW225134   3.711   3.231   6.669  0.2792  0.3155  0.7340
 4501SOL     OW25135   0.030   1.998  13.663 -0.2289 -0.0581 -0.5163
 4501SOL    HW125136   0.044   1.934  13.593  0.5386 -0.7166  0.2468
 4501SOL    HW225137   4.670   1.995  13.675 -0.4520  1.3256 -1.8890
 4502SOL     OW25138   4.386   0.217   5.217 -0.0524 -0.0502  0.0026
 4502SOL    HW125139   4.386   0.260   5.302  0.2210  0.7998 -0.4205
 4502SOL    HW225140   4.360   0.127   5.236 -1.4505  0.2528 -0.4367
 4503SOL     OW25141   0.286   1.422  16.224  0.1490 -0.1024  0.4244
 4503SOL    HW125142   0.304   1.515  16.233  0.1467 -0.0522 -0.0525
 4503SOL    HW225143   0.325   1.396  16.140  0.3075 -0.7771  0.7087
 4504SOL     OW25144   0.685   1.024  14.868  0.3598  0.0499 -0.2388
 4504SOL    HW125145   0.768   0.977  14.854 -0.2400 -1.7276  2.2234
 4504SOL    HW225146   0.691   1.098  14.807 -0.5352 -1.4354 -2.1421
 4505SOL     OW25147   3.686   1.849   5.280 -0.8849  0.5290 -0.2697
 4505SOL    HW125148   3.654   1.894   5.357  0.3083  1.5411 -0.3709
 4505SOL    HW225149   3.660   1.909   5.211  0.9188  1.0081 -0.5343
 4506SOL     OW25150   0.578   3.235   7.804 -0.2099 -0.4938 -0.1830
 4506SOL    HW125151   0.494   3.201   7.771 -0.2725  0.4394 -0.9998
 4506SOL    HW225152   0.583   3.193   7.889  1.9798  0.0737 -0.0539
 4507SOL     OW25153   2.216   2.382   8.299 -0.1902  0.2727 -0.3290
 4507SOL    HW125154   2.236   2.370   8.391 -0.9058 -3.3100 -0.6539
 4507SOL    HW225155   2.197   2.476   8.291 -1.6509 -0.0255 -0.3975
 4508SOL     OW25156   2.043   3.876   2.606 -0.2718 -0.4579  0.3518
 4508SOL    HW125157   1.964   3.875   2.552 -1.0167  1.6066  1.4013
 4508SOL    HW225158   1.994   3.906   2.683  2.4154  0.4379  1.7023
 4509SOL     OW25159   1.407   0.007   5.095 -0.0589  0.0347  0.1766
 4509SOL    HW125160   1.410   4.683   5.170  0.9051 -0.2007 -0.0506
 4509SOL    HW225161   1.454   4.683   5.036  0.1867 -0.4712  0.8860
 4510SOL     OW25162   0.827   2.477   3.047 -0.4626  0.0411  0.6846
 4510SOL    HW125163   0.813   2.566   3.014  2.5290 -0.0538 -0.8973
 4510SOL    HW225164   0.868   2.498   3.131  0.1209  0.6588  0.2478
 4511SOL     OW25165   3.893   1.011   2.780 -0.5969 -0.5011  0.0740
 4511SOL    HW125166   3.984   1.028   2.804 -1.1144  0.9323  0.9952
 4511SOL    HW225167   3.910   0.929   2.734  0.9060 -1.3737  2.1979
 4512SOL     OW25168   1.113   1.426   0.687  0.1597 -0.2056 -0.5637
 4512SOL    HW125169   1.030   1.455   0.723 -0.3213  0.6222 -2.3499
 4512SOL    HW225170   1.124   1.489   0.616  0.8677 -1.6969 -1.7776
 4513SOL     OW25171   1.445   1.866  14.214 -0.3853  0.5863  0.2928
 4513SOL    HW125172   1.400   1.878  14.298 -0.3813  2.1073  0.0766
 4513SOL    HW225173   1.484   1.952  14.201  0.1997  0.0103 -1.8141
 4514SOL     OW25174   3.149   3.535   1.793 -0.3034 -0.0245 -0.2959
 4514SOL    HW125175   3.227   3.526   1.848 -0.6145  3.6568  0.7479
 4514SOL    HW225176   3.149   3.630   1.779  1.3148 -0.4957 -3.4537
 4515SOL     OW25177   4.042   2.881   5.425  0.2883 -0.0761  0.7351
 4515SOL    HW125178   4.132   2.864   5.400  0.1163 -0.5270  0.4200
 4515SOL    HW225179   4.044   2.953   5.488  0.9910  0.2278  0.3642
 4516SOL     OW25180   1.125   1.756   5.632  0.2073  0.2425 -0.0393
 4516SOL    HW125181   1.153   1.823   5.694 -2.2561  0.9376  0.3290
 4516SOL    HW225182   1.038   1.787   5.606 -0.5854 -2.7719 -1.0361
 4517SOL     OW25183   3.763   2.051   2.730  0.0300  0.0855 -0.4360
 4517SOL    HW125184   3.710   1.972   2.714  0.2120 -0.4272  1.5879
 4517SOL    HW225185   3.707   2.111   2.680  2.6796  1.4576 -1.7835
 4518SOL     OW25186   3.079   1.613   7.375  0.0634  0.2359  0.4316
 4518SOL    HW125187   3.123   1.686   7.331  0.9039 -1.2754 -1.2260
 4518SOL    HW225188   3.140   1.542   7.354 -1.9675 -1.4372  0.1912
 4519SOL     OW25189   1.237   0.397   3.273 -0.2711 -0.0092  0.2377
 4519SOL    HW125190   1.295   0.352   3.335  0.8145  1.1914  0.1078
 4519SOL    HW225191   1.160   0.341   3.281 -1.1763  1.4285  1.5211
 4520SOL     OW25192   4.474   2.106   3.633 -0.5684  0.0506 -0.3000
 4520SOL    HW125193   4.437   2.022   3.607  1.2554 -0.4709 -1.2177
 4520SOL    HW225194   4.535   2.075   3.700 -1.3911 -0.0443  0.4014
 4521SOL     OW25195   4.114   0.943   6.033  0.6886  0.2927 -0.2057
 4521SOL    HW125196   4.090   0.956   5.941  0.8202 -2.4913 -0.6229
 4521SOL    HW225197   4.069   1.015   6.078 -1.3807 -1.5100  0.6209
 4522SOL     OW25198   4.436   0.918   5.418 -0.1614 -0.4537 -0.7044
 4522SOL    HW125199   4.420   0.863   5.495 -0.0546  0.7633  0.1922
 4522SOL    HW225200   4.379   0.993   5.436  0.3741  0.3574 -2.3718
 4523SOL     OW25201   2.702   1.439   6.393 -0.1162  0.4413 -0.6102
 4523SOL    HW125202   2.790   1.466   6.368  0.4339  1.1216  2.0271
 4523SOL    HW225203   2.664   1.390   6.320 -1.1658  2.8980 -1.6977
 4524SOL     OW25204   3.357   2.459   6.002  0.3525 -0.3552 -0.8581
 4524SOL    HW125205   3.359   2.393   6.071  2.6744 -0.3610 -0.9322
 4524SOL    HW225206   3.352   2.535   6.060  3.0382 -2.3561  1.9570
 4525SOL     OW25207   3.646   3.863  11.103  0.0783 -0.4653  0.0456
 4525SOL    HW125208   3.683   3.841  11.017 -2.9998 -1.4634 -1.0214
 4525SOL    HW225209   3.629   3.954  11.080  1.8034 -0.0261  0.5343
 4526SOL     OW25210   1.783   2.805  12.971  0.1255  0.2438 -0.3507
 4526SOL    HW125211   1.844   2.763  13.030 -0.2137 -1.2955 -1.1015
 4526SOL    HW225212   1.706   2.808  13.028  1.6045  2.5990  1.5531
 4527SOL     OW25213   2.165   4.585   7.316  0.0185  0.0574  0.0726
 4527SOL    HW125214   2.120   4.632   7.386  1.7854  0.5850  0.8685
 4527SOL    HW225215   2.096   4.578   7.250  0.0631 -3.0454  0.3534
 4528SOL     OW25216   4.452   4.426   7.614 -0.7172 -0.3471 -0.0046
 4528SOL    HW125217   4.375   4.380   7.582  1.0298 -0.1343 -4.5546
 4528SOL    HW225218   4.511   4.428   7.538 -0.5610  2.6156  0.2090
 4529SOL     OW25219   1.473   4.474   2.350  0.6064  0.3041 -0.2245
 4529SOL    HW125220   1.559   4.479   2.310  0.2724 -0.3578 -1.0149
 4529SOL    HW225221   1.423   4.549   2.317 -1.5508  0.0976  2.5194
 4530SOL     OW25222   3.160   4.257   9.789  0.2021  0.0444  0.3949
 4530SOL    HW125223   3.086   4.309   9.756  0.6140 -0.3467 -1.1637
 4530SOL    HW225224   3.104   4.180   9.799  0.4969 -0.2191  0.0183
 4531SOL     OW25225   0.609   0.327   3.262  0.5535 -0.0016  0.0977
 4531SOL    HW125226   0.596   0.325   3.357 -1.9309 -1.1732 -0.2670
 4531SOL    HW225227   0.523   0.342   3.223  0.4595 -0.3525  0.1723
 4532SOL     OW25228   3.893   2.070   6.210  0.7248  0.0634 -0.5633
 4532SOL    HW125229   3.962   2.127   6.245 -0.0565  1.2498 -0.9559
 4532SOL    HW225230   3.903   2.076   6.115 -2.7129  1.7726 -0.8046
 4533SOL     OW25231   0.588   4.541   7.547  0.3001 -0.6384  0.2213
 4533SOL    HW125232   0.585   4.572   7.637 -3.9262 -2.7847  0.8081
 4533SOL    HW225233   0.663   4.481   7.553  0.5839 -0.6093 -2.7021
 4534SOL     OW25234   2.716   2.186   2.376 -0.5425  0.1216  0.2741
 4534SOL    HW125235   2.636   2.164   2.422 -0.2917 -2.7567 -0.6492
 4534SOL    HW225236   2.736   2.095   2.351 -1.4075 -0.3231  1.2121
 4535SOL     OW25237   0.823   1.117  12.962 -0.2777 -0.1199  0.1426
 4535SOL    HW125238   0.846   1.155  13.047  0.9683  1.7096 -1.0142
 4535SOL    HW225239   0.727   1.114  12.962 -0.1899 -2.6179  0.4334
 4536SOL     OW25240   1.395   0.236   3.404 -0.1533 -0.2508  0.4673
 4536SOL    HW125241   1.443   0.290   3.466 -0.8073 -0.6105  1.2823
 4536SOL    HW225242   1.404   0.152   3.449 -0.1559 -0.4931  0.0230
 4537SOL     OW25243   1.553   4.005  10.670  0.2114 -0.1836 -0.4580
 4537SOL    HW125244   1.635   4.052  10.656 -0.5519  0.7871 -1.6655
 4537SOL    HW225245   1.520   4.061  10.740 -0.6472 -0.3858 -0.6904
 4538SOL     OW25246   0.504   1.641   3.033 -0.3962 -0.0462  0.3350
 4538SOL    HW125247   0.548   1.717   2.995 -1.6119  0.3884 -0.1939
 4538SOL    HW225248   0.552   1.563   3.006 -0.7955  0.4238 -1.6869
 4539SOL     OW25249   0.274   4.025   1.333  0.3808  0.9960 -0.0341
 4539SOL    HW125250   0.243   4.100   1.385  1.2866  0.6449  1.0215
 4539SOL    HW225251   0.215   3.964   1.375  1.3920  0.5151  0.6940
 4540SOL     OW25252   2.199   3.345   7.433 -0.6181 -0.0336  0.1297
 4540SOL    HW125253   2.284   3.354   7.475 -0.4734 -0.0402 -0.1643
 4540SOL    HW225254   2.183   3.438   7.414 -2.2204 -0.6996 -1.8468
 4541SOL     OW25255   0.785   0.138   3.190 -0.1791  0.6140  0.1201
 4541SOL    HW125256   0.728   0.075   3.235 -0.2354  1.3899  1.1207
 4541SOL    HW225257   0.733   0.216   3.208 -0.3135  0.7893 -1.0160
 4542SOL     OW25258   3.166   0.881   9.003 -0.4627  0.2244 -0.1227
 4542SOL    HW125259   3.256   0.878   8.971 -0.2251 -1.8153  0.7444
 4542SOL    HW225260   3.118   0.955   8.965  2.2029  2.3613  0.6678
 4543SOL     OW25261   3.409   0.440   8.608  0.1365  0.3057  0.5751
 4543SOL    HW125262   3.394   0.355   8.568  0.6722  0.7041 -0.4635
 4543SOL    HW225263   3.369   0.504   8.550  1.2714 -0.4942 -1.0871
 4544SOL     OW25264   4.366   2.513   2.255  0.2304 -0.1724  0.1500
 4544SOL    HW125265   4.424   2.531   2.330  1.7698 -3.5258 -0.2361
 4544SOL    HW225266   4.286   2.492   2.303 -0.2448  2.2973  0.4365
 4545SOL     OW25267   1.760   2.512   1.345  0.3067  0.1981 -0.3163
 4545SOL    HW125268   1.758   2.551   1.257  0.3959  1.6961  0.3429
 4545SOL    HW225269   1.692   2.561   1.391 -1.5458 -0.3839 -2.4401
 4546SOL     OW25270   1.694   4.569  13.605 -0.4445  0.1916  0.5524
 4546SOL    HW125271   1.623   4.624  13.571 -1.5937 -1.2651  0.6328
 4546SOL    HW225272   1.670   4.541  13.693 -0.5937 -1.8796 -0.1681
 4547SOL     OW25273   4.411   3.509   6.108 -0.1508  0.6303 -0.6246
 4547SOL    HW125274   4.388   3.535   6.198  2.8475  0.9248  0.0527
 4547SOL    HW225275   4.402   3.591   6.060 -2.5507  1.2763  0.8970
 4548SOL     OW25276   2.440   3.484   9.408  0.5268  0.1421  0.5613
 4548SOL    HW125277   2.482   3.539   9.474  0.7864  0.1034  0.4281
 4548SOL    HW225278   2.519   3.436   9.381 -0.5532 -2.0999  1.4217
 4549SOL     OW25279   4.115   0.079   0.474 -0.0765 -0.2011 -0.7373
 4549SOL    HW125280   4.131   0.049   0.385  0.9615  1.2056 -1.0229
 4549SOL    HW225281   4.201   0.106   0.506 -0.4427 -0.1453  0.2120
 4550SOL     OW25282   3.663   0.117   9.373  0.4170  0.0198 -0.1773
 4550SOL    HW125283   3.757   0.120   9.356  0.7729  0.1047  1.7911
 4550SOL    HW225284   3.625   0.033   9.347  1.0221 -0.4851  0.5714
 4551SOL     OW25285   1.317   1.835   6.675 -0.2465  0.0392  0.4370
 4551SOL    HW125286   1.235   1.820   6.722 -1.2506 -0.3457 -1.4641
 4551SOL    HW225287   1.349   1.919   6.710 -3.1854  1.2243  0.2397
 4552SOL     OW25288   4.477   1.042   3.729  0.1325 -0.1186  0.3976
 4552SOL    HW125289   4.480   0.947   3.740 -0.6003 -0.2077 -0.2120
 4552SOL    HW225290   4.469   1.047   3.634 -1.9819 -0.1161  0.5882
 4553SOL     OW25291   2.383   3.971  13.351 -0.3696  0.1092 -0.2792
 4553SOL    HW125292   2.468   4.013  13.364 -0.7702  0.4229  1.3382
 4553SOL    HW225293   2.324   4.013  13.413 -0.3270 -1.8452  1.0671
 4554SOL     OW25294   4.561   0.558  11.776  0.2717  0.2116  0.5239
 4554SOL    HW125295   4.510   0.637  11.759  0.9564  0.5861  0.1767
 4554SOL    HW225296   4.538   0.500  11.703  0.0044 -0.2199  0.9497
 4555SOL     OW25297   4.545   0.823   2.573 -1.1044  0.2069 -0.2154
 4555SOL    HW125298   4.523   0.879   2.498  1.6014  3.0710  1.1212
 4555SOL    HW225299   4.454   0.803   2.595 -0.6164 -2.6438 -0.7879
 4556SOL     OW25300   0.352   2.684   7.163 -0.2033 -0.2438  0.0998
 4556SOL    HW125301   0.440   2.713   7.188 -1.0990  3.8503 -1.5585
 4556SOL    HW225302   0.303   2.757   7.202  0.3619 -1.2751  2.7716
 4557SOL     OW25303   3.893   0.727   4.310 -0.1537  0.1800  0.0325
 4557SOL    HW125304   3.872   0.700   4.220 -0.3827 -2.3164  0.8189
 4557SOL    HW225305   3.838   0.665   4.359 -3.2942  2.9508  0.0074
 4558SOL     OW25306   3.098   1.280   8.583 -0.6474 -0.6716  0.1412
 4558SOL    HW125307   3.039   1.212   8.615 -0.6382 -0.2202  1.1288
 4558SOL    HW225308   3.033   1.344   8.556  0.9476  0.4020 -1.1210
 4559SOL     OW25309   3.658   4.583  17.275  0.0723  0.2251  0.5916
 4559SOL    HW125310   3.603   4.546  17.205  0.5054 -0.2314  0.4885
 4559SOL    HW225311   3.623   4.672  17.279 -2.2706 -0.6561  0.3263
 4560SOL     OW25312   3.918   3.389  10.871  0.0702 -0.1562 -0.1772
 4560SOL    HW125313   3.899   3.369  10.963 -0.7463  0.5094 -0.2040
 4560SOL    HW225314   3.911   3.306  10.824  1.1090  0.9148 -2.1925
 4561SOL     OW25315   0.927   1.727   4.258  0.1667  0.7814  0.5905
 4561SOL    HW125316   0.878   1.732   4.176  0.1776 -0.0613  0.5382
 4561SOL    HW225317   1.008   1.773   4.236 -0.3443  0.9142 -0.9973
 4562SOL     OW25318   3.453   0.330   3.935 -0.1817 -0.3644 -0.0667
 4562SOL    HW125319   3.536   0.285   3.950  0.7542  0.6439 -2.1894
 4562SOL    HW225320   3.399   0.276   3.993  0.0230  1.5032  1.8661
 4563SOL     OW25321   2.695   1.264   3.211  0.4466  0.3523 -0.5609
 4563SOL    HW125322   2.627   1.292   3.273  0.0526  1.6345 -1.5570
 4563SOL    HW225323   2.627   1.234   3.150 -0.9210 -1.6268  1.9451
 4564SOL     OW25324   2.616   2.524  14.653 -0.3276  0.2690  0.2532
 4564SOL    HW125325   2.669   2.598  14.622  0.9321 -0.3056  1.0066
 4564SOL    HW225326   2.597   2.546  14.744  1.9403  0.6110  0.6451
 4565SOL     OW25327   0.119   0.339   3.225 -0.0683  0.6881 -0.0845
 4565SOL    HW125328   0.082   0.420   3.262 -1.2162  1.0199 -1.9294
 4565SOL    HW225329   0.052   0.320   3.159 -0.9385  0.6700  0.7926
 4566SOL     OW25330   2.277   0.640   6.960  0.3936 -0.9829 -0.0914
 4566SOL    HW125331   2.272   0.576   7.032 -1.0332 -0.1841  0.5350
 4566SOL    HW225332   2.294   0.719   7.012 -2.9709 -0.1289 -0.2535
 4567SOL     OW25333   4.378   2.390   5.498 -0.1073 -0.3526 -0.7722
 4567SOL    HW125334   4.308   2.443   5.459  0.0173 -0.2203 -0.8123
 4567SOL    HW225335   4.407   2.338   5.423 -0.7293 -0.7129 -0.7720
 4568SOL     OW25336   4.691   2.272   6.790 -0.2091 -0.2246 -0.0887
 4568SOL    HW125337   0.050   2.287   6.785 -0.5033  1.2540 -1.2331
 4568SOL    HW225338   4.697   2.230   6.876  0.5177 -1.0000 -0.5260
 4569SOL     OW25339   1.153   2.271  13.228 -0.2698 -0.3757 -0.2414
 4569SOL    HW125340   1.134   2.362  13.254 -0.0731 -0.3073 -0.3355
 4569SOL    HW225341   1.223   2.252  13.291 -0.9930 -1.7174  0.1398
 4570SOL     OW25342   4.329   2.820   8.546 -0.4918  0.0549  0.1829
 4570SOL    HW125343   4.318   2.831   8.452 -0.0890 -0.9093  0.0275
 4570SOL    HW225344   4.314   2.726   8.551  1.0111 -0.3098 -2.3026
 4571SOL     OW25345   1.316   0.336  12.487  0.0349  0.3996 -0.3584
 4571SOL    HW125346   1.355   0.423  12.493  2.9308 -0.9079  0.2614
 4571SOL    HW225347   1.238   0.357  12.436  0.5823  1.4431 -0.7641
 4572SOL     OW25348   1.731   2.624  14.331  0.0612  0.4196 -0.4623
 4572SOL    HW125349   1.635   2.625  14.329 -0.0400  2.1998  4.2834
 4572SOL    HW225350   1.745   2.547  14.385 -0.3362  0.4020 -0.3834
 4573SOL     OW25351   0.290   3.962   9.054  0.1016  0.2966  0.0772
 4573SOL    HW125352   0.203   3.998   9.068 -0.3010  0.0385 -1.7333
 4573SOL    HW225353   0.276   3.912   8.974 -0.1951 -1.0698  0.9884
 4574SOL     OW25354   3.100   4.393   7.965 -0.0543  0.3156 -0.0344
 4574SOL    HW125355   3.021   4.392   7.910 -1.5009 -2.6809  2.0455
 4574SOL    HW225356   3.114   4.300   7.986 -1.7726  0.4602  1.7440
 4575SOL     OW25357   1.697   2.036  17.286 -0.3136 -0.1888  0.1431
 4575SOL    HW125358   1.719   2.088  17.363  1.1691 -1.3980  0.5388
 4575SOL    HW225359   1.684   1.948  17.322  1.4199  0.1046  1.5080
 4576SOL     OW25360   1.747   0.615   9.415 -0.2043  0.1829 -0.2023
 4576SOL    HW125361   1.770   0.600   9.507 -0.9810  1.8238  0.2520
 4576SOL    HW225362   1.814   0.680   9.395  0.9961 -1.0459 -0.2139
 4577SOL     OW25363   1.623   1.236   2.939 -1.1133 -0.3993  0.9499
 4577SOL    HW125364   1.672   1.227   2.857 -0.6549  1.4097  1.0152
 4577SOL    HW225365   1.549   1.288   2.909  0.9889  2.5204  0.7581
 4578SOL     OW25366   0.096   1.117  16.561  0.1383 -0.0282  0.1887
 4578SOL    HW125367   0.181   1.138  16.522 -0.5580  3.7465  0.7480
 4578SOL    HW225368   0.039   1.181  16.517 -0.3604  0.1053  1.0351
 4579SOL     OW25369   2.592   0.750   2.890  0.0570 -0.9260 -0.4365
 4579SOL    HW125370   2.604   0.658   2.913 -1.1319 -0.7468  0.9378
 4579SOL    HW225371   2.637   0.797   2.960 -3.5407  1.8388  0.0342
 4580SOL     OW25372   3.912   0.892   6.516 -0.0235  0.5871  0.1343
 4580SOL    HW125373   3.827   0.883   6.473 -0.5611  0.4874  1.2166
 4580SOL    HW225374   3.910   0.834   6.592 -0.9036  1.1897  0.5721
 4581SOL     OW25375   0.776   2.644   8.782 -0.4085  0.1682  0.1033
 4581SOL    HW125376   0.729   2.642   8.699 -1.7230 -2.7650  0.8829
 4581SOL    HW225377   0.856   2.611   8.742 -0.0351  0.6467  0.4620
 4582SOL     OW25378   3.432   0.212   1.821 -0.0421  0.0914 -0.0412
 4582SOL    HW125379   3.393   0.216   1.908 -1.0194 -2.9918 -0.3396
 4582SOL    HW225380   3.360   0.180   1.768 -1.3927 -1.3597  2.7055
 4583SOL     OW25381   4.016   4.036   3.020  0.6993 -0.4133 -0.2551
 4583SOL    HW125382   3.931   4.003   2.993  0.1229 -0.4923  1.6573
 4583SOL    HW225383   4.011   4.122   2.978  0.1959  0.5880  1.8614
 4584SOL     OW25384   0.624   0.440   6.499 -0.5379 -0.4345 -0.4443
 4584SOL    HW125385   0.589   0.515   6.451 -3.3620 -0.3346  1.7826
 4584SOL    HW225386   0.645   0.474   6.586  0.7395 -2.7729  0.1446
 4585SOL     OW25387   2.957   1.509   8.638  0.0957 -0.2637 -0.0698
 4585SOL    HW125388   3.012   1.544   8.568  2.7271 -1.5252  1.3691
 4585SOL    HW225389   3.022   1.517   8.708 -0.2521  0.9248  0.1247
 4586SOL     OW25390   2.371   4.068   3.117 -0.3726  0.0318 -0.0529
 4586SOL    HW125391   2.376   4.001   3.186  0.3434  0.3456  0.1986
 4586SOL    HW225392   2.286   4.110   3.132  0.5289  1.0188  2.2276
 4587SOL     OW25393   3.415   2.735   6.111 -0.0281  0.2511 -1.0880
 4587SOL    HW125394   3.506   2.714   6.132 -0.6426 -0.9436  0.3754
 4587SOL    HW225395   3.435   2.816   6.064 -2.2082  2.4339  1.7352
 4588SOL     OW25396   3.296   2.014   9.667  0.7026  0.3645 -0.5555
 4588SOL    HW125397   3.318   1.954   9.738 -0.7357 -0.9686 -1.2235
 4588SOL    HW225398   3.205   2.034   9.690  0.4789 -0.5466 -0.6318
 4589SOL     OW25399   4.327   1.181   5.404  0.4364  0.1208 -0.5189
 4589SOL    HW125400   4.343   1.273   5.427 -1.5514 -0.1920  2.1427
 4589SOL    HW225401   4.364   1.177   5.316  0.1723  0.9627 -0.6723
 4590SOL     OW25402   0.769   3.812   6.419 -0.6531  0.3324  0.3991
 4590SOL    HW125403   0.676   3.815   6.397  0.1620  2.0273 -2.8360
 4590SOL    HW225404   0.777   3.758   6.497 -0.2428  1.7341  1.3404
 4591SOL     OW25405   3.007   4.245  12.120  0.2874  0.1299 -0.0056
 4591SOL    HW125406   2.921   4.217  12.154  0.8978 -2.8680 -0.9145
 4591SOL    HW225407   3.063   4.192  12.177  0.8462 -1.4826 -2.0492
 4592SOL     OW25408   4.274   3.201   8.210 -0.2576  0.2906  0.1662
 4592SOL    HW125409   4.217   3.162   8.276 -0.4483 -0.0539 -0.2021
 4592SOL    HW225410   4.321   3.267   8.260 -1.1422  0.6421  0.5202
 4593SOL     OW25411   2.682   4.321  17.049  0.1522  0.3139  0.5014
 4593SOL    HW125412   2.665   4.409  17.083 -1.6475  1.1187 -2.4783
 4593SOL    HW225413   2.645   4.262  17.116  1.1976  0.2069  0.9751
 4594SOL     OW25414   4.180   0.302  15.371 -0.1866  0.1131 -0.3842
 4594SOL    HW125415   4.156   0.326  15.461  2.2305 -0.6250  0.4462
 4594SOL    HW225416   4.127   0.362  15.317  0.9458  1.0778 -0.4278
 4595SOL     OW25417   3.670   3.985   5.661 -0.0631 -0.7533  0.2824
 4595SOL    HW125418   3.756   4.026   5.662 -0.6792  0.5799 -1.1555
 4595SOL    HW225419   3.615   4.063   5.654  0.7391 -0.0309  1.9867
 4596SOL     OW25420   0.891   3.902  12.943  0.4298  0.1757 -0.3192
 4596SOL    HW125421   0.959   3.958  12.905 -0.7174  0.3911 -2.0582
 4596SOL    HW225422   0.947   3.850  13.000 -0.6543 -0.0129  0.5788
 4597SOL     OW25423   1.778   4.419   5.586 -0.0483  0.2990 -0.7483
 4597SOL    HW125424   1.793   4.513   5.594 -0.5399  0.2513  0.8003
 4597SOL    HW225425   1.810   4.395   5.673 -1.6657  1.2710  0.1160
 4598SOL     OW25426   0.736   4.169   7.459 -0.2824  0.0334  0.0255
 4598SOL    HW125427   0.775   4.083   7.444  0.1920 -0.3713  3.6132
 4598SOL    HW225428   0.643   4.152   7.447 -0.4330  1.2557 -0.5455
 4599SOL     OW25429   1.393   0.418   5.762 -0.1361  0.3376  0.2095
 4599SOL    HW125430   1.405   0.487   5.828  0.1149  0.9888 -0.5199
 4599SOL    HW225431   1.480   0.401   5.725 -0.5283 -1.6732  0.2458
 4600SOL     OW25432   2.835   0.874   1.463 -0.5441  0.4699  0.0139
 4600SOL    HW125433   2.803   0.801   1.411 -1.4595  0.6963  0.2537
 4600SOL    HW225434   2.929   0.854   1.461 -0.8611 -0.6296 -3.2735
 4601SOL     OW25435   3.235   1.141   2.455 -0.5520 -0.3891  0.5620
 4601SOL    HW125436   3.165   1.151   2.520 -0.0911 -2.0106  1.3001
 4601SOL    HW225437   3.291   1.213   2.485 -2.8841  1.5172  0.3144
 4602SOL     OW25438   0.342   3.736  13.329 -0.1096 -0.0595 -0.6096
 4602SOL    HW125439   0.317   3.828  13.340  1.4798  0.1310  1.2340
 4602SOL    HW225440   0.258   3.706  13.363 -0.2831  1.6349  0.4583
 4603SOL     OW25441   3.199   0.042   8.535 -0.6555  0.2009  0.3966
 4603SOL    HW125442   3.164   4.693   8.564  0.7841  0.1606  2.0390
 4603SOL    HW225443   3.274   0.038   8.594  0.2131  2.0467 -0.6009
 4604SOL     OW25444   2.504   2.180   6.543 -0.1212 -0.4144 -0.4473
 4604SOL    HW125445   2.416   2.216   6.548  0.3800  0.9139 -1.2686
 4604SOL    HW225446   2.564   2.251   6.565  0.8295 -1.6624  1.0084
 4605SOL     OW25447   4.173   4.610   3.832 -0.1338  0.0647 -0.7498
 4605SOL    HW125448   4.191   4.654   3.749  0.2668  1.1751 -0.0707
 4605SOL    HW225449   4.207   4.522   3.815  1.1088  0.8685 -2.5012
 4606SOL     OW25450   0.420   1.124   0.438  0.3838 -0.1772 -0.5089
 4606SOL    HW125451   0.449   1.212   0.462 -1.1175  0.3920 -0.7917
 4606SOL    HW225452   0.443   1.137   0.346  3.3337  0.4578  0.2944
 4607SOL     OW25453   2.482   4.182   2.649  0.1277 -0.8598  0.3833
 4607SOL    HW125454   2.548   4.224   2.705  0.7035  1.3934 -1.9693
 4607SOL    HW225455   2.530   4.200   2.568 -0.5529  0.3471  0.2505
 4608SOL     OW25456   0.101   0.657   2.933  0.6772 -0.2014  0.3136
 4608SOL    HW125457   0.093   0.734   2.877  1.3084 -1.0074 -0.8895
 4608SOL    HW225458   0.192   0.671   2.960  0.3343  0.3089  1.2265
 4609SOL     OW25459   3.886   3.985   1.081  0.2945  0.0561  0.0618
 4609SOL    HW125460   3.793   3.987   1.055  0.8436 -1.0866 -1.9809
 4609SOL    HW225461   3.880   4.013   1.172  0.7963  0.1590  0.0606
 4610SOL     OW25462   0.600   4.182   6.021  0.1271 -0.6798  0.3550
 4610SOL    HW125463   0.569   4.092   6.020 -0.5924 -0.3901 -2.1955
 4610SOL    HW225464   0.566   4.228   5.945 -0.1534  0.8074  1.3703
 4611SOL     OW25465   1.472   1.438   1.577  0.1798 -0.4982  0.3076
 4611SOL    HW125466   1.391   1.388   1.587 -0.2496 -0.2667 -2.0452
 4611SOL    HW225467   1.460   1.514   1.633 -0.8239 -0.6939  0.3673
 4612SOL     OW25468   4.439   1.924   7.607 -0.4288 -0.3466 -0.2268
 4612SOL    HW125469   4.530   1.894   7.609  0.3871  2.1897 -0.0492
 4612SOL    HW225470   4.423   1.920   7.512  3.3916  0.0172 -0.8970
 4613SOL     OW25471   2.999   0.561   2.934 -0.5102  0.2341 -0.4255
 4613SOL    HW125472   2.964   0.554   3.023  0.3522 -2.6694 -0.3234
 4613SOL    HW225473   3.031   0.473   2.913 -0.4119 -0.3001  1.8791
 4614SOL     OW25474   3.189   1.218   4.707 -0.4395  0.1092 -0.1966
 4614SOL    HW125475   3.118   1.279   4.722  1.1818  1.6455  1.2088
 4614SOL    HW225476   3.170   1.191   4.616  0.4116 -0.6622 -0.1525
 4615SOL     OW25477   2.745   1.260   7.375  0.0165 -0.0606  0.4891
 4615SOL    HW125478   2.795   1.214   7.308  0.8631  1.6750 -0.0744
 4615SOL    HW225479   2.754   1.351   7.345  2.7519 -1.0336 -1.6283
 4616SOL     OW25480   2.099   3.013   3.185 -0.4937 -0.3546 -0.4461
 4616SOL    HW125481   2.138   3.043   3.103  0.6105 -0.7136 -0.0450
 4616SOL    HW225482   2.020   3.066   3.177 -3.2443 -4.3134  0.5593
 4617SOL     OW25483   4.640   0.784   1.162  0.6004  0.1761 -0.0401
 4617SOL    HW125484   4.688   0.850   1.212  3.1260 -2.0280  0.4417
 4617SOL    HW225485   4.549   0.810   1.175  1.0157  0.8103  1.6491
 4618SOL     OW25486   2.469   3.479   3.766 -0.4428 -0.8098  0.0582
 4618SOL    HW125487   2.475   3.499   3.673 -0.7276 -0.1013  0.1953
 4618SOL    HW225488   2.456   3.384   3.762 -0.4106 -0.6569 -3.3043
 4619SOL     OW25489   2.487   1.275   7.832 -0.6737 -0.1629 -0.0777
 4619SOL    HW125490   2.553   1.344   7.832 -1.6404  0.7439  2.0572
 4619SOL    HW225491   2.498   1.239   7.744  1.9088  1.0192 -0.2524
 4620SOL     OW25492   2.537   4.491  13.211 -0.9638  0.3768 -0.0149
 4620SOL    HW125493   2.580   4.408  13.191 -2.7839 -0.7774  0.8296
 4620SOL    HW225494   2.567   4.491  13.302  0.8653 -1.8139 -0.6295
 4621SOL     OW25495   3.598   2.653  16.362  0.3277  0.1903 -0.3296
 4621SOL    HW125496   3.611   2.607  16.279 -0.1806  0.1565 -0.3876
 4621SOL    HW225497   3.677   2.707  16.359 -0.1493  0.9972  1.6094
 4622SOL     OW25498   4.234   1.373   8.709 -0.0059 -0.3322  0.2248
 4622SOL    HW125499   4.210   1.397   8.799  1.8477  3.1986 -0.2305
 4622SOL    HW225500   4.163   1.315   8.681 -0.2652  1.0765 -1.9858
 4623SOL     OW25501   3.701   1.663   4.455 -0.0619 -0.4836 -0.0131
 4623SOL    HW125502   3.614   1.659   4.495  0.3076  0.1961  0.8627
 4623SOL    HW225503   3.743   1.726   4.514 -3.2342  0.4510  1.2604
 4624SOL     OW25504   3.579   3.728  11.761 -0.1746 -0.4173  0.9522
 4624SOL    HW125505   3.553   3.641  11.731  1.1530 -0.3808 -0.3032
 4624SOL    HW225506   3.544   3.796  11.703  0.7498 -0.7309  0.0301
 4625SOL     OW25507   3.710   1.204   8.125  0.6629  0.0928  0.0044
 4625SOL    HW125508   3.728   1.242   8.039 -2.1465 -0.0596 -0.6704
 4625SOL    HW225509   3.776   1.136   8.133  0.5328  0.0771  0.8914
 4626SOL     OW25510   1.671   4.167   5.265 -0.2562 -0.3231 -0.2975
 4626SOL    HW125511   1.691   4.104   5.196  2.9177  0.2710  0.0907
 4626SOL    HW225512   1.689   4.120   5.347 -0.0590 -1.6881 -1.1135
 4627SOL     OW25513   2.893   1.014   2.406  0.1069 -0.1739 -0.0332
 4627SOL    HW125514   2.907   0.922   2.387 -1.0152 -0.2411 -0.5751
 4627SOL    HW225515   2.943   1.057   2.337  0.5044 -0.7203 -0.0770
 4628SOL     OW25516   4.263   4.246   6.742 -0.1666  0.2079  0.2104
 4628SOL    HW125517   4.309   4.175   6.696 -0.1830 -0.2420  0.8924
 4628SOL    HW225518   4.190   4.259   6.681 -0.4946 -0.3079  0.5000
 4629SOL     OW25519   0.510   2.297   5.321 -0.4894  0.1946 -0.3323
 4629SOL    HW125520   0.475   2.285   5.233 -0.3589 -0.8712 -0.2430
 4629SOL    HW225521   0.577   2.363   5.305 -1.4054  0.8676 -1.3666
 4630SOL     OW25522   0.221   1.316   1.848  0.8009 -0.4176 -0.2913
 4630SOL    HW125523   0.206   1.231   1.889  1.2115 -1.5069 -2.3764
 4630SOL    HW225524   0.254   1.291   1.761  1.3764  1.0571 -0.5073
 4631SOL     OW25525   4.630   3.881  12.799  0.2783 -0.5467  0.0849
 4631SOL    HW125526   4.556   3.941  12.807  1.5465  0.7672  2.1463
 4631SOL    HW225527   4.605   3.814  12.863  0.8898 -2.6356 -1.8524
 4632SOL     OW25528   3.846   2.524   3.113 -0.7105  0.3639  0.0833
 4632SOL    HW125529   3.891   2.578   3.048  0.2224 -1.7524 -1.0153
 4632SOL    HW225530   3.755   2.549   3.099 -0.9073  0.0326  0.7861
 4633SOL     OW25531   4.062   3.607   7.756  0.4982 -0.2457  0.2956
 4633SOL    HW125532   4.024   3.591   7.842 -1.3429 -1.9875 -0.8442
 4633SOL    HW225533   4.026   3.537   7.702  0.2998 -2.0269  2.7505
 4634SOL     OW25534   0.719   0.602   9.750  0.3132 -0.3188 -0.3901
 4634SOL    HW125535   0.672   0.577   9.829 -0.0781  1.8242  0.0551
 4634SOL    HW225536   0.665   0.544   9.695 -0.6848 -0.2045  0.4740
 4635SOL     OW25537   0.363   3.960  11.506 -0.3428  0.3395  0.1597
 4635SOL    HW125538   0.406   3.877  11.485  1.1551  0.9090  0.9988
 4635SOL    HW225539   0.387   4.012  11.430 -1.5926  0.4100 -0.1856
 4636SOL     OW25540   1.257   2.445   2.658  0.3922 -0.1855 -0.5390
 4636SOL    HW125541   1.165   2.451   2.630  0.4626  0.7850 -0.5632
 4636SOL    HW225542   1.260   2.353   2.685  2.5465  0.2955  0.8757
 4637SOL     OW25543   2.536   0.855   5.038  0.1094  0.2555 -0.0304
 4637SOL    HW125544   2.576   0.817   5.116  0.7384 -0.6394 -0.7928
 4637SOL    HW225545   2.613   0.853   4.982 -0.2539 -2.4917 -0.4133
 4638SOL     OW25546   3.296   3.519   2.601  0.1547 -0.2347  0.2820
 4638SOL    HW125547   3.215   3.568   2.586 -0.8775 -2.7980 -2.5744
 4638SOL    HW225548   3.274   3.478   2.684 -1.5960 -2.0408 -1.0770
 4639SOL     OW25549   2.049   0.326   5.019 -0.3736  0.4038 -0.0339
 4639SOL    HW125550   2.119   0.359   5.076  0.8616  1.2068 -1.9950
 4639SOL    HW225551   2.108   0.257   4.988  0.0342  0.3597  0.8468
 4640SOL     OW25552   0.215   0.042   9.790 -0.3539 -0.0897 -0.1621
 4640SOL    HW125553   0.137   4.731   9.759 -0.7875  0.3034  0.3527
 4640SOL    HW225554   0.174   0.070   9.871 -2.5162  0.2772 -1.3705
 4641SOL     OW25555   1.691   3.046   3.510 -0.4504  0.0159 -0.3868
 4641SOL    HW125556   1.708   3.053   3.604  1.0733 -2.0872 -0.5198
 4641SOL    HW225557   1.668   2.953   3.504 -0.7705  0.2334 -2.4859
 4642SOL     OW25558   1.940   1.107   5.132 -0.4226  0.2536  0.2023
 4642SOL    HW125559   1.914   1.157   5.055  0.6728  1.1398  0.4063
 4642SOL    HW225560   1.859   1.113   5.183 -0.4444 -2.4675  0.4850
 4643SOL     OW25561   3.795   1.990   9.061  0.2018 -0.3003  0.6411
 4643SOL    HW125562   3.771   1.900   9.042  1.1177 -0.6397  1.0734
 4643SOL    HW225563   3.863   1.997   8.994 -1.8425  0.4938 -1.3681
 4644SOL     OW25564   1.172   0.515   3.518 -0.2081  0.3534 -0.1299
 4644SOL    HW125565   1.160   0.476   3.431  0.5586 -2.1107  0.8778
 4644SOL    HW225566   1.080   0.520   3.543  0.1072  1.2693  0.8139
 4645SOL     OW25567   1.984   1.414   0.257  0.0857  0.8829 -0.3129
 4645SOL    HW125568   1.984   1.327   0.298  3.5217  0.6394 -0.8822
 4645SOL    HW225569   1.893   1.419   0.227  0.2053 -3.1326 -1.3253
 4646SOL     OW25570   0.771   4.553  10.225 -0.2083 -0.2559 -0.2034
 4646SOL    HW125571   0.750   4.460  10.229  3.6004 -1.1266 -0.8194
 4646SOL    HW225572   0.789   4.561  10.131 -2.4533 -3.7065 -0.9556
 4647SOL     OW25573   4.153   1.790  13.324  0.2132 -0.3604  0.0873
 4647SOL    HW125574   4.129   1.830  13.408  2.7260 -0.6618  0.9319
 4647SOL    HW225575   4.067   1.762  13.291  0.4743 -0.4675 -0.4974
 4648SOL     OW25576   3.224   1.260   9.035  0.8539 -0.3698 -0.1150
 4648SOL    HW125577   3.159   1.200   8.998 -1.2456  0.5941  1.9956
 4648SOL    HW225578   3.264   1.301   8.958 -0.4671 -0.4823 -0.8776
 4649SOL     OW25579   3.258   1.620   5.983  0.3429 -0.0637  0.6683
 4649SOL    HW125580   3.333   1.561   5.972 -1.6313 -1.9048 -2.9087
 4649SOL    HW225581   3.219   1.630   5.897  0.4503  1.1661  0.7613
 4650SOL     OW25582   1.535   3.745   3.070  0.7187 -0.3307 -0.6407
 4650SOL    HW125583   1.553   3.701   2.986 -1.7580  0.1018 -1.3793
 4650SOL    HW225584   1.571   3.832   3.056  0.4280  0.1745  1.8443
 4651SOL     OW25585   1.948   4.632   8.924 -0.0441 -0.3537  0.1084
 4651SOL    HW125586   1.890   4.701   8.891  1.9188  1.6803  0.9701
 4651SOL    HW225587   1.995   4.672   8.997 -0.1934  1.4435 -0.7804
 4652SOL     OW25588   4.414   1.140   2.888 -0.4474 -0.0950  0.2787
 4652SOL    HW125589   4.416   1.045   2.884 -1.1885 -0.0752 -0.7368
 4652SOL    HW225590   4.473   1.152   2.962 -0.1774 -0.2983  0.0941
 4653SOL     OW25591   2.018   0.729   8.752  0.3739  0.7173  0.7919
 4653SOL    HW125592   1.951   0.701   8.688  0.2360 -0.2909  1.3717
 4653SOL    HW225593   2.042   0.813   8.714 -3.0689  0.9680 -0.8976
 4654SOL     OW25594   3.872   4.141  10.871  0.7024  0.2263 -0.2681
 4654SOL    HW125595   3.784   4.178  10.884  1.4377  1.1321  2.0076
 4654SOL    HW225596   3.880   4.123  10.777 -0.3140 -0.9075 -0.1419
 4655SOL     OW25597   1.088   3.738   9.436 -0.0238 -0.4323  0.4150
 4655SOL    HW125598   1.132   3.731   9.521 -0.5322 -4.9221  0.3016
 4655SOL    HW225599   1.051   3.825   9.452 -0.9584 -0.8263  0.4196
 4656SOL     OW25600   1.110   4.677   5.362  0.1045 -0.3693  0.0693
 4656SOL    HW125601   1.042   4.708   5.422 -2.8286  0.2237 -3.5946
 4656SOL    HW225602   1.136   4.605   5.420  0.1532  0.2152  0.7746
 4657SOL     OW25603   2.219   2.696  12.609  0.0590 -0.3064  0.5119
 4657SOL    HW125604   2.124   2.691  12.619  0.2036 -0.1284  2.0367
 4657SOL    HW225605   2.253   2.711  12.697  3.0063 -0.8953 -0.5250
 4658SOL     OW25606   0.292   3.332   3.268  0.2541  0.1023  0.0164
 4658SOL    HW125607   0.304   3.240   3.246 -0.0625  0.0745 -0.0335
 4658SOL    HW225608   0.226   3.352   3.201 -0.6552 -0.4261  0.7594
 4659SOL     OW25609   1.780   3.702   4.460  0.1448 -0.4974 -0.1516
 4659SOL    HW125610   1.726   3.631   4.428  1.5355 -2.0105  0.8634
 4659SOL    HW225611   1.787   3.759   4.383 -0.1826 -1.7294 -1.0865
 4660SOL     OW25612   1.438   4.621  16.415  0.8893 -0.0141  0.5021
 4660SOL    HW125613   1.372   4.683  16.447  2.5455  2.3072 -0.6167
 4660SOL    HW225614   1.517   4.650  16.461  1.2223 -0.2262  0.0655
 4661SOL     OW25615   4.717   4.362   7.414  0.2629  0.4907 -0.4532
 4661SOL    HW125616   0.061   4.313   7.396 -1.1373 -2.0965  0.2261
 4661SOL    HW225617   4.656   4.295   7.382  1.6371 -1.3903  0.8921
 4662SOL     OW25618   0.948   1.584   2.847 -0.5395 -0.2145  0.3709
 4662SOL    HW125619   0.853   1.573   2.837 -0.4670 -1.5791  1.1319
 4662SOL    HW225620   0.991   1.513   2.799 -2.0245 -1.2257  0.5322
 4663SOL     OW25621   1.587   0.079  16.016  0.1332  0.0334 -0.2976
 4663SOL    HW125622   1.541   0.105  15.936  1.5718 -1.3125 -1.5548
 4663SOL    HW225623   1.525   0.114  16.080  2.7514  1.0949  1.6441
 4664SOL     OW25624   2.063   3.834   1.073  0.2739 -0.3526 -0.3110
 4664SOL    HW125625   2.152   3.816   1.043  0.3984  1.7505 -1.2285
 4664SOL    HW225626   2.084   3.889   1.148 -0.5305  1.6274 -1.5416
 4665SOL     OW25627   3.816   2.592  15.282 -0.2100 -0.5787  0.2887
 4665SOL    HW125628   3.861   2.522  15.234  1.4233 -0.5083  1.7681
 4665SOL    HW225629   3.722   2.577  15.265 -0.7991  2.2575  1.0950
 4666SOL     OW25630   4.381   2.813   1.404  0.1123  0.0782 -0.0236
 4666SOL    HW125631   4.366   2.719   1.407 -0.0379 -0.0444 -3.7002
 4666SOL    HW225632   4.379   2.819   1.308  0.5828  0.2414 -0.0214
 4667SOL     OW25633   1.391   1.535   6.887 -0.2853 -0.2570 -0.2197
 4667SOL    HW125634   1.369   1.454   6.933  1.6470 -0.0680  0.9992
 4667SOL    HW225635   1.471   1.511   6.841 -1.1109  0.8995 -2.3209
 4668SOL     OW25636   1.577   4.104   6.754 -0.2151  0.0926  0.2076
 4668SOL    HW125637   1.651   4.165   6.750  0.8828 -1.2735 -0.4554
 4668SOL    HW225638   1.538   4.127   6.669 -1.5683 -0.8834  0.5670
 4669SOL     OW25639   2.167   0.737  13.070 -0.1551 -0.6691 -0.5514
 4669SOL    HW125640   2.243   0.761  13.018  0.2762 -0.1526  0.3082
 4669SOL    HW225641   2.119   0.820  13.075  1.6886  0.3806 -0.0849
 4670SOL     OW25642   1.216   0.541  13.293 -0.5975  0.0388 -0.0100
 4670SOL    HW125643   1.127   0.525  13.324  0.1942 -0.1319  2.1992
 4670SOL    HW225644   1.202   0.586  13.210  0.1327 -0.8523 -0.6179
 4671SOL     OW25645   3.589   0.124   3.187  0.0326  0.4039  0.3359
 4671SOL    HW125646   3.556   0.036   3.169  2.4558 -0.3876 -0.1668
 4671SOL    HW225647   3.611   0.117   3.280  1.7766 -0.6544 -0.1558
 4672SOL     OW25648   0.531   0.336  16.889 -0.1871 -0.7459  0.2159
 4672SOL    HW125649   0.616   0.348  16.931 -0.2307  2.1174 -0.5273
 4672SOL    HW225650   0.521   0.241  16.900  0.2502 -1.2834 -4.1939
 4673SOL     OW25651   3.827   1.729  15.391  0.0772 -0.1925 -0.4013
 4673SOL    HW125652   3.880   1.656  15.422  0.0995  0.6395  1.5018
 4673SOL    HW225653   3.754   1.698  15.336 -0.0400  2.8932 -2.0036
 4674SOL     OW25654   0.304   0.958   3.148 -0.2331  0.1883 -0.1298
 4674SOL    HW125655   0.330   0.869   3.126 -1.0696 -0.1651  0.3047
 4674SOL    HW225656   0.331   0.998   3.065 -2.2543 -1.7289 -1.7078
 4675SOL     OW25657   2.447   2.923   3.983  0.5427  0.0606 -0.1286
 4675SOL    HW125658   2.492   2.856   3.931  1.2554 -0.5072  1.2193
 4675SOL    HW225659   2.357   2.890   3.987  0.1144  0.8555 -2.8775
 4676SOL     OW25660   0.809   2.215   6.666  0.7466 -0.4083 -0.3545
 4676SOL    HW125661   0.752   2.183   6.596 -1.9652 -0.2908  1.7723
 4676SOL    HW225662   0.752   2.282   6.706  1.2855  1.3553 -2.5399
 4677SOL     OW25663   0.808   3.080   0.998  0.8473 -0.7082  0.3024
 4677SOL    HW125664   0.728   3.085   1.051 -0.5213  0.4834 -1.9145
 4677SOL    HW225665   0.774   3.089   0.909  1.5112 -0.4727  0.0727
 4678SOL     OW25666   4.484   1.202   5.166 -0.1931 -0.4256 -0.0449
 4678SOL    HW125667   4.475   1.291   5.133 -0.1538 -0.3876  0.0478
 4678SOL    HW225668   4.577   1.198   5.188 -0.1732 -0.7316 -0.1805
 4679SOL     OW25669   4.457   0.658   6.988 -0.1319 -0.2573 -0.1007
 4679SOL    HW125670   4.453   0.574   6.943 -3.0046  0.5391 -1.3496
 4679SOL    HW225671   4.545   0.664   7.024 -0.3494  0.5375  0.2821
 4680SOL     OW25672   0.206   2.057   1.384  0.0785  0.0717 -0.3342
 4680SOL    HW125673   0.205   2.146   1.348 -0.4047  1.5095  3.1858
 4680SOL    HW225674   0.120   2.035   1.348 -0.6951  3.0915 -0.3755
 4681SOL     OW25675   2.009   1.908   3.512 -0.2012 -0.3726 -0.1099
 4681SOL    HW125676   2.000   1.817   3.540  0.2944 -0.2512  0.4237
 4681SOL    HW225677   2.050   1.948   3.588 -0.7505  1.9324 -1.0339
 4682SOL     OW25678   2.049   2.106  13.918 -0.0607  0.7272 -0.1702
 4682SOL    HW125679   2.118   2.051  13.955  1.6712  2.7421 -0.3864
 4682SOL    HW225680   1.968   2.061  13.943  2.3616 -2.0051  2.6784
 4683SOL     OW25681   1.224   3.652  10.377  0.7559 -0.3402  0.1400
 4683SOL    HW125682   1.261   3.566  10.397 -0.0877 -0.5038  1.0024
 4683SOL    HW225683   1.137   3.647  10.417  0.2319  2.1339 -0.7118
 4684SOL     OW25684   0.064   2.949  17.685 -0.1426 -0.2194  0.0649
 4684SOL    HW125685   0.148   2.903  17.685 -0.1170 -0.1798 -1.2688
 4684SOL    HW225686   0.079   3.006   0.018  1.7693 -1.5083  0.6734
 4685SOL     OW25687   1.568   0.388   6.387 -0.1196 -0.3080 -0.0024
 4685SOL    HW125688   1.606   0.301   6.378 -1.6208 -1.0720  1.0957
 4685SOL    HW225689   1.527   0.379   6.472 -3.0477  1.3870 -1.2201
 4686SOL     OW25690   0.198   4.525  10.010  0.2103  0.2802  0.2464
 4686SOL    HW125691   0.145   4.604  10.004  1.0146  0.9259  1.6625
 4686SOL    HW225692   0.136   4.453   9.998 -1.2600  1.3473  1.4248
 4687SOL     OW25693   4.645   0.001   3.769 -0.0409 -0.4616  0.1147
 4687SOL    HW125694   4.674   0.092   3.766 -0.5041 -0.2961  0.5496
 4687SOL    HW225695   4.664   4.729   3.863  1.5581 -1.1647 -0.2689
 4688SOL     OW25696   2.520   0.522   5.071  0.0068  0.6383 -0.7727
 4688SOL    HW125697   2.559   0.442   5.106 -1.2943  0.4215  0.1859
 4688SOL    HW225698   2.600   0.574   5.070 -0.0252  0.6672 -1.5899
 4689SOL     OW25699   3.291   1.737   0.652 -1.1467  0.5045  0.0192
 4689SOL    HW125700   3.286   1.735   0.747 -0.8785 -1.0700  0.0032
 4689SOL    HW225701   3.360   1.800   0.629  2.1887 -3.6053 -1.2206
 4690SOL     OW25702   2.990   1.380   4.832  0.0832 -0.5345 -0.7822
 4690SOL    HW125703   2.911   1.332   4.808  0.4355 -1.3153 -0.3927
 4690SOL    HW225704   2.959   1.470   4.832 -1.3025 -1.0115 -2.8036
 4691SOL     OW25705   4.532   0.556   5.573  0.1351 -0.2273 -0.6170
 4691SOL    HW125706   4.615   0.564   5.620 -0.9503  1.2923  1.0336
 4691SOL    HW225707   4.492   0.638   5.604  1.2488  0.2860 -0.5392
 4692SOL     OW25708   2.867   1.832   8.496 -0.0771  0.6028 -0.4887
 4692SOL    HW125709   2.786   1.795   8.461  1.2206 -0.6515 -2.1903
 4692SOL    HW225710   2.880   1.792   8.583 -2.7285  1.7172  0.4007
 4693SOL     OW25711   2.958   2.200   3.450 -0.5490  0.4242  0.0558
 4693SOL    HW125712   3.051   2.222   3.460 -0.4141 -1.2753  2.5703
 4693SOL    HW225713   2.945   2.152   3.532 -0.1959 -0.6851 -0.5350
 4694SOL     OW25714   2.502   0.709   1.420 -0.3283 -1.1273 -0.1081
 4694SOL    HW125715   2.579   0.723   1.364  0.4744  1.1656  1.5960
 4694SOL    HW225716   2.435   0.748   1.364 -0.8541  0.6689  1.7629
 4695SOL     OW25717   4.319   2.110   0.051  0.7163  0.4560 -0.2180
 4695SOL    HW125718   4.305   2.194   0.094 -0.7845 -0.5406  1.2402
 4695SOL    HW225719   4.231   2.084   0.023  0.6277  1.2178 -0.6312
 4696SOL     OW25720   4.469   0.390   3.879 -0.0344  0.5705 -0.6334
 4696SOL    HW125721   4.389   0.442   3.866 -0.0363  0.3228 -1.6923
 4696SOL    HW225722   4.428   0.306   3.856  0.7091 -0.3977  1.6199
 4697SOL     OW25723   2.446   1.340   4.877  0.1346 -0.3665  0.0488
 4697SOL    HW125724   2.411   1.380   4.957  1.0977 -2.7439  1.6380
 4697SOL    HW225725   2.470   1.253   4.908  1.4220 -0.4332 -1.1000
 4698SOL     OW25726   2.982   3.214   1.882  0.3802  0.8122  0.1970
 4698SOL    HW125727   2.930   3.247   1.808  0.7519 -0.1538 -0.4953
 4698SOL    HW225728   3.071   3.224   1.848  0.7284 -1.0375  0.6206
 4699SOL     OW25729   4.304   4.612  11.310  0.1151 -0.1427 -1.1630
 4699SOL    HW125730   4.211   4.614  11.288 -0.2565  4.1435  0.8633
 4699SOL    HW225731   4.319   4.523  11.342  4.2447  0.1667 -2.2503
 4700SOL     OW25732   0.293   4.125  14.412 -0.1721  0.3387 -0.5910
 4700SOL    HW125733   0.245   4.044  14.394 -0.6950  0.1515  1.5657
 4700SOL    HW225734   0.361   4.090  14.469  0.4158  0.2911 -1.3198
 4701SOL     OW25735   4.497   0.365  11.564 -0.0397  0.3816 -0.3457
 4701SOL    HW125736   4.562   0.320  11.617  0.6853  3.0525  1.0470
 4701SOL    HW225737   4.414   0.317  11.573  0.4520  0.3594  3.6615
 4702SOL     OW25738   1.499   0.006   7.197  0.1154 -0.3778  0.5754
 4702SOL    HW125739   1.483   0.070   7.267  1.2995  0.6153 -0.0556
 4702SOL    HW225740   1.517   4.663   7.248 -1.6066 -0.4542  1.0534
 4703SOL     OW25741   2.938   1.582   3.560  0.2343 -0.0554  0.3025
 4703SOL    HW125742   2.942   1.581   3.655  2.9076  1.8814  0.2149
 4703SOL    HW225743   2.889   1.502   3.544 -1.7366  1.6018 -2.1172
 4704SOL     OW25744   0.617   4.592   2.961 -0.0894  0.7834 -0.2691
 4704SOL    HW125745   0.662   4.589   2.877  1.5303  0.3583  0.6123
 4704SOL    HW225746   0.677   4.537   3.011 -0.6627 -0.4123 -0.8907
 4705SOL     OW25747   1.731   1.374  15.270  0.0506  0.3775 -0.5019
 4705SOL    HW125748   1.788   1.429  15.324  1.4309  0.1046 -1.6727
 4705SOL    HW225749   1.780   1.293  15.287  2.0969  1.4613 -1.2664
 4706SOL     OW25750   1.905   0.478   9.073 -0.1717  0.4542  0.8657
 4706SOL    HW125751   1.826   0.532   9.077 -0.4704  0.0667  0.1230
 4706SOL    HW225752   1.886   0.417   9.144 -1.5473 -0.0590  0.0418
 4707SOL     OW25753   3.151   1.538   8.401  0.0924 -0.3510 -0.8058
 4707SOL    HW125754   3.168   1.494   8.317 -1.0583 -1.9590 -0.1960
 4707SOL    HW225755   3.215   1.610   8.400  0.9855 -1.1203  4.7606
 4708SOL     OW25756   3.797   4.162   6.016  0.6125  0.0330  0.0604
 4708SOL    HW125757   3.760   4.091   6.069  0.0276  1.4516  1.5439
 4708SOL    HW225758   3.759   4.150   5.929  1.6781  0.8868 -0.5132
 4709SOL     OW25759   4.125   3.351  10.278  0.2232  0.7192  0.0780
 4709SOL    HW125760   4.088   3.370  10.364 -2.8507  1.3654 -1.3644
 4709SOL    HW225761   4.101   3.436  10.240 -1.2972  0.6342  0.8240
 4710SOL     OW25762   2.722   0.208   7.200 -0.2076 -0.1303  0.6125
 4710SOL    HW125763   2.768   0.291   7.188  2.5429 -1.9680 -1.4267
 4710SOL    HW225764   2.756   0.173   7.283 -2.1439  0.7235  1.7737
 4711SOL     OW25765   1.661   1.380   5.515  0.2400 -0.7117  0.0861
 4711SOL    HW125766   1.567   1.399   5.516  0.5323  0.5641  2.1328
 4711SOL    HW225767   1.707   1.462   5.531 -0.2769 -0.2230 -0.8892
 4712SOL     OW25768   0.944   1.729   7.141  0.3837  0.0304 -0.3981
 4712SOL    HW125769   0.990   1.721   7.225 -1.8529 -3.7264  0.4715
 4712SOL    HW225770   0.891   1.808   7.155 -1.4755 -1.0789 -1.1900
 4713SOL     OW25771   0.269   4.084   8.451  0.2235  0.3027  0.2501
 4713SOL    HW125772   0.302   4.082   8.540 -0.8710 -1.2159  0.6200
 4713SOL    HW225773   0.243   3.992   8.455 -1.3940  0.7820  0.7356
 4714SOL     OW25774   2.090   0.403   5.969 -0.2807  0.2488 -0.2003
 4714SOL    HW125775   2.050   0.470   6.023  1.4030 -0.2856  1.7045
 4714SOL    HW225776   2.077   0.443   5.883 -0.5859  0.0756 -0.2334
 4715SOL     OW25777   0.770   3.728   8.359 -0.3734  0.2456 -0.4576
 4715SOL    HW125778   0.846   3.753   8.413 -0.7231  2.8585 -1.1760
 4715SOL    HW225779   0.761   3.806   8.305 -0.5224 -0.2216 -1.0961
 4716SOL     OW25780   3.764   3.180   5.392 -0.3492 -0.3091 -0.0839
 4716SOL    HW125781   3.744   3.244   5.460  0.1872 -2.0049  1.6446
 4716SOL    HW225782   3.857   3.183   5.412  0.5167  1.5088 -4.2440
 4717SOL     OW25783   4.650   3.198   6.944 -0.1890 -0.2416 -0.6303
 4717SOL    HW125784   4.626   3.114   6.905  1.6729 -1.4653  0.8851
 4717SOL    HW225785   4.731   3.209   6.894 -0.0819 -0.5802 -0.5328
 4718SOL     OW25786   4.253   1.022   4.719  0.2158 -0.1713  0.0342
 4718SOL    HW125787   4.337   1.033   4.762  0.9243  0.9676 -1.6453
 4718SOL    HW225788   4.272   1.060   4.633 -2.7873  2.1076  0.3316
 4719SOL     OW25789   0.316   3.512  10.090  0.3512 -0.3328 -0.0162
 4719SOL    HW125790   0.254   3.522  10.018  0.7512  0.7650 -0.2069
 4719SOL    HW225791   0.355   3.599  10.096 -1.7017  0.5290  0.6570
 4720SOL     OW25792   4.104   2.550   4.900 -0.6097 -0.6924 -0.4331
 4720SOL    HW125793   4.032   2.596   4.857  0.0132 -0.3491 -1.1042
 4720SOL    HW225794   4.164   2.622   4.921  0.0950 -1.6681  0.8927
 4721SOL     OW25795   1.486   4.025   8.800  0.0227 -0.3261 -0.6498
 4721SOL    HW125796   1.528   3.951   8.844  2.0965  1.7172  0.7556
 4721SOL    HW225797   1.565   4.051   8.753  0.7099 -1.9764 -0.4151
 4722SOL     OW25798   2.176   4.562   6.952 -0.3511 -0.2435  0.0566
 4722SOL    HW125799   2.253   4.521   6.991 -1.7207 -1.2898  1.6318
 4722SOL    HW225800   2.104   4.517   6.996 -1.2429 -1.2971 -2.4584
 4723SOL     OW25801   4.708   2.647   6.059 -0.4335 -0.6960 -0.1078
 4723SOL    HW125802   4.733   2.691   6.140  0.0524  1.4321 -1.4208
 4723SOL    HW225803   4.710   2.561   6.100 -0.5910 -0.9791 -0.6881
 4724SOL     OW25804   3.421   2.269   6.176  0.1654 -0.3382 -0.2837
 4724SOL    HW125805   3.385   2.191   6.217 -1.0697  0.2919 -0.1635
 4724SOL    HW225806   3.508   2.270   6.216  0.1649 -2.0453 -0.2527
 4725SOL     OW25807   2.122   3.129   8.410 -0.6258  0.4084  0.0623
 4725SOL    HW125808   2.074   3.139   8.328  0.2189  1.0043 -0.3576
 4725SOL    HW225809   2.062   3.075   8.462 -0.4500 -0.2825 -0.4491
 4726SOL     OW25810   2.603   4.008   2.109 -0.3006  0.4297 -0.7193
 4726SOL    HW125811   2.679   4.045   2.154 -0.0752 -1.1047  0.1386
 4726SOL    HW225812   2.529   4.050   2.152 -0.4806 -0.7146  0.0792
 4727SOL     OW25813   3.847   2.260   2.422  0.4310 -0.6193  0.3644
 4727SOL    HW125814   3.781   2.223   2.480  0.5764 -0.3521  0.6985
 4727SOL    HW225815   3.833   2.193   2.356 -0.7001  0.3864 -0.4210
 4728SOL     OW25816   2.212   2.316   4.322  0.4518  0.5761  0.1379
 4728SOL    HW125817   2.212   2.412   4.321  0.2376  0.6325  3.5713
 4728SOL    HW225818   2.284   2.310   4.259 -1.7923  0.0302 -2.3595
 4729SOL     OW25819   1.148   4.107   1.839  0.3143  0.1293 -0.4750
 4729SOL    HW125820   1.095   4.156   1.776  0.3431 -2.6703 -2.6688
 4729SOL    HW225821   1.233   4.134   1.806  0.1596  0.2019 -0.8115
 4730SOL     OW25822   1.326   3.394  10.422 -0.2400  0.6677 -0.2905
 4730SOL    HW125823   1.307   3.355  10.507 -0.0606  0.5274 -0.3130
 4730SOL    HW225824   1.407   3.346  10.403 -0.3391 -0.1509  1.3917
 4731SOL     OW25825   3.334   0.293   7.645 -0.4174  0.3492 -0.4673
 4731SOL    HW125826   3.316   0.350   7.570 -0.7959 -0.5611 -1.0693
 4731SOL    HW225827   3.255   0.294   7.699 -1.2213  1.5785 -1.6637
 4732SOL     OW25828   3.841   1.018  13.079 -0.1031 -0.0590  0.3366
 4732SOL    HW125829   3.869   1.110  13.074  0.3693 -0.1856  0.6010
 4732SOL    HW225830   3.814   1.005  12.988 -2.7094 -1.1815  1.2960
 4733SOL     OW25831   2.765   0.145   6.112 -0.6439  0.0042  0.0101
 4733SOL    HW125832   2.736   0.229   6.076 -1.3220 -0.3791 -0.3521
 4733SOL    HW225833   2.848   0.123   6.070 -0.8777  0.3705 -0.6558
 4734SOL     OW25834   4.609   2.027  17.078 -0.4216 -0.1400 -0.5902
 4734SOL    HW125835   4.688   2.052  17.126 -0.3971 -0.1061 -0.6485
 4734SOL    HW225836   4.607   2.107  17.026  0.7236  1.7463  2.2691
 4735SOL     OW25837   1.302   1.505   4.096 -0.1806  0.3746  0.5131
 4735SOL    HW125838   1.323   1.459   4.014 -0.0324 -1.3927  1.5442
 4735SOL    HW225839   1.252   1.438   4.144 -0.7449 -0.4720 -1.2537
 4736SOL     OW25840   2.518   2.486   2.121  0.1261  0.5301 -0.1922
 4736SOL    HW125841   2.552   2.428   2.053 -1.0470 -0.7239  0.2943
 4736SOL    HW225842   2.425   2.489   2.097 -0.3659 -2.4053  1.3369
 4737SOL     OW25843   0.430   0.449   8.960  0.5204 -0.0709 -0.1300
 4737SOL    HW125844   0.387   0.525   8.998 -2.2664 -2.2121  0.9634
 4737SOL    HW225845   0.361   0.419   8.901  1.7566 -2.0119 -0.6105
 4738SOL     OW25846   2.827   0.985   4.632  0.3648 -0.2283  0.2284
 4738SOL    HW125847   2.811   1.003   4.539  1.0193  1.9658  0.5315
 4738SOL    HW225848   2.824   1.075   4.665 -0.0627 -1.2031  2.8058
 4739SOL     OW25849   0.428   0.541   8.608 -0.4019  0.1857  0.0846
 4739SOL    HW125850   0.344   0.562   8.567  0.2728  1.2748 -0.7427
 4739SOL    HW225851   0.473   0.625   8.594  3.1202 -1.4233  1.8284
 4740SOL     OW25852   0.983   3.311   4.727  0.2082 -0.4595  0.2445
 4740SOL    HW125853   1.006   3.373   4.797 -1.0584 -3.6197  3.4857
 4740SOL    HW225854   0.905   3.357   4.695  0.6111  0.2131  0.2309
 4741SOL     OW25855   2.749   3.741   4.956  0.3004  0.3845  0.5196
 4741SOL    HW125856   2.760   3.646   4.951  0.3329  0.5474 -2.2793
 4741SOL    HW225857   2.669   3.749   4.905  0.5119 -1.9805 -0.1948
 4742SOL     OW25858   0.920   4.088   8.464  0.0386 -0.2169 -0.3949
 4742SOL    HW125859   0.847   4.053   8.514  1.3288 -2.2951  0.0543
 4742SOL    HW225860   0.981   4.015   8.472 -1.9418 -1.6884  1.0071
 4743SOL     OW25861   4.213   0.391   9.349 -0.0687 -0.3076  0.5648
 4743SOL    HW125862   4.257   0.472   9.323 -2.2484  0.5434 -0.4783
 4743SOL    HW225863   4.188   0.344   9.270  1.2793 -1.6554  0.9494
 4744SOL     OW25864   3.628   1.405   8.314 -0.2681  0.5978 -0.2479
 4744SOL    HW125865   3.721   1.383   8.322 -0.5184 -0.1977  0.6223
 4744SOL    HW225866   3.593   1.316   8.317 -0.8918  0.8620  0.2599
 4745SOL     OW25867   4.085   0.737   0.577 -0.5381 -0.1708  0.4230
 4745SOL    HW125868   4.164   0.752   0.629 -0.1970  0.0440 -0.1552
 4745SOL    HW225869   4.061   0.830   0.576 -0.4088 -0.1437 -0.4774
 4746SOL     OW25870   2.546   3.553   4.191  0.1434  0.2885  0.3811
 4746SOL    HW125871   2.597   3.534   4.112  0.0568 -0.8727  0.6086
 4746SOL    HW225872   2.466   3.593   4.156  0.5420  1.0571  0.3453
 4747SOL     OW25873   2.324   3.194   1.435  0.1853  0.0709 -0.5324
 4747SOL    HW125874   2.334   3.280   1.395  1.3512  0.4957  0.6736
 4747SOL    HW225875   2.405   3.189   1.486  0.2558 -2.1419 -0.8373
 4748SOL     OW25876   3.097   3.611   4.373 -0.3971  0.6131  0.3135
 4748SOL    HW125877   3.132   3.698   4.360 -3.0656  1.4719 -1.0974
 4748SOL    HW225878   3.030   3.623   4.440 -0.2735  0.9445  0.3744
 4749SOL     OW25879   4.286   4.535  10.080  0.6488 -0.4207 -0.2731
 4749SOL    HW125880   4.270   4.584  10.160 -0.4085  0.4441 -1.0218
 4749SOL    HW225881   4.202   4.490  10.068 -0.3037  1.3367 -0.1018
 4750SOL     OW25882   3.037   3.628   6.516  0.1411 -0.2669 -0.4740
 4750SOL    HW125883   3.050   3.576   6.436  0.7999  1.2722 -1.3623
 4750SOL    HW225884   2.988   3.703   6.481  2.1924  2.5790  2.7968
 4751SOL     OW25885   0.506   3.779   9.823 -0.2667 -0.7590 -0.3682
 4751SOL    HW125886   0.493   3.759   9.730 -1.8547  2.9655 -0.9564
 4751SOL    HW225887   0.449   3.718   9.869  0.6981 -1.0757  0.4265
 4752SOL     OW25888   4.723   4.434  11.979  0.1394 -0.1918 -0.1673
 4752SOL    HW125889   4.719   4.428  12.074  0.6952 -1.1898 -0.2057
 4752SOL    HW225890   0.012   4.524  11.962 -1.1314 -0.3207 -2.7309
 4753SOL     OW25891   0.910   4.686   6.489 -0.4285  0.1828 -0.3271
 4753SOL    HW125892   0.968   0.012   6.533  0.5082 -0.8795 -0.0612
 4753SOL    HW225893   0.831   0.004   6.496 -1.7132 -1.7880  0.3267
 4754SOL     OW25894   2.320   3.511   2.772 -0.0198  0.0853  0.1467
 4754SOL    HW125895   2.237   3.534   2.729 -0.3385  0.7445  1.1223
 4754SOL    HW225896   2.372   3.589   2.756  0.0237 -0.2803 -1.5409
 4755SOL     OW25897   2.902   0.535   6.676 -0.1875  0.0772 -0.3355
 4755SOL    HW125898   2.877   0.625   6.699 -0.9423 -0.7156  2.0392
 4755SOL    HW225899   2.995   0.519   6.688  0.2566  2.7170 -0.3229
 4756SOL     OW25900   0.449   4.184   8.946  0.1319  0.1657 -0.6150
 4756SOL    HW125901   0.393   4.214   9.017  0.8324  1.6463 -0.6712
 4756SOL    HW225902   0.389   4.116   8.916  0.6803 -0.6363  0.1180
 4757SOL     OW25903   1.477   2.383   3.301 -0.4650  0.4342 -0.6288
 4757SOL    HW125904   1.398   2.432   3.321 -0.9249 -1.2443  1.6903
 4757SOL    HW225905   1.546   2.445   3.323 -0.1918  0.4027 -1.3949
 4758SOL     OW25906   3.755   0.487   2.224 -0.0263  0.2094 -0.3760
 4758SOL    HW125907   3.823   0.526   2.169 -1.2341  1.7724 -0.7694
 4758SOL    HW225908   3.730   0.402   2.187 -1.2889 -0.2665  1.5763
 4759SOL     OW25909   3.974   3.315   3.570  0.2919 -0.0673 -0.5845
 4759SOL    HW125910   4.032   3.359   3.633  0.4103 -0.6623 -0.2743
 4759SOL    HW225911   4.023   3.344   3.493  0.1775  1.0488 -0.2334
 4760SOL     OW25912   4.231   0.921   7.919  0.0595  0.5337  0.3015
 4760SOL    HW125913   4.190   0.872   7.990  0.8103 -0.1380  0.2764
 4760SOL    HW225914   4.258   1.000   7.966  0.9813 -0.0479  0.7387
 4761SOL     OW25915   1.590   2.809  14.672  0.7904  0.2834 -0.6136
 4761SOL    HW125916   1.569   2.719  14.647  1.8121 -0.0216 -0.3842
 4761SOL    HW225917   1.577   2.855  14.589 -0.5504  1.5512  0.3123
 4762SOL     OW25918   2.329   4.041  10.959 -0.3642 -0.0226  0.3950
 4762SOL    HW125919   2.242   4.007  10.978  0.1363 -0.6004  1.6348
 4762SOL    HW225920   2.305   4.134  10.964 -1.2281 -0.3173  1.6532
 4763SOL     OW25921   2.804   2.668   9.238 -0.5389 -0.2486  0.0424
 4763SOL    HW125922   2.841   2.714   9.313 -1.1455  0.3752 -0.0400
 4763SOL    HW225923   2.765   2.739   9.187  1.6691  0.6137 -0.4378
 4764SOL     OW25924   3.710   1.020  10.300  0.2617 -0.5773  0.2223
 4764SOL    HW125925   3.726   1.100  10.350  0.3365 -0.7848  0.5320
 4764SOL    HW225926   3.628   1.042  10.256  1.0792  1.0971 -0.4746
 4765SOL     OW25927   2.983   3.528  13.713 -0.6510 -0.2448  0.7699
 4765SOL    HW125928   2.889   3.547  13.720 -0.5086  0.3564  1.0587
 4765SOL    HW225929   2.995   3.458  13.777  1.6977 -0.1447  0.4239
 4766SOL     OW25930   2.833   1.373   1.489 -0.1587  0.4997 -0.2329
 4766SOL    HW125931   2.793   1.333   1.411 -0.1552 -1.1804  0.6280
 4766SOL    HW225932   2.796   1.318   1.558 -1.9513 -0.8417 -2.2725
 4767SOL     OW25933   1.289   4.146   7.359  0.4670  0.5794  0.4959
 4767SOL    HW125934   1.312   4.075   7.300 -1.7555  0.9669 -0.8473
 4767SOL    HW225935   1.364   4.138   7.418  0.0283 -2.3596  0.6192
 4768SOL     OW25936   1.491   3.658   2.302  0.6540  0.1342  0.1732
 4768SOL    HW125937   1.560   3.703   2.254  1.1883  0.0986  0.9201
 4768SOL    HW225938   1.414   3.697   2.261 -0.7233 -1.4449  1.2501
 4769SOL     OW25939   3.550   4.361   4.195  0.5758  0.9235  0.2916
 4769SOL    HW125940   3.644   4.371   4.180  0.9537 -2.3322  0.5204
 4769SOL    HW225941   3.523   4.358   4.103  3.0079 -1.6047 -0.3330
 4770SOL     OW25942   2.030   1.459   3.788 -0.2927  0.4497  0.0748
 4770SOL    HW125943   1.981   1.446   3.869  0.3370 -0.5449  0.2980
 4770SOL    HW225944   2.058   1.368   3.777 -1.4511  0.2963 -1.4874
 4771SOL     OW25945   3.471   4.072   9.412 -0.3841  0.3502  0.1779
 4771SOL    HW125946   3.428   4.013   9.473  0.0584  0.3951  0.5277
 4771SOL    HW225947   3.470   4.010   9.338  1.0113 -1.6225  1.8157
 4772SOL     OW25948   2.698   1.606   1.832 -0.0014 -0.1412 -0.5482
 4772SOL    HW125949   2.724   1.681   1.779 -0.6389  0.7265  0.3528
 4772SOL    HW225950   2.771   1.553   1.800  1.3756  0.3689  1.6935
 4773SOL     OW25951   2.588   4.409   9.373  0.1103 -0.0777  0.0948
 4773SOL    HW125952   2.600   4.469   9.447  0.0303  0.9474 -0.7142
 4773SOL    HW225953   2.501   4.433   9.341  0.7683 -0.4058 -1.9241
 4774SOL     OW25954   1.257   0.632  10.570  0.1898  0.3882  0.3197
 4774SOL    HW125955   1.256   0.615  10.664  3.1001 -0.3173  0.2250
 4774SOL    HW225956   1.311   0.558  10.540 -1.1778 -0.2434 -0.6289
 4775SOL     OW25957   4.148   4.701   0.227  0.2560 -0.3167 -0.3371
 4775SOL    HW125958   4.182   4.726   0.141  0.1210  2.7966  0.5190
 4775SOL    HW225959   4.056   4.718   0.207  0.1599 -1.2798 -0.6963
 4776SOL     OW25960   0.232   3.520   7.771 -0.2833 -0.1477  0.0644
 4776SOL    HW125961   0.153   3.480   7.734  0.5244 -0.4589 -1.3313
 4776SOL    HW225962   0.242   3.593   7.710  0.3533 -0.8459 -0.6626
 4777SOL     OW25963   2.835   2.701   7.710  0.2401  0.3035  0.1073
 4777SOL    HW125964   2.846   2.791   7.678  0.1124  0.0586 -0.6215
 4777SOL    HW225965   2.910   2.653   7.676  1.3142  1.0388  1.4312
 4778SOL     OW25966   1.990   1.097   1.411 -0.0090 -0.2627  0.4126
 4778SOL    HW125967   1.915   1.057   1.455 -0.8392  0.4495 -0.3604
 4778SOL    HW225968   1.941   1.143   1.343 -1.2993 -1.0418  0.8107
 4779SOL     OW25969   3.826   1.493   5.353 -0.2228  0.2183 -0.2885
 4779SOL    HW125970   3.873   1.468   5.273  0.7895 -0.1122  0.4034
 4779SOL    HW225971   3.866   1.427   5.410  1.7467  0.8370 -0.9281
 4780SOL     OW25972   3.430   1.593   0.902 -0.0925  0.1125 -0.8353
 4780SOL    HW125973   3.516   1.634   0.901 -0.6698  1.3565  0.2178
 4780SOL    HW225974   3.442   1.525   0.836  0.6704  1.1328 -1.7476
 4781SOL     OW25975   2.285   0.497   1.853 -0.8227 -0.2982 -0.3132
 4781SOL    HW125976   2.295   0.572   1.912 -0.2537 -0.0767 -0.6821
 4781SOL    HW225977   2.343   0.513   1.778 -0.1692  0.8455  0.4317
 4782SOL     OW25978   2.652   0.500   2.464  0.2881  0.2436 -0.2829
 4782SOL    HW125979   2.705   0.498   2.544 -1.8122  1.0476  1.1613
 4782SOL    HW225980   2.624   0.409   2.477 -2.7523  1.0939 -0.6918
 4783SOL     OW25981   1.196   1.117   7.966  0.4084  0.3671  0.4791
 4783SOL    HW125982   1.167   1.156   8.048  0.9370  0.7507  0.4854
 4783SOL    HW225983   1.126   1.149   7.909 -1.3311 -0.0560  2.3781
 4784SOL     OW25984   0.339   1.978   9.114  0.4411  0.7521 -0.0488
 4784SOL    HW125985   0.320   1.884   9.109  2.7292  0.1824  2.0891
 4784SOL    HW225986   0.322   1.984   9.208 -0.8679  1.9312 -0.3597
 4785SOL     OW25987   1.519   3.752  10.578 -0.1283 -0.5343 -0.1321
 4785SOL    HW125988   1.605   3.743  10.536  0.2514 -1.2493  0.8044
 4785SOL    HW225989   1.514   3.838  10.619 -1.4140 -0.6533 -0.0444
 4786SOL     OW25990   2.486   1.134   5.691 -0.1883 -0.1294 -0.1782
 4786SOL    HW125991   2.413   1.074   5.678  0.6978 -0.6692 -2.6482
 4786SOL    HW225992   2.563   1.080   5.675 -0.6070 -1.0004  0.7034
 4787SOL     OW25993   1.884   0.072   4.559  0.0245  0.2083  0.4965
 4787SOL    HW125994   1.944   0.136   4.598 -0.5962  0.7978  0.4671
 4787SOL    HW225995   1.820   0.076   4.630 -2.0904 -2.8706 -1.2749
 4788SOL     OW25996   1.786   1.461  11.202 -0.2842  0.0009  0.2115
 4788SOL    HW125997   1.811   1.495  11.116 -0.0899  0.8021  0.5778
 4788SOL    HW225998   1.703   1.508  11.214 -1.2861 -1.9742  0.9092
 4789SOL     OW25999   0.686   0.170   6.499  0.2397  0.0715 -0.1286
 4789SOL    HW126000   0.676   0.264   6.483 -1.9816 -0.0693  0.4693
 4789SOL    HW226001   0.637   0.162   6.581  0.7113 -0.1831  0.1277
 4790SOL     OW26002   2.711   0.206   9.269  0.5607 -0.0193  0.0836
 4790SOL    HW126003   2.631   0.191   9.219  2.3273 -0.3222 -2.6265
 4790SOL    HW226004   2.759   0.253   9.201  0.2384 -0.8341 -0.6938
 4791SOL     OW26005   2.991   4.012  15.681  0.4007  0.3994 -0.6334
 4791SOL    HW126006   2.987   4.055  15.595  1.6215  0.4872 -0.6468
 4791SOL    HW226007   2.994   4.085  15.742 -0.0173 -1.0128  1.0844
 4792SOL     OW26008   2.560   1.024  15.056  0.4080 -0.0915 -0.0235
 4792SOL    HW126009   2.568   0.995  15.147 -0.3291 -3.8608 -1.1660
 4792SOL    HW226010   2.646   1.002  15.021  0.0924 -0.3099 -0.6681
 4793SOL     OW26011   3.805   1.585  11.625  0.4052 -0.2945 -0.1230
 4793SOL    HW126012   3.817   1.633  11.543  3.8749 -1.1662 -0.1403
 4793SOL    HW226013   3.715   1.554  11.617 -0.0325  1.2672 -1.2313
 4794SOL     OW26014   4.505   2.594   6.780  0.0022 -0.0615  0.3790
 4794SOL    HW126015   4.491   2.661   6.713  0.7668  0.1293  0.4033
 4794SOL    HW226016   4.559   2.531   6.734  0.8654  0.3729  0.7915
 4795SOL     OW26017   4.257   0.853   8.422  0.0626  0.0877 -0.0986
 4795SOL    HW126018   4.281   0.772   8.467  0.9443 -0.2725 -1.2057
 4795SOL    HW226019   4.162   0.853   8.416  0.0136  1.1436  0.7514
 4796SOL     OW26020   3.470   3.931   3.081 -0.3371 -0.0024  0.2581
 4796SOL    HW126021   3.435   3.893   3.001 -0.0472 -3.5138  1.7951
 4796SOL    HW226022   3.390   3.946   3.131  0.1574 -1.2146  1.4305
 4797SOL     OW26023   0.616   1.642   5.962 -0.5841  0.1956 -0.0736
 4797SOL    HW126024   0.633   1.548   5.964 -0.8543  0.1117 -2.0395
 4797SOL    HW226025   0.530   1.640   5.920 -0.5699 -0.7616 -0.0530
 4798SOL     OW26026   1.821   3.425   9.627  0.4281 -0.1965  0.1205
 4798SOL    HW126027   1.892   3.381   9.580  1.1572 -0.3660  1.3733
 4798SOL    HW226028   1.879   3.456   9.696  0.6731  3.2787 -1.6089
 4799SOL     OW26029   2.798   4.418   4.930 -0.1575 -0.2842 -0.2782
 4799SOL    HW126030   2.791   4.499   4.980 -1.6171 -1.1668  0.9460
 4799SOL    HW226031   2.792   4.347   4.994 -0.5759  2.2553  2.5023
 4800SOL     OW26032   0.573   4.477  10.443  0.1723  0.4141 -0.8979
 4800SOL    HW126033   0.607   4.409  10.385 -0.1367  1.8269 -2.7595
 4800SOL    HW226034   0.486   4.442  10.459 -0.4567  1.7623 -1.3952
 4801SOL     OW26035   3.124   0.801   8.336  0.2786 -0.2192  0.6471
 4801SOL    HW126036   3.125   0.871   8.270  1.6273 -1.4115 -0.5858
 4801SOL    HW226037   3.038   0.766   8.316 -0.8455  1.2264  2.9290
 4802SOL     OW26038   4.242   1.758  15.379 -0.1028  0.8660 -0.3265
 4802SOL    HW126039   4.157   1.800  15.368 -0.6245 -0.6361 -2.0760
 4802SOL    HW226040   4.231   1.689  15.445 -0.0668  1.7318  0.5879
 4803SOL     OW26041   3.107   3.336  14.098  0.4064 -0.5084 -0.5184
 4803SOL    HW126042   3.186   3.299  14.136 -0.2714  1.0458  2.4341
 4803SOL    HW226043   3.079   3.402  14.162 -0.3632  0.0734 -1.4685
 4804SOL     OW26044   4.620   0.871   7.217  0.7502  1.0251  0.2973
 4804SOL    HW126045   4.566   0.909   7.149  0.3511  0.4104  0.2698
 4804SOL    HW226046   4.678   0.812   7.168 -0.4274  0.0246  0.1098
 4805SOL     OW26047   0.192   4.594  16.732 -0.4554 -0.4074  0.0661
 4805SOL    HW126048   0.180   4.686  16.755 -0.3689 -0.5262  0.5845
 4805SOL    HW226049   0.118   4.564  16.785 -0.3441  2.2925  1.7495
 4806SOL     OW26050   1.307   1.711  17.283  0.4636 -0.1947 -0.0625
 4806SOL    HW126051   1.256   1.763  17.345 -0.5021 -0.6576 -0.4637
 4806SOL    HW226052   1.304   1.766  17.205 -0.2352  1.3493  1.0711
 4807SOL     OW26053   0.343   0.214  10.587 -0.0914  0.0843 -0.2824
 4807SOL    HW126054   0.379   0.127  10.570  3.4322  1.0234  2.3090
 4807SOL    HW226055   0.286   0.230  10.512 -1.7201 -3.7890  0.1392
 4808SOL     OW26056   2.615   4.572  14.897  0.4615 -0.6785 -1.0406
 4808SOL    HW126057   2.612   4.566  14.992 -2.8504  1.0050 -1.0576
 4808SOL    HW226058   2.634   4.662  14.872  1.5037 -1.1297 -1.9173
 4809SOL     OW26059   3.091   0.621   5.068 -0.3255 -0.2451 -0.1062
 4809SOL    HW126060   3.140   0.643   5.147 -1.9266  0.1131  0.7894
 4809SOL    HW226061   3.155   0.578   5.011 -1.6337  1.2173 -2.6435
 4810SOL     OW26062   3.965   0.068   2.642 -0.7972  0.1615 -0.8590
 4810SOL    HW126063   4.052   0.074   2.683 -1.5875  1.0963  0.6876
 4810SOL    HW226064   3.970   4.717   2.601  1.9835  0.0547 -0.3553
 4811SOL     OW26065   2.912   4.384   0.365  0.4442 -0.1251 -0.2836
 4811SOL    HW126066   2.942   4.458   0.418 -1.1554  0.3980 -0.1174
 4811SOL    HW226067   2.968   4.321   0.412  1.2829  1.8055  1.3100
 4812SOL     OW26068   3.489   2.005   0.884  0.0890 -0.7020 -0.6122
 4812SOL    HW126069   3.577   2.038   0.906 -0.0993  0.4226 -1.5624
 4812SOL    HW226070   3.440   2.049   0.953 -0.4832  0.4854 -1.7750
 4813SOL     OW26071   4.281   1.514   4.749  0.4760  0.2008  0.2920
 4813SOL    HW126072   4.318   1.429   4.775  3.2430  0.8122 -1.6634
 4813SOL    HW226073   4.224   1.488   4.676  0.5519  0.7927  0.0222
 4814SOL     OW26074   2.202   2.654   8.314 -0.3496 -0.1553 -0.2530
 4814SOL    HW126075   2.142   2.722   8.284  1.8735  1.0962 -1.8911
 4814SOL    HW226076   2.233   2.704   8.390 -0.1941  0.3398 -0.6410
 4815SOL     OW26077   1.733   0.244   7.445 -0.0752  0.4311  0.2689
 4815SOL    HW126078   1.771   0.246   7.357 -0.3202 -2.2866  0.1227
 4815SOL    HW226079   1.767   0.327   7.479  2.0710 -0.6134  0.6430
 4816SOL     OW26080   1.235   2.063   8.245 -0.0004 -0.2540  0.1930
 4816SOL    HW126081   1.263   2.128   8.180  0.3696 -1.2304 -0.6094
 4816SOL    HW226082   1.250   2.111   8.326 -0.3503 -1.2563  0.8472
 4817SOL     OW26083   1.397   2.776   8.544  0.4692 -0.5752  0.1009
 4817SOL    HW126084   1.482   2.770   8.589 -0.9359 -1.9036  2.5334
 4817SOL    HW226085   1.344   2.716   8.596  0.3975 -1.8626 -1.4282
 4818SOL     OW26086   0.097   3.551   4.978 -0.4973  0.2495 -0.0609
 4818SOL    HW126087   0.140   3.467   4.964  0.3855  0.3652  1.9192
 4818SOL    HW226088   0.062   3.528   5.064 -2.6670 -0.1323 -1.0465
 4819SOL     OW26089   1.461   2.879  17.604  0.8415  0.5162  0.6559
 4819SOL    HW126090   1.379   2.928  17.594  0.7539  0.8318  2.8168
 4819SOL    HW226091   1.527   2.948  17.599 -0.2314  1.4991 -0.0634
 4820SOL     OW26092   0.942   0.822   3.654 -0.9014  0.3589  0.5531
 4820SOL    HW126093   1.036   0.831   3.667 -0.5918 -3.5941  1.1765
 4820SOL    HW226094   0.927   0.789   3.565  2.0725 -0.7086  0.4500
 4821SOL     OW26095   3.720   0.518   4.330 -0.3795 -0.5667 -0.5576
 4821SOL    HW126096   3.672   0.491   4.409  2.4935 -0.9847  1.0442
 4821SOL    HW226097   3.651   0.513   4.264  0.0469  0.7281 -1.1056
 4822SOL     OW26098   4.671   4.195   6.530  0.0703 -0.3553 -0.0985
 4822SOL    HW126099   4.687   4.287   6.550  0.3230 -0.8478  1.9515
 4822SOL    HW226100   0.014   4.155   6.567 -0.1876  0.3818  1.2510
 4823SOL     OW26101   3.291   3.970   7.889  0.0921 -0.2976  0.7285
 4823SOL    HW126102   3.300   3.890   7.941 -0.7780  0.0478  1.4142
 4823SOL    HW226103   3.229   4.016   7.945 -0.6337 -0.6192  0.1870
 4824SOL     OW26104   3.394   4.638   6.619  0.1937  0.6914 -0.1333
 4824SOL    HW126105   3.312   4.654   6.572 -0.3985  0.6663  0.8832
 4824SOL    HW226106   3.432   4.725   6.613  2.3905 -0.2804 -0.1315
 4825SOL     OW26107   0.280   1.804   3.284 -0.2528  0.2007 -0.1427
 4825SOL    HW126108   0.260   1.722   3.328  0.9724 -0.1060 -0.1551
 4825SOL    HW226109   0.372   1.815   3.310 -0.8605  0.6803  1.7636
 4826SOL     OW26110   3.347   4.235   9.193 -0.6176 -0.1397  0.1877
 4826SOL    HW126111   3.323   4.149   9.226  0.6074  0.1934  1.9118
 4826SOL    HW226112   3.263   4.277   9.212 -0.8242  0.8386 -2.8992
 4827SOL     OW26113   0.869   3.791  10.334  0.4776  0.2406 -0.3112
 4827SOL    HW126114   0.919   3.725  10.383  0.1593  0.4779  0.3394
 4827SOL    HW226115   0.795   3.730  10.334  0.4824  0.2375  0.5141
 4828SOL     OW26116   3.058   2.698   4.892 -0.1661 -0.1474 -0.1523
 4828SOL    HW126117   3.018   2.735   4.970 -0.5824  1.7529 -1.2716
 4828SOL    HW226118   2.983   2.695   4.832 -0.4292  0.4972  0.1397
 4829SOL     OW26119   2.846   4.231   7.120  0.6199 -0.0207  0.5092
 4829SOL    HW126120   2.814   4.275   7.198  0.0252  0.7142 -0.1583
 4829SOL    HW226121   2.915   4.169   7.146  1.0839  0.4040  0.2926
 4830SOL     OW26122   0.324   0.031   6.723 -0.4334  0.7286 -0.1952
 4830SOL    HW126123   0.250   0.011   6.665  0.6168  0.1659 -1.3538
 4830SOL    HW226124   0.335   4.679   6.760 -0.6551 -0.1130 -2.1321
 4831SOL     OW26125   1.550   1.979   2.256  0.5360 -0.4348 -0.2925
 4831SOL    HW126126   1.578   1.961   2.346 -1.9627 -1.2258  0.3395
 4831SOL    HW226127   1.466   2.018   2.280  0.6329 -0.6043  0.3450
 4832SOL     OW26128   3.777   3.959   2.926 -0.0499  0.2091  0.4558
 4832SOL    HW126129   3.745   3.869   2.921 -0.7486  0.5643 -1.3175
 4832SOL    HW226130   3.697   4.010   2.941  1.2803  2.9043 -1.5354
 4833SOL     OW26131   0.380   0.172   9.482  0.3576  0.3064  0.0664
 4833SOL    HW126132   0.453   0.154   9.423 -1.3301  0.1368 -1.9791
 4833SOL    HW226133   0.413   0.150   9.569 -1.6987 -0.1249  0.7520
 4834SOL     OW26134   3.051   0.515   0.267 -0.1167  0.2840  0.3527
 4834SOL    HW126135   3.029   0.425   0.290  2.7255 -0.3272  0.6387
 4834SOL    HW226136   3.062   0.569   0.345  2.5879  0.1452  0.0682
 4835SOL     OW26137   3.144   4.375   4.679  0.0678 -0.3822  0.0762
 4835SOL    HW126138   3.145   4.381   4.775  0.3413  1.0000 -0.0158
 4835SOL    HW226139   3.233   4.408   4.670 -0.4446  0.5484 -1.5137
 4836SOL     OW26140   0.029   1.281  16.380 -0.5381 -0.1449  0.0366
 4836SOL    HW126141   0.120   1.310  16.370 -1.5306  2.8787 -0.3054
 4836SOL    HW226142   4.730   1.292  16.291  0.6221  1.7154 -0.2071
 4837SOL     OW26143   1.286   3.688   9.235  0.2952  0.0128 -0.1493
 4837SOL    HW126144   1.216   3.721   9.292  0.0428 -1.3125  0.3115
 4837SOL    HW226145   1.345   3.648   9.298  1.7442  2.1627 -0.1252
 4838SOL     OW26146   1.291   4.614   3.630  0.2177  0.4569 -0.5689
 4838SOL    HW126147   1.237   4.670   3.574 -2.4422 -0.5128  1.0661
 4838SOL    HW226148   1.250   4.528   3.615  1.2306 -0.2660  0.7761
 4839SOL     OW26149   2.351   2.779   7.186  0.0240  0.4581  0.5710
 4839SOL    HW126150   2.293   2.794   7.112  1.1526  0.3285 -0.3310
 4839SOL    HW226151   2.324   2.853   7.241 -2.2123 -0.7693  1.1356
 4840SOL     OW26152   2.734   4.446   8.138 -0.2724 -1.1293 -0.1071
 4840SOL    HW126153   2.639   4.455   8.144 -0.1372  1.3945 -1.4786
 4840SOL    HW226154   2.755   4.426   8.230 -0.4858 -1.1235 -0.0555
 4841SOL     OW26155   3.285   3.666   9.348  0.4713 -0.5230  0.6979
 4841SOL    HW126156   3.190   3.659   9.354  0.2951  1.3489 -0.0760
 4841SOL    HW226157   3.309   3.574   9.341 -2.0296 -1.2599  1.5885
 4842SOL     OW26158   2.201   1.559   6.928  0.2279  0.5189  0.6226
 4842SOL    HW126159   2.239   1.646   6.940  1.6948 -0.4844  3.2800
 4842SOL    HW226160   2.130   1.582   6.869 -1.1201  1.7578  2.7017
 4843SOL     OW26161   4.336   4.241   5.758  0.0363 -0.0154 -0.4956
 4843SOL    HW126162   4.411   4.218   5.813  0.0826  0.0244 -0.5428
 4843SOL    HW226163   4.279   4.198   5.822 -0.9898  0.7784 -0.8797
 4844SOL     OW26164   4.102   0.771  15.273 -0.8459  0.6268  0.0987
 4844SOL    HW126165   4.042   0.770  15.198 -0.2369  1.7731 -0.4038
 4844SOL    HW226166   4.153   0.848  15.247 -2.1640  1.7124  0.6992
 4845SOL     OW26167   4.113   0.633   4.023  0.5712  0.0212 -0.7147
 4845SOL    HW126168   4.031   0.674   3.996  0.4660  0.3520  0.1132
 4845SOL    HW226169   4.124   0.557   3.966 -0.8786 -0.2256 -0.6609
 4846SOL     OW26170   1.285   4.282   9.243 -0.3613 -0.4008  0.0097
 4846SOL    HW126171   1.322   4.366   9.271 -0.8833  0.5084 -2.0847
 4846SOL    HW226172   1.190   4.293   9.232 -0.3566 -2.3958 -1.8591
 4847SOL     OW26173   2.636   1.336   8.780 -0.0641 -0.7566  0.1554
 4847SOL    HW126174   2.614   1.371   8.867  1.0060 -0.0557  0.1352
 4847SOL    HW226175   2.562   1.276   8.768 -1.2403  0.8851 -0.7029
 4848SOL     OW26176   0.561   3.634   0.785  0.4442 -0.4984 -0.4954
 4848SOL    HW126177   0.492   3.683   0.830  0.1593 -0.8185 -0.5844
 4848SOL    HW226178   0.628   3.629   0.854  0.3369  1.5014 -0.2537
 4849SOL     OW26179   0.056   2.649   4.059  0.2752 -0.0699  0.1987
 4849SOL    HW126180   4.699   2.632   4.038  0.3780 -2.0668  1.3030
 4849SOL    HW226181   0.071   2.736   4.023  0.4356 -0.0521  0.3095
 4850SOL     OW26182   2.628   3.530  15.490  0.1354 -0.2315 -0.6824
 4850SOL    HW126183   2.633   3.479  15.570 -0.4108  3.6087  1.7871
 4850SOL    HW226184   2.620   3.619  15.524 -0.3988 -1.1176  1.5358
 4851SOL     OW26185   4.705   0.951   8.002  0.6066 -0.1900  0.4175
 4851SOL    HW126186   4.628   0.933   8.055 -1.8361  0.2923 -2.9983
 4851SOL    HW226187   0.029   0.888   8.043 -2.1724 -1.4508  2.5062
 4852SOL     OW26188   4.149   0.047   7.830  0.0078 -0.3581 -0.2845
 4852SOL    HW126189   4.177   0.106   7.761  0.7288  1.3620  1.4739
 4852SOL    HW226190   4.216   4.715   7.819 -1.0482 -1.0813 -2.2151
 4853SOL     OW26191   1.136   3.093   4.686  0.6099  0.2862 -0.3318
 4853SOL    HW126192   1.198   3.130   4.623  1.0031  0.8856  0.4024
 4853SOL    HW226193   1.097   3.175   4.718  1.9140  1.0886 -0.7874
 4854SOL     OW26194   1.692   3.987   5.881  0.3905  0.0018 -0.2541
 4854SOL    HW126195   1.776   3.950   5.856 -0.3376 -1.4609 -0.5258
 4854SOL    HW226196   1.707   4.071   5.837  1.1628  0.5424  1.0517
 4855SOL     OW26197   2.915   0.153  11.461 -0.8426  0.2732 -0.2371
 4855SOL    HW126198   2.967   0.161  11.541 -2.4988 -0.2575  0.9064
 4855SOL    HW226199   2.952   0.218  11.402 -1.2875 -0.3816 -1.2391
 4856SOL     OW26200   0.622   1.256   4.669  0.2100 -0.6150 -0.1318
 4856SOL    HW126201   0.703   1.291   4.633 -0.7826  2.4163  0.5572
 4856SOL    HW226202   0.599   1.339   4.711 -0.9038 -0.8732 -0.2112
 4857SOL     OW26203   0.196   4.506  12.514  0.5635  0.0244  0.3893
 4857SOL    HW126204   0.240   4.584  12.481 -0.4425  0.9003  1.1457
 4857SOL    HW226205   0.196   4.454  12.434 -0.5892  0.1696  0.3046
 4858SOL     OW26206   0.389   2.199   5.056  0.4368 -0.2068 -0.2273
 4858SOL    HW126207   0.380   2.286   5.017 -2.1857 -0.2552  0.2547
 4858SOL    HW226208   0.475   2.166   5.029  0.2190 -0.2718 -0.8363
 4859SOL     OW26209   0.597   2.040  13.086  0.0274  0.0072  0.8174
 4859SOL    HW126210   0.659   1.979  13.046 -0.3379 -0.4599  0.9537
 4859SOL    HW226211   0.541   2.055  13.009  2.9549 -1.7326 -1.6461
 4860SOL     OW26212   3.886   0.365   6.050  0.5459 -0.5141  0.4128
 4860SOL    HW126213   3.899   0.385   6.143  0.1444 -1.4037  0.6573
 4860SOL    HW226214   3.892   0.270   6.054  0.0032 -0.6202 -1.6413
 4861SOL     OW26215   4.318   1.260  12.102 -0.0245  0.5722  0.3627
 4861SOL    HW126216   4.399   1.308  12.087 -0.7290  0.8412 -2.6537
 4861SOL    HW226217   4.272   1.285  12.022  1.9241  0.2794 -0.8533
 4862SOL     OW26218   0.982   0.183   4.645  0.0024  0.2078 -0.0848
 4862SOL    HW126219   1.065   0.137   4.650  0.0744  0.2825 -0.5450
 4862SOL    HW226220   0.922   0.118   4.609  2.8005 -1.9673 -0.7375
 4863SOL     OW26221   3.618   0.308   0.746  0.4683  0.2150 -0.7596
 4863SOL    HW126222   3.652   0.398   0.742 -5.3983  2.4112 -1.0038
 4863SOL    HW226223   3.701   0.265   0.770 -1.6686 -2.2008  2.2681
 4864SOL     OW26224   0.932   4.203  11.133  0.3391 -0.3144  0.0577
 4864SOL    HW126225   1.000   4.137  11.142  1.5297  0.8068 -0.6779
 4864SOL    HW226226   0.935   4.217  11.039  3.3006  1.2515  0.3953
 4865SOL     OW26227   3.048   4.433   8.392 -0.4376  0.0205 -0.6583
 4865SOL    HW126228   3.071   4.433   8.485  0.7563  1.6738 -0.9625
 4865SOL    HW226229   2.955   4.410   8.396 -0.7787  2.0418  3.1519
 4866SOL     OW26230   3.159   3.598  11.255 -0.2859 -0.2934 -0.1514
 4866SOL    HW126231   3.105   3.677  11.252  1.4159  0.9787  2.7244
 4866SOL    HW226232   3.241   3.630  11.218 -0.4139  2.3979  1.8682
 4867SOL     OW26233   4.692   4.600   8.621 -0.4694  0.6116 -0.0507
 4867SOL    HW126234   4.628   4.554   8.567  0.1369  1.7319 -1.7461
 4867SOL    HW226235   0.034   4.548   8.603 -1.0862 -0.8476  1.6193
 4868SOL     OW26236   3.299   0.411   1.549 -0.2018  0.5195  0.7059
 4868SOL    HW126237   3.229   0.451   1.497 -1.1047 -0.3255  1.2803
 4868SOL    HW226238   3.268   0.415   1.639 -1.0201 -1.2367  0.4965
 4869SOL     OW26239   0.640   0.579   4.381 -0.2147 -0.2507  0.0786
 4869SOL    HW126240   0.703   0.608   4.447 -0.2015 -0.9493  0.3666
 4869SOL    HW226241   0.575   0.649   4.384  0.7243  0.6582 -0.9237
 4870SOL     OW26242   1.188   1.532   4.857 -0.3181  0.4937  1.0999
 4870SOL    HW126243   1.260   1.593   4.874  0.0165  0.3607  0.1555
 4870SOL    HW226244   1.212   1.470   4.926  2.6595  0.9332  0.4650
 4871SOL     OW26245   2.020   0.414  15.048 -0.2775 -0.1485  0.0801
 4871SOL    HW126246   2.028   0.439  14.956 -0.9827 -1.2081 -0.2681
 4871SOL    HW226247   2.097   0.358  15.053 -0.8683 -1.0852 -1.1772
 4872SOL     OW26248   3.537   0.511   2.573 -0.4458 -0.3908  0.4829
 4872SOL    HW126249   3.514   0.426   2.535  0.0928 -0.0216 -0.6551
 4872SOL    HW226250   3.628   0.525   2.549  0.3027 -1.6148  2.5671
 4873SOL     OW26251   4.101   2.268   8.878  0.3977 -0.3005  0.4134
 4873SOL    HW126252   4.040   2.252   8.807 -0.1271  2.2168  0.2745
 4873SOL    HW226253   4.115   2.180   8.911  0.2213 -0.8926 -1.0936
 4874SOL     OW26254   3.052   1.072   5.523 -0.2984  0.0141 -0.0738
 4874SOL    HW126255   2.996   1.143   5.492 -1.6121 -0.5914  0.9136
 4874SOL    HW226256   3.138   1.097   5.491 -0.1686 -0.0270  0.2415
 4875SOL     OW26257   4.550   0.576   9.574 -0.0829 -0.1554 -0.3605
 4875SOL    HW126258   4.581   0.662   9.602 -1.3151 -0.0352  0.6710
 4875SOL    HW226259   4.463   0.585   9.614  0.0662  0.1364 -0.1021
 4876SOL     OW26260   2.417   2.142   4.775  0.1105 -0.2510  0.2030
 4876SOL    HW126261   2.483   2.141   4.844  0.7368 -3.1021 -0.4677
 4876SOL    HW226262   2.351   2.092   4.823 -1.2150  2.0624  0.7881
 4877SOL     OW26263   2.860   3.870   7.229 -0.3835  0.5326 -0.4287
 4877SOL    HW126264   2.916   3.808   7.183 -0.4445  0.4135 -0.3413
 4877SOL    HW226265   2.926   3.934   7.255 -0.9211  0.0001  2.2626
 4878SOL     OW26266   1.620   3.020   0.374  0.6292 -0.2067 -0.3609
 4878SOL    HW126267   1.670   2.943   0.346  0.0205 -0.4073 -0.9005
 4878SOL    HW226268   1.611   2.996   0.467 -0.5148 -1.2625 -0.7419
 4879SOL     OW26269   0.270   1.972  13.808 -0.1965 -0.4067  0.3478
 4879SOL    HW126270   0.219   1.904  13.854 -1.2293  0.5243  0.5695
 4879SOL    HW226271   0.202   1.994  13.745  0.6846 -1.1330 -0.8719
 4880SOL     OW26272   1.100   2.869  10.392 -0.1010 -0.5622 -0.5316
 4880SOL    HW126273   1.004   2.862  10.389 -0.1487 -0.4746  1.2188
 4880SOL    HW226274   1.110   2.963  10.409  0.4192 -0.9871  1.4757
 4881SOL     OW26275   1.798   0.878   6.640 -0.6408 -0.0484 -0.1908
 4881SOL    HW126276   1.772   0.964   6.606 -1.9714 -0.9872 -1.5018
 4881SOL    HW226277   1.891   0.880   6.663 -0.3620 -0.0970 -1.3049
 4882SOL     OW26278   0.121   3.132  10.092 -0.3366  0.1877 -0.0914
 4882SOL    HW126279   0.190   3.117  10.157 -0.2686  0.3551 -0.1248
 4882SOL    HW226280   0.075   3.205  10.134 -1.9430 -0.2025 -1.1707
 4883SOL     OW26281   3.582   1.099  16.238 -0.2123  0.2476  0.2655
 4883SOL    HW126282   3.657   1.158  16.240  1.4043 -1.7967  0.0064
 4883SOL    HW226283   3.611   1.041  16.309 -1.8923 -1.3303 -0.3289
 4884SOL     OW26284   1.690   4.385   9.592 -0.7292  0.3255 -0.8027
 4884SOL    HW126285   1.693   4.350   9.503 -0.2607  0.5086 -0.8562
 4884SOL    HW226286   1.628   4.319   9.625  1.3239 -1.3224 -0.2567
 4885SOL     OW26287   0.651   1.276   3.193  0.0370 -0.8040  0.0014
 4885SOL    HW126288   0.656   1.286   3.288 -1.7585  1.5144 -0.1596
 4885SOL    HW226289   0.684   1.187   3.182 -1.2551 -1.2230 -0.4762
 4886SOL     OW26290   3.316   3.408   0.135  0.0262  0.0809  0.0316
 4886SOL    HW126291   3.248   3.341   0.124  2.0566 -1.6663 -2.0026
 4886SOL    HW226292   3.368   3.407   0.054 -0.9953  1.8856 -0.6372
 4887SOL     OW26293   3.539   1.053   0.039 -0.1461 -0.4769  0.5166
 4887SOL    HW126294   3.495   1.109   0.103  0.9709  0.9546  0.0030
 4887SOL    HW226295   3.507   1.067  17.692  0.1298  1.8263  0.7930
 4888SOL     OW26296   4.609   3.249  13.086 -0.0454  0.3757  0.1952
 4888SOL    HW126297   4.674   3.278  13.022  0.1025  0.0958  0.2186
 4888SOL    HW226298   4.558   3.185  13.035 -0.7742 -0.0744  1.4984
 4889SOL     OW26299   4.116   2.530   6.278  0.1321 -0.0572 -0.2153
 4889SOL    HW126300   4.201   2.527   6.322  0.4841  3.5288 -0.6099
 4889SOL    HW226301   4.151   2.560   6.194 -0.3972  2.1777  0.3623
 4890SOL     OW26302   2.213   1.754  12.289 -0.2588 -0.2721 -0.8182
 4890SOL    HW126303   2.297   1.766  12.243  0.9347  0.6132  1.5627
 4890SOL    HW226304   2.145   1.741  12.224 -1.6283 -2.4245  1.0289
 4891SOL     OW26305   3.010   2.257  15.022  0.4758 -0.8724  0.1191
 4891SOL    HW126306   3.088   2.223  14.978  1.9680 -1.0039  2.8564
 4891SOL    HW226307   3.019   2.353  15.016  0.2770 -0.8160  0.7221
 4892SOL     OW26308   0.064   1.980   2.267  0.5413 -0.4236  0.0916
 4892SOL    HW126309   0.148   2.020   2.244  0.6312  0.5441  2.0843
 4892SOL    HW226310   0.072   1.896   2.221 -1.6253  0.1448 -1.3267
 4893SOL     OW26311   3.314   1.118   6.872  0.0336 -0.2714  0.0242
 4893SOL    HW126312   3.350   1.031   6.884  0.4494 -0.2105 -0.7599
 4893SOL    HW226313   3.393   1.165   6.846 -1.5207  2.2091 -0.2964
 4894SOL     OW26314   1.752   1.112   9.166  0.2087  0.2960 -0.1203
 4894SOL    HW126315   1.752   1.069   9.081 -0.4007  1.0971 -0.5239
 4894SOL    HW226316   1.773   1.045   9.231  0.4287  0.0744 -0.4176
 4895SOL     OW26317   1.143   0.980  11.689  0.2261 -0.2288  0.5190
 4895SOL    HW126318   1.076   0.996  11.622 -0.3013 -0.3165  1.0365
 4895SOL    HW226319   1.200   1.049  11.655  1.8675 -1.6806  0.3050
 4896SOL     OW26320   3.698   2.065   3.254 -0.2102 -0.3622 -0.2480
 4896SOL    HW126321   3.753   2.083   3.178 -0.2478  1.6938  0.2107
 4896SOL    HW226322   3.686   2.154   3.287  1.2827 -0.0831 -0.4219
 4897SOL     OW26323   2.514   3.271   7.276 -0.3479 -0.1999  0.6602
 4897SOL    HW126324   2.547   3.185   7.301 -1.2118  0.1584  2.9968
 4897SOL    HW226325   2.482   3.302   7.361 -0.8555  0.4491  0.2349
 4898SOL     OW26326   3.708   3.625  13.003 -0.1627 -0.6211  0.0702
 4898SOL    HW126327   3.663   3.589  12.926  0.4957 -0.0954 -0.5647
 4898SOL    HW226328   3.753   3.552  13.045  0.1603 -0.1232  0.5951
 4899SOL     OW26329   1.002   4.232   9.879  0.5342  0.3017 -0.3056
 4899SOL    HW126330   0.934   4.196   9.935 -1.0472  2.7759 -0.6477
 4899SOL    HW226331   1.072   4.268   9.935 -1.8059  2.3326  1.3152
 4900SOL     OW26332   4.400   2.641   4.697  0.3493  0.2540 -0.1077
 4900SOL    HW126333   4.487   2.630   4.735 -0.6157 -1.1466  1.6765
 4900SOL    HW226334   4.397   2.560   4.647  0.6547  1.6181 -2.3727
 4901SOL     OW26335   1.110   1.460   4.444 -0.8181  0.1819  0.6074
 4901SOL    HW126336   1.160   1.422   4.515 -1.3315 -1.2979  0.1879
 4901SOL    HW226337   1.146   1.547   4.459 -1.1414  0.5015 -0.4677
 4902SOL     OW26338   0.868   2.570  10.620 -0.2517  0.1517  0.2456
 4902SOL    HW126339   0.908   2.586  10.705  1.4371 -2.2470 -0.1096
 4902SOL    HW226340   0.792   2.521  10.650  0.0337 -0.3723  0.1009
 4903SOL     OW26341   0.963   3.055   3.481 -0.1868 -0.0827  0.7128
 4903SOL    HW126342   0.970   3.053   3.385  0.5502  0.0706  0.7629
 4903SOL    HW226343   0.921   3.139   3.497 -1.1570 -0.7569  1.6229
 4904SOL     OW26344   1.000   4.016   4.021 -0.6340  0.5013  0.0512
 4904SOL    HW126345   0.978   4.108   4.008  0.1107  0.7537  0.5495
 4904SOL    HW226346   1.058   4.016   4.097 -0.5430 -1.4358 -0.0105
 4905SOL     OW26347   0.637   0.308   1.294  0.9534 -0.1812 -0.5019
 4905SOL    HW126348   0.726   0.320   1.325  0.5603  1.1389  0.0889
 4905SOL    HW226349   0.613   0.229   1.343 -1.4183  0.6913 -0.2449
 4906SOL     OW26350   1.082   3.504   2.108  0.5789 -0.3339  0.2763
 4906SOL    HW126351   0.994   3.491   2.143  0.1846  2.3678  0.2535
 4906SOL    HW226352   1.079   3.421   2.060 -2.1535 -0.0835  0.0098
 4907SOL     OW26353   0.321   4.235   5.086  0.2679  0.0037 -0.1093
 4907SOL    HW126354   0.347   4.145   5.106  1.2375  0.8861  2.6717
 4907SOL    HW226355   0.237   4.245   5.131  0.7838 -1.2666  1.1383
 4908SOL     OW26356   4.285   0.799   6.625 -0.3393  0.2814 -0.1887
 4908SOL    HW126357   4.265   0.851   6.703  2.1488  1.4034 -0.2679
 4908SOL    HW226358   4.227   0.850   6.568 -1.3357 -0.1844  0.4290
 4909SOL     OW26359   0.921   0.424  11.001 -0.3742  0.5564  0.0466
 4909SOL    HW126360   0.836   0.468  10.998 -0.2385  0.9824  2.3815
 4909SOL    HW226361   0.979   0.500  10.992  1.7790 -1.1773 -0.5938
 4910SOL     OW26362   0.953   2.405   2.127 -0.1334  0.3984 -0.1452
 4910SOL    HW126363   0.970   2.395   2.221  0.9264 -2.2778 -0.6244
 4910SOL    HW226364   0.997   2.324   2.102  1.7024  0.7563  1.9215
 4911SOL     OW26365   3.874   0.136   5.319 -0.0724 -0.4394 -0.2163
 4911SOL    HW126366   3.900   0.227   5.333 -0.1225 -0.3300 -0.8148
 4911SOL    HW226367   3.947   0.088   5.359 -0.9794 -1.1145  0.6078
 4912SOL     OW26368   2.657   1.821  11.814  0.1589  0.0019  0.9593
 4912SOL    HW126369   2.568   1.842  11.786  0.3790 -0.8471 -0.3901
 4912SOL    HW226370   2.644   1.813  11.909 -0.0402 -2.0924  0.7571
 4913SOL     OW26371   3.047   3.377  12.323 -0.2453  0.2743 -0.8378
 4913SOL    HW126372   3.089   3.401  12.406 -2.1308 -0.0237  0.2106
 4913SOL    HW226373   3.039   3.282  12.335  1.6644  0.4721  1.9754
 4914SOL     OW26374   2.932   0.951   6.027 -0.0622  0.2441  0.4305
 4914SOL    HW126375   2.941   1.001   5.946 -0.9083  1.5799  1.1390
 4914SOL    HW226376   2.929   0.862   5.994 -1.0016  0.2315  0.5299
 4915SOL     OW26377   4.477   4.372   4.471 -0.0873 -0.5977  0.1894
 4915SOL    HW126378   4.508   4.307   4.535 -1.3667 -1.1567  0.2511
 4915SOL    HW226379   4.449   4.444   4.527 -2.4291 -1.0021 -0.4424
 4916SOL     OW26380   3.211   2.177   4.449  0.3846 -0.5548  0.5306
 4916SOL    HW126381   3.185   2.203   4.361  0.8114  1.8112  1.1038
 4916SOL    HW226382   3.130   2.165   4.498  0.8630  0.1816  1.5037
 4917SOL     OW26383   1.463   3.082   5.305  0.3960 -0.0283  0.1327
 4917SOL    HW126384   1.541   3.136   5.294  1.3655 -1.7273 -1.1023
 4917SOL    HW226385   1.448   3.070   5.212 -2.0539  3.0807  0.1075
 4918SOL     OW26386   2.053   2.802   7.352  0.3599 -0.1757 -0.1447
 4918SOL    HW126387   2.008   2.870   7.401 -3.0491 -0.5301 -2.7860
 4918SOL    HW226388   2.014   2.792   7.265  0.3593 -1.8864  0.0533
 4919SOL     OW26389   2.125   0.463  12.673  0.2859 -0.0738 -0.9932
 4919SOL    HW126390   2.147   0.449  12.765  1.4150  0.6576 -1.1489
 4919SOL    HW226391   2.041   0.509  12.674  1.8028  2.7576 -0.7655
 4920SOL     OW26392   2.816   3.426  16.363 -0.0260 -0.1539 -0.3597
 4920SOL    HW126393   2.738   3.464  16.322  0.3605  0.0324 -0.9216
 4920SOL    HW226394   2.850   3.368  16.296 -0.9045 -1.6422  0.4846
 4921SOL     OW26395   3.784   2.734  10.987 -0.7884  0.6439 -0.3920
 4921SOL    HW126396   3.777   2.768  11.076  1.8015  1.3033 -0.4452
 4921SOL    HW226397   3.745   2.648  11.003  0.7531 -0.0224 -0.2028
 4922SOL     OW26398   2.625   2.321   9.127  0.3390  0.0259  0.5369
 4922SOL    HW126399   2.537   2.343   9.159  1.8442 -0.0053  4.5800
 4922SOL    HW226400   2.630   2.388   9.058  0.9237 -2.0231 -1.3982
 4923SOL     OW26401   1.980   2.894   9.897 -0.1302 -0.0297  0.2995
 4923SOL    HW126402   2.070   2.875   9.926  0.9489  2.5513 -1.4165
 4923SOL    HW226403   1.987   2.911   9.803  0.7693 -1.3343  0.1238
 4924SOL     OW26404   0.419   2.779   5.096  0.4749 -0.3294  0.1541
 4924SOL    HW126405   0.507   2.791   5.061 -0.9451  2.0605 -2.5848
 4924SOL    HW226406   0.376   2.861   5.119 -0.1213 -1.1005  1.8107
 4925SOL     OW26407   3.853   3.641   4.663  0.2263  0.5631 -0.0678
 4925SOL    HW126408   3.948   3.632   4.669 -0.0618 -1.9496  1.1084
 4925SOL    HW226409   3.838   3.646   4.569 -1.3881  0.2648  0.1836
 4926SOL     OW26410   1.370   3.576   8.762  0.5134  0.5951 -0.5027
 4926SOL    HW126411   1.365   3.567   8.857  2.2796  1.9705 -0.2770
 4926SOL    HW226412   1.459   3.554   8.734  0.7759 -0.4828  1.1727
 4927SOL     OW26413   4.514   4.042   7.725 -0.5022  0.2643  0.2858
 4927SOL    HW126414   4.599   4.086   7.732  1.4505 -3.3125 -1.3270
 4927SOL    HW226415   4.469   4.040   7.809 -1.8080 -2.2521 -0.5011
 4928SOL     OW26416   1.743   0.470   9.660 -0.0547 -0.1351 -0.2559
 4928SOL    HW126417   1.649   0.454   9.666  0.1821 -0.9786  1.3697
 4928SOL    HW226418   1.769   0.384   9.629 -0.0389 -0.6447  1.1491
 4929SOL     OW26419   3.900   3.802   7.608  0.0462 -0.2811  0.0511
 4929SOL    HW126420   3.979   3.780   7.657 -0.7358 -1.7149  0.6738
 4929SOL    HW226421   3.943   3.858   7.544 -0.1961 -0.1920 -0.0363
 4930SOL     OW26422   4.691   3.532   6.267 -0.0146  0.1694 -0.0112
 4930SOL    HW126423   4.665   3.450   6.225  2.6488 -0.4714 -0.4134
 4930SOL    HW226424   4.624   3.549   6.334 -0.7312  2.2544 -1.2257
 4931SOL     OW26425   3.539   2.644   6.814  0.3523  0.2820  0.0056
 4931SOL    HW126426   3.511   2.676   6.728 -1.6144 -0.6582  0.2895
 4931SOL    HW226427   3.608   2.579   6.799  2.0593  2.0257  0.2674
 4932SOL     OW26428   2.897   3.516  11.408  0.1267  0.2609 -0.2172
 4932SOL    HW126429   2.982   3.482  11.378 -0.1844  1.1139 -2.0371
 4932SOL    HW226430   2.919   3.563  11.488 -0.9282  0.6289 -0.1534
 4933SOL     OW26431   0.557   0.042  10.874  0.3786 -0.2974 -0.2752
 4933SOL    HW126432   0.597   4.692  10.863  1.0730  0.1771 -1.4631
 4933SOL    HW226433   0.512   0.020  10.956 -2.2569  0.2111 -1.5765
 4934SOL     OW26434   2.560   4.376  10.613  0.1615  0.0859 -0.2881
 4934SOL    HW126435   2.591   4.287  10.596 -0.0034  0.1235 -0.8000
 4934SOL    HW226436   2.623   4.408  10.677 -1.2827  0.7637  0.7894
 4935SOL     OW26437   4.070   3.558   3.427  1.1071 -0.2108  0.2095
 4935SOL    HW126438   4.129   3.610   3.481  1.6429  1.0221 -1.5795
 4935SOL    HW226439   4.007   3.627   3.406  1.8457  0.4351  0.1184
 4936SOL     OW26440   3.955   0.991  10.129 -0.4017 -0.3040 -0.1130
 4936SOL    HW126441   3.963   1.085  10.143  1.6363 -0.2733 -1.5521
 4936SOL    HW226442   3.884   0.961  10.186 -0.3899  0.5476  0.3617
 4937SOL     OW26443   1.454   0.907   5.987 -0.3869  0.4499  0.4642
 4937SOL    HW126444   1.462   0.996   5.952 -1.8910  0.4700  0.2049
 4937SOL    HW226445   1.408   0.871   5.911  0.2759 -0.1702  0.3501
 4938SOL     OW26446   0.937   1.952   3.327 -0.6225 -0.0896  0.0469
 4938SOL    HW126447   0.849   1.914   3.329 -0.4300 -0.4382  1.3946
 4938SOL    HW226448   0.910   2.041   3.351 -2.1509 -0.5057 -0.1378
 4939SOL     OW26449   1.230   0.415  15.556  0.5969  0.3548  0.2751
 4939SOL    HW126450   1.195   0.473  15.489 -2.5953  1.4139  2.8460
 4939SOL    HW226451   1.230   0.332  15.510  1.2254  0.9602 -0.8128
 4940SOL     OW26452   2.723   3.649   1.630  0.2101 -0.0341  0.1470
 4940SOL    HW126453   2.731   3.633   1.724 -0.6493  1.6458  0.5007
 4940SOL    HW226454   2.792   3.714   1.614  1.1535 -0.5791  2.0636
 4941SOL     OW26455   3.317   0.128   1.393 -0.8502  0.2906 -0.0206
 4941SOL    HW126456   3.343   0.201   1.449 -0.4732 -0.7924  1.2156
 4941SOL    HW226457   3.293   0.071   1.466 -1.1491 -0.6588 -0.8785
 4942SOL     OW26458   1.648   2.266   7.345 -0.2907 -0.9162 -0.3933
 4942SOL    HW126459   1.661   2.358   7.323 -1.1379 -0.6938  0.0314
 4942SOL    HW226460   1.553   2.264   7.358 -0.4837 -0.8308 -1.7499
 4943SOL     OW26461   2.527   3.367   6.334  0.4533 -0.5870  0.4817
 4943SOL    HW126462   2.560   3.329   6.416  0.8429  0.9459  1.0429
 4943SOL    HW226463   2.602   3.419   6.307  1.8766 -0.6825  4.2103
 4944SOL     OW26464   4.040   2.816   8.322  0.1910  0.2320 -0.0283
 4944SOL    HW126465   4.125   2.847   8.291 -0.5487  0.5733 -1.7394
 4944SOL    HW226466   4.065   2.726   8.341 -0.2064 -0.4735 -2.7995
 4945SOL     OW26467   3.097   4.010   7.664 -0.1007  0.1212 -0.4036
 4945SOL    HW126468   3.022   3.979   7.715 -0.7835  1.3925 -0.6289
 4945SOL    HW226469   3.086   4.104   7.679  2.1190  0.0046  1.8260
 4946SOL     OW26470   0.674   0.299   4.349  0.2965  0.2130  0.3051
 4946SOL    HW126471   0.586   0.279   4.380  0.0284  2.2017  0.8483
 4946SOL    HW226472   0.678   0.392   4.369  1.1396  0.2562 -0.0525
 4947SOL     OW26473   3.007   2.112   6.511  0.0665  0.0336  0.0884
 4947SOL    HW126474   2.953   2.137   6.585 -1.0483 -0.1969 -0.6440
 4947SOL    HW226475   2.978   2.022   6.491  1.8572 -0.1966 -1.5167
 4948SOL     OW26476   4.166   0.580  13.616  0.0597  0.0938 -0.3253
 4948SOL    HW126477   4.141   0.640  13.545  2.0077  0.3348 -0.8067
 4948SOL    HW226478   4.232   0.530  13.568  0.5312  1.7131 -1.4005
 4949SOL     OW26479   0.813   0.465  13.008 -0.1994 -0.1575  0.1486
 4949SOL    HW126480   0.781   0.396  12.951  0.3936  0.4208 -0.8990
 4949SOL    HW226481   0.744   0.531  13.003  1.1368  1.3244  0.9011
 4950SOL     OW26482   4.297   0.009   8.809 -0.1775 -0.7286  0.1307
 4950SOL    HW126483   4.389   4.724   8.796 -0.2283 -0.2470 -0.9193
 4950SOL    HW226484   4.255   4.733   8.724 -1.0537  0.2200  0.4334
 4951SOL     OW26485   1.799   4.225  10.274  0.9702  0.6262  0.7720
 4951SOL    HW126486   1.871   4.264  10.224 -1.6892  1.8531 -2.0535
 4951SOL    HW226487   1.734   4.294  10.264  1.8368  1.2058 -0.8867
 4952SOL     OW26488   3.597   2.574  11.998  0.1033 -0.0298  0.4015
 4952SOL    HW126489   3.632   2.555  12.085  3.8561  1.5192 -0.7675
 4952SOL    HW226490   3.677   2.543  11.956 -1.2408 -2.6494 -0.2265
 4953SOL     OW26491   0.010   3.134   1.724  0.4721  0.0833  0.9685
 4953SOL    HW126492   0.054   3.091   1.797 -1.5126  1.5029  2.9891
 4953SOL    HW226493   0.062   3.213   1.707  1.1450 -0.5582  0.0136
 4954SOL     OW26494   3.298   4.347   2.696  0.8310  0.0116 -0.1247
 4954SOL    HW126495   3.251   4.326   2.777  0.4673 -2.6367 -1.0012
 4954SOL    HW226496   3.372   4.397   2.728  1.0607 -1.0624  1.0233
 4955SOL     OW26497   4.695   4.009   3.594  0.2568  0.0270  0.3258
 4955SOL    HW126498   4.697   4.101   3.567 -0.1790 -0.3775 -1.0590
 4955SOL    HW226499   4.645   4.005   3.676  0.2864 -1.2448  0.2790
 4956SOL     OW26500   3.578   3.360   1.319 -0.3393 -0.1296 -0.3131
 4956SOL    HW126501   3.579   3.453   1.297  1.2234 -0.4570 -1.5985
 4956SOL    HW226502   3.504   3.360   1.381  1.6004  1.1791  1.9703
 4957SOL     OW26503   0.661   4.251  11.467  0.1527 -0.0733 -0.3503
 4957SOL    HW126504   0.613   4.194  11.408 -1.1890  0.2812  0.4047
 4957SOL    HW226505   0.600   4.252  11.540  0.1779  3.8237 -0.3990
 4958SOL     OW26506   2.737   1.840   6.839  0.2087  0.1987  0.7991
 4958SOL    HW126507   2.646   1.860   6.818  1.1674  1.4283 -2.3290
 4958SOL    HW226508   2.723   1.766   6.897 -0.6710  0.5922  1.0934
 4959SOL     OW26509   1.392   4.399   6.737  0.1241  0.4100  0.0926
 4959SOL    HW126510   1.405   4.343   6.661  0.5264 -0.7484  1.0120
 4959SOL    HW226511   1.340   4.470   6.698 -0.5323  0.1328  0.4622
 4960SOL     OW26512   4.483   3.122   5.501  0.5358 -0.0546  0.2343
 4960SOL    HW126513   4.488   3.094   5.592  0.1914 -1.4682 -0.1817
 4960SOL    HW226514   4.401   3.077   5.478  0.3623  0.9877 -1.1643
 4961SOL     OW26515   2.095   3.297   6.170  0.3888 -0.2484 -0.5072
 4961SOL    HW126516   2.129   3.304   6.259 -0.0840 -2.7884 -0.1355
 4961SOL    HW226517   2.010   3.258   6.191  0.6510 -0.1112  0.8192
 4962SOL     OW26518   1.341   2.668   2.292 -0.0859 -0.3533  0.3624
 4962SOL    HW126519   1.301   2.751   2.266  0.3454  0.5488  2.6005
 4962SOL    HW226520   1.293   2.609   2.234 -0.9519  0.7247 -0.0131
 4963SOL     OW26521   4.015   3.535   7.386  0.4528  0.4079 -0.2701
 4963SOL    HW126522   4.098   3.488   7.380  0.1057 -0.1334 -0.9691
 4963SOL    HW226523   3.962   3.483   7.325  0.9297  1.5835 -1.6848
 4964SOL     OW26524   3.438   1.054   1.164 -0.0970  0.2308 -0.5478
 4964SOL    HW126525   3.421   1.125   1.102 -0.1105  1.1201  0.4652
 4964SOL    HW226526   3.393   1.089   1.241 -1.0258 -1.1969 -0.4358
 4965SOL     OW26527   1.951   3.191   9.289 -0.4074 -0.0943  0.4787
 4965SOL    HW126528   1.930   3.232   9.205 -2.0068 -0.5863  0.6455
 4965SOL    HW226529   2.032   3.144   9.268 -0.5230  0.2376 -0.6854
 4966SOL     OW26530   3.580   2.154  10.123  0.2459  0.6679 -0.2284
 4966SOL    HW126531   3.650   2.218  10.136 -0.8009  1.4897  1.3157
 4966SOL    HW226532   3.578   2.109  10.208 -0.1630  1.1385  0.0069
 4967SOL     OW26533   2.904   3.864   5.545 -0.0376  0.4910 -0.0123
 4967SOL    HW126534   2.883   3.772   5.527 -2.1127  0.5280  2.2147
 4967SOL    HW226535   2.968   3.843   5.613 -0.9927  0.4050  0.8616
 4968SOL     OW26536   2.306   4.663   8.389  0.4919 -0.2162 -0.2335
 4968SOL    HW126537   2.368   4.624   8.327 -2.0607 -1.7907 -1.8049
 4968SOL    HW226538   2.363   4.687   8.462  0.7720 -0.5132 -0.3534
 4969SOL     OW26539   1.743   3.731   9.392 -0.2929  0.0877 -0.2308
 4969SOL    HW126540   1.667   3.789   9.395 -0.5174 -0.1490 -1.6192
 4969SOL    HW226541   1.811   3.798   9.400  0.7785 -0.8802 -1.1030
 4970SOL     OW26542   2.177   2.065   5.703 -0.7094 -0.4356 -0.2386
 4970SOL    HW126543   2.211   2.018   5.779  1.0263  0.9029 -0.1923
 4970SOL    HW226544   2.115   2.127   5.740 -1.2418  0.1785 -2.1750
 4971SOL     OW26545   4.468   0.851  17.165 -0.1069 -0.2407  0.0222
 4971SOL    HW126546   4.493   0.915  17.232 -1.2571 -0.0059  0.2301
 4971SOL    HW226547   4.516   0.888  17.091  2.0974 -1.4234  0.8691
 4972SOL     OW26548   2.667   0.534   6.279 -0.1775 -0.3750 -0.0963
 4972SOL    HW126549   2.670   0.612   6.224 -0.3360  0.1682  0.6597
 4972SOL    HW226550   2.576   0.505   6.270 -0.5067  1.5029 -2.7855
 4973SOL     OW26551   4.374   1.768   3.042  0.2626  0.4054  0.5259
 4973SOL    HW126552   4.455   1.813   3.066  0.6380  0.4832 -0.8623
 4973SOL    HW226553   4.316   1.802   3.110 -2.2023 -1.2295 -0.7710
 4974SOL     OW26554   2.122   0.629   5.001  0.3961  0.1985  0.0418
 4974SOL    HW126555   2.055   0.686   4.964  1.6926  0.5958 -1.7127
 4974SOL    HW226556   2.147   0.681   5.077  1.7662 -1.8908  1.0451
 4975SOL     OW26557   0.964   0.597   5.167  0.3920 -0.6265  0.3594
 4975SOL    HW126558   0.911   0.672   5.142  3.5731  0.8239 -2.0322
 4975SOL    HW226559   1.048   0.640   5.150 -1.0003  1.9388 -0.0119
 4976SOL     OW26560   0.455   1.243   5.628 -0.3288 -0.6128 -0.2784
 4976SOL    HW126561   0.488   1.160   5.662  2.2527  0.2045 -0.7928
 4976SOL    HW226562   0.517   1.315   5.639 -0.4682 -0.8994  2.4121
 4977SOL     OW26563   4.250   4.666  15.955 -0.6668  0.0881  0.7650
 4977SOL    HW126564   4.214   4.596  15.901  1.4987  0.7836 -1.5577
 4977SOL    HW226565   4.169   4.706  15.987 -1.4547  0.4205 -1.6548
 4978SOL     OW26566   0.910   0.050   3.975  0.4007  0.4324 -0.2410
 4978SOL    HW126567   0.863   0.110   3.917 -1.7309  0.8466  1.9056
 4978SOL    HW226568   0.998   0.082   3.952  0.8818 -0.5305  0.2666
 4979SOL     OW26569   0.203   3.724   4.317 -0.2097  0.4347 -0.0357
 4979SOL    HW126570   0.270   3.660   4.340 -0.6947  0.2226  0.7837
 4979SOL    HW226571   0.176   3.698   4.229 -0.0425 -0.2110  0.1060
 4980SOL     OW26572   0.207   1.697   5.527 -0.5364 -0.5784 -0.0518
 4980SOL    HW126573   0.172   1.721   5.442 -0.0731 -1.6957 -0.5578
 4980SOL    HW226574   0.133   1.639   5.545  0.7128 -2.2643 -0.2960
 4981SOL     OW26575   4.221   3.941   5.632  0.2253 -0.2416 -0.3791
 4981SOL    HW126576   4.273   3.974   5.559  0.0556  2.3750  0.6552
 4981SOL    HW226577   4.291   3.892   5.674  0.4467 -0.4046 -0.9381
 4982SOL     OW26578   4.453   3.968  14.590  0.5977 -0.2950 -0.0474
 4982SOL    HW126579   4.482   3.972  14.681  0.2609 -2.3269  0.1573
 4982SOL    HW226580   4.538   3.947  14.550  0.6954 -0.1031  0.0566
 4983SOL     OW26581   3.778   2.641   0.048  0.3466  0.1326 -0.9298
 4983SOL    HW126582   3.815   2.564   0.005  0.2623 -1.2072  1.3847
 4983SOL    HW226583   3.738   2.690  17.718  1.1344  1.5040 -0.4421
 4984SOL     OW26584   0.598   3.256  16.873  0.3047 -0.8685 -0.4291
 4984SOL    HW126585   0.598   3.187  16.807  2.9976  0.1309 -1.5019
 4984SOL    HW226586   0.661   3.235  16.943  0.5103  2.0763  0.2904
 4985SOL     OW26587   0.474   0.261   8.637 -0.0633  0.1443 -0.2190
 4985SOL    HW126588   0.409   0.245   8.705 -0.6214  1.8356 -0.3458
 4985SOL    HW226589   0.445   0.343   8.597 -0.7613  0.1891  0.3704
 4986SOL     OW26590   1.602   4.708   2.794  0.2364 -0.1981 -0.4156
 4986SOL    HW126591   1.561   4.622   2.799 -1.7189  0.6853 -1.2950
 4986SOL    HW226592   1.537   0.012   2.736 -0.6590 -1.1697 -0.0686
 4987SOL     OW26593   3.490   0.222  15.725  0.0498  0.1913  0.3557
 4987SOL    HW126594   3.555   0.243  15.791  0.3474  1.4143 -0.3081
 4987SOL    HW226595   3.528   0.269  15.650  0.1314 -0.1978  0.1524
 4988SOL     OW26596   2.960   3.548   7.666  0.1060  0.4416 -0.6418
 4988SOL    HW126597   2.962   3.469   7.719  0.8608  1.4254  0.7840
 4988SOL    HW226598   3.050   3.545   7.636 -0.5814 -1.7217 -2.4571
 4989SOL     OW26599   4.373   0.127   3.132  0.0168  0.8886  0.7536
 4989SOL    HW126600   4.310   0.059   3.157  1.1548 -1.3805 -2.5875
 4989SOL    HW226601   4.321   0.208   3.133  0.0503  0.9107  0.6874
 4990SOL     OW26602   0.986   4.718  15.457  0.2728 -1.1915 -0.6394
 4990SOL    HW126603   0.963   4.628  15.434 -2.8838  0.1736 -2.7713
 4990SOL    HW226604   0.981   0.015  15.367  2.0377 -0.4064 -0.4472
 4991SOL     OW26605   2.382   0.335   4.448  0.2037  1.2595  0.1187
 4991SOL    HW126606   2.374   0.243   4.422  0.7334  0.8490  1.4466
 4991SOL    HW226607   2.370   0.375   4.362  1.8758 -0.3297 -0.8554
 4992SOL     OW26608   2.942   1.259   0.271  0.4395 -0.0286  0.3176
 4992SOL    HW126609   2.936   1.283   0.363  1.1764 -2.3069  0.9678
 4992SOL    HW226610   2.864   1.300   0.235 -0.3967 -1.4853  0.4715
 4993SOL     OW26611   2.324   2.773  17.692 -0.0936  0.0854 -0.0810
 4993SOL    HW126612   2.319   2.810   0.038 -1.1966  2.8706 -1.3034
 4993SOL    HW226613   2.383   2.700  17.711 -0.4521  0.0229  0.7756
 4994SOL     OW26614   2.020   1.293   9.661  0.4889 -0.4957 -0.0024
 4994SOL    HW126615   1.935   1.266   9.627  0.1252 -1.1781  1.4373
 4994SOL    HW226616   2.034   1.213   9.712 -0.5495 -0.3568  0.4981
 4995SOL     OW26617   4.452   1.160  15.460  0.2762  0.5167  0.2826
 4995SOL    HW126618   4.538   1.138  15.496  0.1832  1.4585  1.0698
 4995SOL    HW226619   4.423   1.226  15.523 -0.2296  0.0376  0.5509
 4996SOL     OW26620   3.860   0.885   5.352 -0.1848  0.0081  0.2857
 4996SOL    HW126621   3.808   0.805   5.341  0.8604 -0.3886 -1.9282
 4996SOL    HW226622   3.795   0.945   5.388 -2.3195 -2.0518 -0.1289
 4997SOL     OW26623   0.219   3.930   9.814 -0.2260  0.0844 -0.2249
 4997SOL    HW126624   0.141   3.948   9.761  0.8460 -0.7018 -2.0888
 4997SOL    HW226625   0.220   3.835   9.825 -0.8696  0.1268  0.1550
 4998SOL     OW26626   4.512   3.346   5.112 -0.0805  0.6693  0.0981
 4998SOL    HW126627   4.472   3.424   5.074  0.1545  0.5313 -0.4337
 4998SOL    HW226628   4.585   3.389   5.158 -1.7635  2.6700  0.9208
 4999SOL     OW26629   1.120   0.202   8.240  0.6720 -0.0773 -0.3045
 4999SOL    HW126630   1.166   0.272   8.286 -1.2588  0.5481  0.6731
 4999SOL    HW226631   1.052   0.255   8.199  0.5448 -0.4418 -0.5650
 5000SOL     OW26632   0.744   1.911   8.678 -0.2426  0.5978 -0.1034
 5000SOL    HW126633   0.798   1.863   8.741  0.2719 -1.8409 -2.4241
 5000SOL    HW226634   0.795   1.990   8.659 -1.4862  1.8635  1.7474
 5001SOL     OW26635   2.598   3.810   4.628  0.4258  0.9910  0.7951
 5001SOL    HW126636   2.592   3.743   4.560  0.6515 -0.1895  1.9183
 5001SOL    HW226637   2.528   3.866   4.596 -1.0952 -1.4258 -0.1342
 5002SOL     OW26638   4.036   3.798   6.825  0.3396 -0.5740 -0.2297
 5002SOL    HW126639   3.972   3.742   6.781 -0.8963  0.6467 -0.0330
 5002SOL    HW226640   4.097   3.822   6.755  1.0003  0.6263  0.7548
 5003SOL     OW26641   2.026   3.667   3.551 -0.1205 -0.2017 -0.0809
 5003SOL    HW126642   2.001   3.635   3.464 -1.4547  0.0359  0.2257
 5003SOL    HW226643   1.949   3.653   3.605  0.4578  0.4390  0.9129
 5004SOL     OW26644   1.889   0.376   5.547 -0.4106 -0.1642  0.3553
 5004SOL    HW126645   1.910   0.283   5.541 -0.8877 -0.2071 -0.5451
 5004SOL    HW226646   1.973   0.418   5.528  0.5687 -1.4860  1.7753
 5005SOL     OW26647   2.726   3.330   4.341  0.8592 -0.0900  0.2592
 5005SOL    HW126648   2.736   3.422   4.316 -1.3751  0.0459 -0.1241
 5005SOL    HW226649   2.633   3.319   4.362  1.2390 -1.4508  1.2286
 5006SOL     OW26650   0.413   1.408   4.093 -0.2219  0.1936  0.5315
 5006SOL    HW126651   0.497   1.372   4.121 -0.8452 -2.6965 -1.2483
 5006SOL    HW226652   0.368   1.421   4.177 -2.6723 -3.4542 -0.1764
 5007SOL     OW26653   2.551   4.723   5.258  0.1080  0.2342 -0.6873
 5007SOL    HW126654   2.559   0.056   5.325  0.3814  0.7668 -1.2595
 5007SOL    HW226655   2.546   4.646   5.314  1.0531  1.2305  0.7730
 5008SOL     OW26656   2.899   2.278   6.747  0.3168 -0.1716  0.0624
 5008SOL    HW126657   2.806   2.301   6.751  0.2269 -0.4718 -0.2489
 5008SOL    HW226658   2.898   2.242   6.835 -1.9817 -1.5332 -0.4915
 5009SOL     OW26659   2.224   3.806  11.887 -0.5668  0.0845 -0.2690
 5009SOL    HW126660   2.148   3.851  11.852 -1.2235 -2.0173 -1.5106
 5009SOL    HW226661   2.279   3.884  11.889  0.8557 -0.9865  3.0796
 5010SOL     OW26662   1.852   3.495   1.268 -0.0898  0.7652  0.1569
 5010SOL    HW126663   1.910   3.436   1.316 -3.4554 -1.5430  1.3991
 5010SOL    HW226664   1.898   3.507   1.185 -0.4641  1.7739  0.0936
 5011SOL     OW26665   3.903   4.227   3.377 -0.1477 -0.3663  0.0145
 5011SOL    HW126666   3.895   4.144   3.330  1.9399 -1.4994  1.6308
 5011SOL    HW226667   3.982   4.266   3.338  1.4106  0.3089  3.8273
 5012SOL     OW26668   1.819   3.588   6.005 -0.3962  0.2318 -0.5219
 5012SOL    HW126669   1.724   3.588   6.011 -0.3956  1.3607 -0.5827
 5012SOL    HW226670   1.846   3.679   6.018  0.3293 -0.2767  1.5943
 5013SOL     OW26671   2.960   3.874   4.808  0.2407  0.2569  0.2256
 5013SOL    HW126672   2.905   3.908   4.738  2.3250  0.5232 -1.2739
 5013SOL    HW226673   2.902   3.817   4.858  0.6197  0.6111  1.0785
 5014SOL     OW26674   4.119   0.519  13.020  0.0402 -0.2786  0.3532
 5014SOL    HW126675   4.103   0.613  13.026  1.0141  0.0230 -1.8076
 5014SOL    HW226676   4.215   0.521  13.022  0.0723 -0.7652 -0.4001
 5015SOL     OW26677   0.360   1.541   6.071  0.4921  0.3048  0.7001
 5015SOL    HW126678   0.433   1.482   6.053  1.4125  1.1627  1.5466
 5015SOL    HW226679   0.391   1.585   6.151 -1.8604 -1.1882  2.4558
 5016SOL     OW26680   4.371   0.625  17.529  0.1675  0.2769  0.0947
 5016SOL    HW126681   4.444   0.662  17.579  0.0299 -1.1457  1.3407
 5016SOL    HW226682   4.407   0.601  17.443  1.1284  0.5491  0.4177
 5017SOL     OW26683   2.912   2.949   7.618  0.4062  0.5603  0.1912
 5017SOL    HW126684   2.840   3.010   7.634  0.5631  0.8719 -0.2539
 5017SOL    HW226685   2.975   2.991   7.559 -1.3377  0.6317 -1.6054
 5018SOL     OW26686   3.675   1.065   5.477 -0.4633  0.5063 -0.5025
 5018SOL    HW126687   3.598   1.119   5.498 -0.2296  0.3338  0.8124
 5018SOL    HW226688   3.727   1.131   5.432  0.2897  0.3475  0.1292
 5019SOL     OW26689   2.146   4.513   1.186 -0.5324 -0.7241  0.1262
 5019SOL    HW126690   2.092   4.500   1.108  0.2717  2.0254 -0.8849
 5019SOL    HW226691   2.146   4.425   1.225  0.0138 -1.3682 -1.3144
 5020SOL     OW26692   4.644   0.698   8.454  0.0391  0.1592  0.7194
 5020SOL    HW126693   4.652   0.702   8.549 -0.2450 -1.6602  0.8229
 5020SOL    HW226694   4.629   0.792   8.446 -2.9009 -0.1872  2.1452
 5021SOL     OW26695   2.553   1.846   5.099 -0.0950 -0.2616  0.3500
 5021SOL    HW126696   2.637   1.804   5.085  0.5129  0.2087  2.5536
 5021SOL    HW226697   2.514   1.817   5.017 -2.5367 -0.7763  1.6536
 5022SOL     OW26698   0.282   4.159   8.184  0.1429 -0.2128  0.7177
 5022SOL    HW126699   0.244   4.151   8.271 -0.4966  1.3717  0.5854
 5022SOL    HW226700   0.370   4.172   8.219 -0.6682 -0.5081  2.8440
 5023SOL     OW26701   0.930   1.506  17.733 -0.2226  0.3063  0.4841
 5023SOL    HW126702   0.959   1.531  17.646 -0.6709  1.3026  0.6188
 5023SOL    HW226703   0.979   1.425   0.001 -0.5460 -0.2302 -2.5511
 5024SOL     OW26704   1.749   4.452   6.056  0.8690 -0.4734  0.3137
 5024SOL    HW126705   1.808   4.441   5.981  2.2868 -0.9970  1.5106
 5024SOL    HW226706   1.787   4.501   6.128 -0.1421  1.0499 -0.1746
 5025SOL     OW26707   3.131   3.957   2.498 -0.3711  0.0463 -0.4477
 5025SOL    HW126708   3.201   4.003   2.544  2.7781 -2.6049 -2.5490
 5025SOL    HW226709   3.122   3.878   2.552 -1.5343  0.7987  0.4439
 5026SOL     OW26710   2.868   1.579   6.641  0.9161 -0.5249  0.5004
 5026SOL    HW126711   2.870   1.565   6.546  0.1238  0.9768  0.2646
 5026SOL    HW226712   2.859   1.674   6.640 -4.6233 -1.0082  0.6478
 5027SOL     OW26713   2.342   3.794   7.230  0.5157 -0.2581 -0.3054
 5027SOL    HW126714   2.317   3.886   7.239  0.7499 -0.3365  1.2602
 5027SOL    HW226715   2.431   3.812   7.259  0.1058  2.5167 -0.7947
 5028SOL     OW26716   4.417   2.430   7.719 -0.6547 -0.3420  0.0787
 5028SOL    HW126717   4.413   2.434   7.623  0.8512  0.2022  0.0364
 5028SOL    HW226718   4.340   2.478   7.748  1.5012  2.8853  0.4858
 5029SOL     OW26719   3.786   3.345   1.078 -0.3213  0.3996 -0.2592
 5029SOL    HW126720   3.772   3.261   1.124 -3.2266  1.0185 -0.0091
 5029SOL    HW226721   3.741   3.321   0.997 -2.1883 -0.5572  1.0349
 5030SOL     OW26722   4.089   1.299  11.497 -0.2742  0.0413 -0.4915
 5030SOL    HW126723   4.143   1.246  11.555 -0.7629  0.7145  0.5750
 5030SOL    HW226724   4.006   1.251  11.501 -1.0081  1.2089 -1.7024
 5031SOL     OW26725   2.315   1.595  12.684 -0.0621 -0.2308 -0.3167
 5031SOL    HW126726   2.268   1.669  12.644  0.6117  0.8610  0.9092
 5031SOL    HW226727   2.362   1.551  12.614 -0.9804 -1.1965 -0.3228
 5032SOL     OW26728   1.476   4.468   2.830 -0.4033 -0.5432  0.2223
 5032SOL    HW126729   1.396   4.487   2.880  1.2318 -1.1688  3.0405
 5032SOL    HW226730   1.444   4.424   2.752 -1.2702  1.1953 -0.4201
 5033SOL     OW26731   4.660   4.203   7.032 -0.0444 -0.3390  0.5395
 5033SOL    HW126732   4.568   4.227   7.020 -0.2978 -1.8086 -0.5655
 5033SOL    HW226733   4.703   4.285   7.012  0.0347 -0.4535  0.2268
 5034SOL     OW26734   2.744   0.892   2.622 -0.7377 -0.4483  0.2701
 5034SOL    HW126735   2.796   0.817   2.650  0.8130  1.6627  3.0310
 5034SOL    HW226736   2.804   0.920   2.553 -0.5121 -1.9839 -0.1753
 5035SOL     OW26737   1.001   4.461   6.647 -0.0270 -0.5597 -0.0045
 5035SOL    HW126738   1.065   4.519   6.604  0.1335 -0.3894  0.4673
 5035SOL    HW226739   0.927   4.519   6.662  1.3575  1.2997 -0.3133
 5036SOL     OW26740   0.839   0.662  16.771  0.2489 -0.0869 -0.4971
 5036SOL    HW126741   0.893   0.647  16.693 -0.8282 -1.8694 -0.8989
 5036SOL    HW226742   0.751   0.660  16.735 -0.2532 -1.1450  0.7515
 5037SOL     OW26743   3.513   3.569   2.774 -0.6020  0.0100  0.0790
 5037SOL    HW126744   3.435   3.557   2.720  0.1685 -0.7441 -0.8644
 5037SOL    HW226745   3.568   3.500   2.738 -0.2003 -0.0343  0.7658
 5038SOL     OW26746   3.140   4.680   6.540 -0.7445 -0.6204 -0.6148
 5038SOL    HW126747   3.094   4.609   6.495  1.1254 -1.9328 -0.4600
 5038SOL    HW226748   3.079   0.014   6.517  0.0406  0.1629 -0.2898
 5039SOL     OW26749   3.342   3.796   8.319 -0.3379 -0.1757  0.2005
 5039SOL    HW126750   3.373   3.871   8.370 -2.4358  1.2044 -0.5514
 5039SOL    HW226751   3.256   3.837   8.305 -0.4650 -0.8796 -1.1019
 5040SOL     OW26752   0.259   1.437   3.769  0.1370 -0.5985 -0.0809
 5040SOL    HW126753   0.211   1.516   3.794  2.5475  0.5033  1.0546
 5040SOL    HW226754   0.351   1.460   3.776 -0.3813  1.7086 -0.7932
 5041SOL     OW26755   3.759   0.078   1.124 -0.3903  0.8067  0.0723
 5041SOL    HW126756   3.686   0.077   1.062  1.2802  0.2214 -1.8665
 5041SOL    HW226757   3.827   0.113   1.067 -0.5138  0.6315 -0.1827
 5042SOL     OW26758   1.899   2.103   8.429 -0.5154 -0.3298  0.8130
 5042SOL    HW126759   1.900   2.171   8.497 -0.3681  0.2405  0.2390
 5042SOL    HW226760   1.943   2.040   8.486  2.0694 -0.0136 -0.8027
 5043SOL     OW26761   4.532   1.866   3.757 -0.1445  0.0928  0.4194
 5043SOL    HW126762   4.627   1.860   3.746  0.0119  0.7676  1.3741
 5043SOL    HW226763   4.528   1.837   3.848 -0.5978  0.5147  0.5322
 5044SOL     OW26764   2.128   3.663   2.211 -0.0485  0.5173 -0.8907
 5044SOL    HW126765   2.107   3.659   2.305 -1.5279 -3.3594 -1.3805
 5044SOL    HW226766   2.201   3.601   2.202 -0.3126  0.2388 -1.0858
 5045SOL     OW26767   3.205   4.356   5.488  0.2045 -0.2914 -0.4206
 5045SOL    HW126768   3.266   4.370   5.415 -2.4087  2.1026 -2.1710
 5045SOL    HW226769   3.192   4.445   5.522 -1.0744 -0.3607 -0.7086
 5046SOL     OW26770   3.632   2.785  17.321 -0.4162  0.4439 -0.9345
 5046SOL    HW126771   3.550   2.741  17.300  0.0813  0.3502 -2.6857
 5046SOL    HW226772   3.656   2.802  17.230  2.5860 -1.9714 -0.5968
 5047SOL     OW26773   1.142   4.429   5.485 -0.2448  0.2204  0.4865
 5047SOL    HW126774   1.145   4.341   5.522 -2.5471 -0.7272 -1.5781
 5047SOL    HW226775   1.102   4.476   5.558  0.7772  2.5699 -0.4839
 5048SOL     OW26776   4.459   3.086   1.917  0.1990  0.0849  0.3143
 5048SOL    HW126777   4.490   3.158   1.973 -3.1265  1.2519  0.6992
 5048SOL    HW226778   4.506   3.010   1.951 -0.2640  0.3004  1.4315
 5049SOL     OW26779   3.593   1.217  11.299 -0.6186  0.3293 -0.1715
 5049SOL    HW126780   3.550   1.135  11.276 -1.6202  0.6519  0.5509
 5049SOL    HW226781   3.535   1.280  11.256 -0.3214  0.5653 -0.2276
 5050SOL     OW26782   1.449   2.062   2.903  0.4579  0.2817  0.0912
 5050SOL    HW126783   1.413   2.058   2.991 -0.8433 -0.8772 -0.4994
 5050SOL    HW226784   1.538   2.026   2.910  1.1687  1.5952 -2.0917
 5051SOL     OW26785   2.968   0.664  14.444  0.0945  0.1106 -0.0095
 5051SOL    HW126786   3.028   0.701  14.509 -1.6347  0.7448  1.2315
 5051SOL    HW226787   2.973   0.576  14.482 -2.4642 -0.2034 -0.3915
 5052SOL     OW26788   0.061   4.446  15.328 -0.0568  0.6646  0.0432
 5052SOL    HW126789   0.011   4.506  15.273 -0.9928  1.4168  1.7066
 5052SOL    HW226790   0.109   4.387  15.270  2.1589  0.2659  2.2562
 5053SOL     OW26791   3.869   1.266   6.648  0.3525  0.4026 -0.1350
 5053SOL    HW126792   3.885   1.349   6.603  0.3932  1.4034  1.7304
 5053SOL    HW226793   3.804   1.241   6.583 -0.1542 -2.7703  1.6121
 5054SOL     OW26794   0.230   2.437   0.119 -0.5074 -0.2795 -0.3248
 5054SOL    HW126795   0.142   2.402   0.107 -0.7140  0.1500 -0.0476
 5054SOL    HW226796   0.264   2.376   0.185  1.0336  0.7511 -0.1786
 5055SOL     OW26797   2.989   0.611   5.647 -0.0578  0.5838 -0.1972
 5055SOL    HW126798   3.010   0.674   5.578 -0.4430 -0.2236 -1.0519
 5055SOL    HW226799   3.077   0.590   5.680 -0.1607 -0.1165 -0.3562
 5056SOL     OW26800   0.148   1.146  14.380 -0.3192  0.0930  0.9327
 5056SOL    HW126801   0.210   1.074  14.371 -0.8398  0.0427 -2.2412
 5056SOL    HW226802   0.199   1.226  14.367  0.2871 -0.2861  0.9655
 5057SOL     OW26803   1.003   1.003   9.401 -0.3736  0.3422  0.3380
 5057SOL    HW126804   0.998   1.094   9.432  0.2553  0.3424  0.4421
 5057SOL    HW226805   0.997   0.959   9.486 -1.9475 -0.4189 -0.1659
 5058SOL     OW26806   4.462   3.218  14.034  0.0496  0.5100  0.4964
 5058SOL    HW126807   4.444   3.224  14.128 -1.9648  1.4859  0.0397
 5058SOL    HW226808   4.385   3.174  13.996 -0.1477 -0.0040  1.5002
 5059SOL     OW26809   2.657   2.712   1.451 -0.2193  0.3756  0.3982
 5059SOL    HW126810   2.682   2.754   1.369 -2.0967 -2.2274 -1.4709
 5059SOL    HW226811   2.734   2.721   1.508  2.2305 -0.2784 -2.7698
 5060SOL     OW26812   0.669   0.074   5.970  0.4597 -0.5687 -0.3505
 5060SOL    HW126813   0.646   0.080   6.062 -0.3041 -3.2128 -0.3515
 5060SOL    HW226814   0.644   0.162   5.943  3.6233  0.7962  1.2973
 5061SOL     OW26815   4.166   0.015   8.567 -0.1299  0.7249  0.7370
 5061SOL    HW126816   4.097   0.081   8.562  0.0156  0.8764  0.7463
 5061SOL    HW226817   4.153   4.712   8.480  2.0289  3.4257 -0.7808
 5062SOL     OW26818   4.077   2.195   6.570 -0.4258 -0.0612 -0.2403
 5062SOL    HW126819   4.139   2.138   6.523  1.8054  1.6775  0.5996
 5062SOL    HW226820   4.134   2.231   6.638 -0.0406 -2.3312  0.6385
 5063SOL     OW26821   4.262   4.450   2.079  0.2277  0.2494  0.0290
 5063SOL    HW126822   4.262   4.537   2.038  0.1040  0.5036  0.5718
 5063SOL    HW226823   4.357   4.445   2.088  0.1145 -0.0865  1.0231
 5064SOL     OW26824   4.085   3.201   2.980 -0.1051 -0.7007 -0.2902
 5064SOL    HW126825   4.073   3.294   3.000  1.5847 -0.5523  0.0369
 5064SOL    HW226826   4.164   3.189   3.032 -2.1985  3.1533  3.7962
 5065SOL     OW26827   0.122   1.099   1.968 -0.0557 -0.2878  0.6511
 5065SOL    HW126828   0.029   1.099   1.991 -0.5646  0.7543 -1.4513
 5065SOL    HW226829   0.120   1.007   1.941  0.9146 -1.1059  3.3447
 5066SOL     OW26830   2.942   1.065   7.129 -0.3988 -1.0884 -0.3012
 5066SOL    HW126831   3.022   1.055   7.179 -1.0103  0.9955  1.1212
 5066SOL    HW226832   2.956   1.151   7.090  3.0129 -1.9477 -0.9475
 5067SOL     OW26833   4.371   4.062  10.252  0.0958 -0.0229  0.2141
 5067SOL    HW126834   4.427   4.091  10.180 -0.7817 -1.6053 -1.1134
 5067SOL    HW226835   4.330   4.147  10.266  2.5195  0.8022  2.4397
 5068SOL     OW26836   2.569   1.297  16.859 -0.2039  0.4553 -0.3348
 5068SOL    HW126837   2.550   1.381  16.817  1.2080 -0.2341 -2.2933
 5068SOL    HW226838   2.511   1.236  16.815  0.5678 -0.5232  0.0132
 5069SOL     OW26839   2.333   3.219  15.233 -0.1920 -0.3455 -0.1234
 5069SOL    HW126840   2.312   3.269  15.312  0.9220 -0.1895  0.0733
 5069SOL    HW226841   2.388   3.276  15.180  0.4262  0.0570  0.9561
 5070SOL     OW26842   0.632   3.746   3.430  0.2085  0.0719  0.1176
 5070SOL    HW126843   0.582   3.828   3.426  0.6238  0.3220  0.0965
 5070SOL    HW226844   0.603   3.719   3.343  3.2407  2.3493 -1.5937
 5071SOL     OW26845   0.114   1.444   4.177  0.2461 -0.1769 -0.5147
 5071SOL    HW126846   0.073   1.365   4.141  0.6475  0.1150 -1.6097
 5071SOL    HW226847   0.170   1.416   4.249  0.1251 -0.1390 -0.4040
 5072SOL     OW26848   0.919   2.917   7.701 -0.0276 -0.5514  0.0940
 5072SOL    HW126849   0.838   2.910   7.652  0.3996 -0.0473 -0.6833
 5072SOL    HW226850   0.983   2.912   7.630 -1.5813 -1.9380 -1.2083
 5073SOL     OW26851   2.326   1.560   9.220  0.0865  0.3117 -0.0995
 5073SOL    HW126852   2.367   1.483   9.260 -4.1322 -0.7035  2.2500
 5073SOL    HW226853   2.246   1.518   9.189  0.1496  0.8294 -0.9699
 5074SOL     OW26854   2.709   4.297  13.151  0.3006 -0.2527 -1.0377
 5074SOL    HW126855   2.708   4.226  13.215 -2.3582 -1.1128 -2.0430
 5074SOL    HW226856   2.795   4.329  13.178 -0.4532  0.9133 -0.0233
 5075SOL     OW26857   2.060   1.732   5.493  0.2112  0.0676  0.1795
 5075SOL    HW126858   2.101   1.667   5.551 -0.3345 -1.1911 -0.8555
 5075SOL    HW226859   2.023   1.799   5.551  0.3710 -0.6489  1.1132
 5076SOL     OW26860   1.595   3.300   8.828 -0.2636  0.2617 -0.5423
 5076SOL    HW126861   1.624   3.385   8.793  2.4432 -1.0479 -1.5373
 5076SOL    HW226862   1.502   3.309   8.810 -0.8611 -2.4926  1.2915
 5077SOL     OW26863   3.755   0.313   5.056  0.4252 -0.1801 -0.3061
 5077SOL    HW126864   3.830   0.303   5.115  0.4491  1.2840 -0.0874
 5077SOL    HW226865   3.801   0.318   4.972 -0.6968 -2.3170 -1.0333
 5078SOL     OW26866   4.448   0.790   3.678  0.6357  0.2356  0.3610
 5078SOL    HW126867   4.500   0.712   3.700  1.0148  0.4591  0.2491
 5078SOL    HW226868   4.393   0.753   3.608  1.9173  3.1700 -2.1900
 5079SOL     OW26869   3.096   1.476   2.798  0.1074 -0.6088 -0.0393
 5079SOL    HW126870   3.049   1.540   2.745  2.5049  0.7658 -0.5188
 5079SOL    HW226871   3.105   1.401   2.739 -1.3336 -0.8550  0.0610
 5080SOL     OW26872   4.578   1.336   7.715 -0.7940  0.3998 -0.3844
 5080SOL    HW126873   4.612   1.249   7.737 -2.9170 -0.4275 -0.4053
 5080SOL    HW226874   4.500   1.347   7.768  1.8139  0.6218  3.4132
 5081SOL     OW26875   0.362   0.993   4.896 -0.5492  0.1768 -0.6723
 5081SOL    HW126876   0.322   0.941   4.966  2.4917  1.3500  1.9412
 5081SOL    HW226877   0.456   0.975   4.900 -0.3442  1.5943  1.2891
 5082SOL     OW26878   3.438   2.236   5.873 -0.3826 -0.1597  0.1809
 5082SOL    HW126879   3.408   2.309   5.928  0.3974  0.2807  0.0228
 5082SOL    HW226880   3.355   2.207   5.835 -0.1090 -0.3510 -0.2719
 5083SOL     OW26881   4.554   2.948   3.743  0.5271 -0.3376  0.1607
 5083SOL    HW126882   4.628   3.008   3.750  0.5449 -0.3497  0.0858
 5083SOL    HW226883   4.481   2.989   3.789  1.2650  0.5525  0.5225
 5084SOL     OW26884   3.970   2.493   0.676 -0.2554  0.3418 -0.2382
 5084SOL    HW126885   3.942   2.402   0.663 -1.2881  0.1292  3.7034
 5084SOL    HW226886   4.053   2.488   0.627  1.3917 -0.1864  2.5729
 5085SOL     OW26887   0.691   1.257   3.461 -0.1997  0.0510  0.2203
 5085SOL    HW126888   0.661   1.332   3.513 -0.6180 -1.1899  1.7612
 5085SOL    HW226889   0.651   1.189   3.515  0.6137 -0.5311  0.0807
 5086SOL     OW26890   2.211   0.975   9.562  0.0168  1.0646  0.1446
 5086SOL    HW126891   2.192   0.883   9.541 -0.3586  1.2380 -0.2665
 5086SOL    HW226892   2.158   0.991   9.640 -1.0940  1.5547 -0.7121
 5087SOL     OW26893   2.651   3.714   7.950 -0.1193 -0.1402 -0.0041
 5087SOL    HW126894   2.727   3.682   7.999 -0.1827 -1.6509 -0.8891
 5087SOL    HW226895   2.657   3.664   7.869 -1.8800  0.8610 -0.7477
 5088SOL     OW26896   1.823   4.398   1.318 -0.0905  0.0589 -0.2286
 5088SOL    HW126897   1.755   4.429   1.258  0.2166 -1.8569 -1.5714
 5088SOL    HW226898   1.806   4.304   1.324  0.9451 -0.0230  1.5227
 5089SOL     OW26899   3.674   4.665   3.737  0.2228  0.3229 -0.0378
 5089SOL    HW126900   3.714   4.593   3.785 -0.0526 -0.1860 -0.5616
 5089SOL    HW226901   3.733   0.002   3.757  0.0772  0.3007  0.4726
 5090SOL     OW26902   1.377   2.132   6.182 -0.3717 -0.1302 -0.0338
 5090SOL    HW126903   1.439   2.186   6.133  1.8571 -2.1963  0.5007
 5090SOL    HW226904   1.432   2.085   6.244  1.8629  3.8140  0.9514
 5091SOL     OW26905   3.396   4.665  13.722 -0.3991 -0.3509 -0.4787
 5091SOL    HW126906   3.434   4.637  13.805 -0.7984 -3.7054 -1.4249
 5091SOL    HW226907   3.313   4.618  13.727 -0.4736 -0.0015  1.5913
 5092SOL     OW26908   3.123   0.687   0.469 -1.1461  0.5198  0.5443
 5092SOL    HW126909   3.072   0.768   0.470  1.6668  2.3006 -1.0762
 5092SOL    HW226910   3.137   0.675   0.563 -0.7425  1.7194  0.6241
 5093SOL     OW26911   0.607   3.551   5.589 -0.0439 -0.0555  0.5477
 5093SOL    HW126912   0.695   3.519   5.570  0.1838  1.1617 -0.4306
 5093SOL    HW226913   0.555   3.472   5.601 -1.1295  0.5471 -0.2256
 5094SOL     OW26914   4.724   3.988   4.717  0.0175  0.7074 -0.1143
 5094SOL    HW126915   0.056   4.039   4.763 -0.2008  1.0416 -0.1614
 5094SOL    HW226916   0.011   3.999   4.625  1.5095 -1.8527 -0.0453
 5095SOL     OW26917   2.198   1.687  15.358 -0.2553 -0.3179  0.1149
 5095SOL    HW126918   2.167   1.666  15.446 -0.3800  0.4042  0.2393
 5095SOL    HW226919   2.143   1.761  15.332  2.7469  1.6112 -0.7655
 5096SOL     OW26920   3.559   3.865   3.862  0.1119 -0.3395 -0.1715
 5096SOL    HW126921   3.581   3.954   3.890 -0.1300  0.0217 -1.1269
 5096SOL    HW226922   3.647   3.828   3.858  0.0673 -0.2296 -2.1746
 5097SOL     OW26923   3.032   0.019   4.702 -0.2050 -0.3394  0.2959
 5097SOL    HW126924   2.953   0.025   4.756 -0.9420  1.0735 -0.9571
 5097SOL    HW226925   2.993   0.057   4.623 -0.4761 -3.8324 -1.2501
 5098SOL     OW26926   2.934   0.182   3.733 -0.5634 -0.0003  0.5988
 5098SOL    HW126927   2.942   0.274   3.708 -0.0439 -0.5062 -1.1263
 5098SOL    HW226928   2.975   0.181   3.820 -0.5159  2.9302  0.6082
 5099SOL     OW26929   2.277   2.871   4.539  0.4003 -0.2878 -0.7231
 5099SOL    HW126930   2.355   2.894   4.589  0.0105 -4.6166  1.8576
 5099SOL    HW226931   2.229   2.952   4.557  1.1494 -1.0609  4.8659
 5100SOL     OW26932   0.474   3.326  17.098  0.3094 -0.1418  0.2051
 5100SOL    HW126933   0.392   3.373  17.110 -0.1593 -0.3117 -2.3870
 5100SOL    HW226934   0.513   3.359  17.017  2.3786  2.1231  2.0994
 5101SOL     OW26935   3.992   1.496   6.491 -0.0665 -0.0310  0.5155
 5101SOL    HW126936   3.896   1.496   6.486  0.2055 -0.6878 -4.8238
 5101SOL    HW226937   4.015   1.460   6.406 -0.5272  2.5187 -0.7074
 5102SOL     OW26938   0.408   4.659   2.456 -0.7753  0.0985  0.2087
 5102SOL    HW126939   0.314   4.663   2.473 -0.8467 -1.9470  0.3323
 5102SOL    HW226940   0.433   4.569   2.477  0.0466  0.8753  2.6196
 5103SOL     OW26941   3.578   3.725   5.371  0.6223 -0.4205  0.0421
 5103SOL    HW126942   3.648   3.697   5.313 -0.0827 -0.2018 -0.9076
 5103SOL    HW226943   3.503   3.716   5.312  0.4633  0.1229  0.1629
 5104SOL     OW26944   2.113   0.088   8.191  0.0765  0.1666 -0.0080
 5104SOL    HW126945   2.194   0.086   8.140 -0.1135  2.8539 -0.4275
 5104SOL    HW226946   2.145   0.094   8.281 -0.8607 -2.5537  0.5044
 5105SOL     OW26947   1.779   1.182   2.699  0.1440 -0.5022 -0.2517
 5105SOL    HW126948   1.843   1.251   2.681 -0.7728  0.5320  0.5407
 5105SOL    HW226949   1.819   1.110   2.649  0.8321  0.8314 -1.6539
 5106SOL     OW26950   4.169   0.675  15.518  0.2251 -0.2667 -0.5009
 5106SOL    HW126951   4.138   0.704  15.432  1.8927  0.9718 -0.6744
 5106SOL    HW226952   4.242   0.736  15.527 -1.5247  1.3814  2.8496
 5107SOL     OW26953   4.178   4.009  12.471  0.2757  0.2719  0.3354
 5107SOL    HW126954   4.152   4.074  12.406 -1.9849 -0.4204  0.5480
 5107SOL    HW226955   4.108   3.943  12.468 -1.0764  1.7418 -0.4333
 5108SOL     OW26956   1.721   1.961  11.874  0.2011  0.1694  0.1845
 5108SOL    HW126957   1.645   1.922  11.918 -1.1566 -1.2487 -3.3860
 5108SOL    HW226958   1.756   2.027  11.935  3.8206 -1.7633  0.2379
 5109SOL     OW26959   4.047   0.423   8.806  0.1222 -0.0479 -0.4928
 5109SOL    HW126960   3.982   0.442   8.874  0.1395 -1.2167 -0.1567
 5109SOL    HW226961   4.053   0.328   8.816 -2.9026 -0.2576 -0.6323
 5110SOL     OW26962   2.118   3.309   3.821 -0.5365 -0.0824 -0.0273
 5110SOL    HW126963   2.104   3.288   3.913 -1.3532 -0.4123 -0.2217
 5110SOL    HW226964   2.091   3.400   3.827 -1.8957 -0.4506 -0.4019
 5111SOL     OW26965   1.184   1.815   2.574 -0.3607 -0.8188  0.7607
 5111SOL    HW126966   1.093   1.825   2.602 -0.9008 -1.7538 -0.6439
 5111SOL    HW226967   1.197   1.722   2.554  1.0622 -0.3446 -0.5161
 5112SOL     OW26968   3.363   2.954   3.834 -0.8410 -0.5011 -0.0685
 5112SOL    HW126969   3.362   2.909   3.749  1.5548  0.0696 -0.3914
 5112SOL    HW226970   3.270   2.974   3.841 -1.3652 -1.7605 -3.3377
 5113SOL     OW26971   4.392   1.688   1.805  0.4018  0.0049  0.0267
 5113SOL    HW126972   4.450   1.612   1.812  1.1161  0.5948  0.5073
 5113SOL    HW226973   4.306   1.646   1.804  0.4504 -0.0991  0.8932
 5114SOL     OW26974   1.752   0.312   2.046 -0.1587  0.2832 -0.7555
 5114SOL    HW126975   1.815   0.380   2.070  0.3089 -0.4691  0.1840
 5114SOL    HW226976   1.748   0.266   2.130 -1.5915 -0.9112 -1.4738
 5115SOL     OW26977   2.171   1.846   8.650  0.2415 -0.3784  1.0063
 5115SOL    HW126978   2.163   1.761   8.607  0.6411  0.8922 -1.6203
 5115SOL    HW226979   2.246   1.880   8.601 -1.3739  1.2466 -0.3407
 5116SOL     OW26980   0.636   1.390  12.357 -0.7419  0.5466 -0.2705
 5116SOL    HW126981   0.680   1.320  12.405  0.2755  0.4604 -1.3184
 5116SOL    HW226982   0.688   1.461  12.396  0.3065  0.0877 -0.8270
 5117SOL     OW26983   4.230   2.808  13.076 -0.5096 -0.2800 -0.1158
 5117SOL    HW126984   4.300   2.775  13.020 -0.8195 -0.3390 -0.4694
 5117SOL    HW226985   4.154   2.769  13.033 -0.9788  0.8618 -0.3174
 5118SOL     OW26986   4.117   4.439   5.686 -0.0890 -0.4197 -0.1172
 5118SOL    HW126987   4.157   4.514   5.642 -0.3217 -0.8635 -1.0770
 5118SOL    HW226988   4.146   4.442   5.777 -1.1648 -0.8639  0.2464
 5119SOL     OW26989   1.587   3.506   4.401 -0.3432 -0.7133  0.2571
 5119SOL    HW126990   1.630   3.446   4.463  0.8289  0.4009  0.5243
 5119SOL    HW226991   1.504   3.459   4.402 -1.2114  0.8486  0.7575
 5120SOL     OW26992   1.260   2.582   6.738  0.0093  0.1054  0.3010
 5120SOL    HW126993   1.196   2.528   6.691 -0.2475 -0.5860  1.4616
 5120SOL    HW226994   1.220   2.588   6.824  0.3482  2.0352  0.3299
 5121SOL     OW26995   3.674   4.551   8.667 -0.5584  0.2119  0.1092
 5121SOL    HW126996   3.719   4.566   8.584  0.5826  2.6922  1.2007
 5121SOL    HW226997   3.638   4.462   8.658  2.6258 -1.0017 -0.9002
 5122SOL     OW26998   2.236   4.467  12.584 -0.0088  0.0121 -0.3853
 5122SOL    HW126999   2.326   4.443  12.607 -0.4053 -0.9826  0.0901
 5122SOL    HW227000   2.260   4.533  12.519 -4.1791  0.5221 -1.3963
 5123SOL     OW27001   4.615   1.269   2.279  0.2515  0.9221  0.1572
 5123SOL    HW127002   4.695   1.304   2.240  0.4454 -0.1298 -0.3933
 5123SOL    HW227003   4.604   1.300   2.368 -0.1345 -2.0187  1.1362
 5124SOL     OW27004   3.078   4.010  11.291 -0.0495 -0.4065 -0.3510
 5124SOL    HW127005   3.013   3.949  11.256  1.6195 -1.7202 -1.1265
 5124SOL    HW227006   3.080   3.985  11.383  0.3690 -1.6350 -0.6933
 5125SOL     OW27007   1.886   2.564  13.959 -0.8368  0.5723  0.1196
 5125SOL    HW127008   1.905   2.617  13.882 -0.8618 -3.4325 -2.6775
 5125SOL    HW227009   1.941   2.487  13.943  0.5838  1.8537 -1.1645
 5126SOL     OW27010   3.739   2.030   3.533  0.4621  0.4183  0.1216
 5126SOL    HW127011   3.678   2.068   3.469  0.3446 -0.4424 -0.2774
 5126SOL    HW227012   3.735   1.936   3.516  1.9106  0.8970 -2.9874
 5127SOL     OW27013   0.123   3.862   1.793  0.3167  0.0652 -0.4204
 5127SOL    HW127014   0.045   3.836   1.745  0.0804 -0.4587  0.2431
 5127SOL    HW227015   0.157   3.778   1.824 -0.2954 -0.7783 -2.0349
 5128SOL     OW27016   2.581   4.464   5.943 -0.2659 -0.3684 -0.2472
 5128SOL    HW127017   2.557   4.536   6.001  0.6022  0.1788 -0.5603
 5128SOL    HW227018   2.528   4.390   5.971  0.4131  0.0107  2.0239
 5129SOL     OW27019   0.503   0.670   0.241 -0.0758  0.3280 -0.2292
 5129SOL    HW127020   0.496   0.577   0.220 -0.2198 -0.1446  1.9414
 5129SOL    HW227021   0.454   0.677   0.322  1.0400 -0.0239  0.4792
 5130SOL     OW27022   0.936   0.765   3.386  0.3133  0.1861  0.0435
 5130SOL    HW127023   1.017   0.775   3.337  0.3234  0.0038  0.0214
 5130SOL    HW227024   0.879   0.826   3.339 -0.2617  0.0631  0.5717
 5131SOL     OW27025   3.655   1.915  12.830 -0.6148  0.2323  0.0152
 5131SOL    HW127026   3.685   1.836  12.874 -1.4268 -0.0786  0.0111
 5131SOL    HW227027   3.638   1.988  12.890  0.8502 -1.0354  1.9682
 5132SOL     OW27028   0.173   0.546   0.525 -0.0890 -0.1117  0.0613
 5132SOL    HW127029   0.092   0.496   0.516 -0.8386  1.0853  0.2356
 5132SOL    HW227030   0.171   0.578   0.435  3.0283 -0.6192 -0.1880
 5133SOL     OW27031   4.069   2.989   3.672  0.2091  0.2353 -0.4276
 5133SOL    HW127032   4.121   3.063   3.640  1.5132 -0.0131  1.1570
 5133SOL    HW227033   4.117   2.922   3.624  3.5336  0.7023  2.2857
 5134SOL     OW27034   3.405   0.302   1.188 -0.1291  0.0228 -0.4043
 5134SOL    HW127035   3.355   0.253   1.253 -0.1971 -0.0683 -0.5260
 5134SOL    HW227036   3.335   0.357   1.153  0.9294  1.2653 -0.5887
 5135SOL     OW27037   1.652   2.404   3.745 -0.3978  0.3568  0.1690
 5135SOL    HW127038   1.631   2.434   3.834 -0.5105  1.5090 -0.2506
 5135SOL    HW227039   1.598   2.459   3.688 -0.9552 -1.3128 -0.9248
 5136SOL     OW27040   2.954   1.134   0.711 -0.7505  0.0881  0.2492
 5136SOL    HW127041   2.941   1.054   0.661  4.5358  0.2007 -1.2336
 5136SOL    HW227042   2.920   1.110   0.797  1.4785 -0.5586  0.9318
 5137SOL     OW27043   2.425   4.129  13.648 -0.3099  0.2923  0.1770
 5137SOL    HW127044   2.495   4.138  13.583 -1.8501  1.3884 -1.3486
 5137SOL    HW227045   2.351   4.116  13.589 -1.2694 -0.0806  1.4654
 5138SOL     OW27046   2.847   1.171   6.176 -0.1092 -0.0743  0.3216
 5138SOL    HW127047   2.761   1.206   6.151 -0.7597 -0.7361  1.6297
 5138SOL    HW227048   2.860   1.100   6.113  1.0839  1.4677 -1.1808
 5139SOL     OW27049   1.182   1.860   9.993 -1.0484  0.2807 -0.0449
 5139SOL    HW127050   1.105   1.915  10.008 -0.8434  0.3309  0.7929
 5139SOL    HW227051   1.243   1.933  10.004  0.4784 -1.2405  1.6172
 5140SOL     OW27052   0.879   2.226   4.624  0.6888  0.5703 -0.0859
 5140SOL    HW127053   0.853   2.160   4.560 -1.5225  2.2039 -0.8895
 5140SOL    HW227054   0.924   2.280   4.559 -1.5351  1.7864 -0.6401
 5141SOL     OW27055   3.372   0.396  14.877  0.1667  0.5188  0.4760
 5141SOL    HW127056   3.285   0.364  14.851  0.1826 -0.6080  1.8164
 5141SOL    HW227057   3.416   0.385  14.793 -3.6942 -1.2588 -1.3359
 5142SOL     OW27058   3.271   2.882  15.705 -1.1466  0.7005  0.0355
 5142SOL    HW127059   3.202   2.946  15.718 -2.5360 -0.6890 -0.5570
 5142SOL    HW227060   3.348   2.933  15.731 -1.0572  1.1462 -1.1089
 5143SOL     OW27061   3.296   2.844   4.270  0.3671 -0.7535  0.1856
 5143SOL    HW127062   3.375   2.841   4.216  0.2505 -5.0940  0.2296
 5143SOL    HW227063   3.236   2.803   4.208  1.2655 -0.7132 -0.7112
 5144SOL     OW27064   1.419   0.615   5.489 -0.0830 -0.2775 -0.3386
 5144SOL    HW127065   1.328   0.621   5.460 -0.1163  1.1237  0.0124
 5144SOL    HW227066   1.457   0.594   5.404 -2.1605  1.6656 -1.7576
 5145SOL     OW27067   0.564   1.566   7.351 -0.3582 -0.2809 -0.0587
 5145SOL    HW127068   0.647   1.538   7.311 -1.7299 -2.9211 -1.0828
 5145SOL    HW227069   0.507   1.492   7.328 -0.0913 -0.5224  0.0444
 5146SOL     OW27070   1.183   0.834   8.017 -0.0166  0.0288 -0.4552
 5146SOL    HW127071   1.212   0.922   7.991 -0.4260  0.0733 -0.7555
 5146SOL    HW227072   1.180   0.784   7.935 -1.4307 -0.9262  0.1892
 5147SOL     OW27073   0.419   2.622   2.667 -0.3763 -0.1204 -0.2319
 5147SOL    HW127074   0.407   2.638   2.573  0.6726  1.2152 -0.1354
 5147SOL    HW227075   0.471   2.699   2.692  0.4641 -0.6463 -0.3634
 5148SOL     OW27076   2.750   3.898  14.231 -0.4785  0.0457 -0.4949
 5148SOL    HW127077   2.792   3.912  14.146  0.1234 -0.6439 -0.3103
 5148SOL    HW227078   2.690   3.832  14.195 -0.8502  0.5675 -0.8385
 5149SOL     OW27079   1.789   1.839   3.144  0.0381 -0.0725 -0.2627
 5149SOL    HW127080   1.852   1.783   3.099 -0.2137 -0.3195 -0.3039
 5149SOL    HW227081   1.781   1.795   3.229 -0.2692 -0.8201 -0.6780
 5150SOL     OW27082   1.045   1.812   1.680  0.4869  0.0124 -0.3565
 5150SOL    HW127083   1.084   1.863   1.751 -1.0282  1.6952 -0.7334
 5150SOL    HW227084   1.117   1.804   1.617  3.3048 -0.4227  2.9544
 5151SOL     OW27085   2.932   0.959  11.818  0.0335  0.1193  0.2073
 5151SOL    HW127086   2.842   0.990  11.829  0.9792  1.8882  2.9526
 5151SOL    HW227087   2.933   0.930  11.726  1.8927 -0.2879  0.3652
 5152SOL     OW27088   4.577   4.576  14.127  0.0626 -0.2800  0.4140
 5152SOL    HW127089   4.556   4.510  14.060 -0.3014 -0.0448  0.2926
 5152SOL    HW227090   4.607   4.645  14.068  0.4946 -0.5457  0.3278
 5153SOL     OW27091   3.807   4.484   2.341 -0.0005  0.0976 -0.1488
 5153SOL    HW127092   3.805   4.391   2.363 -2.3466  0.5519  1.4918
 5153SOL    HW227093   3.828   4.472   2.248 -0.1445  2.4916 -0.5133
 5154SOL     OW27094   1.719   2.819  10.010  0.2103 -0.8396 -0.5978
 5154SOL    HW127095   1.696   2.879  10.081  0.7743 -1.7119  0.3013
 5154SOL    HW227096   1.813   2.810  10.024 -0.1963 -0.6739  2.1201
 5155SOL     OW27097   1.697   3.159   2.731 -0.2483 -0.0945 -0.3017
 5155SOL    HW127098   1.664   3.191   2.647 -0.5229  1.3910  0.3636
 5155SOL    HW227099   1.692   3.240   2.782 -1.1094  0.4752 -1.2833
 5156SOL     OW27100   3.961   1.851  15.044  0.5067 -0.0209  0.4468
 5156SOL    HW127101   3.884   1.901  15.016  1.3165  0.6313 -0.5997
 5156SOL    HW227102   4.026   1.882  14.981  1.0631  0.2826  1.1705
 5157SOL     OW27103   1.628   1.226   6.939 -0.0760 -1.0702 -0.0371
 5157SOL    HW127104   1.678   1.168   6.996 -2.1808 -0.5065  2.4129
 5157SOL    HW227105   1.685   1.303   6.949 -1.8253  0.2974 -0.4801
 5158SOL     OW27106   0.379   3.866   0.847  0.7139 -0.2050 -0.6158
 5158SOL    HW127107   0.446   3.895   0.909 -0.3042  0.6911  0.0790
 5158SOL    HW227108   0.394   3.926   0.774  2.7244  1.2569  1.0070
 5159SOL     OW27109   2.670   1.068  10.829 -0.2900  0.1437 -0.0556
 5159SOL    HW127110   2.652   1.118  10.909 -1.0082  0.0566 -0.1598
 5159SOL    HW227111   2.725   1.001  10.869  0.6151  0.9632  0.0626
 5160SOL     OW27112   1.609   1.728   7.687 -0.0959 -0.1922 -0.1890
 5160SOL    HW127113   1.568   1.685   7.762 -0.4197 -0.5087 -0.5482
 5160SOL    HW227114   1.606   1.817   7.722 -0.7310 -0.9258  1.5879
 5161SOL     OW27115   1.253   4.190  17.546  0.1146 -0.5424 -0.1383
 5161SOL    HW127116   1.297   4.236  17.475  0.9349 -0.3067  0.5161
 5161SOL    HW227117   1.228   4.259  17.608 -1.6210 -1.5066  0.2186
 5162SOL     OW27118   2.317   1.829   8.228  0.3459  0.7176  0.3314
 5162SOL    HW127119   2.222   1.819   8.229  0.4609 -0.6563 -1.6823
 5162SOL    HW227120   2.325   1.837   8.323  1.1873  0.7023  0.2621
 5163SOL     OW27121   1.051   1.776   0.713  0.7392  0.0434 -0.2656
 5163SOL    HW127122   1.121   1.828   0.673  0.7696  0.7212  0.6569
 5163SOL    HW227123   0.977   1.837   0.706  0.3664 -0.3797 -0.0564
 5164SOL     OW27124   4.114   1.033  15.158 -0.5519  0.3528  0.7408
 5164SOL    HW127125   4.048   1.081  15.107 -0.6700 -1.6157 -0.9555
 5164SOL    HW227126   4.159   1.098  15.212 -1.3482  1.3128  0.2596
 5165SOL     OW27127   2.215   2.112  13.352  0.8338 -0.3932 -0.4315
 5165SOL    HW127128   2.251   2.096  13.439  1.3062  2.0244 -0.1972
 5165SOL    HW227129   2.157   2.036  13.341  0.0758 -0.1577  2.0715
 5166SOL     OW27130   4.629   0.961  16.984 -0.1913  0.0646  0.4688
 5166SOL    HW127131   4.663   1.007  17.061 -0.7612 -0.1840  0.8740
 5166SOL    HW227132   4.684   1.000  16.917  0.1662  0.7415  1.1616
 5167SOL     OW27133   4.284   0.388   6.756  0.1421 -0.1115  0.1259
 5167SOL    HW127134   4.312   0.345   6.675 -0.7687  1.4981 -1.0357
 5167SOL    HW227135   4.264   0.317   6.817 -1.1161  0.3201  0.2140
 5168SOL     OW27136   2.725   3.790   4.356  0.0918 -0.4619 -0.0068
 5168SOL    HW127137   2.747   3.708   4.312 -0.5629 -1.3801  1.3720
 5168SOL    HW227138   2.725   3.854   4.284 -0.2401  0.5035  0.8513
 5169SOL     OW27139   0.539   3.235  13.921  0.1340  0.2949 -0.2450
 5169SOL    HW127140   0.616   3.291  13.932  1.1443 -0.7865 -1.9346
 5169SOL    HW227141   0.491   3.293  13.862 -0.6804  0.4233  0.5338
 5170SOL     OW27142   0.104   1.793   8.115 -0.0272 -0.1958  0.6949
 5170SOL    HW127143   0.026   1.769   8.166 -0.2362  2.1040  1.4745
 5170SOL    HW227144   0.174   1.750   8.165  0.9959 -0.8005 -1.2527
 5171SOL     OW27145   4.016   0.996  17.561  0.2230 -0.2587 -0.0172
 5171SOL    HW127146   3.924   1.020  17.548 -0.5527 -1.8803  2.4560
 5171SOL    HW227147   4.018   0.977  17.655 -1.8177 -1.9226 -0.3000
 5172SOL     OW27148   4.708   0.196   1.559 -0.5249  0.2207 -0.0868
 5172SOL    HW127149   0.065   0.203   1.537  0.2319 -0.6921  2.8066
 5172SOL    HW227150   4.691   0.288   1.580  1.5601  0.6191 -0.1738
 5173SOL     OW27151   4.726   3.197   3.042  0.0036  0.0058  0.5133
 5173SOL    HW127152   4.694   3.111   3.016 -0.6284  0.1559  0.7803
 5173SOL    HW227153   0.073   3.174   3.084 -0.1635 -1.2571  0.1239
 5174SOL     OW27154   0.579   0.999  16.892 -0.1495 -0.0861 -0.1457
 5174SOL    HW127155   0.595   0.973  16.801  2.0078 -1.0999  0.5364
 5174SOL    HW227156   0.490   1.033  16.878 -1.1105 -2.1552  0.8896
 5175SOL     OW27157   2.120   0.408   8.692  0.0711 -0.3204  0.9368
 5175SOL    HW127158   2.173   0.457   8.755 -0.0201  1.2867 -0.2240
 5175SOL    HW227159   2.028   0.416   8.716  0.0897  0.2796  0.8052
 5176SOL     OW27160   2.297   1.363   1.668  0.3897  0.1284  0.3440
 5176SOL    HW127161   2.228   1.428   1.665 -0.4512 -0.8488 -1.1216
 5176SOL    HW227162   2.260   1.293   1.615 -0.5599  1.9959 -1.4515
 5177SOL     OW27163   1.804   0.274  14.312 -0.0553  0.3360 -0.0554
 5177SOL    HW127164   1.756   0.356  14.326  1.8452  1.3797  0.3081
 5177SOL    HW227165   1.763   0.238  14.233  0.5245 -1.6319  0.5533
 5178SOL     OW27166   4.455   0.491   9.191 -0.5961 -0.5658 -0.1763
 5178SOL    HW127167   4.509   0.449   9.258  1.0617 -0.8713 -1.7230
 5178SOL    HW227168   4.400   0.416   9.167 -2.3242  0.6005  0.1353
 5179SOL     OW27169   0.017   4.426   9.165  0.5138 -0.2278  0.0476
 5179SOL    HW127170   0.046   4.359   9.103 -0.7283 -0.9444  0.2391
 5179SOL    HW227171   0.078   4.412   9.238 -1.1392 -2.5440  1.0052
 5180SOL     OW27172   1.026   0.584   5.735  0.0125 -0.0268  0.0508
 5180SOL    HW127173   1.075   0.617   5.810  0.6597 -0.0794 -0.3522
 5180SOL    HW227174   1.057   0.494   5.724  0.7485  0.3026 -0.5507
 5181SOL     OW27175   2.446   3.139   2.895  0.9205  0.2715  0.2261
 5181SOL    HW127176   2.518   3.199   2.913  1.4644 -0.5302  0.7094
 5181SOL    HW227177   2.491   3.058   2.917  0.3414  0.1078  0.8103
 5182SOL     OW27178   3.039   4.119   2.823 -0.0310 -0.5240  0.3541
 5182SOL    HW127179   3.128   4.104   2.855 -0.3221  0.2967  1.5799
 5182SOL    HW227180   3.027   4.044   2.765  0.8595 -0.0277 -0.4611
 5183SOL     OW27181   2.070   0.413  10.762 -0.3241  0.0085  0.1050
 5183SOL    HW127182   2.117   0.483  10.807 -3.9013  1.9216  0.8827
 5183SOL    HW227183   2.076   0.448  10.673  0.0420  1.6632  0.7805
 5184SOL     OW27184   0.924   2.333   3.874  0.1130 -0.3954 -0.2468
 5184SOL    HW127185   0.953   2.250   3.913 -2.1475 -0.6527  0.8733
 5184SOL    HW227186   0.991   2.386   3.917  0.5598 -0.8532 -0.3789
 5185SOL     OW27187   3.544   2.746   7.069 -0.0129 -0.0375  0.2458
 5185SOL    HW127188   3.544   2.768   6.976  0.7138  0.7912  0.4495
 5185SOL    HW227189   3.634   2.713   7.079  1.8128  5.0676  0.3291
 5186SOL     OW27190   2.225   3.724   7.986  0.4383 -0.2570  0.1343
 5186SOL    HW127191   2.235   3.816   8.011  0.7561  0.2930 -1.9550
 5186SOL    HW227192   2.180   3.727   7.901  1.8231 -0.4176 -0.6013
 5187SOL     OW27193   3.032   2.658   8.514  0.8200  0.5671 -0.2284
 5187SOL    HW127194   3.124   2.662   8.489  0.7871  0.3900 -0.3793
 5187SOL    HW227195   3.032   2.615   8.599  2.0494 -0.3696 -0.7098
 5188SOL     OW27196   1.500   0.968   9.287  0.1272  0.5538  0.1775
 5188SOL    HW127197   1.588   0.961   9.324  0.5346 -1.7223 -1.1930
 5188SOL    HW227198   1.442   0.968   9.363 -3.1771 -0.2625 -2.3640
 5189SOL     OW27199   2.126   1.981   3.748  0.1032  0.2323 -0.0670
 5189SOL    HW127200   2.200   2.041   3.738 -0.2638  0.8064  0.7023
 5189SOL    HW227201   2.167   1.906   3.792  2.2977  1.6358  0.3269
 5190SOL     OW27202   0.545   4.044   0.077 -0.2099  0.0772  0.1953
 5190SOL    HW127203   0.463   4.085   0.105 -0.7021  0.0372 -1.1618
 5190SOL    HW227204   0.552   3.987   0.154 -2.4388 -1.7624 -0.9483
 5191SOL     OW27205   1.798   1.574   5.893  0.6221  0.3120 -0.2294
 5191SOL    HW127206   1.880   1.530   5.917  0.9131  0.9556 -0.0466
 5191SOL    HW227207   1.736   1.544   5.960 -1.0020  1.1812 -1.3623
 5192SOL     OW27208   1.850   2.165   4.530  0.2951 -0.2195 -0.7637
 5192SOL    HW127209   1.774   2.108   4.529  1.0390 -1.2331  1.3100
 5192SOL    HW227210   1.901   2.152   4.610 -0.8521 -1.3541 -0.2331
 5193SOL     OW27211   1.995   1.409   2.890 -0.3815 -0.3320  0.0256
 5193SOL    HW127212   1.928   1.425   2.956 -0.8453 -0.5499 -0.3953
 5193SOL    HW227213   1.988   1.314   2.898 -1.2954 -0.1267  1.7623
 5194SOL     OW27214   0.048   0.568   8.879 -0.0476  0.4968 -0.1211
 5194SOL    HW127215   0.011   0.515   8.950  3.6441 -1.9011  0.0558
 5194SOL    HW227216   0.079   0.504   8.815  0.4883 -0.5625  1.1912
 5195SOL     OW27217   1.880   2.951   6.653 -0.6581  0.0987 -0.0732
 5195SOL    HW127218   1.966   2.944   6.695 -0.7100  2.1029  0.3638
 5195SOL    HW227219   1.905   2.927   6.564 -0.8856 -1.1327  0.2005
 5196SOL     OW27220   3.301   1.106   5.371 -0.3704 -1.0312  0.1843
 5196SOL    HW127221   3.328   1.117   5.280  0.7175  0.6283  0.7169
 5196SOL    HW227222   3.351   1.027   5.393  2.1274  0.2571 -0.8545
 5197SOL     OW27223   3.034   3.584   2.365  0.1797 -0.0709  0.6439
 5197SOL    HW127224   3.119   3.564   2.328  0.4858 -1.0865  1.9143
 5197SOL    HW227225   3.004   3.499   2.396 -0.8049  0.6733  1.7544
 5198SOL     OW27226   2.972   0.484   3.679  0.1281 -0.5349 -0.6038
 5198SOL    HW127227   2.941   0.575   3.679  0.4994 -0.4086 -0.2847
 5198SOL    HW227228   3.066   0.502   3.677 -0.0900  0.6784 -0.0278
 5199SOL     OW27229   1.644   0.332   6.881  0.4075  0.2756 -0.0126
 5199SOL    HW127230   1.686   0.258   6.838 -1.0818 -0.6216  0.0551
 5199SOL    HW227231   1.722   0.386   6.882  0.6060  0.0282 -2.9203
 5200SOL     OW27232   4.230   3.639   8.186 -0.1142 -0.1942 -0.4671
 5200SOL    HW127233   4.307   3.690   8.209 -0.3232 -1.0611  2.1507
 5200SOL    HW227234   4.181   3.641   8.268 -0.8578 -0.6065 -0.8988
 5201SOL     OW27235   3.737   1.603   2.974  0.3266  0.0239 -1.0579
 5201SOL    HW127236   3.760   1.539   2.907 -0.4619 -1.8663  0.4537
 5201SOL    HW227237   3.684   1.671   2.934 -1.7456 -1.4617 -0.8473
 5202SOL     OW27238   2.084   3.206  10.732  0.4254 -0.3441 -0.6528
 5202SOL    HW127239   2.047   3.249  10.655  2.8022  3.1734  0.1982
 5202SOL    HW227240   2.017   3.209  10.800  1.5095  2.0380  0.3154
 5203SOL     OW27241   1.462   2.487   8.439 -0.2747  0.5598  0.0762
 5203SOL    HW127242   1.421   2.573   8.435  0.5808  0.9502 -0.2936
 5203SOL    HW227243   1.529   2.481   8.371 -0.4025  2.5759 -0.2154
 5204SOL     OW27244   1.791   4.221  11.476 -0.0141  0.1135 -0.6297
 5204SOL    HW127245   1.746   4.305  11.464  1.5292  1.2894  1.6410
 5204SOL    HW227246   1.875   4.237  11.433  0.4014  0.2409  0.2222
 5205SOL     OW27247   2.834   3.849   3.748 -0.7232 -0.2467 -0.1086
 5205SOL    HW127248   2.744   3.863   3.776 -0.7021  0.9233 -0.5955
 5205SOL    HW227249   2.854   3.766   3.790 -2.7990 -0.3887  0.5844
 5206SOL     OW27250   4.002   1.690  15.775 -0.4120  0.1280 -0.2308
 5206SOL    HW127251   3.960   1.776  15.770 -0.1764  0.2540 -0.0420
 5206SOL    HW227252   4.095   1.710  15.767 -0.8671  2.4885  0.2747
 5207SOL     OW27253   2.140   4.277   3.143  0.3658 -0.5687 -0.3067
 5207SOL    HW127254   2.049   4.305   3.158 -0.5841 -3.5963 -0.3534
 5207SOL    HW227255   2.134   4.234   3.057 -1.8451 -0.2456 -0.3167
 5208SOL     OW27256   2.268   1.277   6.917  0.0801 -0.2462  0.5100
 5208SOL    HW127257   2.232   1.365   6.911  1.7161  0.4405  0.7162
 5208SOL    HW227258   2.362   1.294   6.912 -0.2345  1.4120  0.3252
 5209SOL     OW27259   3.925   0.966   0.555  0.5071 -0.0113  0.0494
 5209SOL    HW127260   3.983   1.015   0.496  0.0815  0.1157 -0.2669
 5209SOL    HW227261   3.852   1.020   0.524  0.4901  0.3735  0.7530
 5210SOL     OW27262   3.588   1.177   6.835 -0.4376 -0.0214  0.2966
 5210SOL    HW127263   3.602   1.256   6.782  0.5367 -0.2686  0.1925
 5210SOL    HW227264   3.594   1.101   6.779  1.0817 -0.7743  1.4837
 5211SOL     OW27265   0.605   3.627   1.832 -0.3439 -0.1554 -0.9469
 5211SOL    HW127266   0.556   3.631   1.914  3.4945  0.2877  1.3483
 5211SOL    HW227267   0.675   3.565   1.855 -1.2569 -1.3426 -1.3361
 5212SOL     OW27268   2.238   0.926   5.984  0.0764 -0.6971 -0.3121
 5212SOL    HW127269   2.292   0.848   5.970  1.4444 -0.3956  3.3537
 5212SOL    HW227270   2.182   0.914   6.060  0.9162  0.1267  0.4290
 5213SOL     OW27271   3.296   4.552  16.636  0.2017  0.2072 -0.1252
 5213SOL    HW127272   3.331   4.474  16.679 -1.8361  0.3066  1.7469
 5213SOL    HW227273   3.368   4.584  16.581  0.6119  2.9698  1.9906
 5214SOL     OW27274   0.553   4.581   6.510 -0.9744  0.0961 -0.6003
 5214SOL    HW127275   0.646   4.562   6.522 -1.1104  0.1612  0.6179
 5214SOL    HW227276   0.536   4.637   6.586 -1.1577 -1.2898  0.3668
 5215SOL     OW27277   4.529   1.805  11.615  0.3666  0.6045 -0.0912
 5215SOL    HW127278   4.452   1.759  11.646 -1.8105  3.8504 -0.6018
 5215SOL    HW227279   4.581   1.800  11.696  0.8273  1.1175 -0.3469
 5216SOL     OW27280   2.057   4.537  11.605 -0.0650  0.1034  0.0253
 5216SOL    HW127281   2.021   4.617  11.644  0.0933  0.2541 -0.1410
 5216SOL    HW227282   2.110   4.512  11.681 -1.3881  0.5020  1.0856
 5217SOL     OW27283   3.913   0.266   0.163 -0.1757 -0.2184 -0.3006
 5217SOL    HW127284   3.830   0.279   0.207 -0.8774  2.5264 -2.4155
 5217SOL    HW227285   3.915   0.170   0.157  0.3712 -0.2913  1.1648
 5218SOL     OW27286   4.318   1.672  14.518 -0.4512 -0.1075  0.5025
 5218SOL    HW127287   4.358   1.585  14.515  2.0635  1.0181  1.4949
 5218SOL    HW227288   4.343   1.717  14.437 -1.0018  0.9638  0.9345
 5219SOL     OW27289   0.857   0.826   6.408  0.1429 -0.8308  0.0989
 5219SOL    HW127290   0.913   0.786   6.341 -1.5792  1.0316 -2.4398
 5219SOL    HW227291   0.777   0.773   6.407  1.6444 -3.1315  1.9957
 5220SOL     OW27292   0.735   1.172   8.645 -0.0023  0.6113 -0.5114
 5220SOL    HW127293   0.726   1.255   8.598  1.6149  2.5907  2.7187
 5220SOL    HW227294   0.642   1.173   8.668  0.3764  3.9798  0.8440
 5221SOL     OW27295   1.998   3.266   5.504 -0.1993 -0.2266 -0.1013
 5221SOL    HW127296   1.973   3.355   5.479  0.3964 -0.0912 -0.2031
 5221SOL    HW227297   2.011   3.226   5.418 -3.3839 -2.0792  0.2748
 5222SOL     OW27298   4.284   3.205   3.157 -0.3128  0.5473 -0.1443
 5222SOL    HW127299   4.359   3.191   3.214 -0.9305 -2.0698  0.0122
 5222SOL    HW227300   4.332   3.234   3.080 -0.8147  1.0498 -0.2721
 5223SOL     OW27301   3.728   0.969   7.424 -0.9693 -0.0171  0.2329
 5223SOL    HW127302   3.686   0.890   7.388  0.3523 -0.5207 -0.1820
 5223SOL    HW227303   3.779   1.006   7.352  0.6899 -0.4146  1.2279
 5224SOL     OW27304   3.534   0.413   4.572  0.3459  0.5698 -0.4079
 5224SOL    HW127305   3.530   0.450   4.661 -0.7343 -0.7770  0.0950
 5224SOL    HW227306   3.449   0.370   4.565  1.0910 -0.6421 -1.8824
 5225SOL     OW27307   2.847   4.151   5.755  0.3410  0.2407 -0.1942
 5225SOL    HW127308   2.809   4.194   5.678  2.9690 -0.6011 -1.9539
 5225SOL    HW227309   2.916   4.101   5.712 -0.2937 -0.5136 -0.3465
 5226SOL     OW27310   0.545   2.407   8.559  0.7455 -0.0738 -0.0081
 5226SOL    HW127311   0.480   2.470   8.528  1.7250  0.1501 -1.6368
 5226SOL    HW227312   0.532   2.436   8.649 -0.1133 -3.1951  0.8456
 5227SOL     OW27313   2.769   0.392  15.507  0.3867 -0.2221 -0.0809
 5227SOL    HW127314   2.799   0.374  15.418  2.1272  1.5286  0.1579
 5227SOL    HW227315   2.798   0.316  15.556 -3.3963 -1.4841  0.2085
 5228SOL     OW27316   2.470   0.582  11.286 -0.4706 -0.0129 -0.4761
 5228SOL    HW127317   2.440   0.567  11.197  1.0600  0.6556 -1.1040
 5228SOL    HW227318   2.400   0.629  11.332 -0.3866  0.0263 -0.3883
 5229SOL     OW27319   4.268   0.665   7.726 -0.1770  0.9084  0.0949
 5229SOL    HW127320   4.285   0.736   7.788  2.6797 -0.5959  1.0458
 5229SOL    HW227321   4.173   0.666   7.724 -0.1994 -0.3531  0.6836
 5230SOL     OW27322   2.124   3.656   2.942 -0.1124 -0.2020 -0.4393
 5230SOL    HW127323   2.205   3.623   2.980  1.0055  2.4348 -0.5157
 5230SOL    HW227324   2.172   3.713   2.880  0.7321 -1.6978 -1.1674
 5231SOL     OW27325   4.188   3.287   0.146 -0.0242  0.2810 -0.1027
 5231SOL    HW127326   4.172   3.203   0.190 -0.9495  0.4977 -0.0257
 5231SOL    HW227327   4.151   3.345   0.213  1.9860  2.3075 -0.7660
 5232SOL     OW27328   2.484   1.939   3.964  0.2532  0.0642 -0.3781
 5232SOL    HW127329   2.440   1.862   3.926 -1.4940  1.0288 -0.2903
 5232SOL    HW227330   2.491   1.916   4.056  2.4881  1.8364 -0.1148
 5233SOL     OW27331   2.145   0.372   6.312  0.2185 -0.4543 -0.3627
 5233SOL    HW127332   2.132   0.462   6.280  0.5767 -0.7490 -1.3541
 5233SOL    HW227333   2.222   0.388   6.366  0.8005 -0.7379 -1.1078
 5234SOL     OW27334   2.390   1.871  15.121 -0.8628 -0.4318  0.0435
 5234SOL    HW127335   2.342   1.863  15.039 -2.0125  1.5119  0.5336
 5234SOL    HW227336   2.482   1.880  15.095 -1.3370 -0.3992 -1.6291
 5235SOL     OW27337   1.394   1.627   5.177 -0.5036  0.0496  0.4364
 5235SOL    HW127338   1.470   1.683   5.192  0.0609 -0.2145 -1.3892
 5235SOL    HW227339   1.332   1.656   5.243 -1.5197 -0.5749 -0.2250
 5236SOL     OW27340   3.991   4.627  16.603  0.2730  0.4685 -0.3568
 5236SOL    HW127341   4.046   4.585  16.670 -0.6860 -0.4516 -0.1583
 5236SOL    HW227342   3.941   4.557  16.562 -0.3643 -1.4054  3.5455
 5237SOL     OW27343   1.602   3.936  13.974 -0.0708  0.1030  0.6111
 5237SOL    HW127344   1.545   3.995  13.924 -0.4788 -0.8558 -0.0454
 5237SOL    HW227345   1.583   3.956  14.066 -1.1810 -0.9262  0.5995
 5238SOL     OW27346   3.490   0.608   6.809 -0.7139  0.1333  0.0373
 5238SOL    HW127347   3.427   0.545   6.845  1.7471 -1.5328  1.4011
 5238SOL    HW227348   3.426   0.652   6.753  1.2208  0.5009 -1.9057
 5239SOL     OW27349   3.672   2.589  12.975  0.0984 -0.2809  0.2031
 5239SOL    HW127350   3.648   2.682  12.974 -4.2412 -1.3873 -0.6154
 5239SOL    HW227351   3.598   2.554  13.024 -1.6133  0.4006 -1.8694
 5240SOL     OW27352   1.511   3.245   3.902  0.2433  0.0103 -0.1978
 5240SOL    HW127353   1.589   3.296   3.922 -0.4875  0.7869  0.7011
 5240SOL    HW227354   1.471   3.238   3.989  2.7469  1.9174  1.1138
 5241SOL     OW27355   2.192   3.528   9.396 -0.1066  0.8065  0.0619
 5241SOL    HW127356   2.145   3.462   9.447 -0.0429  0.3260 -0.4919
 5241SOL    HW227357   2.280   3.499   9.421  0.0693  0.7336 -0.6280
 5242SOL     OW27358   0.164   0.971   3.639 -0.3214 -0.0628 -0.2620
 5242SOL    HW127359   0.143   1.062   3.663  0.4607 -0.1413  0.7773
 5242SOL    HW227360   0.109   0.920   3.698  0.8732 -1.6225 -0.5233
 5243SOL     OW27361   3.135   4.445   9.189 -0.0764  0.3068 -0.2349
 5243SOL    HW127362   3.054   4.475   9.147 -1.0095  0.6021  1.7975
 5243SOL    HW227363   3.174   4.525   9.223  1.7999  0.8145 -3.5394
 5244SOL     OW27364   1.952   0.028   6.563 -0.7537 -0.7155 -0.1340
 5244SOL    HW127365   1.890   4.699   6.529  0.4025 -1.6932 -0.3655
 5244SOL    HW227366   2.036   4.720   6.548 -1.3660 -0.9913 -2.7094
 5245SOL     OW27367   0.009   2.647   8.884 -0.0661  0.3582 -0.0518
 5245SOL    HW127368   4.672   2.682   8.834 -2.2874 -1.6353  1.7435
 5245SOL    HW227369   4.707   2.562   8.907 -1.2205  0.7963 -0.3309
 5246SOL     OW27370   3.405   3.270  15.808  0.2030 -0.3941  0.2533
 5246SOL    HW127371   3.485   3.226  15.778  1.2824  0.2042  2.2247
 5246SOL    HW227372   3.426   3.298  15.897 -1.5638 -0.9764  0.8538
 5247SOL     OW27373   3.883   1.539   3.798 -0.5579  0.0525 -0.2600
 5247SOL    HW127374   3.935   1.461   3.817 -0.5487  0.2303  0.4433
 5247SOL    HW227375   3.826   1.510   3.727 -2.1749  1.2230  0.5426
 5248SOL     OW27376   3.374   4.050   0.619  0.0868  0.0657  0.2838
 5248SOL    HW127377   3.445   4.045   0.683  0.2440 -2.1994 -0.0472
 5248SOL    HW227378   3.341   3.961   0.606  1.1001 -0.0872 -1.2538
 5249SOL     OW27379   1.499   1.749   9.751 -0.4125 -0.0171 -0.0591
 5249SOL    HW127380   1.441   1.740   9.675 -1.4187  1.4854  0.5303
 5249SOL    HW227381   1.588   1.734   9.718 -0.7134 -1.4619 -0.1914
 5250SOL     OW27382   3.462   3.383   2.218  0.4825 -0.3512 -0.3130
 5250SOL    HW127383   3.475   3.357   2.309  1.9885  0.5777 -0.2550
 5250SOL    HW227384   3.460   3.299   2.173 -2.7404  0.2333 -1.2624
 5251SOL     OW27385   0.600   2.715   3.593 -0.1723 -0.0512  0.2427
 5251SOL    HW127386   0.593   2.795   3.647 -1.5729  1.0721 -1.6202
 5251SOL    HW227387   0.645   2.661   3.658 -1.5653 -0.1707  1.1159
 5252SOL     OW27388   0.877   4.383   9.710 -0.1261 -0.2140  0.2694
 5252SOL    HW127389   0.860   4.307   9.654 -0.1053  0.6392 -0.8978
 5252SOL    HW227390   0.937   4.340   9.771  2.6562  1.8393 -0.9970
 5253SOL     OW27391   1.284   4.661   9.946 -0.5030  0.0187  0.2523
 5253SOL    HW127392   1.257   4.652   9.855 -0.2229  2.1829 -0.0515
 5253SOL    HW227393   1.277   0.021   9.949  1.8862  0.1584  1.8101
 5254SOL     OW27394   0.146   2.627   8.630 -0.1037 -0.1094 -0.4488
 5254SOL    HW127395   0.059   2.663   8.649 -0.8609 -2.3337  0.2662
 5254SOL    HW227396   0.164   2.592   8.717 -3.6382 -1.3414 -0.1972
 5255SOL     OW27397   2.857   0.758   4.123 -0.7238  0.2060  0.9425
 5255SOL    HW127398   2.833   0.739   4.032 -0.3548  0.0446  0.8792
 5255SOL    HW227399   2.905   0.839   4.110 -0.0691 -0.5526 -1.3500
 5256SOL     OW27400   2.400   0.281  12.249 -0.3328 -0.2971 -0.2511
 5256SOL    HW127401   2.484   0.252  12.286 -1.0053  0.5813  1.9659
 5256SOL    HW227402   2.391   0.369  12.285  0.3289  0.5722 -2.1980
 5257SOL     OW27403   3.050   4.135   9.145 -0.0264  0.1189 -0.4280
 5257SOL    HW127404   2.957   4.152   9.129  0.4256  2.1776 -0.9062
 5257SOL    HW227405   3.074   4.187   9.069 -1.3871  1.2512 -0.0975
 5258SOL     OW27406   3.456   0.971   3.092  0.1375 -0.1581  0.2405
 5258SOL    HW127407   3.425   0.881   3.078  1.2940 -0.6956  1.1445
 5258SOL    HW227408   3.373   1.019   3.096  1.1938  2.0567 -3.7154
 5259SOL     OW27409   1.033   0.891  11.989  0.1003  0.2097  0.4362
 5259SOL    HW127410   1.111   0.896  11.934  0.4090  2.8595  1.1377
 5259SOL    HW227411   0.962   0.873  11.927  0.4234  1.8750 -0.4052
 5260SOL     OW27412   1.100   0.256   6.918  0.2055  0.6659  0.6989
 5260SOL    HW127413   1.114   0.206   6.999  1.8208  0.5531  0.3423
 5260SOL    HW227414   1.193   0.263   6.898  0.3761 -2.7314  0.2879
 5261SOL     OW27415   3.382   4.095  12.882 -0.2222 -0.1684 -0.1502
 5261SOL    HW127416   3.336   4.011  12.886 -1.4565  0.5758  1.4152
 5261SOL    HW227417   3.325   4.152  12.830  0.4054  0.7332  0.1481
 5262SOL     OW27418   0.703   3.962   9.626  0.2425 -0.0823 -0.2398
 5262SOL    HW127419   0.641   3.903   9.584 -1.6471  2.1605 -0.5836
 5262SOL    HW227420   0.657   3.989   9.705  0.3817 -1.1103  0.1861
 5263SOL     OW27421   3.885   3.483   5.712  0.8400 -0.2426  0.6685
 5263SOL    HW127422   3.871   3.549   5.780 -0.5122  0.3870 -0.2243
 5263SOL    HW227423   3.862   3.536   5.635  0.1567 -0.4399  0.7384
 5264SOL     OW27424   2.869   2.105   4.910  0.3254  0.7008 -0.3143
 5264SOL    HW127425   2.942   2.146   4.956 -0.7821 -0.2691  2.3508
 5264SOL    HW227426   2.911   2.027   4.873 -1.1549 -0.3425  0.2234
 5265SOL     OW27427   3.536   0.427  14.633 -0.6518  0.1854 -0.0457
 5265SOL    HW127428   3.613   0.385  14.594 -2.0661 -1.2299 -1.3533
 5265SOL    HW227429   3.506   0.473  14.555 -0.2756  0.1106 -0.2369
 5266SOL     OW27430   4.339   3.893   8.432 -0.5483 -0.5158  0.3502
 5266SOL    HW127431   4.398   3.847   8.373 -0.3449  0.0104  0.1433
 5266SOL    HW227432   4.360   3.847   8.514  0.2003 -0.9307 -0.0778
 5267SOL     OW27433   0.957   4.490   7.387 -0.4336 -0.0928 -0.4694
 5267SOL    HW127434   0.996   4.546   7.320  2.1227  1.4278  2.2691
 5267SOL    HW227435   1.022   4.420   7.390  0.0270  0.2669 -2.3078
 5268SOL     OW27436   4.685   3.447   9.443  0.3521 -0.5532  0.6605
 5268SOL    HW127437   4.637   3.375   9.403  0.3758  0.8479 -1.8316
 5268SOL    HW227438   0.040   3.422   9.424  0.2216 -0.8894  0.4859
 5269SOL     OW27439   2.672   1.479   2.340  0.0916 -0.3074  0.4981
 5269SOL    HW127440   2.764   1.502   2.342  0.0517  0.0270 -1.5281
 5269SOL    HW227441   2.641   1.521   2.259 -0.1737 -2.6029 -0.5971
 5270SOL     OW27442   3.810   4.493  16.437  0.5161 -0.2594 -0.0305
 5270SOL    HW127443   3.742   4.559  16.422 -0.4480 -1.5538 -1.3295
 5270SOL    HW227444   3.868   4.491  16.361 -0.9693 -1.0502 -1.1244
 5271SOL     OW27445   4.696   0.559   8.238  0.1581 -0.8649  0.7215
 5271SOL    HW127446   4.671   0.615   8.312  1.6750  0.5224  0.1920
 5271SOL    HW227447   4.734   0.483   8.282  2.4040 -0.2545 -0.1369
 5272SOL     OW27448   0.905   4.575   7.010  0.7633 -0.4059  0.2033
 5272SOL    HW127449   0.877   4.643   7.072  0.2413  0.1102 -0.6044
 5272SOL    HW227450   0.851   4.604   6.937 -2.2866 -0.0892  2.5631
 5273SOL     OW27451   0.466   0.878  14.826 -0.0737 -0.4617  0.1321
 5273SOL    HW127452   0.556   0.905  14.849 -0.9324 -0.1144  3.1470
 5273SOL    HW227453   0.417   0.929  14.891  0.9890  0.6787  0.0517
 5274SOL     OW27454   0.750   0.486   2.147 -0.4770  0.0327 -0.3146
 5274SOL    HW127455   0.669   0.504   2.195 -0.8329 -0.7570 -0.6152
 5274SOL    HW227456   0.710   0.414   2.098 -0.7327 -0.6308  0.8592
 5275SOL     OW27457   4.016   3.364  15.356 -0.0707  0.2915 -0.2148
 5275SOL    HW127458   4.048   3.450  15.329 -0.4916  0.2508 -0.8409
 5275SOL    HW227459   3.966   3.339  15.279 -2.1462 -0.4433  1.3475
 5276SOL     OW27460   2.841   3.195  16.222  0.3237  0.5770 -0.5082
 5276SOL    HW127461   2.824   3.197  16.317 -1.5883 -1.5503 -0.8009
 5276SOL    HW227462   2.753   3.176  16.189 -0.1964 -0.9069  1.6854
 5277SOL     OW27463   2.299   4.139   3.739 -0.1470 -0.2215 -0.0614
 5277SOL    HW127464   2.374   4.145   3.681 -0.0286  2.9897  0.4615
 5277SOL    HW227465   2.246   4.066   3.706 -0.5545  0.0161  0.0716
 5278SOL     OW27466   1.889   1.594  15.048 -0.0525  0.0813 -0.5409
 5278SOL    HW127467   1.927   1.665  14.997  0.2685 -0.7902 -1.5150
 5278SOL    HW227468   1.972   1.565  15.086 -0.1793 -0.7592 -0.8951
 5279SOL     OW27469   1.398   0.050   4.495 -0.3360  0.6973 -0.1686
 5279SOL    HW127470   1.419   0.127   4.548 -1.2232  0.6572  0.2513
 5279SOL    HW227471   1.341   0.011   4.562 -0.8651  1.7636  0.0073
 5280SOL     OW27472   4.106   3.566   4.424  0.6906  0.1082 -0.1591
 5280SOL    HW127473   4.134   3.607   4.342 -2.5409  1.0037 -0.8295
 5280SOL    HW227474   4.016   3.599   4.429  0.7126  0.3407 -1.3211
 5281SOL     OW27475   1.378   2.234   7.360  0.5551 -0.4656  0.0755
 5281SOL    HW127476   1.344   2.151   7.326 -0.5258  0.0589 -0.1250
 5281SOL    HW227477   1.310   2.261   7.421 -1.4857 -2.7674 -1.1755
 5282SOL     OW27478   0.081   1.880   3.658 -0.0460 -0.1648 -0.2625
 5282SOL    HW127479   0.125   1.901   3.740 -1.6772 -0.1503  0.6023
 5282SOL    HW227480   0.144   1.915   3.594 -0.0511  0.9309  0.3318
 5283SOL     OW27481   2.646   4.410   4.164  0.4523  0.3093  0.0830
 5283SOL    HW127482   2.597   4.344   4.116 -0.4283  2.5184 -2.0989
 5283SOL    HW227483   2.734   4.373   4.153  1.3227  2.0002  1.3117
 5284SOL     OW27484   1.791   2.258   1.844 -0.2468  0.6880 -0.0571
 5284SOL    HW127485   1.748   2.213   1.772 -1.6191  0.1677  1.1031
 5284SOL    HW227486   1.796   2.183   1.903 -0.6533  0.3177 -0.4989
 5285SOL     OW27487   3.675   0.364   6.774 -0.1766 -0.0605  0.1118
 5285SOL    HW127488   3.719   0.426   6.717 -1.1949  0.2951 -0.2936
 5285SOL    HW227489   3.627   0.419   6.836  1.5375  1.8554 -0.2618
 5286SOL     OW27490   0.791   1.667   7.505 -0.1974  0.0950  0.5386
 5286SOL    HW127491   0.743   1.724   7.566  1.3312  1.4185  0.5004
 5286SOL    HW227492   0.717   1.616   7.473  0.1653  0.9582 -1.6674
 5287SOL     OW27493   0.234   3.434   3.508 -0.2710  0.2414  0.1713
 5287SOL    HW127494   0.277   3.402   3.428 -2.0570  1.1306 -1.1560
 5287SOL    HW227495   0.305   3.489   3.540  0.8161 -1.8779  1.3634
 5288SOL     OW27496   3.384   0.493  16.751  0.5260 -0.0022  0.0731
 5288SOL    HW127497   3.354   0.462  16.666 -2.3983 -0.3631  1.2389
 5288SOL    HW227498   3.443   0.565  16.729 -1.4082  1.5836  0.0697
 5289SOL     OW27499   1.883   1.787   8.915 -0.0154 -0.6927  0.1951
 5289SOL    HW127500   1.830   1.734   8.974 -2.0797 -2.2292 -3.0046
 5289SOL    HW227501   1.855   1.878   8.927 -2.0612 -0.9611 -2.5498
 5290SOL     OW27502   4.286   4.689   5.557 -0.2291 -0.2669  0.4069
 5290SOL    HW127503   4.323   4.678   5.645  1.4991  0.5760 -0.2176
 5290SOL    HW227504   4.365   4.683   5.503 -2.6471 -1.3817 -2.9656
 5291SOL     OW27505   2.945   1.697  10.823  0.6670  0.1305  0.2623
 5291SOL    HW127506   2.939   1.604  10.801 -1.2107  0.0740  1.0115
 5291SOL    HW227507   2.854   1.722  10.807  0.9546  0.5127 -0.7205
 5292SOL     OW27508   2.131   0.219   8.474 -0.5917  0.0098 -0.1817
 5292SOL    HW127509   2.117   0.285   8.541 -1.5725 -0.0699 -0.3064
 5292SOL    HW227510   2.068   0.151   8.497 -0.4812  0.4514  1.4344
 5293SOL     OW27511   3.069   0.483  10.835  0.2230 -0.3651  0.1085
 5293SOL    HW127512   3.026   0.447  10.912  1.1203  0.1958  0.8712
 5293SOL    HW227513   3.134   0.413  10.828 -1.3236 -1.7305 -0.5642
 5294SOL     OW27514   0.431   2.979  10.931 -0.1617  0.0045 -0.1002
 5294SOL    HW127515   0.370   2.907  10.915 -0.1887  0.5353 -2.3916
 5294SOL    HW227516   0.508   2.922  10.933 -0.2554 -0.1818 -2.0293
 5295SOL     OW27517   0.524   3.114   8.066  0.1737 -0.3550  0.0542
 5295SOL    HW127518   0.589   3.183   8.067  0.8978 -1.0540  0.6938
 5295SOL    HW227519   0.467   3.151   8.134  0.1278 -1.3934  0.5857
 5296SOL     OW27520   4.717   1.448   6.317 -0.0754 -0.3281  0.3120
 5296SOL    HW127521   4.650   1.389   6.352  1.3087 -2.5806 -0.8107
 5296SOL    HW227522   4.732   1.416   6.228 -3.2332  1.4308 -0.8450
 5297SOL     OW27523   3.308   0.520   4.914 -0.4288 -0.0060  0.0870
 5297SOL    HW127524   3.398   0.491   4.904  0.1091  1.9328 -0.7748
 5297SOL    HW227525   3.316   0.607   4.875 -0.2279  1.0983  2.5752
 5298SOL     OW27526   0.094   3.257   3.652  0.1929 -0.2698 -0.5548
 5298SOL    HW127527   0.016   3.312   3.659  0.1666 -0.6212  1.9874
 5298SOL    HW227528   0.143   3.325   3.605  0.8526 -0.4114 -0.0758
 5299SOL     OW27529   3.056   2.545   3.471  0.4357 -0.4450 -0.2923
 5299SOL    HW127530   2.996   2.585   3.408  0.9062 -1.5173 -1.4146
 5299SOL    HW227531   3.124   2.521   3.409  1.8920  1.1827  0.6860
 5300SOL     OW27532   0.924   1.612   5.337 -0.0731 -0.4368 -0.2382
 5300SOL    HW127533   0.867   1.544   5.302 -1.7698  0.7963  0.1542
 5300SOL    HW227534   0.883   1.655   5.413 -1.1376  0.5422 -1.3772
 5301SOL     OW27535   4.455   2.870   2.475  0.1182  0.3174 -0.4672
 5301SOL    HW127536   4.396   2.920   2.418 -0.2879  1.1330  0.6798
 5301SOL    HW227537   4.516   2.835   2.410  0.7381  2.5687 -1.1140
 5302SOL     OW27538   1.046   2.548   1.160  0.1736  0.3727  0.3625
 5302SOL    HW127539   1.058   2.643   1.153 -0.1857  0.4477  0.7806
 5302SOL    HW227540   1.068   2.515   1.073 -2.2650 -1.9662  0.6633
 5303SOL     OW27541   4.150   2.545   2.417 -0.1613  0.1013 -0.5833
 5303SOL    HW127542   4.206   2.526   2.492 -0.0930  1.6451 -0.2629
 5303SOL    HW227543   4.074   2.488   2.431  1.5490 -1.3562  2.8682
 5304SOL     OW27544   0.193   0.703   4.584 -0.2213  0.3541  0.3362
 5304SOL    HW127545   0.174   0.657   4.503 -1.1654 -0.0739  0.7991
 5304SOL    HW227546   0.284   0.732   4.588 -0.4829  1.5056 -2.5063
 5305SOL     OW27547   4.702   1.629   3.632 -0.0829 -0.2192  0.2627
 5305SOL    HW127548   0.022   1.575   3.576 -1.7546 -1.5841 -0.0704
 5305SOL    HW227549   0.023   1.706   3.646  0.4460 -0.3633 -1.1367
 5306SOL     OW27550   1.010   0.122   6.125  0.5264  0.5945  0.2623
 5306SOL    HW127551   0.929   0.078   6.147 -1.0112  1.3958 -3.8603
 5306SOL    HW227552   0.990   0.183   6.054  2.6481 -1.3449 -2.0240
 5307SOL     OW27553   3.961   1.058   7.246  0.0504 -0.1266  0.3439
 5307SOL    HW127554   4.031   1.063   7.180  2.4509 -1.6360  2.7891
 5307SOL    HW227555   3.978   1.136   7.299  1.5534  0.0168 -0.3228
 5308SOL     OW27556   0.108   1.149   4.200  0.8279 -0.1082  0.3706
 5308SOL    HW127557   0.051   1.180   4.270  0.4749 -0.1174  0.0839
 5308SOL    HW227558   0.196   1.156   4.238  1.7324 -0.2641 -1.7138
 5309SOL     OW27559   2.024   3.304  16.110  0.1602  0.6124 -0.3820
 5309SOL    HW127560   1.942   3.342  16.141 -1.1538 -2.4433 -0.1296
 5309SOL    HW227561   2.083   3.379  16.115  1.0690 -0.1839  0.8379
 5310SOL     OW27562   3.210   2.754  12.110  0.2815  0.3249 -0.4607
 5310SOL    HW127563   3.178   2.844  12.104  1.4642  0.6944 -1.2664
 5310SOL    HW227564   3.132   2.726  12.157 -0.6981  0.6892 -1.8996
 5311SOL     OW27565   0.513   3.370   0.274 -0.6599  0.0365 -0.0136
 5311SOL    HW127566   0.531   3.435   0.341 -1.3006 -0.3829  0.5595
 5311SOL    HW227567   0.587   3.391   0.217 -0.9959  1.9121  0.2410
 5312SOL     OW27568   0.555   2.876  16.990  0.1704  0.0082  0.0865
 5312SOL    HW127569   0.547   2.967  16.961  3.2267  0.1899 -0.1693
 5312SOL    HW227570   0.592   2.838  16.911  0.6406 -0.0047  0.3124
 5313SOL     OW27571   2.216   2.075  11.393  0.2693 -0.3170  0.1434
 5313SOL    HW127572   2.240   2.130  11.468 -1.4943 -0.3240  0.7093
 5313SOL    HW227573   2.170   2.002  11.434  0.0408 -0.0533  0.3507
 5314SOL     OW27574   1.309   2.085  10.064 -0.2128 -0.6044  0.1456
 5314SOL    HW127575   1.388   2.086  10.010  0.5245  1.5365  1.2624
 5314SOL    HW227576   1.305   2.166  10.115 -1.4003  0.6868 -2.0025
 5315SOL     OW27577   1.838   3.843   0.919  0.3514 -0.1005  0.2798
 5315SOL    HW127578   1.921   3.839   0.966  0.2499 -0.9661  0.4018
 5315SOL    HW227579   1.805   3.753   0.910 -1.5406  0.4672  1.6490
 5316SOL     OW27580   2.852   2.348   2.228  0.0432  0.5111  0.5239
 5316SOL    HW127581   2.829   2.433   2.267 -1.1078  1.2782 -1.7969
 5316SOL    HW227582   2.804   2.284   2.279 -0.4433 -0.2634 -0.8938
 5317SOL     OW27583   1.465   0.629   0.966  0.3059 -0.1765 -0.3817
 5317SOL    HW127584   1.419   0.546   0.962 -1.7005  0.9460 -0.3878
 5317SOL    HW227585   1.404   0.692   0.928  0.9273  1.9091  2.0442
 5318SOL     OW27586   0.479   1.377  15.203  0.3616 -0.3652  0.3093
 5318SOL    HW127587   0.406   1.439  15.202 -0.7035 -1.6276  0.6589
 5318SOL    HW227588   0.481   1.340  15.291  0.5526 -1.6989 -0.2639
 5319SOL     OW27589   3.970   3.911   6.254  0.0053 -0.5091 -1.0768
 5319SOL    HW127590   3.885   3.919   6.297  0.3706  3.2756 -0.9858
 5319SOL    HW227591   3.956   3.954   6.170  0.6242  2.0642  0.1180
 5320SOL     OW27592   4.424   0.524   7.392 -0.2498 -0.0525  0.4578
 5320SOL    HW127593   4.511   0.523   7.432  1.5619 -0.7672 -3.4672
 5320SOL    HW227594   4.457   0.498   7.306 -0.0256 -3.4235  1.5882
 5321SOL     OW27595   0.402   2.215  16.680 -0.1290  0.1119 -0.1260
 5321SOL    HW127596   0.491   2.202  16.711  0.8545  4.9193 -0.9580
 5321SOL    HW227597   0.370   2.238  16.767 -0.9937 -0.3794 -0.3163
 5322SOL     OW27598   0.175   2.317   2.443 -0.0735 -0.3715 -0.0411
 5322SOL    HW127599   0.119   2.276   2.509  1.7584 -1.7460  0.6575
 5322SOL    HW227600   0.108   2.320   2.375 -2.3789  3.1851  2.4620
 5323SOL     OW27601   2.686   1.420  12.556  0.6204 -0.1071 -0.3535
 5323SOL    HW127602   2.694   1.467  12.474  0.4116 -0.6787 -0.7039
 5323SOL    HW227603   2.646   1.484  12.615 -0.9473 -0.6013 -0.8878
 5324SOL     OW27604   3.384   0.089   7.464 -0.9314  0.0328  0.2808
 5324SOL    HW127605   3.475   0.102   7.493  0.0028 -3.3712 -1.0503
 5324SOL    HW227606   3.340   0.119   7.544 -0.7213  0.9319  0.0571
 5325SOL     OW27607   4.715   0.836   3.437  0.2068 -0.5419  0.0228
 5325SOL    HW127608   4.712   0.872   3.525 -1.5530  0.5815 -0.4982
 5325SOL    HW227609   0.009   0.907   3.380 -1.2241  0.0108 -0.0360
 5326SOL     OW27610   2.409   1.058  10.314  0.4066  0.4137  0.1613
 5326SOL    HW127611   2.503   1.062  10.331  0.2667 -0.5342  1.1018
 5326SOL    HW227612   2.368   1.115  10.379 -0.1587 -1.2824  1.2579
 5327SOL     OW27613   3.415   0.507   0.491 -0.4131  0.2283 -0.0952
 5327SOL    HW127614   3.370   0.578   0.445 -1.2224 -0.5309 -0.4938
 5327SOL    HW227615   3.506   0.533   0.482  0.2264 -1.2621  2.2512
 5328SOL     OW27616   2.528   1.743   3.768 -0.1362  0.0945  0.3388
 5328SOL    HW127617   2.596   1.705   3.824  0.8541  1.2798 -0.0689
 5328SOL    HW227618   2.560   1.729   3.679  1.8220 -1.1103  1.2426
 5329SOL     OW27619   0.015   0.378   9.055  0.5005  0.1872 -1.0272
 5329SOL    HW127620   0.048   0.294   9.089 -0.2214 -0.1699 -1.2063
 5329SOL    HW227621   4.666   0.386   9.099  0.7605 -0.9484 -0.3033
 5330SOL     OW27622   0.360   1.334  13.589  0.1988 -0.5280  0.2666
 5330SOL    HW127623   0.366   1.422  13.553 -1.0215  0.1890  1.8161
 5330SOL    HW227624   0.311   1.346  13.671 -0.0092 -0.8808  0.1972
 5331SOL     OW27625   2.979   2.880   8.194  0.4759 -0.2417  0.9860
 5331SOL    HW127626   2.909   2.864   8.257 -0.3945  0.3332  0.1626
 5331SOL    HW227627   2.957   2.815   8.128 -1.1796 -0.3515  1.6648
 5332SOL     OW27628   4.210   3.888   2.453 -0.5455 -0.1556 -0.5220
 5332SOL    HW127629   4.218   3.822   2.522 -0.8289 -0.8700 -1.1685
 5332SOL    HW227630   4.120   3.916   2.472 -0.3629 -0.6181  0.9639
 5333SOL     OW27631   4.201   0.469   2.040  0.0026  0.0618  0.2237
 5333SOL    HW127632   4.107   0.486   2.028 -0.7840 -4.0999  0.4380
 5333SOL    HW227633   4.232   0.557   2.062 -2.0991  0.9857 -0.5304
 5334SOL     OW27634   2.172   2.708   9.442  0.0888 -0.4548  0.1655
 5334SOL    HW127635   2.206   2.795   9.421  0.7389 -0.4616  1.2007
 5334SOL    HW227636   2.218   2.651   9.381 -1.2227 -0.6450 -0.6365
 5335SOL     OW27637   1.215   0.485   9.941  0.2163  1.2727  0.1922
 5335SOL    HW127638   1.217   0.564   9.995 -1.5996  0.6591  1.1553
 5335SOL    HW227639   1.142   0.500   9.882  1.8489  0.3079 -2.0685
 5336SOL     OW27640   1.444   3.275   5.767  0.0675  0.1229 -0.2296
 5336SOL    HW127641   1.372   3.298   5.825 -0.2671  1.6329 -1.2643
 5336SOL    HW227642   1.437   3.181   5.782  0.1592  0.3962  1.5310
 5337SOL     OW27643   1.551   3.708   4.178 -0.0420  0.2406 -0.4107
 5337SOL    HW127644   1.562   3.634   4.237 -1.6865 -0.1627 -0.6241
 5337SOL    HW227645   1.461   3.736   4.191  0.8634  1.9484  2.1574
 5338SOL     OW27646   2.946   2.769   5.120 -0.1275 -0.0805  0.5435
 5338SOL    HW127647   2.991   2.833   5.175  1.7722 -0.4297 -0.6205
 5338SOL    HW227648   2.974   2.685   5.155 -2.9471 -1.0432  0.5319
 5339SOL     OW27649   3.937   2.247   0.230  0.1191 -0.7656  0.0106
 5339SOL    HW127650   3.857   2.296   0.213  1.5276  1.2346 -0.8345
 5339SOL    HW227651   3.981   2.262   0.146 -1.3288  0.6047 -0.4895
 5340SOL     OW27652   3.161   3.124  15.730  0.0919  0.3795 -0.0527
 5340SOL    HW127653   3.232   3.160  15.785  1.0114 -0.6453 -0.5631
 5340SOL    HW227654   3.086   3.154  15.781  0.4931  2.1153 -0.5074
 5341SOL     OW27655   3.702   3.881   3.494  0.5337  0.2542 -0.1022
 5341SOL    HW127656   3.707   3.812   3.427  2.7495 -1.4045  1.7773
 5341SOL    HW227657   3.622   3.924   3.465 -0.6458 -1.4769  0.5874
 5342SOL     OW27658   3.560   1.839   2.169 -0.5106 -0.3228 -0.8071
 5342SOL    HW127659   3.538   1.887   2.248  1.3789 -0.2263 -0.3422
 5342SOL    HW227660   3.520   1.754   2.190 -1.8499  0.8382  1.3419
 5343SOL     OW27661   2.884   0.333   4.910  0.0467 -0.0761  0.0886
 5343SOL    HW127662   2.929   0.249   4.908 -0.3712 -0.2731 -1.1541
 5343SOL    HW227663   2.932   0.381   4.843  0.1832 -2.5619 -1.6132
 5344SOL     OW27664   2.052   4.692   8.519 -0.1256  0.2406 -0.0494
 5344SOL    HW127665   2.022   4.611   8.478 -0.4399 -0.4003  1.4492
 5344SOL    HW227666   2.134   4.712   8.474  1.1528 -0.5474  1.9329
 5345SOL     OW27667   1.427   4.309   8.816 -0.0912 -0.1896  0.0286
 5345SOL    HW127668   1.472   4.226   8.836  0.7393  0.0839 -0.6669
 5345SOL    HW227669   1.498   4.369   8.841  1.9591 -2.8819  0.7246
 5346SOL     OW27670   3.995   0.628   7.670 -0.7553 -0.1296  0.6864
 5346SOL    HW127671   3.989   0.561   7.602  0.7392  1.7632 -1.3268
 5346SOL    HW227672   3.917   0.679   7.650  0.4421  0.9814 -1.1930
 5347SOL     OW27673   0.026   0.624  17.248 -0.5717 -0.2529 -0.7183
 5347SOL    HW127674   4.668   0.607  17.250 -0.0456 -2.8716  1.7002
 5347SOL    HW227675   0.069   0.597  17.329 -0.8803  1.8802  0.1420
 5348SOL     OW27676   0.380   0.294   4.257  0.1357  0.0023  0.1871
 5348SOL    HW127677   0.286   0.285   4.272  0.2411 -1.6770 -0.1444
 5348SOL    HW227678   0.392   0.388   4.248 -0.8203  0.2987  1.8626
 5349SOL     OW27679   2.147   1.106   4.004  0.4992 -0.0839  0.5405
 5349SOL    HW127680   2.100   1.136   4.082 -0.3020  0.8717 -0.3171
 5349SOL    HW227681   2.104   1.021   3.995  0.9737 -0.2320 -0.2795
 5350SOL     OW27682   2.879   2.010  14.192  0.2768  0.3302 -0.1228
 5350SOL    HW127683   2.868   1.956  14.270  0.2694 -0.7169 -0.8525
 5350SOL    HW227684   2.867   2.100  14.223 -2.7405 -0.1054 -0.0477
 5351SOL     OW27685   0.313   4.013  13.129  0.3874 -0.2560  0.3206
 5351SOL    HW127686   0.324   4.003  13.035 -0.4257 -2.0714  0.4102
 5351SOL    HW227687   0.239   4.074  13.134  1.3998  1.1080 -1.6175
 5352SOL     OW27688   1.781   4.227   3.857 -0.6226  0.1339 -0.1755
 5352SOL    HW127689   1.739   4.243   3.941  0.5253  2.3175 -0.0144
 5352SOL    HW227690   1.708   4.196   3.803  0.9413 -1.5848 -1.3345
 5353SOL     OW27691   3.540   0.922   6.032  0.0410  0.6796  0.2525
 5353SOL    HW127692   3.597   0.870   6.089 -2.2259 -0.7166  1.2702
 5353SOL    HW227693   3.513   0.986   6.098 -1.5595 -1.2148  1.4615
 5354SOL     OW27694   3.645   1.027   7.819  0.5722  0.2974 -0.0003
 5354SOL    HW127695   3.677   1.113   7.846  2.7352 -0.6294  0.3522
 5354SOL    HW227696   3.707   0.993   7.755 -0.2706 -0.8071 -0.2198
 5355SOL     OW27697   0.238   4.371   7.767 -0.4501 -0.3986  0.6416
 5355SOL    HW127698   0.212   4.454   7.727 -2.5535 -2.0178 -1.3849
 5355SOL    HW227699   0.248   4.387   7.860  0.5019  0.5472  0.3732
 5356SOL     OW27700   4.528   4.348  13.963 -0.0068  0.1292 -0.4095
 5356SOL    HW127701   4.612   4.328  13.920  0.9618  2.1159  0.5660
 5356SOL    HW227702   4.493   4.261  13.982  1.1924 -0.0556  0.8913
 5357SOL     OW27703   3.159   4.366   1.796 -0.1204  0.3430 -0.0300
 5357SOL    HW127704   3.115   4.281   1.785 -1.8783  1.1044  1.1717
 5357SOL    HW227705   3.242   4.354   1.749  0.4255  0.0869  1.0159
 5358SOL     OW27706   3.522   3.431   3.456 -0.4870 -0.3963 -0.4657
 5358SOL    HW127707   3.516   3.336   3.453 -0.0619 -0.5394  2.5940
 5358SOL    HW227708   3.616   3.454   3.454 -0.0975 -2.1748 -2.1183
 5359SOL     OW27709   4.141   4.109   9.508  0.1115 -0.1767  0.6112
 5359SOL    HW127710   4.048   4.120   9.491  0.0509 -1.1211  0.3320
 5359SOL    HW227711   4.128   4.056   9.587 -0.0376  4.4700  3.7127
 5360SOL     OW27712   2.765   3.322  12.882  0.0184  0.0303  0.5961
 5360SOL    HW127713   2.810   3.402  12.907 -0.3641  0.0975  1.0656
 5360SOL    HW227714   2.803   3.320  12.794  1.9686  2.3539  1.4082
 5361SOL     OW27715   0.525   0.699   6.095  0.0562  0.3989 -0.0470
 5361SOL    HW127716   0.472   0.629   6.132 -1.6711  1.0457 -1.2973
 5361SOL    HW227717   0.486   0.698   6.008 -1.3364 -0.2982  0.5841
 5362SOL     OW27718   2.502   3.667   9.614  0.3453  0.0393  0.4952
 5362SOL    HW127719   2.524   3.754   9.580  0.2337 -0.2731 -0.3637
 5362SOL    HW227720   2.568   3.650   9.681  1.1425 -0.7040 -0.4863
 5363SOL     OW27721   2.460   4.560   3.614  0.1128 -0.2442 -0.6349
 5363SOL    HW127722   2.527   4.627   3.631  1.4831 -1.5581 -0.8829
 5363SOL    HW227723   2.382   4.613   3.597 -0.2294 -0.2615  0.9345
 5364SOL     OW27724   0.792   4.572   9.954  0.1967  0.1443  0.1317
 5364SOL    HW127725   0.882   4.555   9.928  0.7407  1.2578  1.2441
 5364SOL    HW227726   0.779   4.664   9.932  1.6429  0.4421  0.5044
 5365SOL     OW27727   3.973   2.699   1.250 -0.1097  0.1571 -0.2213
 5365SOL    HW127728   4.023   2.752   1.312 -1.2626 -0.8380  1.5563
 5365SOL    HW227729   3.882   2.708   1.277  0.5355 -1.3973  2.4516
 5366SOL     OW27730   1.170   2.844   4.370 -0.3050  0.4795 -0.3907
 5366SOL    HW127731   1.083   2.809   4.392 -0.3205 -0.3774 -1.8190
 5366SOL    HW227732   1.141   2.894   4.294  1.5472  2.0188 -0.0673
 5367SOL     OW27733   2.382   2.551   9.370  0.7003 -0.2081 -0.1644
 5367SOL    HW127734   2.426   2.498   9.436 -0.0378  0.2249  0.6808
 5367SOL    HW227735   2.366   2.487   9.301 -0.0499  0.2029 -0.3692
 5368SOL     OW27736   0.367   1.692   0.591 -0.0723 -0.5898  0.2265
 5368SOL    HW127737   0.407   1.609   0.618  0.0713 -1.1158 -1.6252
 5368SOL    HW227738   0.310   1.717   0.664 -0.9570 -0.7101 -0.4191
 5369SOL     OW27739   0.752   1.446   5.604  0.7330 -0.7043 -0.5194
 5369SOL    HW127740   0.813   1.460   5.676 -0.5383 -0.8352  0.5906
 5369SOL    HW227741   0.777   1.358   5.578  1.0661 -0.9334  0.5902
 5370SOL     OW27742   3.651   3.333   5.587 -0.1004  0.3050 -0.0293
 5370SOL    HW127743   3.566   3.375   5.579 -0.4546 -0.1522  1.4079
 5370SOL    HW227744   3.692   3.361   5.669 -0.3064 -1.7489  0.7834
 5371SOL     OW27745   4.672   4.694   9.395 -0.4068  0.0792  0.2041
 5371SOL    HW127746   0.023   4.728   9.374 -0.3586  0.3838  0.8984
 5371SOL    HW227747   4.614   0.011   9.340 -0.5148  0.1097  0.3472
 5372SOL     OW27748   4.286   2.990   5.315 -0.9132  0.1413 -0.5489
 5372SOL    HW127749   4.285   3.003   5.220  1.1000 -1.6156 -0.8224
 5372SOL    HW227750   4.330   2.905   5.314 -1.3711 -0.1167  2.0747
 5373SOL     OW27751   3.497   4.585   2.752  0.2764  0.2401  0.2128
 5373SOL    HW127752   3.544   4.557   2.831 -1.8431 -0.0260  1.3876
 5373SOL    HW227753   3.539   4.670   2.744  0.1121  0.3258  0.2560
 5374SOL     OW27754   1.130   3.807   7.248  0.2721  0.1087  0.5240
 5374SOL    HW127755   1.177   3.739   7.296  0.8631 -0.3592 -0.7490
 5374SOL    HW227756   1.047   3.808   7.296  0.0147 -1.0090  0.0778
 5375SOL     OW27757   1.267   2.184  14.535 -0.1761  0.3303 -0.2452
 5375SOL    HW127758   1.258   2.223  14.622 -2.4422 -2.0176  0.5781
 5375SOL    HW227759   1.276   2.260  14.479  2.6159  1.0543  1.1904
 5376SOL     OW27760   1.158   1.351   8.883 -0.6262 -0.2238  0.2535
 5376SOL    HW127761   1.178   1.410   8.811 -2.5734  0.5573  0.3373
 5376SOL    HW227762   1.072   1.390   8.899  0.1259  0.8822  1.5878
 5377SOL     OW27763   4.722   0.233   1.217 -0.0739 -0.2220 -0.2090
 5377SOL    HW127764   4.704   0.273   1.302  0.7245 -0.5810  0.1332
 5377SOL    HW227765   4.666   0.285   1.159 -0.5476 -0.2702  0.2135
 5378SOL     OW27766   2.846   4.330   4.655 -0.0320 -0.0987 -0.1361
 5378SOL    HW127767   2.798   4.358   4.733 -0.3812 -0.8604 -0.0848
 5378SOL    HW227768   2.935   4.339   4.688  0.2053  1.1296 -1.1135
 5379SOL     OW27769   3.325   0.268   3.064 -0.3373 -0.5893 -0.2340
 5379SOL    HW127770   3.399   0.324   3.090 -0.1275  0.3623 -2.9243
 5379SOL    HW227771   3.341   0.189   3.116 -0.2138 -1.2982 -1.3456
 5380SOL     OW27772   0.326   0.457   1.032  0.1544 -0.4327 -0.5345
 5380SOL    HW127773   0.258   0.523   1.043 -0.2784 -0.9455 -0.1436
 5380SOL    HW227774   0.271   0.386   1.001 -1.5530  0.6281  0.0295
 5381SOL     OW27775   3.658   4.024   8.076 -0.3603  0.0199 -0.4268
 5381SOL    HW127776   3.695   4.005   8.162 -1.1886  3.9723  0.8095
 5381SOL    HW227777   3.709   4.101   8.049 -1.4991  1.8168  2.6266
 5382SOL     OW27778   0.659   0.641   6.711 -0.1600  0.2783 -0.4265
 5382SOL    HW127779   0.738   0.655   6.660  0.6469 -0.7881  0.5193
 5382SOL    HW227780   0.683   0.637   6.803 -3.8360  1.4548  0.5781
 5383SOL     OW27781   1.531   3.550   0.254 -0.1240 -0.2699 -0.2020
 5383SOL    HW127782   1.525   3.456   0.272  1.8943 -0.9741 -3.1377
 5383SOL    HW227783   1.520   3.541   0.159  1.7319  1.6854 -0.6014
 5384SOL     OW27784   4.029   0.322   0.582  0.5333 -0.2248  0.3026
 5384SOL    HW127785   4.053   0.254   0.519  2.3597 -0.6164  1.4524
 5384SOL    HW227786   4.021   0.261   0.655  0.5532  1.6764  1.8908
 5385SOL     OW27787   1.826   3.962   7.488  0.3040 -0.0523  0.6930
 5385SOL    HW127788   1.838   3.920   7.573 -0.2235 -1.1564  0.2223
 5385SOL    HW227789   1.835   3.885   7.432  0.9968 -0.8221  1.8521
 5386SOL     OW27790   0.099   0.922  10.380  0.0724  0.0261  0.4882
 5386SOL    HW127791   0.152   0.879  10.313 -1.7800 -1.0258 -0.2903
 5386SOL    HW227792   0.022   0.866  10.380 -1.2180  1.8157 -0.0977
 5387SOL     OW27793   4.376   4.438  12.476  0.5439  0.0273 -0.5855
 5387SOL    HW127794   4.340   4.385  12.548  0.6424 -0.3533 -0.8159
 5387SOL    HW227795   4.465   4.454  12.507  1.0557 -2.1381 -0.9185
 5388SOL     OW27796   1.990   3.930   2.243  0.0208  0.7878  0.1696
 5388SOL    HW127797   2.037   3.847   2.236 -0.4420  0.4138  1.4630
 5388SOL    HW227798   2.018   3.967   2.159 -0.4038 -0.1468 -0.3881
 5389SOL     OW27799   3.840   2.043  12.656  0.0178 -0.1964 -0.6634
 5389SOL    HW127800   3.875   1.965  12.613 -1.6830 -0.8300 -0.8911
 5389SOL    HW227801   3.760   2.006  12.691  1.6365 -0.6824  2.5250
 5390SOL     OW27802   2.570   0.242  17.368  0.1496  0.1142  0.4618
 5390SOL    HW127803   2.571   0.190  17.448 -0.9401 -1.3924 -0.5143
 5390SOL    HW227804   2.563   0.332  17.401  0.0927  0.3298 -0.1289
 5391SOL     OW27805   0.679   0.451  10.280 -0.1412  0.4954 -0.2426
 5391SOL    HW127806   0.623   0.408  10.345 -0.6292  1.2691 -0.1531
 5391SOL    HW227807   0.666   0.543  10.301  0.3007  0.2705  0.9982
 5392SOL     OW27808   4.722   0.108  16.472 -0.2181  0.0479 -0.1287
 5392SOL    HW127809   0.022   0.184  16.425  1.0038 -0.4413 -0.0111
 5392SOL    HW227810   0.058   0.044  16.471 -0.6959 -0.4712 -2.3659
 5393SOL     OW27811   0.779   3.104  13.773  0.4536  0.6589  0.4140
 5393SOL    HW127812   0.716   3.040  13.806  0.0985  1.0078  0.4109
 5393SOL    HW227813   0.784   3.079  13.681  2.5850  0.7746  0.4864
 5394SOL     OW27814   0.912   0.677  15.730 -0.4024 -0.6056 -0.5763
 5394SOL    HW127815   0.861   0.737  15.675 -1.6825 -0.1497  1.0988
 5394SOL    HW227816   0.943   0.745  15.791  1.6322 -0.9517 -1.2100
 5395SOL     OW27817   2.973   3.136   6.416 -0.1733 -0.1347  0.1938
 5395SOL    HW127818   3.042   3.162   6.355 -1.1032  0.4173 -0.6225
 5395SOL    HW227819   2.935   3.222   6.434  0.0239  0.6106 -2.9342
 5396SOL     OW27820   4.045   4.239   6.561 -0.5651 -0.3356  0.0187
 5396SOL    HW127821   4.000   4.323   6.575  0.8351  0.4173 -0.0117
 5396SOL    HW227822   3.967   4.184   6.571  0.5550 -1.7130  1.1799
 5397SOL     OW27823   0.921   2.675   7.048 -0.2179 -0.0748 -0.1373
 5397SOL    HW127824   0.916   2.579   7.051 -0.3470 -0.0798 -0.4244
 5397SOL    HW227825   0.864   2.688   6.972  0.1031 -0.8297 -0.5097
 5398SOL     OW27826   1.623   3.821   7.204  0.7084 -0.1253  0.5529
 5398SOL    HW127827   1.579   3.745   7.167  1.7309  0.0180 -0.9683
 5398SOL    HW227828   1.645   3.870   7.125  0.7553 -0.3421  0.4308
 5399SOL     OW27829   0.212   2.392   5.656 -0.1170 -0.1945  0.2945
 5399SOL    HW127830   0.225   2.305   5.694 -2.9317 -0.2051  1.2067
 5399SOL    HW227831   0.211   2.449   5.733 -0.2610  1.3907 -0.8727
 5400SOL     OW27832   2.494   0.424  12.854  0.4257  0.1090  0.1729
 5400SOL    HW127833   2.477   0.352  12.794  0.8364  0.3943 -0.2925
 5400SOL    HW227834   2.506   0.374  12.934 -1.5197 -1.6140 -0.6225
 5401SOL     OW27835   3.115   3.638   3.095 -0.0732 -0.2419  0.4008
 5401SOL    HW127836   3.205   3.651   3.125 -0.5173  0.3900  1.4154
 5401SOL    HW227837   3.127   3.549   3.061  0.1339 -0.9176  2.2792
 5402SOL     OW27838   1.929   4.399   7.363 -0.1136 -0.3422 -0.3463
 5402SOL    HW127839   1.919   4.458   7.287 -0.3173  0.5299  0.3563
 5402SOL    HW227840   1.951   4.312   7.330 -0.3555 -0.2002 -0.8811
 5403SOL     OW27841   2.178   4.328   2.334  0.4138  0.2222 -0.0092
 5403SOL    HW127842   2.102   4.372   2.373 -0.1567 -0.7125 -0.0603
 5403SOL    HW227843   2.172   4.376   2.251  1.5392 -1.1098 -0.8630
 5404SOL     OW27844   2.877   1.631  12.002 -0.5451 -0.7887  0.0759
 5404SOL    HW127845   2.939   1.580  12.054 -2.2171 -1.2179  1.6446
 5404SOL    HW227846   2.878   1.573  11.926  1.0654 -0.1680 -0.3551
 5405SOL     OW27847   3.663   2.944   7.260 -0.2125  0.0136 -0.3922
 5405SOL    HW127848   3.600   2.934   7.331 -0.2753 -0.8810 -0.5764
 5405SOL    HW227849   3.606   2.922   7.186 -0.0826  1.7420 -1.0103
 5406SOL     OW27850   0.707   2.632  13.502 -0.7524  0.4850  0.3840
 5406SOL    HW127851   0.724   2.692  13.429  4.3310 -2.1441 -0.6161
 5406SOL    HW227852   0.742   2.555  13.457 -0.0250 -0.1176  2.0011
 5407SOL     OW27853   0.696   2.047   2.710 -0.0669 -0.6387 -0.0081
 5407SOL    HW127854   0.731   2.117   2.765 -0.0147  1.8462 -3.1909
 5407SOL    HW227855   0.734   1.976   2.763  2.1436  0.3953 -0.2243
 5408SOL     OW27856   4.723   2.809  17.454  0.1206  0.3090  0.1666
 5408SOL    HW127857   0.028   2.860  17.383 -0.5674 -1.3315 -1.3853
 5408SOL    HW227858   0.006   2.867  17.528 -0.1161  4.2903 -2.8505
 5409SOL     OW27859   3.518   1.542   3.225 -0.4722 -0.5163  0.0810
 5409SOL    HW127860   3.606   1.558   3.191 -0.8913 -0.7324 -1.1077
 5409SOL    HW227861   3.468   1.622   3.215 -0.4910 -0.2812  2.0688
 5410SOL     OW27862   1.436   2.929  12.077 -0.3687 -0.0974  0.0768
 5410SOL    HW127863   1.371   2.892  12.137 -0.9587 -1.4164 -1.3467
 5410SOL    HW227864   1.486   2.847  12.070  0.7143  0.6199 -0.4666
 5411SOL     OW27865   2.205   1.237   7.264  0.2246 -0.3618 -0.1145
 5411SOL    HW127866   2.198   1.331   7.250  2.3916 -0.4214 -1.5259
 5411SOL    HW227867   2.298   1.215   7.262  0.4074  0.4945 -0.7182
 5412SOL     OW27868   3.544   4.214   5.497 -0.0081  0.1962 -0.2697
 5412SOL    HW127869   3.538   4.288   5.436  0.6047 -1.1850 -1.9942
 5412SOL    HW227870   3.470   4.160   5.468  1.1240 -0.8649 -1.1986
 5413SOL     OW27871   3.894   4.044   9.402 -0.2362  0.1800 -0.8270
 5413SOL    HW127872   3.828   4.044   9.332  0.1677 -1.5805 -1.2108
 5413SOL    HW227873   3.920   3.952   9.393  0.8539  0.5778 -1.7419
 5414SOL     OW27874   2.111   1.014  11.563  0.0388 -0.2250  0.4469
 5414SOL    HW127875   2.167   0.951  11.608  1.3909  0.1351 -0.7206
 5414SOL    HW227876   2.152   1.090  11.604  1.1208  1.2843 -3.3796
 5415SOL     OW27877   3.187   0.720   2.624  0.3349 -0.0494  0.6323
 5415SOL    HW127878   3.223   0.809   2.621  0.7855 -0.2585 -0.1884
 5415SOL    HW227879   3.231   0.695   2.705  1.2248  0.8870  0.4464
 5416SOL     OW27880   2.166   0.923   4.812  0.0907  0.4738 -0.1822
 5416SOL    HW127881   2.090   0.911   4.868 -0.4635 -0.7974 -1.1935
 5416SOL    HW227882   2.207   0.993   4.863  2.3514 -0.2111 -1.0187
 5417SOL     OW27883   0.741   2.038  17.351 -0.3845  0.1012 -0.3918
 5417SOL    HW127884   0.742   1.985  17.431  0.6590  0.9047  0.1337
 5417SOL    HW227885   0.654   2.023  17.316 -0.5457 -4.4635  1.9103
 5418SOL     OW27886   2.696   4.612   8.516 -0.3514 -0.0960  0.7847
 5418SOL    HW127887   2.609   4.592   8.551 -1.0741 -0.4709 -1.2661
 5418SOL    HW227888   2.678   4.687   8.460  2.3117 -0.9234 -1.1569
 5419SOL     OW27889   0.571   0.789   8.561  0.3841  0.3618  0.2363
 5419SOL    HW127890   0.595   0.819   8.649  0.9557 -0.7736  0.4724
 5419SOL    HW227891   0.638   0.723   8.546 -1.3145 -0.9288 -1.6574
 5420SOL     OW27892   1.332   1.051  11.908 -0.1707 -0.0162 -0.3710
 5420SOL    HW127893   1.277   1.026  11.834 -0.2999 -1.4681  0.2299
 5420SOL    HW227894   1.303   1.140  11.927 -2.2039 -1.1191  1.6054
 5421SOL     OW27895   2.663   0.461   4.226 -0.3311  0.3028  0.4378
 5421SOL    HW127896   2.751   0.497   4.221 -0.3901  0.5321  1.0408
 5421SOL    HW227897   2.667   0.412   4.144 -0.3359  1.4555 -0.2346
 5422SOL     OW27898   4.566   3.230   9.340 -0.6508 -0.3762 -0.2177
 5422SOL    HW127899   4.581   3.136   9.326  0.0605 -0.7518  3.1689
 5422SOL    HW227900   4.546   3.260   9.252 -1.8954  1.1561  0.5988
 5423SOL     OW27901   2.380   1.713  14.704  0.3200  0.2565  0.2232
 5423SOL    HW127902   2.431   1.660  14.765  1.9202 -0.6341 -1.8679
 5423SOL    HW227903   2.340   1.651  14.643 -0.6115  0.2417  0.8583
 5424SOL     OW27904   3.996   1.045   4.363  0.2357  0.1807  0.3050
 5424SOL    HW127905   3.968   0.954   4.347 -2.0759  1.3189 -2.0032
 5424SOL    HW227906   3.915   1.091   4.342 -0.2343 -1.2369 -0.9560
 5425SOL     OW27907   0.394   1.508  12.783  0.0072 -0.4100 -0.2919
 5425SOL    HW127908   0.377   1.491  12.876  0.0952  1.4987  0.0814
 5425SOL    HW227909   0.447   1.430  12.765  0.3122 -0.8009  2.3000
 5426SOL     OW27910   3.411   0.344   7.158 -0.0965  0.0397 -0.3960
 5426SOL    HW127911   3.457   0.270   7.118  1.1974  1.1927 -1.0495
 5426SOL    HW227912   3.386   0.377   7.072 -0.7589 -0.1666 -0.2805
 5427SOL     OW27913   0.932   2.636   3.253  0.0854  0.2832  0.0414
 5427SOL    HW127914   1.006   2.695   3.267  1.9489 -1.7921 -1.0741
 5427SOL    HW227915   0.855   2.677   3.292  1.0624  1.3450  0.8512
 5428SOL     OW27916   0.655   2.904  17.261 -0.1135 -0.4254  0.4093
 5428SOL    HW127917   0.623   2.994  17.263  0.1858 -0.3979  3.1342
 5428SOL    HW227918   0.627   2.880  17.172  0.1629  1.3975 -0.1641
 5429SOL     OW27919   2.632   0.739   6.101 -0.4477  0.3248 -0.3962
 5429SOL    HW127920   2.554   0.790   6.124  1.7078  2.4109  2.4470
 5429SOL    HW227921   2.626   0.753   6.007  1.6249  0.0180 -0.5716
 5430SOL     OW27922   2.680   1.254   2.066 -0.0211 -0.0941 -0.3788
 5430SOL    HW127923   2.598   1.302   2.082 -1.1419 -1.1712 -2.8870
 5430SOL    HW227924   2.647   1.180   2.015  1.4783  0.1511 -1.6717
 5431SOL     OW27925   3.084   3.481   9.113  0.0022 -0.0119  0.6001
 5431SOL    HW127926   3.114   3.465   9.203  0.1771  3.6908  1.2138
 5431SOL    HW227927   3.165   3.470   9.062 -1.0434  1.5781 -1.3780
 5432SOL     OW27928   0.716   0.654  13.268 -0.1205 -0.1685  0.1277
 5432SOL    HW127929   0.676   0.740  13.270  2.0984  0.8740 -0.3571
 5432SOL    HW227930   0.641   0.597  13.250 -0.0987 -0.4423  0.8838
 5433SOL     OW27931   2.030   1.083   2.610  0.3615 -0.0213 -0.2457
 5433SOL    HW127932   2.042   1.160   2.555 -0.1246  0.6841  0.6363
 5433SOL    HW227933   2.120   1.086   2.643 -0.3436  0.6136  1.6381
 5434SOL     OW27934   4.572   1.907   4.837  0.2692  0.2221  0.2737
 5434SOL    HW127935   4.572   1.984   4.780  0.8974 -0.0966 -0.1474
 5434SOL    HW227936   4.549   1.839   4.774  1.5534  1.7939 -1.8712
 5435SOL     OW27937   4.265   0.473   0.524  0.8052 -0.1584  1.0144
 5435SOL    HW127938   4.174   0.478   0.493  0.3725 -0.8926  2.1476
 5435SOL    HW227939   4.286   0.382   0.543 -0.0131 -0.1416  2.0057
 5436SOL     OW27940   2.361   0.695   3.505 -0.8714  0.1899  0.4811
 5436SOL    HW127941   2.331   0.618   3.458  0.6214  0.2667 -0.5790
 5436SOL    HW227942   2.412   0.647   3.570  1.7393  0.7672 -1.1337
 5437SOL     OW27943   2.310   3.317   7.097 -0.2343 -0.5366 -0.0260
 5437SOL    HW127944   2.382   3.302   7.158  0.5370  0.2424 -0.7400
 5437SOL    HW227945   2.250   3.249   7.126 -0.8097  0.4918  1.1864
 5438SOL     OW27946   2.831   2.931   3.245 -0.0992  0.2594  0.2028
 5438SOL    HW127947   2.904   2.970   3.294 -0.0254  0.6878 -0.2417
 5438SOL    HW227948   2.779   3.011   3.237 -1.3659 -0.5374  0.5714
 5439SOL     OW27949   2.426   2.405   8.493  0.0554  0.6251 -0.1573
 5439SOL    HW127950   2.393   2.417   8.583 -2.0913 -0.4361 -0.7850
 5439SOL    HW227951   2.467   2.318   8.495  0.4701  0.8365  1.0472
 5440SOL     OW27952   2.966   1.848   5.722 -0.4891 -0.3600  0.3529
 5440SOL    HW127953   2.914   1.900   5.783  0.3242 -0.1528  0.8782
 5440SOL    HW227954   2.897   1.820   5.662  0.0167  2.8367 -1.7294
 5441SOL     OW27955   2.517   0.388   7.186 -1.0722 -0.4409 -0.1205
 5441SOL    HW127956   2.539   0.474   7.221  0.2600 -1.6416  1.9396
 5441SOL    HW227957   2.594   0.332   7.193 -1.1804 -0.6623 -0.6889
 5442SOL     OW27958   0.240   0.254   0.321 -0.2273  0.3442  0.0324
 5442SOL    HW127959   0.161   0.274   0.371  1.0190  3.1670  0.8786
 5442SOL    HW227960   0.197   0.223   0.242 -1.7865 -0.0469  1.0307
 5443SOL     OW27961   4.589   3.639   6.907 -0.0382  0.1177 -0.5106
 5443SOL    HW127962   4.625   3.723   6.936  1.0277 -0.2093 -0.8958
 5443SOL    HW227963   4.494   3.650   6.920  0.6386 -0.2399  4.8555
 5444SOL     OW27964   1.875   3.744   7.313 -0.2876 -0.1026  0.6592
 5444SOL    HW127965   1.797   3.761   7.260 -0.2341 -3.0869 -0.3968
 5444SOL    HW227966   1.934   3.711   7.245  1.4322  1.4404  1.4181
 5445SOL     OW27967   4.271   0.570   8.808 -0.4583  0.1294  0.0286
 5445SOL    HW127968   4.198   0.508   8.814  0.5774 -0.9974  0.8369
 5445SOL    HW227969   4.213   0.646   8.800 -1.0734 -0.3959 -0.5261
 5446SOL     OW27970   3.235   3.543   7.585 -0.5025 -0.0206  0.7009
 5446SOL    HW127971   3.270   3.625   7.620  1.8384 -0.3898 -0.7615
 5446SOL    HW227972   3.291   3.477   7.625  0.0123 -0.3955 -0.6444
 5447SOL     OW27973   1.739   0.440   6.146 -0.3649 -0.1562  0.4263
 5447SOL    HW127974   1.719   0.351   6.117 -0.7426  0.4935 -1.2754
 5447SOL    HW227975   1.699   0.432   6.233 -0.2194  0.9446  0.5881
 5448SOL     OW27976   3.755   1.852   2.461  0.5287 -0.2287 -0.0352
 5448SOL    HW127977   3.849   1.834   2.460  0.7790  1.3314 -2.1523
 5448SOL    HW227978   3.727   1.768   2.498 -1.1245  0.1219 -0.4940
 5449SOL     OW27979   4.716   1.749   6.592 -0.0681 -0.1208  0.3781
 5449SOL    HW127980   0.018   1.710   6.671 -1.6958  1.2919  1.8590
 5449SOL    HW227981   4.709   1.839   6.625  2.9079  0.5579 -0.8423
 5450SOL     OW27982   1.363   0.475  14.098  0.3446 -0.0537  0.5695
 5450SOL    HW127983   1.378   0.569  14.095  2.2014 -0.4195 -1.7792
 5450SOL    HW227984   1.279   0.463  14.054  1.8275 -1.3348 -1.9353
 5451SOL     OW27985   2.185   4.426   4.201  0.1242  0.5335 -0.6422
 5451SOL    HW127986   2.223   4.368   4.135  0.8598 -1.7209  1.7568
 5451SOL    HW227987   2.268   4.451   4.242  0.4791 -1.3210 -0.2572
 5452SOL     OW27988   0.994   2.578   6.266 -0.0407  0.0124 -0.2693
 5452SOL    HW127989   0.901   2.602   6.273 -0.3126 -1.3374  0.7231
 5452SOL    HW227990   1.039   2.650   6.309 -0.7661 -0.8757  1.9440
 5453SOL     OW27991   4.010   2.867   4.410  0.5579 -0.5930 -0.3309
 5453SOL    HW127992   4.092   2.831   4.443 -0.0259 -0.1647  1.5839
 5453SOL    HW227993   3.939   2.817   4.452 -0.0647  0.4344 -0.1523
 5454SOL     OW27994   1.728   2.276   4.133  0.7839 -0.5778 -0.0036
 5454SOL    HW127995   1.800   2.276   4.196  0.7640 -0.2164  0.0162
 5454SOL    HW227996   1.745   2.366   4.106 -2.1819  0.0037  0.0922
 5455SOL     OW27997   1.093   1.742   9.782 -0.5888 -0.0403 -0.3013
 5455SOL    HW127998   1.083   1.824   9.734 -0.8167 -0.2462 -0.6062
 5455SOL    HW227999   1.128   1.775   9.865 -2.0089 -0.1145  0.3224
 5456SOL     OW28000   2.630   0.978  12.425 -0.2715  0.1955 -0.2300
 5456SOL    HW128001   2.578   0.920  12.480  0.7201 -1.6515 -1.2348
 5456SOL    HW228002   2.668   0.916  12.363 -1.0596 -1.8033  1.2627
 5457SOL     OW28003   2.604   0.206   6.329 -0.9256  0.1582 -0.7932
 5457SOL    HW128004   2.666   0.177   6.262  0.4653  0.4650  0.3389
 5457SOL    HW228005   2.672   0.234   6.391 -0.3666  0.2109 -1.4314
 5458SOL     OW28006   1.988   1.667   4.591 -0.1808  0.4607 -0.9530
 5458SOL    HW128007   1.961   1.734   4.529 -0.2721  1.4384  0.1441
 5458SOL    HW228008   2.043   1.606   4.541  1.1327 -0.4986  1.6498
 5459SOL     OW28009   2.911   2.652  17.370  1.0883  0.3130  0.0307
 5459SOL    HW128010   2.938   2.581  17.311  1.6581  0.3240  0.2798
 5459SOL    HW228011   2.827   2.678  17.333 -0.0660 -1.6284  1.2872
 5460SOL     OW28012   4.407   2.411   3.929 -0.5411  0.4760 -0.4594
 5460SOL    HW128013   4.389   2.384   3.839 -1.8831  1.4931 -0.4998
 5460SOL    HW228014   4.426   2.504   3.923 -2.0114  0.7005 -1.5130
 5461SOL     OW28015   1.077   4.464  10.824 -0.1161  0.2121  0.2955
 5461SOL    HW128016   1.021   4.470  10.747 -0.6153  1.2642  0.7342
 5461SOL    HW228017   1.029   4.414  10.888 -0.2449  0.7446  0.6165
 5462SOL     OW28018   0.587   3.096   3.047  0.1402 -0.4712  0.2595
 5462SOL    HW128019   0.562   3.143   3.126 -0.5231 -1.1654  0.4671
 5462SOL    HW228020   0.501   3.061   3.024 -0.0911  0.2239  0.0621
 5463SOL     OW28021   1.660   2.877   9.735  1.0134 -0.1506  0.5297
 5463SOL    HW128022   1.682   2.843   9.821  1.0965  0.1949  0.6465
 5463SOL    HW228023   1.654   2.795   9.685 -2.3353  1.0073 -0.9914
 5464SOL     OW28024   3.561   0.104  17.249  0.5853 -0.6278  0.4733
 5464SOL    HW128025   3.620   0.176  17.227 -2.1575  1.5616  0.1855
 5464SOL    HW228026   3.473   0.139  17.267 -0.0524 -1.0293 -1.8870
 5465SOL     OW28027   2.721   0.653   8.839  0.0462 -0.4221 -0.0977
 5465SOL    HW128028   2.665   0.580   8.867 -1.1478  1.0130  1.3069
 5465SOL    HW228029   2.682   0.682   8.757 -1.7577  1.2500  1.3357
 5466SOL     OW28030   2.050   0.013   7.502  0.2971  0.5597  0.1800
 5466SOL    HW128031   2.065   0.107   7.499 -0.2473  0.6873  1.4422
 5466SOL    HW228032   1.991   4.725   7.574 -2.3012  0.1023 -2.0754
 5467SOL     OW28033   3.452   0.822   5.795  0.2960  0.1193 -0.0454
 5467SOL    HW128034   3.478   0.902   5.749  0.4552  0.0630 -0.0544
 5467SOL    HW228035   3.481   0.851   5.882  0.1306  0.2800 -0.0442
 5468SOL     OW28036   4.640   1.885   3.070  0.2729 -0.2625 -0.1276
 5468SOL    HW128037   4.696   1.852   3.141  1.3874 -0.1176 -0.9331
 5468SOL    HW228038   4.687   1.860   2.990  1.0098 -2.8988  1.1114
 5469SOL     OW28039   0.181   4.446   2.744  0.5375  0.2821  0.0424
 5469SOL    HW128040   0.157   4.457   2.836  0.3953 -0.6397  0.1110
 5469SOL    HW228041   0.265   4.493   2.747 -0.0388  1.3648 -0.7831
 5470SOL     OW28042   2.508   3.171   5.822  0.3860 -0.2429 -0.2339
 5470SOL    HW128043   2.552   3.125   5.893  1.6965 -0.9414 -1.4993
 5470SOL    HW228044   2.415   3.177   5.846  0.2366 -0.8963 -0.6619
 5471SOL     OW28045   2.562   2.933   6.239 -0.0758 -0.4563 -0.0656
 5471SOL    HW128046   2.645   2.949   6.282  0.3711  1.5000 -1.6805
 5471SOL    HW228047   2.527   2.854   6.281  1.3218 -1.1111 -0.1425
 5472SOL     OW28048   2.268   4.700   1.336 -0.1699  0.4455  0.3163
 5472SOL    HW128049   2.211   4.643   1.285 -0.2136  1.5195 -0.8232
 5472SOL    HW228050   2.286   0.030   1.269 -2.8549  2.3346  1.4197
 5473SOL     OW28051   0.052   4.582   0.084  0.0723  0.4382 -1.1657
 5473SOL    HW128052   4.708   4.543   0.119  2.2526 -1.3824  1.7085
 5473SOL    HW228053   0.129   4.541   0.123 -0.6422 -0.4773 -0.7383
 5474SOL     OW28054   3.825   0.076   6.166  0.5055  0.0612  0.1836
 5474SOL    HW128055   3.918   0.078   6.187  0.4363 -2.4404  0.7549
 5474SOL    HW228056   3.806   4.719   6.152  1.7819 -0.0504 -0.7534
 5475SOL     OW28057   1.457   2.391   7.116  0.0272  0.2323 -0.6015
 5475SOL    HW128058   1.397   2.371   7.187 -0.4099  0.8758 -0.7875
 5475SOL    HW228059   1.441   2.312   7.064 -1.1969  0.9223 -1.2615
 5476SOL     OW28060   2.727   0.532   5.335 -0.4550 -0.3182 -0.4895
 5476SOL    HW128061   2.759   0.622   5.339  0.5112 -0.7782  2.3600
 5476SOL    HW228062   2.759   0.522   5.245  0.2710 -0.5126 -0.2052
 5477SOL     OW28063   2.438   4.523   0.011 -0.6521 -0.0857 -0.2671
 5477SOL    HW128064   2.530   4.533   0.037 -0.6746  0.4874 -0.4251
 5477SOL    HW228065   2.413   4.433   0.034 -0.3666 -0.0377  0.2450
 5478SOL     OW28066   1.920   2.139   2.488  0.7730  0.3280  0.0647
 5478SOL    HW128067   1.855   2.194   2.531  0.3979 -1.1060  1.3484
 5478SOL    HW228068   2.007   2.177   2.501  0.9080  0.0425 -0.0167
 5479SOL     OW28069   1.852   1.881   6.658 -0.3990 -0.7021  0.3470
 5479SOL    HW128070   1.863   1.817   6.727  0.3544  1.4536  2.2282
 5479SOL    HW228071   1.923   1.943   6.674 -0.1752 -1.5052  2.3971
 5480SOL     OW28072   0.911   0.341   9.917  0.1103  0.3276 -0.4804
 5480SOL    HW128073   0.924   0.421   9.867  0.2623  0.3245 -0.4468
 5480SOL    HW228074   0.823   0.354   9.952  0.5417  3.1996 -0.4639
 5481SOL     OW28075   4.549   3.919   7.464  0.1390  0.5291 -0.0186
 5481SOL    HW128076   4.520   3.940   7.553  3.3494  0.4994  1.0648
 5481SOL    HW228077   4.558   3.824   7.473 -0.9609  0.2274 -2.2074
 5482SOL     OW28078   0.662   4.235   9.895  0.2504  0.0331  0.5914
 5482SOL    HW128079   0.665   4.139   9.899 -0.8865 -0.0812 -1.3791
 5482SOL    HW228080   0.607   4.251   9.972 -1.5974 -0.6385 -0.5767
 5483SOL     OW28081   0.654   3.407   6.984 -0.0686  0.6133  0.4326
 5483SOL    HW128082   0.730   3.463   6.968  0.9984 -0.3319  2.2497
 5483SOL    HW228083   0.684   3.319   6.963  1.1784  0.5642  2.4489
 5484SOL     OW28084   3.059   4.019   2.255  0.1153  0.0581  0.3765
 5484SOL    HW128085   3.144   4.037   2.213  0.0933  0.3322  0.4515
 5484SOL    HW228086   3.088   3.980   2.338 -0.7811  0.5751  0.9294
 5485SOL     OW28087   4.644   3.892   2.884  0.1112 -0.5547 -0.5247
 5485SOL    HW128088   4.726   3.846   2.866  0.3033 -1.7174  3.4112
 5485SOL    HW228089   4.633   3.940   2.802  0.8601  1.8282  0.7804
 5486SOL     OW28090   0.745   0.607   4.108  0.2483  0.4414 -0.4525
 5486SOL    HW128091   0.720   0.577   4.195 -2.0220 -0.8707 -1.5435
 5486SOL    HW228092   0.679   0.571   4.049  0.0189  0.4873 -0.2205
 5487SOL     OW28093   0.618   3.918  13.150 -0.3194  0.2032  0.0164
 5487SOL    HW128094   0.630   3.974  13.226 -1.0018 -0.0730  0.3256
 5487SOL    HW228095   0.525   3.895  13.159 -0.2373 -1.4837 -3.4125
 5488SOL     OW28096   1.094   0.467   4.795 -0.2768 -0.2723  0.5059
 5488SOL    HW128097   1.059   0.528   4.860  0.4700 -0.5977  1.2109
 5488SOL    HW228098   1.184   0.447   4.821  0.1538 -0.2391 -0.9720
 5489SOL     OW28099   1.481   0.184   5.550 -0.1116  0.1348 -0.6395
 5489SOL    HW128100   1.536   0.262   5.558 -0.1001  0.0385  0.2362
 5489SOL    HW228101   1.393   0.212   5.525  0.0897  1.4378  0.0795
 5490SOL     OW28102   0.270   3.795  13.906  0.3018 -0.0039 -0.0542
 5490SOL    HW128103   0.267   3.704  13.934  0.7795 -0.2224 -0.7083
 5490SOL    HW228104   0.365   3.804  13.904  0.1923  0.7996 -2.9461
 5491SOL     OW28105   1.236   4.221   3.051 -0.5234 -0.2405 -0.0526
 5491SOL    HW128106   1.306   4.248   3.110 -1.5017  0.8632  0.5974
 5491SOL    HW228107   1.168   4.286   3.066 -1.0437 -1.0101  0.9323
 5492SOL     OW28108   0.772   2.803  13.679 -0.1598  0.2578  0.6413
 5492SOL    HW128109   0.867   2.801  13.676 -0.2366  1.6190 -2.0764
 5492SOL    HW228110   0.743   2.737  13.616 -3.2183  2.0311  0.1841
 5493SOL     OW28111   3.332   4.253   0.946  0.4698  0.0920 -0.2533
 5493SOL    HW128112   3.244   4.215   0.953  0.1691  0.9183  0.4637
 5493SOL    HW228113   3.323   4.340   0.985 -1.8701  0.1563 -0.9236
 5494SOL     OW28114   1.695   0.163   3.446 -0.0446  0.4299  0.0628
 5494SOL    HW128115   1.629   0.122   3.503 -0.4021 -0.8714 -1.2809
 5494SOL    HW228116   1.645   0.237   3.412 -1.2027 -0.0013  0.8236
 5495SOL     OW28117   2.837   0.041  17.344 -0.0339  0.8798  0.6736
 5495SOL    HW128118   2.905   4.713  17.325 -0.2357  0.8553  0.0223
 5495SOL    HW228119   2.770   4.716  17.377 -0.2449  0.6413 -0.1884
 5496SOL     OW28120   4.259   3.022  11.537 -0.2918  0.6295 -0.6605
 5496SOL    HW128121   4.191   3.034  11.603 -0.6118 -2.2225 -0.4565
 5496SOL    HW228122   4.225   3.078  11.468  0.9521  3.2142  0.8254
 5497SOL     OW28123   3.675   2.491  11.042  0.0174  0.4565  0.3164
 5497SOL    HW128124   3.609   2.422  11.030  0.0279  0.3594  0.8146
 5497SOL    HW228125   3.685   2.473  11.136 -3.7979 -0.3231  0.5777
 5498SOL     OW28126   4.179   2.945   3.109  0.0074 -0.6241  0.2485
 5498SOL    HW128127   4.155   2.929   3.200 -1.7934 -1.3642 -0.3564
 5498SOL    HW228128   4.132   3.028   3.104 -0.6584 -1.0920 -1.1344
 5499SOL     OW28129   3.782   2.033  14.528  0.0796  0.0466  0.0216
 5499SOL    HW128130   3.721   2.010  14.459 -1.4234  1.5978  0.8205
 5499SOL    HW228131   3.829   2.110  14.495  0.7125 -0.9026 -1.2807
 5500SOL     OW28132   3.407   0.715   6.363 -0.0299 -0.5275  0.1521
 5500SOL    HW128133   3.414   0.655   6.288 -3.5914 -1.9376  0.9793
 5500SOL    HW228134   3.500   0.725   6.385  0.4305 -1.1309 -1.4969
 5501SOL     OW28135   1.898   0.539  14.064 -0.3507  0.3839 -0.1019
 5501SOL    HW128136   1.910   0.541  14.159 -0.4631 -2.0120 -0.0569
 5501SOL    HW228137   1.813   0.495  14.060 -0.9824  1.4549  1.3078
 5502SOL     OW28138   1.199   2.521   7.002  0.1317 -0.4323  0.7101
 5502SOL    HW128139   1.152   2.439   6.991  0.6751 -0.4796 -1.2290
 5502SOL    HW228140   1.284   2.477   6.997  0.6662  0.5783  0.9511
 5503SOL     OW28141   3.722   1.659  12.897  0.1380 -0.4943  0.7186
 5503SOL    HW128142   3.648   1.599  12.903  0.1642 -0.6310 -0.4409
 5503SOL    HW228143   3.792   1.612  12.942  0.0924  1.0022  2.3655
 5504SOL     OW28144   2.848   4.473   2.941  0.3530 -0.6893  0.1087
 5504SOL    HW128145   2.810   4.477   3.028 -1.7882 -1.4730 -0.7925
 5504SOL    HW228146   2.926   4.432   2.979  1.2950  0.7468 -0.2527
 5505SOL     OW28147   0.050   0.594   6.094 -0.2480  0.1385 -0.0567
 5505SOL    HW128148   0.100   0.605   6.175  0.8101 -0.3759 -0.6406
 5505SOL    HW228149   4.709   0.650   6.105 -0.7045 -0.4185 -0.4045
 5506SOL     OW28150   0.108   1.875   5.234 -0.9767  0.8579 -0.5068
 5506SOL    HW128151   0.192   1.887   5.277  0.0669  0.2234 -2.3545
 5506SOL    HW228152   0.116   1.949   5.174 -1.2218 -0.4817 -2.1876
 5507SOL     OW28153   2.680   3.363   5.688 -0.4886  0.2522  0.4735
 5507SOL    HW128154   2.645   3.364   5.599  0.0006  0.9616  0.2887
 5507SOL    HW228155   2.640   3.281   5.717 -0.4199 -0.4934 -1.5651
 5508SOL     OW28156   2.970   0.206   8.628 -0.4897  0.3622  0.3853
 5508SOL    HW128157   3.024   0.143   8.579  0.6489  1.2925  0.4570
 5508SOL    HW228158   3.023   0.285   8.630 -0.3762  0.2705  1.0206
 5509SOL     OW28159   4.526   0.106  16.652 -0.3182  0.2545 -0.0471
 5509SOL    HW128160   4.599   0.111  16.590  0.9828  0.9252  1.5161
 5509SOL    HW228161   4.473   0.043  16.603  0.7964 -0.9764  0.3332
 5510SOL     OW28162   2.231   3.628   1.433  0.7525 -0.6011  0.1708
 5510SOL    HW128163   2.209   3.574   1.508  2.2627 -0.5318  0.6417
 5510SOL    HW228164   2.296   3.573   1.389 -0.4462 -0.9239 -1.2094
 5511SOL     OW28165   1.461   4.432   9.956 -0.1057  0.5821  0.2656
 5511SOL    HW128166   1.390   4.495   9.948  0.7229  1.4082 -0.6290
 5511SOL    HW228167   1.538   4.485   9.980 -0.7007  1.8557 -0.6273
 5512SOL     OW28168   3.287   0.751  17.127 -0.2230  0.2469  0.2027
 5512SOL    HW128169   3.224   0.717  17.062  1.3382 -0.7391 -0.7801
 5512SOL    HW228170   3.264   0.704  17.207  2.9949 -0.3953  0.7420
 5513SOL     OW28171   2.474   1.592   6.479  0.0490  0.1721  0.1190
 5513SOL    HW128172   2.561   1.576   6.442  0.3488 -0.7335  1.2335
 5513SOL    HW228173   2.484   1.665   6.540  2.4732 -1.8688  2.1582
 5514SOL     OW28174   3.195   2.465   5.564  0.3955  0.3525 -0.2877
 5514SOL    HW128175   3.145   2.547   5.560 -0.5952 -0.1845  0.9272
 5514SOL    HW228176   3.273   2.501   5.523  0.7703 -0.0451  0.0805
 5515SOL     OW28177   0.672   1.121   6.391  0.2817  0.4344 -0.3478
 5515SOL    HW128178   0.768   1.114   6.383  0.0197 -0.7411 -2.3052
 5515SOL    HW228179   0.672   1.161   6.478 -0.5150 -0.0454 -0.1320
 5516SOL     OW28180   2.678   2.714   8.702  0.1631 -0.5264  0.2828
 5516SOL    HW128181   2.672   2.808   8.686 -0.3767 -0.5056  0.6105
 5516SOL    HW228182   2.641   2.686   8.618  2.4643 -1.9558 -0.2523
 5517SOL     OW28183   1.778   0.638   5.365 -0.1806  0.5091  0.7772
 5517SOL    HW128184   1.854   0.594   5.402  0.1449  0.1579 -0.3023
 5517SOL    HW228185   1.821   0.707   5.314 -0.8348  0.9202  0.7772
 5518SOL     OW28186   2.656   0.228   2.985  0.1307 -0.0962  0.4608
 5518SOL    HW128187   2.743   0.191   2.970 -0.2120 -1.0276  0.7782
 5518SOL    HW228188   2.608   0.168   2.928  1.3999 -0.6934  0.0102
 5519SOL     OW28189   2.986   3.791   7.808 -0.2343 -0.0444  0.0912
 5519SOL    HW128190   2.953   3.708   7.844  0.2510  0.0180  0.6747
 5519SOL    HW228191   3.071   3.765   7.774 -0.6556  0.5995 -1.4330
 5520SOL     OW28192   4.397   2.357  12.613 -0.5520 -0.5244 -0.5722
 5520SOL    HW128193   4.331   2.301  12.655  0.7992 -1.6247  0.0892
 5520SOL    HW228194   4.368   2.445  12.635 -0.1296 -0.4851 -0.1788
 5521SOL     OW28195   3.029   3.340   3.617  0.1395 -0.1475 -0.6985
 5521SOL    HW128196   3.117   3.304   3.630 -0.8810 -2.6931 -0.8830
 5521SOL    HW228197   3.050   3.427   3.653  2.1109 -1.3209  1.0157
 5522SOL     OW28198   1.803   2.231   8.061  0.5941 -0.5707  0.2415
 5522SOL    HW128199   1.821   2.144   8.096 -0.7655 -0.3871  1.4085
 5522SOL    HW228200   1.713   2.234   8.095  0.5736 -1.3626  0.2692
 5523SOL     OW28201   3.372   4.382   7.986 -0.5747 -0.3979 -0.0861
 5523SOL    HW128202   3.407   4.326   7.917  2.3250  2.2913 -0.8368
 5523SOL    HW228203   3.280   4.390   7.962 -0.5458  0.7503  0.1797
 5524SOL     OW28204   1.155   1.573   5.893  0.2193 -0.3142  0.4994
 5524SOL    HW128205   1.154   1.553   5.987 -1.7082  2.4679  1.0830
 5524SOL    HW228206   1.238   1.618   5.878 -1.4068  1.5486 -2.8670
 5525SOL     OW28207   4.418   2.883   9.112 -0.0165 -0.3469 -0.1025
 5525SOL    HW128208   4.370   2.951   9.063 -0.2462 -1.1887 -1.0482
 5525SOL    HW228209   4.483   2.940   9.152  0.1168 -1.5362  1.3566
 5526SOL     OW28210   3.550   2.695   5.070 -0.2393 -0.1072 -0.9479
 5526SOL    HW128211   3.474   2.665   5.120  0.4327 -0.9425 -0.4367
 5526SOL    HW228212   3.564   2.786   5.097  0.6214 -0.9820  1.5235
 5527SOL     OW28213   3.069   0.264   7.385  0.3808 -0.1083 -0.2731
 5527SOL    HW128214   3.116   0.232   7.308  1.7688  3.0303 -0.7438
 5527SOL    HW228215   3.134   0.329   7.412 -0.4619  1.2030 -1.4293
 5528SOL     OW28216   3.625   2.762  17.588 -0.4861  0.0655 -0.6409
 5528SOL    HW128217   3.533   2.743  17.608 -0.0609 -0.2808  1.0189
 5528SOL    HW228218   3.621   2.765  17.492  1.3020  1.3740 -0.6744
 5529SOL     OW28219   0.290   0.831   5.839  0.7099 -0.6209 -0.0745
 5529SOL    HW128220   0.330   0.882   5.769  0.7149 -0.2566  0.1976
 5529SOL    HW228221   0.320   0.742   5.820  0.0918 -1.0965  1.1273
 5530SOL     OW28222   3.972   3.136   6.029 -0.3314  0.2536  0.3775
 5530SOL    HW128223   4.028   3.193   6.083 -0.2657 -1.0798  1.7336
 5530SOL    HW228224   4.021   3.055   6.047 -0.8126 -0.4016 -1.3355
 5531SOL     OW28225   1.167   1.996   9.160 -0.0876  0.3604  0.2519
 5531SOL    HW128226   1.214   1.960   9.235  0.0591  3.9802  1.8927
 5531SOL    HW228227   1.231   1.981   9.090  1.2102 -0.7745  1.6907
 5532SOL     OW28228   4.017   3.542   9.551 -0.2488 -0.0378 -0.1859
 5532SOL    HW128229   3.996   3.474   9.486  2.3040 -1.3812  0.4082
 5532SOL    HW228230   4.096   3.514   9.596 -1.5578 -1.3094  1.3433
 5533SOL     OW28231   0.092   1.431   2.195 -0.0389  0.6478 -0.1201
 5533SOL    HW128232   0.049   1.486   2.129 -1.0944 -0.3475 -0.2691
 5533SOL    HW228233   0.123   1.501   2.251  0.5734 -0.4467  0.9015
 5534SOL     OW28234   3.711   3.647   2.949  1.4810 -0.3561 -0.4534
 5534SOL    HW128235   3.682   3.659   3.040 -1.4368 -1.7503 -1.2150
 5534SOL    HW228236   3.638   3.606   2.902  0.8695  0.9060 -0.5938
 5535SOL     OW28237   0.796   3.111   9.346 -0.2714  0.0713 -0.0172
 5535SOL    HW128238   0.715   3.131   9.298  0.0386  2.9457  0.6580
 5535SOL    HW228239   0.791   3.153   9.432  2.0414  2.4484 -1.0240
 5536SOL     OW28240   0.751   0.504   3.088 -0.1223 -0.4449 -0.3575
 5536SOL    HW128241   0.845   0.507   3.102 -0.2209  1.4148 -0.0991
 5536SOL    HW228242   0.729   0.438   3.154  1.9833  0.2047  1.0120
 5537SOL     OW28243   4.375   3.809   3.210  0.4542 -0.2526  0.0481
 5537SOL    HW128244   4.428   3.883   3.241  0.7844  1.1999 -3.9386
 5537SOL    HW228245   4.368   3.831   3.117  0.5280 -1.4692 -0.2461
 5538SOL     OW28246   3.069   4.619   1.875 -0.1715 -0.0923  0.0770
 5538SOL    HW128247   3.100   4.596   1.963  1.2240  1.1328 -0.0818
 5538SOL    HW228248   3.078   4.538   1.826  0.7101 -1.3694  2.3446
 5539SOL     OW28249   4.430   3.319   4.342  0.3195 -0.0891  0.2310
 5539SOL    HW128250   4.407   3.237   4.385 -1.3738  0.4700  0.4004
 5539SOL    HW228251   4.521   3.303   4.317 -0.6012 -1.4331 -2.2704
 5540SOL     OW28252   1.844   3.913  10.190 -0.0484  0.5094 -0.1628
 5540SOL    HW128253   1.824   4.005  10.172 -3.7047  0.1313  1.9192
 5540SOL    HW228254   1.792   3.896  10.269 -0.7598 -0.8795 -0.9340
 5541SOL     OW28255   4.395   0.916   0.090 -0.1623 -0.3370  0.0019
 5541SOL    HW128256   4.330   0.882   0.029 -1.2168 -0.5591  1.2412
 5541SOL    HW228257   4.372   0.864   0.168 -2.6915  0.8039 -0.0026
 5542SOL     OW28258   2.293   3.637  14.399  0.1521 -0.0513 -0.5159
 5542SOL    HW128259   2.254   3.555  14.369  0.0874  0.1269 -0.9152
 5542SOL    HW228260   2.290   3.611  14.492 -0.2010  1.8707  0.0015
 5543SOL     OW28261   0.242   3.589   1.748  0.0242 -0.8188 -0.3336
 5543SOL    HW128262   0.332   3.619   1.738  0.2378 -0.9669  1.1531
 5543SOL    HW228263   0.244   3.494   1.748 -0.3099 -0.8418 -2.1113
 5544SOL     OW28264   2.625   4.177   3.946  0.0301  0.0296 -0.2469
 5544SOL    HW128265   2.562   4.231   3.899  1.9501  2.1055 -0.4294
 5544SOL    HW228266   2.562   4.135   4.004 -0.6557  1.1910 -0.1685
 5545SOL     OW28267   1.309   1.180   7.454  0.1625  0.2154  0.6194
 5545SOL    HW128268   1.267   1.146   7.375  3.3302  0.7040 -1.2378
 5545SOL    HW228269   1.369   1.113   7.488  1.1941  0.7539 -0.1677
 5546SOL     OW28270   4.113   0.586   1.356 -0.5430 -0.5639  0.2872
 5546SOL    HW128271   4.022   0.577   1.385 -0.5611  1.5301  0.8439
 5546SOL    HW228272   4.121   0.681   1.365 -0.3826 -0.5276 -0.1957
 5547SOL     OW28273   1.675   1.003   3.271  0.0468  0.1033 -0.2402
 5547SOL    HW128274   1.737   1.019   3.342 -1.9997  1.2237  1.3017
 5547SOL    HW228275   1.660   0.909   3.267 -2.6324  0.4881  1.0398
 5548SOL     OW28276   0.686   3.437   4.042 -0.0481  0.0695 -0.0632
 5548SOL    HW128277   0.625   3.449   4.115  0.0523 -0.6797  0.1434
 5548SOL    HW228278   0.769   3.466   4.078 -0.1062  0.7184 -0.4582
 5549SOL     OW28279   4.506   1.831   7.961  0.3260 -0.4381  0.1878
 5549SOL    HW128280   4.581   1.789   8.004 -0.1048  0.9607  2.3213
 5549SOL    HW228281   4.546   1.864   7.881  0.0516 -1.1023 -0.2171
 5550SOL     OW28282   4.338   1.706  13.121  0.3556 -0.3132 -0.1831
 5550SOL    HW128283   4.292   1.727  13.202 -0.8755 -3.6877 -0.0257
 5550SOL    HW228284   4.286   1.636  13.081 -0.4530 -0.6685  1.5160
 5551SOL     OW28285   3.495   1.118  10.991  0.2258 -0.0857 -0.4352
 5551SOL    HW128286   3.403   1.092  10.982 -0.5214  1.9557  1.2822
 5551SOL    HW228287   3.501   1.205  10.951  0.3455 -0.3238 -0.9431
 5552SOL     OW28288   4.117   4.624   2.922 -0.1153 -0.1133 -0.0778
 5552SOL    HW128289   4.182   4.610   2.991 -1.1553 -0.1379  0.9079
 5552SOL    HW228290   4.154   4.695   2.871 -0.0567  0.9152  1.3996
 5553SOL     OW28291   3.257   0.794   9.582  0.3396  0.8622 -0.1492
 5553SOL    HW128292   3.346   0.801   9.616  0.4302 -1.9878  0.2161
 5553SOL    HW228293   3.239   0.885   9.602 -1.2025  0.0319  2.2113
 5554SOL     OW28294   2.762   2.048   8.992  0.1026  0.0542 -0.2253
 5554SOL    HW128295   2.667   2.043   8.997  0.1606  0.6308  1.2940
 5554SOL    HW228296   2.783   1.956   8.979 -1.0682 -0.0715 -1.2292
 5555SOL     OW28297   2.854   0.019  16.457 -0.0850  0.4894 -0.1156
 5555SOL    HW128298   2.929   0.018  16.516  0.0837 -0.7430 -0.3674
 5555SOL    HW228299   2.787   4.695  16.490  0.3550  0.0082 -0.0962
 5556SOL     OW28300   3.548   2.000   5.495 -0.5322 -0.0300 -0.0556
 5556SOL    HW128301   3.529   1.970   5.584 -1.5117  0.9747  0.0753
 5556SOL    HW228302   3.477   1.954   5.450 -0.1814 -0.3786 -0.2506
 5557SOL     OW28303   3.196   0.349   5.086  0.0178  0.2416  0.6733
 5557SOL    HW128304   3.234   0.403   5.017 -1.1164 -0.6265 -0.6363
 5557SOL    HW228305   3.118   0.398   5.110  0.6179  0.8302  1.4382
 5558SOL     OW28306   2.971   0.964  16.471  0.1145  0.8069  0.6071
 5558SOL    HW128307   2.945   1.018  16.396 -0.8387 -0.8153 -0.2320
 5558SOL    HW228308   2.957   0.877  16.434 -1.6582  1.3972 -0.1048
 5559SOL     OW28309   1.641   0.502   8.689  0.2378  0.0521  0.1427
 5559SOL    HW128310   1.637   0.412   8.655 -0.5187  0.6944 -1.4131
 5559SOL    HW228311   1.723   0.494   8.738  0.2163  1.7379  0.4541
 5560SOL     OW28312   0.051   4.391   5.829  1.3333  0.0093  0.6888
 5560SOL    HW128313   0.074   4.311   5.781  0.6095 -0.2410  0.7670
 5560SOL    HW228314   4.699   4.417   5.801  0.7152 -0.7835  1.8653
 5561SOL     OW28315   2.250   0.131   4.969  0.1087 -0.2541  0.7310
 5561SOL    HW128316   2.202   0.093   5.042  2.5959 -0.5781  2.2215
 5561SOL    HW228317   2.337   0.156   5.001 -0.1357  0.5576  0.7789
 5562SOL     OW28318   4.066   0.558  14.836  0.0347  0.1024  1.0509
 5562SOL    HW128319   4.143   0.598  14.795 -1.1158  3.4189  2.1590
 5562SOL    HW228320   4.002   0.553  14.766  2.2966  1.0350 -1.0917
 5563SOL     OW28321   3.937   1.319   5.511 -0.1747 -0.0180  0.2021
 5563SOL    HW128322   4.007   1.367   5.555  0.2445 -0.9420  0.5397
 5563SOL    HW228323   3.979   1.236   5.490  0.6921  0.6505 -0.7258
 5564SOL     OW28324   4.061   4.247   4.313 -0.1008  0.0396 -0.8488
 5564SOL    HW128325   4.079   4.301   4.390 -1.0879 -0.4117 -0.3011
 5564SOL    HW228326   4.134   4.187   4.328 -0.9762 -0.6253  0.7312
 5565SOL     OW28327   3.577   3.034   5.024  0.4750 -0.1248  0.5495
 5565SOL    HW128328   3.623   3.084   4.956  1.1914  0.6937  1.6144
 5565SOL    HW228329   3.643   3.002   5.087  0.0912  1.4495  1.7680
 5566SOL     OW28330   1.811   3.467  13.691 -0.6780 -0.6318 -0.8866
 5566SOL    HW128331   1.793   3.498  13.602  1.8210  0.5427 -0.9934
 5566SOL    HW228332   1.793   3.544  13.746  1.2381 -1.1543  0.4919
 5567SOL     OW28333   0.799   1.855   6.770 -0.5229 -0.5769  1.1384
 5567SOL    HW128334   0.758   1.772   6.793  0.3274 -0.7597  2.0279
 5567SOL    HW228335   0.747   1.923   6.814  0.5887  1.6491 -1.0053
 5568SOL     OW28336   1.467   1.258   4.432 -0.1122  0.0324 -0.1530
 5568SOL    HW128337   1.525   1.189   4.464 -1.1796 -0.7381  0.0869
 5568SOL    HW228338   1.444   1.305   4.512  0.5442 -1.0435  0.6714
 5569SOL     OW28339   1.876   1.336   2.316  0.0839  0.6931 -0.2818
 5569SOL    HW128340   1.953   1.389   2.296  0.8303  0.1624  1.1708
 5569SOL    HW228341   1.876   1.310   2.408 -0.9475  3.8740  0.6119
 5570SOL     OW28342   0.512   3.386   4.653 -0.0354 -0.1749 -0.3189
 5570SOL    HW128343   0.543   3.444   4.723 -1.5060  0.0623  0.1428
 5570SOL    HW228344   0.522   3.298   4.690 -2.3888 -0.2545  0.0996
 5571SOL     OW28345   2.980   1.223   2.589 -0.0892  0.1487 -0.4907
 5571SOL    HW128346   2.914   1.270   2.641 -0.3391  0.5371 -1.1676
 5571SOL    HW228347   2.929   1.155   2.546 -1.1867  1.0609 -0.6245
 5572SOL     OW28348   0.919   0.185   1.355 -0.3396  0.3219 -0.1660
 5572SOL    HW128349   0.976   0.248   1.399  1.4096 -0.4360 -1.2962
 5572SOL    HW228350   0.969   0.112   1.393  2.1085  2.0906 -0.0027
 5573SOL     OW28351   2.611   3.068   6.617 -0.0617 -0.3366  0.6980
 5573SOL    HW128352   2.611   2.990   6.672  1.8482 -2.3219 -2.1729
 5573SOL    HW228353   2.657   3.037   6.539  1.3654 -0.4500  1.5902
 5574SOL     OW28354   0.837   0.212   8.532  0.0930  0.5647 -0.2503
 5574SOL    HW128355   0.799   0.281   8.479  2.3746  1.0264 -1.3052
 5574SOL    HW228356   0.904   0.257   8.585  0.0695 -0.4726  0.6724
 5575SOL     OW28357   0.120   1.083   2.395 -0.3000 -0.2365 -0.3565
 5575SOL    HW128358   0.206   1.097   2.436 -1.8183  1.5716  2.2302
 5575SOL    HW228359   0.142   1.107   2.305 -0.5185  0.3540 -0.2534
 5576SOL     OW28360   2.821   1.210  13.538  0.1259 -0.5001 -0.1736
 5576SOL    HW128361   2.819   1.295  13.582 -1.6224  1.0954 -3.3842
 5576SOL    HW228362   2.913   1.192  13.556  0.2872  0.2963 -0.2156
 5577SOL     OW28363   1.615   0.804  16.653 -0.0606 -0.3594 -0.1220
 5577SOL    HW128364   1.607   0.837  16.563  1.5878  0.7983  0.1539
 5577SOL    HW228365   1.694   0.749  16.653  0.2042  0.0146 -1.6205
 5578SOL     OW28366   3.682   2.333  15.222 -0.2540  0.0866  0.1341
 5578SOL    HW128367   3.737   2.297  15.152 -2.4079 -0.2579 -1.3698
 5578SOL    HW228368   3.729   2.294  15.296  0.1807  2.0131  0.8692
 5579SOL     OW28369   3.078   2.866   5.934 -0.0821 -0.4279 -0.0142
 5579SOL    HW128370   3.172   2.856   5.918  0.2320  0.4829  1.2525
 5579SOL    HW228371   3.079   2.833   6.024  1.5954 -0.4765 -0.0481
 5580SOL     OW28372   2.081   4.300   9.419  0.6657  0.2907 -0.8450
 5580SOL    HW128373   2.132   4.281   9.340  0.1933 -1.0764 -0.8122
 5580SOL    HW228374   2.033   4.381   9.402  0.6366  0.5899  0.6998
 5581SOL     OW28375   0.005   2.659  12.731  0.6759 -0.1860 -0.2149
 5581SOL    HW128376   0.067   2.689  12.664  0.9596 -1.3805 -0.4942
 5581SOL    HW228377   4.674   2.624  12.671  1.5351 -0.7205 -0.8704
 5582SOL     OW28378   2.197   3.644   8.986 -0.4136 -0.4144  0.5622
 5582SOL    HW128379   2.266   3.588   9.021 -2.7397 -2.5910  1.7388
 5582SOL    HW228380   2.156   3.679   9.065  1.0732  0.2086  1.0426
 5583SOL     OW28381   4.389   2.684   7.296 -0.0270  0.0903 -0.1771
 5583SOL    HW128382   4.400   2.627   7.220 -3.6356  0.5039 -0.9670
 5583SOL    HW228383   4.294   2.692   7.296 -0.0942 -0.7279 -1.1486
 5584SOL     OW28384   4.014   4.305  14.660  0.1487 -0.1074  0.6375
 5584SOL    HW128385   4.101   4.266  14.651  0.1020 -0.1496  0.3367
 5584SOL    HW228386   4.018   4.364  14.584  0.6693 -3.1124 -1.7025
 5585SOL     OW28387   2.540   2.327  14.232  0.2218 -0.0257 -0.1079
 5585SOL    HW128388   2.588   2.359  14.156  1.6654  0.5879  1.0694
 5585SOL    HW228389   2.604   2.306  14.300 -1.3580 -2.0128  0.7472
 5586SOL     OW28390   0.831   4.214   2.882 -0.1266  0.1952 -0.2929
 5586SOL    HW128391   0.769   4.141   2.890  1.6841 -1.5195 -1.6580
 5586SOL    HW228392   0.817   4.224   2.788 -1.4087  2.8684  0.2077
 5587SOL     OW28393   1.967   2.424   1.712  0.4207  0.6746  0.3056
 5587SOL    HW128394   2.017   2.348   1.682  0.3256  0.5166  0.5443
 5587SOL    HW228395   1.890   2.384   1.753  0.8427 -1.0309 -0.5756
 5588SOL     OW28396   4.262   4.535   2.383 -0.4757  0.6233 -0.1757
 5588SOL    HW128397   4.263   4.452   2.336  1.0250  0.0870  0.8112
 5588SOL    HW228398   4.322   4.596   2.341  0.4219 -0.2807 -0.1915
 5589SOL     OW28399   2.786   0.412  10.215 -0.2780 -0.2597 -0.1323
 5589SOL    HW128400   2.772   0.448  10.303 -1.7914  2.0766 -1.3373
 5589SOL    HW228401   2.756   0.488  10.165  0.3248  1.3084  1.8739
 5590SOL     OW28402   3.024   1.927   5.194 -0.0865  0.1588  0.0339
 5590SOL    HW128403   3.064   1.956   5.112 -2.1579 -0.3957 -1.1440
 5590SOL    HW228404   3.011   2.014   5.230  1.8926  1.4775 -2.4368
 5591SOL     OW28405   1.324   1.410  16.256  0.1730 -0.0430  0.3709
 5591SOL    HW128406   1.411   1.379  16.229  0.6144  0.0583  1.6434
 5591SOL    HW228407   1.290   1.462  16.184  0.4708 -0.2994  0.0427
 5592SOL     OW28408   2.648   4.310  16.641 -0.3145  0.1431 -0.3637
 5592SOL    HW128409   2.673   4.218  16.631  0.7835  0.2077  1.6661
 5592SOL    HW228410   2.557   4.303  16.612 -0.5513 -2.5217  1.0009
 5593SOL     OW28411   3.057   0.151   1.793 -0.7134  0.1574  0.2232
 5593SOL    HW128412   3.016   0.141   1.707 -0.5545  0.7006  0.0870
 5593SOL    HW228413   3.002   0.090   1.842 -0.9049 -0.9490 -1.3423
 5594SOL     OW28414   1.413   0.849   7.237 -0.3232  0.0379 -0.4710
 5594SOL    HW128415   1.485   0.790   7.216 -0.5852 -0.9797  1.5589
 5594SOL    HW228416   1.429   0.865   7.330 -3.8034 -1.6660  0.4181
 5595SOL     OW28417   2.493   4.649   5.713  0.1204 -0.0358 -0.0230
 5595SOL    HW128418   2.447   4.713   5.767 -0.5718  0.8669 -1.6886
 5595SOL    HW228419   2.535   4.588   5.775  0.2704 -0.5405 -0.6240
 5596SOL     OW28420   2.296   0.750   3.792 -0.0442 -0.0801 -0.1341
 5596SOL    HW128421   2.261   0.720   3.708 -1.4261  1.3972 -0.0995
 5596SOL    HW228422   2.337   0.667   3.813  1.3435  1.0647  1.7078
 5597SOL     OW28423   2.068   3.772   0.559  0.4048 -0.1935 -1.0210
 5597SOL    HW128424   2.134   3.752   0.492  0.9647 -0.4531 -0.3916
 5597SOL    HW228425   2.042   3.686   0.593  1.7073 -0.8728 -1.7245
 5598SOL     OW28426   4.691   4.217   3.012  0.7431  0.2610  0.1139
 5598SOL    HW128427   4.597   4.234   3.006  0.5721 -0.3597  1.0494
 5598SOL    HW228428   4.713   4.249   3.099  0.9146  4.3346 -1.4216
 5599SOL     OW28429   2.828   2.804   3.835 -0.1979 -0.1283 -0.7567
 5599SOL    HW128430   2.776   2.805   3.755  0.0673  0.2164 -0.9223
 5599SOL    HW228431   2.910   2.779   3.793 -0.0165  1.7562 -1.5103
 5600SOL     OW28432   3.746   1.578  15.842 -0.0896 -0.2281 -0.3639
 5600SOL    HW128433   3.841   1.590  15.853  0.0513 -1.4959 -0.1407
 5600SOL    HW228434   3.736   1.523  15.764 -1.2899 -0.3720 -0.1021
 5601SOL     OW28435   3.928   0.106   7.319 -0.3742  0.4093  0.1750
 5601SOL    HW128436   3.949   0.023   7.277  0.5538  1.3570 -1.2135
 5601SOL    HW228437   3.900   0.171   7.255  0.6095  2.6257  1.9794
 5602SOL     OW28438   0.597   4.220   6.873  0.1472 -0.1899 -0.2442
 5602SOL    HW128439   0.647   4.231   6.954 -0.4687  1.1568 -0.0338
 5602SOL    HW228440   0.655   4.162   6.825  1.3716 -0.4366  1.5242
 5603SOL     OW28441   1.176   0.696  17.670 -0.1006  0.4656  0.0794
 5603SOL    HW128442   1.086   0.723  17.649  0.6038  0.8571 -2.4130
 5603SOL    HW228443   1.234   0.767  17.643  0.4798  0.7546  2.1168
 5604SOL     OW28444   3.282   2.120   7.208  0.3119 -0.0218 -0.3222
 5604SOL    HW128445   3.292   2.066   7.130 -2.6139  1.5644 -1.7956
 5604SOL    HW228446   3.210   2.178   7.182  1.0752  0.4535 -1.3716
 5605SOL     OW28447   2.631   2.149   7.291  0.6849  0.1708  0.1670
 5605SOL    HW128448   2.676   2.140   7.376  0.1556  0.4994  0.4791
 5605SOL    HW228449   2.611   2.056   7.279 -1.0719  0.0840  3.7263
 5606SOL     OW28450   3.074   2.540  10.594  0.6257 -0.0478 -0.1972
 5606SOL    HW128451   3.009   2.530  10.664 -1.8369 -0.5536 -2.5304
 5606SOL    HW228452   3.107   2.450  10.586 -0.5948 -0.7120  2.2351
 5607SOL     OW28453   3.885   4.136   7.135 -0.4897 -0.5378  0.6913
 5607SOL    HW128454   3.868   4.043   7.116  1.3388 -0.4285 -1.4619
 5607SOL    HW228455   3.842   4.168   7.056 -0.3350  0.3196  0.9547
 5608SOL     OW28456   4.271   0.173   4.028  0.0209  0.0172  0.7316
 5608SOL    HW128457   4.279   0.169   3.933  1.4734  1.8102  0.8026
 5608SOL    HW228458   4.324   0.096   4.048 -0.4090  0.3618  3.1603
 5609SOL     OW28459   1.689   0.201   7.178 -0.1192  0.0215  0.2561
 5609SOL    HW128460   1.619   0.136   7.171 -0.6718  0.6064  0.3777
 5609SOL    HW228461   1.715   0.202   7.086  1.7806  0.4537  0.7959
 5610SOL     OW28462   3.453   2.797  13.924 -0.3321 -0.1247  0.4234
 5610SOL    HW128463   3.481   2.784  14.015 -0.7325  1.6055  0.8058
 5610SOL    HW228464   3.417   2.886  13.930 -0.6292 -0.2712  0.8820
 5611SOL     OW28465   1.194   0.867   3.651 -0.3408  0.0078  0.3075
 5611SOL    HW128466   1.193   0.952   3.607 -0.4549  0.2578  0.7904
 5611SOL    HW228467   1.257   0.888   3.720 -0.3303  1.2240 -0.0701
 5612SOL     OW28468   4.132   1.560  11.577  0.1028  0.2366  0.4815
 5612SOL    HW128469   4.110   1.597  11.491 -2.6173  0.8685  1.4517
 5612SOL    HW228470   4.102   1.471  11.563  1.1638 -0.5597  3.3347
 5613SOL     OW28471   0.720   4.310   7.105  0.2588  0.1179  0.5340
 5613SOL    HW128472   0.662   4.358   7.164 -0.6803  0.3868 -0.6059
 5613SOL    HW228473   0.777   4.386   7.098 -1.8736  1.6412 -0.1501
 5614SOL     OW28474   1.588   2.133   3.779  0.0502  0.3348  0.3400
 5614SOL    HW128475   1.649   2.107   3.710  1.0598  1.3894  0.8313
 5614SOL    HW228476   1.611   2.226   3.781 -2.1253  0.8895 -1.5041
 5615SOL     OW28477   4.147   3.060   2.636  0.4962 -0.2384 -0.0569
 5615SOL    HW128478   4.154   3.133   2.575  0.5135  1.2100  1.6684
 5615SOL    HW228479   4.052   3.051   2.622  0.3398 -0.2481  0.9819
 5616SOL     OW28480   2.614   2.635   8.181 -0.1713  0.8313 -0.0002
 5616SOL    HW128481   2.691   2.689   8.164  2.3532 -1.9302  2.4664
 5616SOL    HW228482   2.610   2.594   8.095  0.6245  0.2495  0.2329
 5617SOL     OW28483   1.016   4.080   7.353  0.6194  0.0934 -0.1143
 5617SOL    HW128484   1.109   4.100   7.344  0.8504 -1.0482 -0.3016
 5617SOL    HW228485   1.019   3.987   7.379  0.8234 -0.4630 -2.1558
 5618SOL     OW28486   2.375   4.046   8.575 -0.6443 -0.1312  0.2010
 5618SOL    HW128487   2.381   3.979   8.506  0.7819 -1.1793  1.3198
 5618SOL    HW228488   2.344   4.120   8.523 -0.7805 -0.1340  0.2811
 5619SOL     OW28489   0.136   4.618  10.487  0.3468 -0.2556  0.5055
 5619SOL    HW128490   0.067   4.609  10.422  1.9424  5.4408 -1.9954
 5619SOL    HW228491   0.213   4.578  10.446  0.0034  0.0527 -0.4162
 5620SOL     OW28492   1.746   1.379   6.368 -0.4239  0.1730 -0.0777
 5620SOL    HW128493   1.841   1.390   6.365 -0.2848 -1.4263 -1.8979
 5620SOL    HW228494   1.728   1.466   6.403 -1.6890 -0.4095  0.7336
 5621SOL     OW28495   0.806   1.543  12.538  0.4391 -0.0438 -0.1044
 5621SOL    HW128496   0.833   1.537  12.630 -0.4510  0.2919  0.1780
 5621SOL    HW228497   0.885   1.527  12.485  0.2143 -0.5111 -0.2987
 5622SOL     OW28498   3.272   2.292   4.929  0.5048 -0.2549 -0.3012
 5622SOL    HW128499   3.328   2.221   4.897  0.1362  0.3047 -2.2235
 5622SOL    HW228500   3.265   2.346   4.850  1.9059  1.1945  0.5727
 5623SOL     OW28501   3.193   2.996   2.057 -0.1137 -0.3342  0.2497
 5623SOL    HW128502   3.168   3.048   1.980 -0.8532 -0.5146  0.3616
 5623SOL    HW228503   3.286   3.006   2.073 -0.4444  2.3476  0.4026
 5624SOL     OW28504   4.165   4.401  10.438  0.2705  0.0782 -0.0629
 5624SOL    HW128505   4.197   4.483  10.475  0.5428 -0.3501  0.6429
 5624SOL    HW228506   4.245   4.365  10.401 -0.1106 -1.7776  0.9322
 5625SOL     OW28507   0.434   1.976   1.272 -0.0117  0.0333 -0.6155
 5625SOL    HW128508   0.450   1.897   1.324  0.5176 -0.1028 -0.9891
 5625SOL    HW228509   0.348   2.003   1.304  0.6035  0.3323  0.7914
 5626SOL     OW28510   4.189   4.363   7.477  0.0737 -0.3017 -0.2313
 5626SOL    HW128511   4.137   4.303   7.530  0.3148 -1.3125 -1.1349
 5626SOL    HW228512   4.137   4.442   7.491  0.7163 -0.2443  1.9005
 5627SOL     OW28513   3.662   3.281   0.853  0.3635  0.5749  0.0683
 5627SOL    HW128514   3.694   3.281   0.762 -5.8387 -0.9395 -2.0833
 5627SOL    HW228515   3.570   3.303   0.838 -0.3016 -1.5492  1.0454
 5628SOL     OW28516   1.837   2.460   2.173  0.1881 -0.4601 -0.5591
 5628SOL    HW128517   1.834   2.374   2.215 -2.8000 -0.3664 -0.5377
 5628SOL    HW228518   1.905   2.450   2.107 -0.2634 -2.1792 -0.7683
 5629SOL     OW28519   0.910   0.428   6.298 -0.3980 -0.0200 -0.3143
 5629SOL    HW128520   0.897   0.418   6.392 -3.0072  0.2509 -0.6454
 5629SOL    HW228521   0.972   0.357   6.282 -1.2208 -0.6633 -0.6398
 5630SOL     OW28522   2.149   0.635   6.194 -0.3382 -0.1372  0.1602
 5630SOL    HW128523   2.164   0.676   6.279  0.4830 -2.7637  1.2767
 5630SOL    HW228524   2.068   0.676   6.164 -0.0018  0.5327  0.1565
 5631SOL     OW28525   2.434   2.090  12.523  0.2150 -0.2316  0.2767
 5631SOL    HW128526   2.515   2.048  12.493 -0.5353 -1.3091 -0.2481
 5631SOL    HW228527   2.471   2.172  12.556  1.8552 -1.6955  2.0497
 5632SOL     OW28528   2.754   0.674   1.322 -0.0516 -0.5307 -0.2583
 5632SOL    HW128529   2.742   0.594   1.373 -0.0409 -1.1393 -1.1978
 5632SOL    HW228530   2.810   0.643   1.250  0.4966  2.0680 -0.9582
 5633SOL     OW28531   1.074   0.583   8.250 -0.1298 -0.3789  0.3741
 5633SOL    HW128532   1.037   0.647   8.310  1.4550 -0.7286  1.6903
 5633SOL    HW228533   0.999   0.525   8.233 -0.5977  0.2138  0.4391
 5634SOL     OW28534   3.913   1.579   3.295  0.4380 -0.2213 -0.5277
 5634SOL    HW128535   3.992   1.531   3.271  0.4128 -1.0906  1.1555
 5634SOL    HW228536   3.886   1.605   3.207 -2.7254 -0.9629  0.2148
 5635SOL     OW28537   1.358   0.943   5.519  0.5312 -0.6918 -0.1742
 5635SOL    HW128538   1.324   0.862   5.558  2.4168 -0.6365  1.6045
 5635SOL    HW228539   1.382   0.987   5.601 -0.1551  1.4348 -1.1146
 5636SOL     OW28540   2.900   2.633   4.087 -0.0379  0.2036 -0.0200
 5636SOL    HW128541   2.892   2.637   3.991  2.1061 -1.5319 -0.2795
 5636SOL    HW228542   2.808   2.618   4.107  0.6194 -2.1616  1.2794
 5637SOL     OW28543   4.069   3.753   4.202 -0.0753  0.1458 -0.0784
 5637SOL    HW128544   4.015   3.814   4.152  0.1359  2.1741  2.1634
 5637SOL    HW228545   4.075   3.804   4.283 -0.8289 -0.5017  0.3825
 5638SOL     OW28546   1.336   0.409   4.895  0.4445  0.4988  0.3111
 5638SOL    HW128547   1.357   0.503   4.896  0.9705  0.3804  0.2814
 5638SOL    HW228548   1.365   0.372   4.978 -0.2914 -0.4835  0.1246
 5639SOL     OW28549   1.776   3.854   4.224 -0.1723 -0.1351  0.7362
 5639SOL    HW128550   1.721   3.786   4.186 -0.1491 -1.0358  2.3248
 5639SOL    HW228551   1.709   3.922   4.220 -1.1658 -1.1007  0.8987
 5640SOL     OW28552   4.709   2.369   7.471  0.3920  0.0887  0.1159
 5640SOL    HW128553   4.675   2.453   7.502 -1.1903  0.3274 -2.3182
 5640SOL    HW228554   4.629   2.323   7.448  0.0352  1.0983 -0.6700
 5641SOL     OW28555   0.157   0.386   8.351 -0.4018  0.0021 -0.2362
 5641SOL    HW128556   0.186   0.466   8.395  0.0582 -1.1594  1.5951
 5641SOL    HW228557   0.244   0.362   8.319 -0.6401 -0.0987 -0.8059
 5642SOL     OW28558   2.230   4.058   5.586  0.4327  0.2296 -0.1565
 5642SOL    HW128559   2.315   4.045   5.627  0.4232 -1.0442 -0.5187
 5642SOL    HW228560   2.257   4.111   5.511  2.0687 -0.0764  0.2122
 5643SOL     OW28561   3.160   2.724   6.193 -0.4701  0.4837 -0.2128
 5643SOL    HW128562   3.175   2.730   6.287 -0.2044  0.1455 -0.2333
 5643SOL    HW228563   3.248   2.748   6.166 -0.7237 -0.4013 -1.8318
 5644SOL     OW28564   0.600   3.281   8.999  0.2683 -0.0666  0.1035
 5644SOL    HW128565   0.520   3.333   8.993  1.0080  1.0193 -0.2844
 5644SOL    HW228566   0.633   3.279   8.909  0.5557 -0.1815  0.2126
 5645SOL     OW28567   1.985   3.485   8.343  0.0803  0.4997 -0.3678
 5645SOL    HW128568   1.976   3.462   8.251  0.8667 -1.6158  0.0775
 5645SOL    HW228569   1.968   3.398   8.380  0.3078  0.9920  0.9030
 5646SOL     OW28570   2.183   0.078   3.285  0.4362 -0.0677  0.2204
 5646SOL    HW128571   2.091   0.105   3.273  0.3836 -0.0986  0.5615
 5646SOL    HW228572   2.244   0.151   3.276 -0.1702  0.3840 -0.2701
 5647SOL     OW28573   2.976   2.162  17.113  0.1454  0.4592 -0.2965
 5647SOL    HW128574   2.947   2.253  17.120 -1.5213 -0.3041  2.5844
 5647SOL    HW228575   2.892   2.128  17.084 -1.1479  2.8316  0.6366
 5648SOL     OW28576   1.890   1.478   3.427  0.0850  0.4285 -0.3768
 5648SOL    HW128577   1.849   1.410   3.481 -0.4760  1.7496  0.8343
 5648SOL    HW228578   1.939   1.429   3.360  2.6248  0.8589  1.2099
 5649SOL     OW28579   3.127   1.512   3.217 -0.1929 -0.6458 -0.3610
 5649SOL    HW128580   3.146   1.472   3.302 -0.7926 -0.1425  0.0131
 5649SOL    HW228581   3.042   1.477   3.193 -1.9781  1.9764  2.1191
 5650SOL     OW28582   0.921   3.420   8.541  0.2000  0.1414 -0.5379
 5650SOL    HW128583   0.997   3.462   8.501  0.8639  2.1174  2.7814
 5650SOL    HW228584   0.956   3.332   8.554 -0.5257  0.0348  0.6541
 5651SOL     OW28585   1.641   3.315   5.305  0.1240  0.0148 -0.1526
 5651SOL    HW128586   1.616   3.406   5.322  0.5815  0.3201 -1.1106
 5651SOL    HW228587   1.649   3.298   5.398 -1.6257 -2.2343 -0.4025
 5652SOL     OW28588   4.378   0.268   6.229  0.0706 -0.1806  0.5096
 5652SOL    HW128589   4.469   0.285   6.204  0.6066  0.2820  2.7859
 5652SOL    HW228590   4.337   0.351   6.255  3.0172  0.4928  2.9493
 5653SOL     OW28591   2.578   1.447   9.014 -0.7812 -0.1105  0.1692
 5653SOL    HW128592   2.565   1.389   9.089  0.5489 -0.8985 -0.2179
 5653SOL    HW228593   2.494   1.493   9.016  0.1215  1.5751 -0.7345
 5654SOL     OW28594   3.363   3.815  11.192 -0.2188  0.0636  0.7114
 5654SOL    HW128595   3.446   3.801  11.146 -0.4790 -0.0212  0.2642
 5654SOL    HW228596   3.335   3.901  11.164  1.6890 -0.4161 -2.6504
 5655SOL     OW28597   3.811   4.074   5.102 -0.0288 -0.6876  0.3728
 5655SOL    HW128598   3.801   4.142   5.035 -1.0050  0.2741  1.5044
 5655SOL    HW228599   3.737   4.017   5.082 -0.5122 -1.1462  3.4223
 5656SOL     OW28600   4.004   1.438  14.464  0.0848  0.1471  0.1625
 5656SOL    HW128601   3.909   1.449  14.459  0.1048  0.9912  1.4626
 5656SOL    HW228602   4.012   1.429  14.559 -2.2847  0.6232  0.4067
 5657SOL     OW28603   3.873   3.658   6.664 -0.1500 -0.3592  0.0382
 5657SOL    HW128604   3.811   3.624   6.600  1.5564  0.8427 -2.2388
 5657SOL    HW228605   3.856   3.614   6.748 -1.2975 -0.9329 -0.5017
 5658SOL     OW28606   1.502   3.511  14.834  0.3481 -0.2567 -0.2250
 5658SOL    HW128607   1.501   3.564  14.914 -1.9042 -1.7094  0.6838
 5658SOL    HW228608   1.521   3.424  14.868  0.2292  0.3410  1.3611
 5659SOL     OW28609   1.660   1.228   1.635  0.5272  0.2090 -0.4130
 5659SOL    HW128610   1.670   1.225   1.730 -0.2158  0.5639 -0.3235
 5659SOL    HW228611   1.583   1.286   1.626 -0.4481 -0.8672  1.0441
 5660SOL     OW28612   2.988   2.274  12.350  0.3791 -0.1444 -0.1908
 5660SOL    HW128613   2.920   2.231  12.298 -0.9435  2.8159 -0.9166
 5660SOL    HW228614   3.063   2.276  12.291  2.2273  1.0945  2.1587
 5661SOL     OW28615   0.973   3.111   9.939 -0.2187  0.0170 -0.2978
 5661SOL    HW128616   0.926   3.057  10.002  1.0815 -0.0158  0.6308
 5661SOL    HW228617   1.056   3.108   9.986  0.7379  1.5195 -1.8939
 5662SOL     OW28618   1.424   0.749   2.577 -0.3672  0.5978  0.1044
 5662SOL    HW128619   1.347   0.760   2.522  0.5459 -1.8227 -1.6716
 5662SOL    HW228620   1.382   0.702   2.649  0.5260 -1.1832 -0.5217
 5663SOL     OW28621   4.017   0.478  15.256 -0.0944 -0.0245 -0.1587
 5663SOL    HW128622   4.031   0.569  15.284  2.2808  0.4256 -2.9019
 5663SOL    HW228623   3.923   0.485  15.240  0.1444 -1.5185 -2.1991
 5664SOL     OW28624   1.147   0.400   5.263  0.0244 -0.3617  0.8306
 5664SOL    HW128625   1.083   0.470   5.245 -1.3835 -1.9647 -0.3547
 5664SOL    HW228626   1.166   0.368   5.175 -0.5910  1.0966  0.1603
 5665SOL     OW28627   0.794   2.504   1.947  0.6192  0.5036  0.6419
 5665SOL    HW128628   0.848   2.490   2.025  2.3218 -3.2544 -1.1974
 5665SOL    HW228629   0.712   2.463   1.978  1.8819 -2.8193 -0.3905
 5666SOL     OW28630   0.055   1.457  14.783  0.0876 -0.1837  0.3773
 5666SOL    HW128631   0.046   1.384  14.722  1.1273  1.5602 -1.8300
 5666SOL    HW228632   4.696   1.469  14.791  0.0498  0.2773 -0.8101
 5667SOL     OW28633   1.595   2.959   2.443 -0.6157  0.0667  0.0398
 5667SOL    HW128634   1.627   3.040   2.483 -2.2999  1.1382 -0.7374
 5667SOL    HW228635   1.554   3.007   2.370 -3.1120 -0.0305  1.3656
 5668SOL     OW28636   0.868   3.471   6.425  0.0152  0.2648 -0.3102
 5668SOL    HW128637   0.810   3.430   6.361 -0.5702  2.2456 -1.0527
 5668SOL    HW228638   0.816   3.534   6.475  2.0576  1.7563 -0.1004
 5669SOL     OW28639   4.663   3.042   6.326  0.1061  0.0179  0.3867
 5669SOL    HW128640   4.661   3.084   6.412  0.1858  1.8812 -0.5153
 5669SOL    HW228641   4.697   3.120   6.281 -1.4482 -0.2756 -1.2831
 5670SOL     OW28642   0.639   2.955  10.013 -0.1823 -0.4094 -0.0394
 5670SOL    HW128643   0.717   2.962  10.069  0.3884 -0.5318 -0.8279
 5670SOL    HW228644   0.677   2.952   9.925 -0.5117 -0.6783 -0.1702
 5671SOL     OW28645   1.635   2.060   1.703 -0.4593 -0.3868 -0.0240
 5671SOL    HW128646   1.558   2.011   1.732 -1.0276  0.2789 -0.4041
 5671SOL    HW228647   1.668   2.024   1.621 -1.7764 -0.6425 -0.4278
 5672SOL     OW28648   2.773   3.319   3.626  0.7622 -0.2274 -0.1240
 5672SOL    HW128649   2.867   3.329   3.611  1.2800 -2.1296  1.9278
 5672SOL    HW228650   2.748   3.410   3.606 -0.5000 -0.7086 -0.7516
 5673SOL     OW28651   0.187   1.928   3.930  0.2959  0.0591 -0.2731
 5673SOL    HW128652   0.203   1.846   3.977  1.5932 -0.6810 -1.9719
 5673SOL    HW228653   0.266   1.977   3.949  1.5875 -2.7105  1.5233
 5674SOL     OW28654   2.486   0.036  11.304  0.5725  0.1877  0.1527
 5674SOL    HW128655   2.516   0.126  11.291  0.1703  0.0443 -1.6857
 5674SOL    HW228656   2.415   0.052  11.366 -0.8296 -0.0165 -1.4150
 5675SOL     OW28657   1.757   2.641   0.181 -0.3487  0.2173  0.1039
 5675SOL    HW128658   1.808   2.564   0.204 -0.1614  0.2668 -0.1475
 5675SOL    HW228659   1.817   2.696   0.130  1.1880 -0.8317  0.7702
 5676SOL     OW28660   4.441   4.700  11.525 -0.2479  0.3629 -0.0778
 5676SOL    HW128661   4.402   4.694  11.438  1.7898  1.0699 -1.0333
 5676SOL    HW228662   4.409   4.618  11.563  1.0650 -0.4248 -0.6598
 5677SOL     OW28663   1.433   2.942   4.205 -0.1914  0.1529 -0.1779
 5677SOL    HW128664   1.400   2.953   4.294  0.2359 -0.3597  0.0418
 5677SOL    HW228665   1.527   2.958   4.214 -0.6401  0.7597  3.3546
 5678SOL     OW28666   4.559   0.233   9.727  0.1648  0.1283  0.1379
 5678SOL    HW128667   4.489   0.279   9.682  0.6443  0.2659 -0.4748
 5678SOL    HW228668   4.538   0.255   9.817  2.5213 -0.4507  0.8425
 5679SOL     OW28669   2.172   2.495   8.705  0.4492  0.1558 -0.6730
 5679SOL    HW128670   2.197   2.562   8.642 -0.4344  3.4893  2.5362
 5679SOL    HW228671   2.130   2.542   8.778  0.5690  0.0527 -0.5376
 5680SOL     OW28672   4.618   3.429  14.123 -0.2356  0.2683 -0.0396
 5680SOL    HW128673   4.544   3.372  14.103  0.1627 -0.3757  0.3167
 5680SOL    HW228674   4.581   3.494  14.182 -0.9875 -1.6737  1.6334
 5681SOL     OW28675   1.899   1.968   2.263 -0.0633 -0.1070 -0.6582
 5681SOL    HW128676   1.844   1.910   2.316  0.8621 -0.7054 -0.3603
 5681SOL    HW228677   1.932   2.027   2.331  2.7991 -2.9888  0.4602
 5682SOL     OW28678   2.755   2.940   4.046  0.1052 -0.6770  0.0728
 5682SOL    HW128679   2.785   2.877   3.980 -1.8359 -0.6524 -0.8294
 5682SOL    HW228680   2.685   2.981   3.996  0.1012  0.5817  1.1262
 5683SOL     OW28681   0.361   3.277   4.312  0.3656 -0.0852 -0.6510
 5683SOL    HW128682   0.336   3.236   4.229  0.1057 -2.1617  0.4437
 5683SOL    HW228683   0.337   3.205   4.371 -0.5977 -0.1230 -1.0930
 5684SOL     OW28684   0.448   0.004   9.158  0.5252 -0.1759  0.1340
 5684SOL    HW128685   0.421   4.682   9.087  0.8457 -1.1354  0.7997
 5684SOL    HW228686   0.405   0.083   9.124  1.2982 -0.2523 -1.0092
 5685SOL     OW28687   1.734   1.509   1.864 -0.3356  0.0750 -0.1940
 5685SOL    HW128688   1.756   1.419   1.842  0.8421  0.4870 -0.7030
 5685SOL    HW228689   1.722   1.498   1.959  0.2800  1.7778  0.0735
 5686SOL     OW28690   1.568   2.857   2.953  1.0450 -0.1088  0.6927
 5686SOL    HW128691   1.500   2.797   2.925  1.2348  0.4887 -1.0677
 5686SOL    HW228692   1.521   2.933   2.986  1.9426  0.1989  1.2800
 5687SOL     OW28693   2.119   3.271   1.150  0.0470 -0.1470  0.6569
 5687SOL    HW128694   2.185   3.220   1.103  0.8315 -0.1572  1.7630
 5687SOL    HW228695   2.077   3.205   1.204  1.1924 -0.0485  1.6566
 5688SOL     OW28696   4.454   1.871   2.485 -0.3766 -0.2039  0.3378
 5688SOL    HW128697   4.364   1.867   2.517 -0.2119  1.5898  1.0295
 5688SOL    HW228698   4.485   1.782   2.467  0.7531  0.4137 -0.7837
 5689SOL     OW28699   2.359   2.051   5.460 -0.4393  0.8883  0.9196
 5689SOL    HW128700   2.438   2.006   5.491  0.0338  0.0904 -1.4269
 5689SOL    HW228701   2.325   2.059   5.549 -2.3150  0.4932  0.2211
 5690SOL     OW28702   4.081   4.282   2.201 -0.0216 -0.3865 -0.2858
 5690SOL    HW128703   4.051   4.231   2.126 -1.3183 -0.9281  0.6075
 5690SOL    HW228704   4.111   4.360   2.154 -0.1357  0.0773  0.4163
 5691SOL     OW28705   0.635   2.232   4.217 -0.4981  0.2435  0.0600
 5691SOL    HW128706   0.665   2.308   4.267  1.6438 -1.1271  0.8823
 5691SOL    HW228707   0.543   2.254   4.203  0.0793  1.6922 -1.4561
 5692SOL     OW28708   1.726   0.830   5.963 -0.6843 -0.0476  0.1796
 5692SOL    HW128709   1.631   0.838   5.954 -0.7007  0.5546  0.9075
 5692SOL    HW228710   1.725   0.824   6.058 -0.6749  1.1284  0.2596
 5693SOL     OW28711   0.883   0.758   2.561 -1.0729 -0.0816 -0.7419
 5693SOL    HW128712   0.888   0.689   2.495  1.1973 -0.5906 -0.0223
 5693SOL    HW228713   0.854   0.720   2.644  1.1036  2.3987  1.1675
 5694SOL     OW28714   2.594   1.228   2.396  0.0757  0.1633 -0.1470
 5694SOL    HW128715   2.641   1.232   2.480  0.9093 -0.1575 -0.6039
 5694SOL    HW228716   2.623   1.308   2.354  0.5964 -0.2971 -0.6500
 5695SOL     OW28717   1.736   1.621   6.476 -0.1024 -0.0406  0.5234
 5695SOL    HW128718   1.670   1.675   6.519 -0.3344  1.2708 -1.4800
 5695SOL    HW228719   1.813   1.678   6.474 -0.8947  1.0673  1.2914
 5696SOL     OW28720   0.664   2.791   5.399  0.0879  0.2249  0.0140
 5696SOL    HW128721   0.586   2.835   5.366 -1.2027 -1.7175  0.4952
 5696SOL    HW228722   0.737   2.831   5.352  0.2806 -1.6562 -1.2985
 5697SOL     OW28723   1.500   3.573   2.547 -0.2589 -0.1849  0.3613
 5697SOL    HW128724   1.595   3.566   2.544 -0.2396 -0.0487  0.6853
 5697SOL    HW228725   1.489   3.607   2.458 -0.5245 -2.1663 -0.3646
 5698SOL     OW28726   2.036   1.455   4.958  0.9818 -0.0442  0.3480
 5698SOL    HW128727   2.126   1.434   4.982  1.2936  1.5563  0.5943
 5698SOL    HW228728   1.999   1.452   5.046  0.8521 -0.3998  0.2816
 5699SOL     OW28729   4.600   0.686   4.528  0.4461 -0.9557  0.0287
 5699SOL    HW128730   4.586   0.600   4.490 -0.8134 -1.0164  0.6395
 5699SOL    HW228731   4.678   0.716   4.481 -0.6209  3.2989  0.9422
 5700SOL     OW28732   3.739   2.481   3.880  0.4982  0.1597  0.3271
 5700SOL    HW128733   3.644   2.487   3.892  0.5136 -1.1468  1.0211
 5700SOL    HW228734   3.773   2.473   3.969 -1.3013 -0.4033  0.9741
 5701SOL     OW28735   1.259   1.949  17.173  0.1783 -0.7048  0.6576
 5701SOL    HW128736   1.223   2.032  17.141 -1.1168 -1.7555 -0.6123
 5701SOL    HW228737   1.296   1.974  17.258 -0.1455  3.4400 -0.4270
 5702SOL     OW28738   0.667   3.325   5.336 -0.2750 -0.0180 -0.4581
 5702SOL    HW128739   0.700   3.276   5.260 -1.7436  1.1412 -1.8506
 5702SOL    HW228740   0.747   3.375   5.351  0.4330 -0.9308 -1.1940
 5703SOL     OW28741   2.612   3.362  10.166 -0.2196 -0.7901 -0.0236
 5703SOL    HW128742   2.603   3.287  10.224  0.9053 -1.7548 -1.0883
 5703SOL    HW228743   2.658   3.429  10.217  1.2676 -2.2987  0.6347
 5704SOL     OW28744   4.523   4.618   7.010  0.3025 -0.7212  0.0114
 5704SOL    HW128745   4.454   4.680   7.032  0.8189  0.1652 -0.8138
 5704SOL    HW228746   4.467   4.545   6.988 -1.7298  0.9455 -0.3284
 5705SOL     OW28747   0.835   0.543   5.473  0.0792 -0.5322  0.0618
 5705SOL    HW128748   0.811   0.518   5.384 -1.3890 -0.3050  0.3968
 5705SOL    HW228749   0.853   0.637   5.467 -1.1547 -0.2910  0.2560
 5706SOL     OW28750   4.202   0.444   7.573  0.2134 -0.3061 -0.1833
 5706SOL    HW128751   4.271   0.471   7.513 -0.4696  3.6597  0.8676
 5706SOL    HW228752   4.179   0.522   7.623 -2.6891 -1.4392  0.2652
 5707SOL     OW28753   1.182   1.129   9.054 -0.5238  0.7194 -0.1774
 5707SOL    HW128754   1.155   1.206   9.003 -0.8717  1.3571  0.9699
 5707SOL    HW228755   1.228   1.084   8.983  0.9785 -2.7759  3.0024
 5708SOL     OW28756   3.267   2.323   3.535 -0.4138 -0.0451 -0.1119
 5708SOL    HW128757   3.346   2.292   3.579  0.8716  1.2711 -1.5020
 5708SOL    HW228758   3.285   2.415   3.516  0.6077 -0.5005 -1.3370
 5709SOL     OW28759   1.179   0.530   5.952  0.3415  0.3010 -0.3628
 5709SOL    HW128760   1.242   0.463   5.976  1.0961  0.0120 -3.1861
 5709SOL    HW228761   1.167   0.577   6.035 -2.7131  0.5350 -0.9275
 5710SOL     OW28762   0.804   2.945  12.543 -0.3385 -0.2185 -0.3535
 5710SOL    HW128763   0.773   2.926  12.632  1.8946 -0.2440  0.4055
 5710SOL    HW228764   0.757   3.027  12.527  0.9647  0.9574  1.9285
 5711SOL     OW28765   0.949   2.402   3.621  0.3781 -0.7391  0.0509
 5711SOL    HW128766   0.932   2.360   3.706 -0.3731  0.1994  0.3613
 5711SOL    HW228767   1.044   2.397   3.614  0.4355  2.6137 -1.4115
 5712SOL     OW28768   2.377   0.058   9.293  0.4714  0.2528  0.1524
 5712SOL    HW128769   2.421   0.087   9.373 -0.8307  2.2382  0.1676
 5712SOL    HW228770   2.402   0.126   9.230 -0.5578  1.2805  0.8546
 5713SOL     OW28771   2.104   2.007   2.948  0.1372  0.7086 -0.7255
 5713SOL    HW128772   2.101   2.096   2.912  1.6157  0.6147 -1.0791
 5713SOL    HW228773   2.107   2.024   3.042 -0.8444 -0.2884 -0.5121
 5714SOL     OW28774   3.076   0.183  11.675 -0.6888 -0.5107  0.3347
 5714SOL    HW128775   3.092   0.114  11.739  1.0970 -2.2430 -1.9387
 5714SOL    HW228776   3.167   0.194  11.646 -1.0119 -0.8397 -0.8153
 5715SOL     OW28777   3.280   4.651   9.352  0.4201  0.0933  0.0740
 5715SOL    HW128778   3.366   4.638   9.312 -0.0780 -2.4770 -0.1191
 5715SOL    HW228779   3.269   0.011   9.356  1.2960  0.2359 -0.9660
 5716SOL     OW28780   3.719   3.175   7.068 -0.3298  0.1152  0.1445
 5716SOL    HW128781   3.696   3.122   6.992  0.9888 -0.9281  0.4558
 5716SOL    HW228782   3.665   3.137   7.137  1.9263  2.0098  2.9428
 5717SOL     OW28783   0.574   3.840   0.592  0.4026  0.0183  0.1183
 5717SOL    HW128784   0.545   3.778   0.659  2.8609  0.0937  1.2762
 5717SOL    HW228785   0.667   3.846   0.614  0.2007 -0.2215  1.0334
 5718SOL     OW28786   4.252   1.469  15.225  0.3997 -0.7087 -0.2645
 5718SOL    HW128787   4.266   1.496  15.134 -0.3062 -0.2347 -0.2376
 5718SOL    HW228788   4.158   1.463  15.243  0.0794 -0.3760 -1.8027
 5719SOL     OW28789   3.464   3.467  13.593 -0.1345  0.2602 -0.5305
 5719SOL    HW128790   3.387   3.418  13.621  0.7889  0.2396  1.9875
 5719SOL    HW228791   3.529   3.431  13.653 -0.2376  0.9542 -0.0112
 5720SOL     OW28792   3.851   1.696   1.668 -0.0365 -0.6131 -0.7013
 5720SOL    HW128793   3.862   1.791   1.662  2.5599 -0.7698  1.5423
 5720SOL    HW228794   3.767   1.687   1.622 -1.0755 -0.4647  1.1660
 5721SOL     OW28795   4.091   2.150   7.705 -0.9789 -0.0783 -0.2945
 5721SOL    HW128796   4.141   2.118   7.780 -0.1004  1.8247 -0.0757
 5721SOL    HW228797   4.059   2.232   7.743 -0.3200  0.4078 -0.7972
 5722SOL     OW28798   0.486   1.148  16.652 -0.2323  0.2991  0.3543
 5722SOL    HW128799   0.409   1.203  16.667  1.6025  2.8485  0.4047
 5722SOL    HW228800   0.549   1.219  16.640  2.3113 -1.8793  0.7372
 5723SOL     OW28801   1.474   3.494  16.761  0.3446  0.1127 -0.3116
 5723SOL    HW128802   1.474   3.531  16.672 -2.9790 -0.4708 -0.5825
 5723SOL    HW228803   1.382   3.494  16.789  0.5939 -1.3473  0.5296
 5724SOL     OW28804   0.808   4.393   7.586 -0.5381 -0.4165 -0.2469
 5724SOL    HW128805   0.844   4.435   7.508 -1.2347 -1.9330 -1.3722
 5724SOL    HW228806   0.817   4.306   7.549  0.3408 -0.4961  0.1541
 5725SOL     OW28807   1.476   3.688  11.805 -0.3235 -0.0046  0.2219
 5725SOL    HW128808   1.492   3.772  11.760  0.4462 -0.3714 -0.1732
 5725SOL    HW228809   1.401   3.719  11.856  0.2252  0.8118  0.5382
 5726SOL     OW28810   3.277   1.117   0.682  0.1275 -0.0598  0.5774
 5726SOL    HW128811   3.302   1.050   0.746 -0.9771 -0.5419  0.5107
 5726SOL    HW228812   3.183   1.127   0.701 -0.2208  0.1065 -1.2575
 5727SOL     OW28813   2.247   1.452   6.215 -0.7716 -0.4181  0.1759
 5727SOL    HW128814   2.320   1.413   6.264 -0.9953 -0.2714  0.6268
 5727SOL    HW228815   2.296   1.506   6.153 -3.5118  0.6603 -1.0406
 5728SOL     OW28816   1.440   2.167   7.919  0.0772 -0.3673 -0.1240
 5728SOL    HW128817   1.353   2.203   7.904  0.5679  1.1996  0.7594
 5728SOL    HW228818   1.462   2.229   7.988  0.3164  0.0885 -0.6040
 5729SOL     OW28819   3.270   1.253   0.431  0.2885  0.5496  0.0842
 5729SOL    HW128820   3.240   1.216   0.513  0.4662  3.4791  1.4839
 5729SOL    HW228821   3.235   1.342   0.435 -0.3404  0.3429 -0.9846
 5730SOL     OW28822   2.794   1.946   7.702 -0.0095  0.4481  0.2739
 5730SOL    HW128823   2.788   1.884   7.630 -2.1135  2.6306 -1.4478
 5730SOL    HW228824   2.711   1.944   7.750 -0.5491 -0.6049 -0.6975
 5731SOL     OW28825   0.760   0.874   4.095 -0.3950  0.0419 -0.5558
 5731SOL    HW128826   0.669   0.871   4.124 -0.0391 -0.2487  0.5177
 5731SOL    HW228827   0.778   0.780   4.093 -3.4318 -0.5852  1.7512
 5732SOL     OW28828   3.413   2.929   2.730 -0.7025  0.3541  0.3003
 5732SOL    HW128829   3.451   3.016   2.744 -0.9553  0.4710  0.2643
 5732SOL    HW228830   3.340   2.950   2.672  0.7457 -0.5029 -1.8438
 5733SOL     OW28831   2.398   0.135   5.846  0.4495 -0.1344 -0.2552
 5733SOL    HW128832   2.429   0.211   5.797 -2.9949  1.2168 -0.3486
 5733SOL    HW228833   2.312   0.162   5.879  1.2517  2.9664 -0.6546
 5734SOL     OW28834   1.600   3.907   7.923 -0.4334 -0.4831  0.1472
 5734SOL    HW128835   1.523   3.855   7.901 -0.3991 -0.1018 -0.8429
 5734SOL    HW228836   1.555   3.980   7.966 -0.1588  0.2699 -0.8471
 5735SOL     OW28837   4.072   1.267  15.545  0.4761  0.3682 -0.0652
 5735SOL    HW128838   4.055   1.219  15.626 -1.4346  0.7658 -0.2333
 5735SOL    HW228839   4.118   1.199  15.496 -0.7082 -1.3400  1.1813
 5736SOL     OW28840   3.401   0.388  15.148 -0.0917  0.1814 -0.4080
 5736SOL    HW128841   3.384   0.390  15.054 -2.1922 -0.0978 -0.0206
 5736SOL    HW228842   3.493   0.361  15.149 -0.2861 -0.3228  2.4563
 5737SOL     OW28843   2.639   4.332  12.101  0.4773 -0.5050  0.3419
 5737SOL    HW128844   2.658   4.316  12.009 -1.7789  0.6128 -0.3188
 5737SOL    HW228845   2.679   4.254  12.142 -2.3095 -1.5313  1.1131
 5738SOL     OW28846   3.238   3.149   5.933 -0.0315  0.1074 -0.5840
 5738SOL    HW128847   3.263   3.066   5.892 -0.8197  0.7348 -2.3260
 5738SOL    HW228848   3.327   3.171   5.962 -0.4838  1.1270  0.0497
 5739SOL     OW28849   3.806   2.737  13.361 -0.6525  0.4732 -0.3839
 5739SOL    HW128850   3.828   2.764  13.272  2.5309 -0.7098  0.0287
 5739SOL    HW228851   3.715   2.763  13.370 -0.4087  1.3414 -0.3711
 5740SOL     OW28852   1.735   1.985   8.229 -0.1243 -0.9087 -0.2896
 5740SOL    HW128853   1.706   1.917   8.290 -1.2362  0.2936  0.5150
 5740SOL    HW228854   1.792   2.031   8.291 -0.1446  0.1174 -1.0410
 5741SOL     OW28855   3.841   2.101   3.021  0.0592 -0.3377  0.1756
 5741SOL    HW128856   3.801   2.077   2.938 -1.6143 -0.0174  0.8874
 5741SOL    HW228857   3.927   2.134   2.997  0.3588 -1.6434 -0.5612
 5742SOL     OW28858   1.808   1.272   7.795  0.1467 -0.1312 -0.2617
 5742SOL    HW128859   1.720   1.308   7.810 -0.5290 -2.3153  1.0148
 5742SOL    HW228860   1.867   1.304   7.863  0.1146 -1.3311  0.3288
 5743SOL     OW28861   0.767   3.625   5.029  0.1348 -0.4977 -0.0006
 5743SOL    HW128862   0.701   3.681   4.989  0.2091  0.9942  1.9109
 5743SOL    HW228863   0.754   3.653   5.120 -0.1450 -0.9083  0.0866
 5744SOL     OW28864   2.324   3.040  16.655  0.5819  0.0484  0.3012
 5744SOL    HW128865   2.315   2.964  16.598 -4.3888 -0.5750  1.9669
 5744SOL    HW228866   2.361   3.102  16.591 -3.0147  1.1748 -0.6782
 5745SOL     OW28867   4.133   2.576  13.285  0.2486  0.0737  0.0284
 5745SOL    HW128868   4.127   2.554  13.192 -2.5821 -0.4365  0.3061
 5745SOL    HW228869   4.228   2.574  13.288  0.2610 -0.3665 -0.6409
 5746SOL     OW28870   1.553   0.606   7.051  0.2828  0.4242 -0.6208
 5746SOL    HW128871   1.616   0.640   6.987 -1.2311 -1.4025 -3.0577
 5746SOL    HW228872   1.489   0.564   6.994 -2.7361  1.5920  1.9199
 5747SOL     OW28873   1.762   0.650   3.865  0.3541 -0.0543  0.0991
 5747SOL    HW128874   1.759   0.569   3.916  1.8218 -0.4269 -0.4286
 5747SOL    HW228875   1.855   0.672   3.868  0.0786  0.9592  1.4667
 5748SOL     OW28876   4.502   3.088  12.853  0.0656  0.1901  0.5225
 5748SOL    HW128877   4.473   3.118  12.767 -0.5222 -1.4187  0.1757
 5748SOL    HW228878   4.465   3.001  12.863 -0.1752  0.1414 -0.8394
 5749SOL     OW28879   4.028   0.651   0.316 -0.0882  0.0913  0.7060
 5749SOL    HW128880   4.051   0.558   0.320 -0.2469 -0.0213 -1.0079
 5749SOL    HW228881   4.040   0.680   0.407  2.3537  0.5723  0.2404
 5750SOL     OW28882   2.523   3.314   7.771 -0.1425 -0.2456  0.2399
 5750SOL    HW128883   2.575   3.351   7.842 -0.6555  1.2449 -0.1606
 5750SOL    HW228884   2.432   3.325   7.798 -0.1985 -1.7412  0.6796
 5751SOL     OW28885   2.879   4.138   7.490 -0.4767 -0.5916 -0.2698
 5751SOL    HW128886   2.945   4.108   7.427 -1.1893  1.9229 -2.2196
 5751SOL    HW228887   2.925   4.180   7.562  1.4938  1.4083 -2.6885
 5752SOL     OW28888   2.531   3.527   8.812 -0.1519 -0.2088  0.4058
 5752SOL    HW128889   2.467   3.584   8.768 -0.2380  0.5862  1.5799
 5752SOL    HW228890   2.585   3.590   8.859 -0.7144  0.5435  0.0524
 5753SOL     OW28891   1.001   1.850  13.117 -0.3253  0.5740  0.5183
 5753SOL    HW128892   0.980   1.941  13.095  1.4823  0.9491  0.3906
 5753SOL    HW228893   1.083   1.854  13.166  0.5745 -1.5995 -0.8596
 5754SOL     OW28894   0.890   0.438   6.643  0.1763 -0.4663  0.5597
 5754SOL    HW128895   0.847   0.440   6.728 -0.4412 -0.0899  0.2404
 5754SOL    HW228896   0.917   0.529   6.632  0.1719 -0.5271  0.0001
 5755SOL     OW28897   3.072   2.063   3.028 -0.0106  0.0436 -0.3402
 5755SOL    HW128898   3.068   1.971   3.053  0.6589  0.3365  0.8274
 5755SOL    HW228899   3.059   2.060   2.933  0.0976  0.3382 -0.3621
 5756SOL     OW28900   2.152   4.733   1.581  0.0335 -0.0671  0.0597
 5756SOL    HW128901   2.182   0.003   1.491 -2.2786 -1.9382 -0.8454
 5756SOL    HW228902   2.079   4.674   1.560 -0.5162  1.0168 -1.0280
 5757SOL     OW28903   3.789   1.600  17.539  0.3804 -0.0436 -0.1350
 5757SOL    HW128904   3.757   1.536  17.602  0.7377 -0.0892 -0.0008
 5757SOL    HW228905   3.866   1.555  17.505 -0.1599 -0.4962 -0.7503
 5758SOL     OW28906   3.841   4.724   0.505 -0.0219 -0.6798 -0.8118
 5758SOL    HW128907   3.874   4.640   0.472  0.6549 -0.1898 -1.3819
 5758SOL    HW228908   3.920   0.039   0.526  0.7859 -2.0713 -0.4073
 5759SOL     OW28909   2.146   4.332   7.824 -0.3205  0.0512  0.0625
 5759SOL    HW128910   2.123   4.334   7.731 -2.2370 -2.6587  0.4870
 5759SOL    HW228911   2.074   4.276   7.853  0.0506 -0.8003 -0.6330
 5760SOL     OW28912   0.467   1.199   8.649  0.1006  0.2408  0.2098
 5760SOL    HW128913   0.439   1.108   8.662  2.7648 -0.4713  0.8747
 5760SOL    HW228914   0.409   1.217   8.575 -1.7160 -0.6650  1.4017
 5761SOL     OW28915   0.572   0.363  10.497  0.2419  0.4553  0.5882
 5761SOL    HW128916   0.632   0.294  10.526 -2.5441 -2.3585 -0.3406
 5761SOL    HW228917   0.491   0.340  10.542  0.5674  0.0469  0.9616
 5762SOL     OW28918   3.535   0.639  14.854 -0.6480 -0.3418 -0.7823
 5762SOL    HW128919   3.552   0.586  14.777  0.1355  0.9009 -1.4519
 5762SOL    HW228920   3.499   0.566  14.904  1.4891 -0.4916  0.5271
 5763SOL     OW28921   1.164   1.597  13.170 -0.1344 -0.4176 -0.1494
 5763SOL    HW128922   1.105   1.661  13.210 -0.1792 -1.3920  1.3488
 5763SOL    HW228923   1.162   1.629  13.080  2.9549 -1.5723 -0.6272
 5764SOL     OW28924   0.359   2.977   5.975 -0.2395  0.3212 -0.1029
 5764SOL    HW128925   0.386   2.893   5.937  0.2000 -0.7745  2.6075
 5764SOL    HW228926   0.303   2.936   6.041  2.4192 -0.2231  1.8436
 5765SOL     OW28927   3.594   1.379   6.674 -0.2256  0.3224 -0.4375
 5765SOL    HW128928   3.645   1.431   6.611  0.1864  1.4735  0.8384
 5765SOL    HW228929   3.593   1.435   6.751 -1.9857  1.1766 -1.0862
 5766SOL     OW28930   3.351   1.790   3.363  0.4683 -0.2041  0.5817
 5766SOL    HW128931   3.257   1.772   3.363  0.4107  0.0953  1.4080
 5766SOL    HW228932   3.345   1.883   3.389  1.4122  0.4310 -1.4981
 5767SOL     OW28933   4.590   4.626   4.326  0.2930  0.1336  0.3004
 5767SOL    HW128934   4.545   4.675   4.257 -0.4857 -1.3309 -0.2513
 5767SOL    HW228935   4.567   4.670   4.407  2.0575 -1.3435  1.5842
 5768SOL     OW28936   1.621   1.493   2.620 -0.6022 -0.5805 -0.3044
 5768SOL    HW128937   1.673   1.554   2.673 -2.5786  1.4322 -0.6653
 5768SOL    HW228938   1.552   1.465   2.681  1.1980 -3.0097  0.5875
 5769SOL     OW28939   3.522   4.302   4.693 -0.1581  0.7999  0.2103
 5769SOL    HW128940   3.557   4.297   4.604 -1.0396 -2.2600  0.0404
 5769SOL    HW228941   3.485   4.390   4.684 -3.3078 -0.7843 -2.2293
 5770SOL     OW28942   0.732   2.738   6.813 -0.3015  0.0684 -0.3202
 5770SOL    HW128943   0.655   2.712   6.763 -0.0408 -3.5371  1.1582
 5770SOL    HW228944   0.703   2.828   6.830 -0.8651  0.0466 -1.1600
 5771SOL     OW28945   0.995   2.515   4.135  0.0476  0.0275  0.5855
 5771SOL    HW128946   1.061   2.478   4.076 -1.0166  0.8994 -1.1506
 5771SOL    HW228947   1.004   2.607   4.110  0.5705  0.4719  2.3797
 5772SOL     OW28948   4.052   4.712   5.950  0.8035 -0.6736 -0.0450
 5772SOL    HW128949   4.117   4.644   5.967 -0.2134 -1.6865 -0.1989
 5772SOL    HW228950   4.094   0.060   5.973  0.3927 -0.3634 -0.4174
 5773SOL     OW28951   0.323   2.597  12.085  0.3220  0.1675  0.1927
 5773SOL    HW128952   0.291   2.569  12.000 -1.2813  1.3581  0.3993
 5773SOL    HW228953   0.409   2.629  12.057 -1.1841  2.7971 -1.4846
 5774SOL     OW28954   0.391   3.683   1.539  0.2550  0.5158  0.1146
 5774SOL    HW128955   0.392   3.630   1.459 -2.5091  0.2538  0.2519
 5774SOL    HW228956   0.311   3.733   1.526  0.7587  1.6721  1.4698
 5775SOL     OW28957   2.078   0.932   6.220  0.2736 -0.1891 -0.6097
 5775SOL    HW128958   2.123   0.968   6.297  0.7012 -2.6288  0.3002
 5775SOL    HW228959   1.986   0.942   6.244 -0.0869 -1.4542 -1.4738
 5776SOL     OW28960   2.923   3.153  15.873  0.4034 -0.1162 -0.4929
 5776SOL    HW128961   2.884   3.080  15.824 -2.6250 -0.1017  1.9653
 5776SOL    HW228962   2.871   3.155  15.953  0.5386 -3.0779 -0.3160
 5777SOL     OW28963   3.151   1.106   9.407 -0.3947 -0.6029 -0.3070
 5777SOL    HW128964   3.157   1.117   9.502  0.2681  1.5388 -0.5884
 5777SOL    HW228965   3.104   1.188   9.390  0.2718 -0.1138  0.2327
 5778SOL     OW28966   2.595   3.116  12.868  0.4604 -0.1042 -0.1761
 5778SOL    HW128967   2.586   3.161  12.784 -3.4564  1.7226  1.2360
 5778SOL    HW228968   2.645   3.183  12.916  1.2771 -1.4953  0.9142
 5779SOL     OW28969   2.548   3.235  15.449  0.2882  0.0423 -0.0557
 5779SOL    HW128970   2.618   3.210  15.510  0.7615 -0.5133 -0.8340
 5779SOL    HW228971   2.573   3.320  15.412 -1.0507  1.5847  2.5581
 5780SOL     OW28972   0.410   0.259   8.342  0.3752  0.4020 -0.7541
 5780SOL    HW128973   0.367   0.209   8.412  1.6498  2.1437  1.2943
 5780SOL    HW228974   0.477   0.199   8.308  0.1612 -0.4921  0.3931
 5781SOL     OW28975   3.805   2.774  15.080  0.4055  0.1012 -0.1499
 5781SOL    HW128976   3.789   2.707  15.013 -1.6466  0.4026  0.0393
 5781SOL    HW228977   3.814   2.720  15.159  1.9045 -0.5688 -0.7597
 5782SOL     OW28978   1.803   4.018  10.461  0.2546 -0.0712 -0.0566
 5782SOL    HW128979   1.789   4.086  10.527  2.2219  0.3638 -0.0640
 5782SOL    HW228980   1.815   4.082  10.390 -2.2558 -1.9172 -2.1333
 5783SOL     OW28981   4.024   4.510   6.501 -0.5716  0.5083  0.5181
 5783SOL    HW128982   4.057   4.493   6.413 -0.8895  1.6440  0.1859
 5783SOL    HW228983   3.930   4.524   6.495 -0.4498  0.4405 -1.3340
 5784SOL     OW28984   3.047   0.965   6.320 -0.8374  0.0132 -0.1634
 5784SOL    HW128985   3.044   0.869   6.316 -2.4612  0.0391  0.4787
 5784SOL    HW228986   3.003   0.989   6.238  0.3166  0.7841 -0.5668
 5785SOL     OW28987   0.175   2.609  12.939  0.2098 -0.6327 -0.3071
 5785SOL    HW128988   0.199   2.523  12.904  1.4283  0.0500 -1.1685
 5785SOL    HW228989   0.118   2.636  12.868  1.5144 -2.3829 -2.0158
 5786SOL     OW28990   3.497   0.117  14.722 -0.0267 -0.0324 -0.4091
 5786SOL    HW128991   3.411   0.078  14.708 -0.5160  1.2771 -1.0079
 5786SOL    HW228992   3.522   0.161  14.641 -0.7868 -1.0425 -1.1786
 5787SOL     OW28993   1.548   4.124   3.679 -0.0842 -0.0545 -0.3049
 5787SOL    HW128994   1.499   4.042   3.676  1.0911 -0.7445 -0.6659
 5787SOL    HW228995   1.537   4.157   3.589 -0.2180 -1.3272 -0.7622
 5788SOL     OW28996   2.407   2.582  13.107  0.3414  0.1721 -0.3762
 5788SOL    HW128997   2.434   2.492  13.088 -0.8220 -0.6313  1.8846
 5788SOL    HW228998   2.442   2.627  13.029 -1.1192  0.9839 -0.5706
 5789SOL     OW28999   0.792   2.799  10.346  0.1495  0.1757 -0.4732
 5789SOL    HW129000   0.792   2.708  10.314  2.6598 -0.0565  0.1114
 5789SOL    HW229001   0.704   2.800  10.382  0.0301  0.0004 -0.7553
 5790SOL     OW29002   3.830   2.771  16.370  0.1904  0.8748 -0.4238
 5790SOL    HW129003   3.883   2.822  16.431 -0.5877  1.6051 -0.3576
 5790SOL    HW229004   3.892   2.742  16.303  0.3299  0.0729  0.0426
 5791SOL     OW29005   0.711   4.427   9.146  0.1759  0.1379 -0.3942
 5791SOL    HW129006   0.781   4.476   9.190 -1.3078 -0.7422  2.9614
 5791SOL    HW229007   0.692   4.360   9.211 -2.6257  0.2978 -1.0738
 5792SOL     OW29008   3.912   1.502  12.504 -0.2494  0.3584 -0.8589
 5792SOL    HW129009   3.873   1.530  12.421 -0.4746  0.8664 -0.5807
 5792SOL    HW229010   3.996   1.469  12.472 -0.0970  0.0417 -0.1323
 5793SOL     OW29011   0.514   2.147   8.634  0.4530 -0.1380 -0.0364
 5793SOL    HW129012   0.491   2.224   8.583 -0.0917  0.6917  1.4809
 5793SOL    HW229013   0.580   2.112   8.574  0.9702 -0.4492  0.7193
 5794SOL     OW29014   1.083   3.027  17.541  0.3704  0.2378 -0.0918
 5794SOL    HW129015   1.138   3.100  17.568  1.9228 -0.6398 -0.8722
 5794SOL    HW229016   1.099   3.022  17.447 -0.9695 -3.4690 -0.1396
 5795SOL     OW29017   0.753   0.287   1.670 -0.1908  0.2671  1.0892
 5795SOL    HW129018   0.830   0.307   1.723 -2.3455 -1.2437  4.8129
 5795SOL    HW229019   0.744   0.193   1.656  3.2359  0.2662 -1.1123
 5796SOL     OW29020   4.057   2.325  17.737  0.3576  0.0520 -0.1506
 5796SOL    HW129021   3.982   2.379  17.711  1.3525  1.7581  0.5181
 5796SOL    HW229022   4.079   2.287  17.652 -1.2012  0.2948 -0.6508
 5797SOL     OW29023   2.369   4.550  13.763  0.1670 -0.2061  0.3650
 5797SOL    HW129024   2.463   4.564  13.761 -0.0279  0.7318 -1.9787
 5797SOL    HW229025   2.361   4.462  13.800 -2.5882 -0.9916 -2.0807
 5798SOL     OW29026   1.018   2.248   2.941  0.1657  1.0098  0.2923
 5798SOL    HW129027   1.010   2.285   2.853  0.7339 -1.0874 -0.6374
 5798SOL    HW229028   1.085   2.308   2.973 -0.9260  1.5658  1.5558
 5799SOL     OW29029   3.132   4.014   1.899 -0.8350 -0.4096 -0.0246
 5799SOL    HW129030   3.148   4.083   1.964 -0.2679 -0.8090  0.2634
 5799SOL    HW229031   3.054   3.967   1.928 -1.7956  0.6942 -0.7960
 5800SOL     OW29032   0.971   2.325   6.909 -0.2653 -0.1302  0.0431
 5800SOL    HW129033   1.019   2.255   6.865 -0.8021 -2.4532  3.1244
 5800SOL    HW229034   0.905   2.354   6.846 -0.0110 -2.5075 -1.2878
 5801SOL     OW29035   4.276   4.057   3.800  0.0447 -0.8214  0.2851
 5801SOL    HW129036   4.261   3.965   3.779  0.4083 -1.1138  1.2831
 5801SOL    HW229037   4.214   4.070   3.871 -1.7508 -0.2880 -1.4030
 5802SOL     OW29038   1.971   1.116   6.984 -0.0374 -0.3361  0.3072
 5802SOL    HW129039   2.008   1.202   6.964  0.2912 -0.3915  0.6890
 5802SOL    HW229040   2.048   1.075   7.024 -0.1831 -0.3282  0.5924
 5803SOL     OW29041   2.039   2.750   1.768 -0.2309 -0.7737 -0.8976
 5803SOL    HW129042   2.027   2.707   1.683 -3.0466  1.4922 -1.6255
 5803SOL    HW229043   1.951   2.727   1.797 -0.6560  0.9373 -0.8375
 5804SOL     OW29044   4.073   2.025   7.071 -0.3558 -0.3933  0.5705
 5804SOL    HW129045   4.148   2.069   7.109 -0.1047  1.0474 -1.5558
 5804SOL    HW229046   4.002   2.087   7.088 -0.2281  0.6585 -2.6538
 5805SOL     OW29047   2.354   2.426   9.959  0.0184  0.1186  0.3200
 5805SOL    HW129048   2.333   2.369   9.885 -0.2906  2.3102 -1.2925
 5805SOL    HW229049   2.434   2.382   9.989 -0.7527  1.0462  3.7046
 5806SOL     OW29050   3.844   2.331  17.353  0.1315  0.2121  0.4052
 5806SOL    HW129051   3.871   2.280  17.276 -0.8638 -1.1965  0.9841
 5806SOL    HW229052   3.817   2.403  17.296 -0.0173 -1.7760 -2.0678
 5807SOL     OW29053   0.136   0.786   8.135 -0.0013  0.1046 -0.2168
 5807SOL    HW129054   0.095   0.717   8.189 -0.8665  2.2398  1.8554
 5807SOL    HW229055   0.204   0.741   8.085 -0.1775 -1.2471  0.7506
 5808SOL     OW29056   1.364   0.583   0.460 -0.1479 -0.1600 -0.3080
 5808SOL    HW129057   1.355   0.487   0.460  0.6130 -0.2331 -0.7069
 5808SOL    HW229058   1.439   0.588   0.401  0.2609  0.3868  0.2630
 5809SOL     OW29059   2.759   0.408   2.726 -0.4293  0.4625 -0.4441
 5809SOL    HW129060   2.725   0.323   2.753 -0.1087  0.5739  0.3241
 5809SOL    HW229061   2.726   0.469   2.792 -1.2529 -0.0329 -0.4017
 5810SOL     OW29062   3.915   0.473   1.776  0.0825  0.3795 -0.4970
 5810SOL    HW129063   3.829   0.432   1.782  0.3771 -0.6342 -3.0405
 5810SOL    HW229064   3.889   0.547   1.722 -3.0210 -0.9085 -0.7272
 5811SOL     OW29065   3.084   2.698  15.795 -0.1558  0.2592  0.0442
 5811SOL    HW129066   3.107   2.614  15.757 -2.4088 -0.9385  1.3212
 5811SOL    HW229067   3.162   2.740  15.759 -0.1149  2.2393  2.4254
 5812SOL     OW29068   1.759   3.978   3.097 -0.5026 -0.1637  0.1073
 5812SOL    HW129069   1.752   4.024   3.013  0.0568  0.7452  0.5466
 5812SOL    HW229070   1.818   3.904   3.082 -0.6541 -0.3263  0.3170
 5813SOL     OW29071   3.711   0.468   8.599 -0.1538 -0.2732 -0.1609
 5813SOL    HW129072   3.615   0.476   8.603 -0.1496 -0.6733  0.6023
 5813SOL    HW229073   3.726   0.483   8.505 -1.5361 -0.6214 -0.4485
 5814SOL     OW29074   0.545   2.407   2.809  0.7933  0.1996 -0.0310
 5814SOL    HW129075   0.602   2.409   2.732  1.0643 -1.9569  0.1162
 5814SOL    HW229076   0.481   2.475   2.785  0.4624 -0.9364 -2.4104
 5815SOL     OW29077   1.989   2.870  16.010  0.4807  1.0922 -0.1071
 5815SOL    HW129078   2.010   2.796  15.953 -1.0231  1.6478 -1.3963
 5815SOL    HW229079   2.070   2.920  15.999  1.2301  0.1358  1.1428
 5816SOL     OW29080   3.709   0.756   7.249  0.5511 -0.1788 -0.4682
 5816SOL    HW129081   3.682   0.753   7.157  2.2702  0.7320 -1.0125
 5816SOL    HW229082   3.642   0.699   7.284  2.7992  0.4615  4.9200
 5817SOL     OW29083   1.760   4.588   6.477  0.1835  0.2291  0.5125
 5817SOL    HW129084   1.758   4.496   6.452 -0.8935 -0.2824  2.4414
 5817SOL    HW229085   1.703   4.580   6.554  3.6461  0.5185  3.1143
 5818SOL     OW29086   1.231   3.725  14.958  0.8230 -0.4536  0.4493
 5818SOL    HW129087   1.225   3.701  15.051 -0.1442 -1.0968  0.2162
 5818SOL    HW229088   1.326   3.726  14.947  0.5991  0.3793 -1.4137
 5819SOL     OW29089   0.342   2.447   4.926  0.4881  0.4951  0.1892
 5819SOL    HW129090   0.304   2.476   4.843  0.0669 -1.5008 -0.3202
 5819SOL    HW229091   0.345   2.528   4.978 -1.9149  0.8838 -0.3020
 5820SOL     OW29092   0.063   1.121   6.313  0.5815  0.0339 -0.0484
 5820SOL    HW129093   4.723   1.149   6.262 -0.0011  1.4261  1.5540
 5820SOL    HW229094   0.077   1.036   6.272  1.7468 -0.0628  0.5553
 5821SOL     OW29095   0.505   3.728   4.472  0.1826  0.0917 -0.4930
 5821SOL    HW129096   0.550   3.732   4.557  0.7089  1.1065 -0.8118
 5821SOL    HW229097   0.430   3.671   4.484 -0.1367  0.0827 -2.5447
 5822SOL     OW29098   4.214   3.744   2.676  0.0381  0.1762 -0.1323
 5822SOL    HW129099   4.251   3.810   2.733  0.0657 -1.0502  1.2604
 5822SOL    HW229100   4.217   3.660   2.722 -2.1208  0.2247  0.1217
 5823SOL     OW29101   1.510   1.088   3.614 -0.0662 -0.8734  0.3343
 5823SOL    HW129102   1.428   1.090   3.566 -0.6583 -1.5760  1.3174
 5823SOL    HW229103   1.473   1.049   3.693 -2.0375  0.7092  0.1872
 5824SOL     OW29104   3.585   3.587  10.335  0.2165 -0.0027  1.1718
 5824SOL    HW129105   3.659   3.612  10.391  2.5015 -0.3873 -1.6777
 5824SOL    HW229106   3.518   3.599  10.402  0.9579  0.4903  1.8365
 5825SOL     OW29107   3.601   4.572   1.088 -0.8250  0.6289 -0.5772
 5825SOL    HW129108   3.530   4.589   1.150 -1.7351  0.8997 -1.6980
 5825SOL    HW229109   3.664   4.634   1.125  1.5720 -2.5841  0.7341
 5826SOL     OW29110   4.299   3.399   4.777 -0.5482 -0.6735 -0.6686
 5826SOL    HW129111   4.394   3.406   4.767 -0.4863 -2.9480 -1.7900
 5826SOL    HW229112   4.288   3.329   4.842 -1.5316 -0.6105 -0.7624
 5827SOL     OW29113   3.553   0.502  10.539  0.2116 -0.1744 -0.7863
 5827SOL    HW129114   3.580   0.475  10.451  0.7530 -0.4398 -0.5371
 5827SOL    HW229115   3.639   0.497  10.580 -0.4236  1.2391  0.7105
 5828SOL     OW29116   3.010   0.303   2.638  0.6659 -0.5783  0.4664
 5828SOL    HW129117   3.026   0.300   2.733  1.3990 -2.0015  0.2904
 5828SOL    HW229118   2.927   0.351   2.634  0.4696 -1.2260 -3.0563
 5829SOL     OW29119   3.523   4.466   7.262  0.1749 -0.5428 -0.3768
 5829SOL    HW129120   3.444   4.457   7.208  0.1021 -0.6380 -0.2542
 5829SOL    HW229121   3.494   4.428   7.345 -0.5797  0.1000 -0.3470
 5830SOL     OW29122   0.939   3.610   8.957  0.0820 -0.1447 -0.7769
 5830SOL    HW129123   0.878   3.558   8.905 -1.9660  1.9312 -0.4474
 5830SOL    HW229124   1.004   3.646   8.896 -1.7687 -0.5658 -3.0071
 5831SOL     OW29125   2.782   0.656   9.113  0.0279 -0.1922 -0.5311
 5831SOL    HW129126   2.769   0.561   9.107 -1.4507 -0.0500  0.3625
 5831SOL    HW229127   2.735   0.684   9.035 -0.0282 -0.3197 -0.5433
 5832SOL     OW29128   0.388   1.115   3.349 -0.3032  0.3750 -0.9483
 5832SOL    HW129129   0.473   1.071   3.354  0.3743  1.7598 -0.4504
 5832SOL    HW229130   0.347   1.054   3.288  0.6640  0.4957 -1.7242
 5833SOL     OW29131   3.955   1.915   7.757  0.3134  0.5743 -0.0840
 5833SOL    HW129132   3.869   1.925   7.717  0.9410  1.4675 -1.2050
 5833SOL    HW229133   3.995   1.999   7.736 -2.6228  2.0939  0.2951
 5834SOL     OW29134   3.548   3.609   6.891  0.5221 -0.2165 -0.3695
 5834SOL    HW129135   3.545   3.667   6.815 -1.7833  0.3010  0.1092
 5834SOL    HW229136   3.552   3.673   6.962 -0.9221  1.6086 -1.9160
 5835SOL     OW29137   2.758   0.922   7.859  0.1689 -0.5322 -0.3626
 5835SOL    HW129138   2.709   0.844   7.885 -0.0550 -0.3303 -0.1820
 5835SOL    HW229139   2.844   0.888   7.835 -0.5563 -2.2822 -0.4739
 5836SOL     OW29140   3.364   1.117   9.236 -0.5268 -0.5821  0.5733
 5836SOL    HW129141   3.333   1.175   9.167 -0.2186 -1.7537 -0.5640
 5836SOL    HW229142   3.282   1.095   9.281 -0.8868  1.6707  1.0311
 5837SOL     OW29143   1.712   1.852  11.190 -0.2329  0.0052  0.7680
 5837SOL    HW129144   1.804   1.876  11.182 -0.1023 -0.8358 -0.1847
 5837SOL    HW229145   1.658   1.930  11.174 -0.2695 -0.7963 -3.0535
 5838SOL     OW29146   2.091   0.329   4.124 -0.1941 -0.0245 -0.1454
 5838SOL    HW129147   2.153   0.256   4.121  0.9247  0.9186 -0.2360
 5838SOL    HW229148   2.031   0.294   4.190  0.8846  0.0395  0.8689
 5839SOL     OW29149   2.524   0.033   2.817 -0.2199  0.7132  0.5544
 5839SOL    HW129150   2.456   0.093   2.785  1.4433  1.2771 -1.8911
 5839SOL    HW229151   2.483   4.713   2.884  0.3647 -0.7023 -0.2741
 5840SOL     OW29152   1.202   0.739   4.672 -0.0698 -0.0353 -0.0607
 5840SOL    HW129153   1.229   0.778   4.754  2.4025 -0.8417 -0.4952
 5840SOL    HW229154   1.231   0.800   4.604  1.4800 -0.1323  0.5147
 5841SOL     OW29155   1.941   1.687  12.113  0.3404  0.2807 -0.1588
 5841SOL    HW129156   1.905   1.762  12.159 -1.9032 -0.5641 -0.5346
 5841SOL    HW229157   1.862   1.641  12.083  0.6344 -0.9397  0.9222
 5842SOL     OW29158   4.536   2.056  12.647 -0.4801  0.1875 -0.5983
 5842SOL    HW129159   4.466   2.012  12.694 -1.2366  2.0434 -0.0272
 5842SOL    HW229160   4.592   1.978  12.636  0.2811  0.4808  1.1721
 5843SOL     OW29161   1.944   2.169   9.388  0.2258  0.0598  0.3150
 5843SOL    HW129162   1.891   2.100   9.426  0.4478  0.8686  2.1320
 5843SOL    HW229163   1.876   2.230   9.360  0.1584 -0.2989 -0.2996
 5844SOL     OW29164   3.325   2.694   4.831  0.3250 -0.4415  0.3879
 5844SOL    HW129165   3.326   2.776   4.880 -0.6496  0.6873 -1.5102
 5844SOL    HW229166   3.234   2.667   4.848  0.8923 -0.9588  2.5320
 5845SOL     OW29167   4.010   4.236   2.796  0.0031  0.0784 -0.7080
 5845SOL    HW129168   4.086   4.281   2.759  1.6765 -2.8964 -0.9039
 5845SOL    HW229169   3.945   4.244   2.726  0.8422 -0.6515 -1.5575
 5846SOL     OW29170   0.333   2.320   7.115  0.0636  0.4714 -0.2559
 5846SOL    HW129171   0.290   2.355   7.193 -0.4320 -1.3248  0.2792
 5846SOL    HW229172   0.366   2.237   7.150 -0.1949  0.2951 -0.4291
 5847SOL     OW29173   4.019   1.653   2.998  0.5083  0.6673  0.0151
 5847SOL    HW129174   3.959   1.578   2.999  0.1187  0.9739 -0.2554
 5847SOL    HW229175   3.957   1.713   3.040  0.5583 -0.3282  1.4991
 5848SOL     OW29176   4.274   3.783   9.306 -0.5137  0.6863 -0.4326
 5848SOL    HW129177   4.295   3.708   9.363  1.3304  1.7233  0.2433
 5848SOL    HW229178   4.190   3.811   9.342 -0.6012  0.8602 -0.7723
 5849SOL     OW29179   0.623   1.518   2.287  0.3611  0.4364 -0.2163
 5849SOL    HW129180   0.601   1.425   2.279 -1.3460  0.8961 -0.9317
 5849SOL    HW229181   0.647   1.549   2.200 -3.1229  0.7824 -1.0554
 5850SOL     OW29182   3.864   1.689   0.325 -0.1135  0.1380  0.1100
 5850SOL    HW129183   3.798   1.639   0.275  0.7206 -0.8761  0.0341
 5850SOL    HW229184   3.847   1.780   0.299  1.9284 -0.0027 -1.6880
 5851SOL     OW29185   1.275   0.764   8.260 -0.2345 -0.3981  0.0098
 5851SOL    HW129186   1.199   0.705   8.253 -1.9359  1.8502 -0.5953
 5851SOL    HW229187   1.268   0.796   8.170  0.9895  1.1091  0.4671
 5852SOL     OW29188   1.932   2.274   7.421 -0.2841  0.7651  0.1891
 5852SOL    HW129189   1.888   2.214   7.480 -1.2844 -0.0627 -1.4092
 5852SOL    HW229190   1.861   2.332   7.394  0.1753  0.9492 -0.6188
 5853SOL     OW29191   3.452   0.652   0.924  0.2294  0.2240 -0.1149
 5853SOL    HW129192   3.536   0.624   0.886  0.7004  0.5280  0.7096
 5853SOL    HW229193   3.478   0.718   0.988 -0.3538  1.3368 -1.0121
 5854SOL     OW29194   2.076   2.140   5.308  0.2085  0.3476 -0.0688
 5854SOL    HW129195   2.060   2.214   5.250  0.4258 -1.2997 -2.2012
 5854SOL    HW229196   2.167   2.161   5.328 -0.2867 -0.1309  2.8049
 5855SOL     OW29197   0.333   2.756   1.013  0.4862 -0.7355  0.1358
 5855SOL    HW129198   0.310   2.731   0.924 -1.6811 -1.0611  0.7813
 5855SOL    HW229199   0.312   2.849   1.008  0.6154 -0.7928 -1.2713
 5856SOL     OW29200   3.412   1.264   0.167  0.2925  0.4245  0.0730
 5856SOL    HW129201   3.423   1.356   0.145 -0.3939  0.2262 -1.0839
 5856SOL    HW229202   3.358   1.263   0.246 -0.8011 -2.1635 -0.6899
 5857SOL     OW29203   4.307   2.122   2.847  0.5124  0.2106  0.1269
 5857SOL    HW129204   4.357   2.202   2.836 -1.1633  1.5614  2.2423
 5857SOL    HW229205   4.227   2.145   2.800  0.8909  1.2152 -0.0118
 5858SOL     OW29206   3.880   0.091   8.289  0.4284 -0.3106 -0.2271
 5858SOL    HW129207   3.790   0.111   8.264 -0.2391 -2.7742  0.2122
 5858SOL    HW229208   3.924   0.091   8.204  1.5542 -2.2104  0.3350
 5859SOL     OW29209   3.678   4.555  15.092  0.5752 -0.2327  0.5009
 5859SOL    HW129210   3.698   4.470  15.052 -1.8220 -0.2507 -0.6521
 5859SOL    HW229211   3.596   4.543  15.141 -0.2110  1.0395 -0.4940
 5860SOL     OW29212   4.531   0.243  10.009  0.9557  0.4450 -0.4741
 5860SOL    HW129213   4.493   0.157  10.027  1.8303 -0.0291 -0.8708
 5860SOL    HW229214   4.469   0.296  10.059 -0.7399  0.5003 -2.6351
 5861SOL     OW29215   0.331   4.422   6.594  0.8534  0.3257  0.7904
 5861SOL    HW129216   0.349   4.495   6.535  2.8053 -1.4640 -0.8385
 5861SOL    HW229217   0.398   4.357   6.572  0.4853  0.4463 -0.6895
 5862SOL     OW29218   0.697   1.178   6.120  0.6222 -0.2953 -0.1494
 5862SOL    HW129219   0.703   1.102   6.062 -0.1506  1.1955 -2.2019
 5862SOL    HW229220   0.679   1.143   6.207 -1.1461  0.6735 -0.1223
 5863SOL     OW29221   1.804   3.491   7.407 -0.0973 -0.1629  0.3309
 5863SOL    HW129222   1.842   3.577   7.392 -1.1359  0.2699  0.1395
 5863SOL    HW229223   1.710   3.507   7.396  0.6275  2.2145 -2.2814
 5864SOL     OW29224   0.040   2.792   5.418 -0.0312  0.2634 -0.1379
 5864SOL    HW129225   0.110   2.778   5.354  0.1827 -0.0716  0.1736
 5864SOL    HW229226   0.083   2.857   5.474  1.6449 -0.3238 -0.7326
 5865SOL     OW29227   2.958   1.200   6.440 -0.2406 -0.8448 -0.1026
 5865SOL    HW129228   2.888   1.214   6.376  0.0574 -2.0670 -0.7055
 5865SOL    HW229229   2.982   1.118   6.397  1.9667  0.4499 -1.4048
 5866SOL     OW29230   0.060   2.021   6.300 -0.4271  0.4056 -0.5191
 5866SOL    HW129231   0.039   1.928   6.286  3.1348 -0.7186  1.5580
 5866SOL    HW229232   0.006   2.060   6.231 -1.0750 -1.0995 -0.8664
 5867SOL     OW29233   3.535   3.088   5.692 -0.4940 -0.4119 -0.2765
 5867SOL    HW129234   3.573   3.135   5.618 -2.6040 -0.5133 -1.4157
 5867SOL    HW229235   3.610   3.080   5.752  0.6204 -1.7346 -1.8448
 5868SOL     OW29236   1.521   2.078  14.809 -0.4533  0.7389 -0.0572
 5868SOL    HW129237   1.558   2.090  14.896  0.6142  2.3016 -0.7111
 5868SOL    HW229238   1.505   1.984  14.807  2.0269  0.2831  1.5097
 5869SOL     OW29239   3.075   0.816   2.107 -0.7029  0.3954 -0.6409
 5869SOL    HW129240   3.097   0.858   2.024  1.2762  0.3336 -0.1544
 5869SOL    HW229241   3.073   0.888   2.171  1.1795  0.7701 -1.0098
 5870SOL     OW29242   2.270   4.259   3.997  0.0010  0.1895 -0.6922
 5870SOL    HW129243   2.196   4.204   4.023 -0.6409  0.7634 -1.3080
 5870SOL    HW229244   2.281   4.239   3.905  0.2418  0.1990 -0.6634
 5871SOL     OW29245   3.465   4.331   4.985 -0.3957 -0.4496 -0.0443
 5871SOL    HW129246   3.498   4.322   4.896 -0.4236  0.9451 -0.1954
 5871SOL    HW229247   3.545   4.326   5.037  0.7430  2.5938 -1.4841
 5872SOL     OW29248   0.002   2.625   8.152  0.1221 -0.4546 -0.6847
 5872SOL    HW129249   0.096   2.626   8.138  0.2028  1.0153 -0.0119
 5872SOL    HW229250   4.728   2.530   8.146 -0.6178 -0.3357 -1.4040
 5873SOL     OW29251   0.375   0.344   3.142 -0.1733  0.7717 -0.5884
 5873SOL    HW129252   0.297   0.345   3.198 -0.3402  0.0633 -0.8097
 5873SOL    HW229253   0.344   0.312   3.058 -0.4527  0.9957 -0.5710
 5874SOL     OW29254   0.324   2.582   5.491 -0.3358 -0.0294 -0.3304
 5874SOL    HW129255   0.393   2.576   5.557 -1.1005  3.2652  0.7654
 5874SOL    HW229256   0.281   2.497   5.497  1.5176 -1.1616 -2.9276
 5875SOL     OW29257   3.644   4.654   8.954  0.1269  0.3799  0.2928
 5875SOL    HW129258   3.562   4.702   8.964 -1.3663 -2.4711  1.8144
 5875SOL    HW229259   3.638   4.621   8.864 -0.7631  1.5128 -0.0675
 5876SOL     OW29260   3.899   4.692   8.759  0.0660 -0.3636  0.1850
 5876SOL    HW129261   3.816   4.646   8.747  0.0246  0.0710 -1.1727
 5876SOL    HW229262   3.946   4.653   8.686 -0.1098  0.8172 -0.5673
 5877SOL     OW29263   1.709   2.431   5.890  0.5703 -0.1178  0.1508
 5877SOL    HW129264   1.727   2.525   5.901 -0.8320  0.5296 -3.0515
 5877SOL    HW229265   1.695   2.418   5.796 -0.6700  2.0732  0.0320
 5878SOL     OW29266   1.969   1.804   9.207 -0.0057  0.0080 -0.1006
 5878SOL    HW129267   1.895   1.754   9.171  0.6503 -0.4816 -0.7559
 5878SOL    HW229268   2.049   1.786   9.158  0.4369  2.9385 -0.4649
 5879SOL     OW29269   4.002   0.472   7.263  0.2864  0.0039  0.5780
 5879SOL    HW129270   4.007   0.567   7.257 -0.9931 -0.0127 -1.1442
 5879SOL    HW229271   3.944   0.462   7.338 -2.4472 -1.5119 -1.7363
 5880SOL     OW29272   2.277   0.931  10.135 -0.8282  0.4046  0.1198
 5880SOL    HW129273   2.325   0.969  10.208  1.9111 -2.1584 -0.3301
 5880SOL    HW229274   2.223   1.008  10.121  2.8723  2.7681 -1.2606
 5881SOL     OW29275   3.801   1.606   2.284 -0.1615  0.4200 -0.3723
 5881SOL    HW129276   3.738   1.574   2.349 -0.1758  1.2432  0.0196
 5881SOL    HW229277   3.776   1.544   2.216 -1.9094 -0.9822  1.5459
 5882SOL     OW29278   1.536   4.259   5.887 -0.0930  0.0767 -0.8438
 5882SOL    HW129279   1.600   4.301   5.944 -0.4050  2.5385 -2.2754
 5882SOL    HW229280   1.505   4.194   5.950  1.1245 -0.7407 -1.0866
 5883SOL     OW29281   3.336   2.010   4.104 -0.4118 -0.6655  0.5296
 5883SOL    HW129282   3.360   2.078   4.166 -0.5691 -1.9349  1.9934
 5883SOL    HW229283   3.379   1.934   4.144  0.0091 -0.3773  0.6160
 5884SOL     OW29284   4.211   0.966  14.196 -0.1220 -0.0555 -0.6096
 5884SOL    HW129285   4.128   0.961  14.149 -0.5305  1.7690 -0.0960
 5884SOL    HW229286   4.266   0.890  14.177 -2.1873 -2.2697  2.3900
 5885SOL     OW29287   2.090   0.822  15.269  0.2168  0.0940 -0.5455
 5885SOL    HW129288   2.169   0.859  15.231 -0.4786  2.6370  0.4616
 5885SOL    HW229289   2.087   0.874  15.349 -1.3565  0.6960 -0.9753
 5886SOL     OW29290   3.225   0.247   5.774 -0.4796  0.0082 -0.1706
 5886SOL    HW129291   3.279   0.196   5.713 -0.1212  0.9988 -0.6805
 5886SOL    HW229292   3.140   0.249   5.731  0.4319  1.9854 -1.8811
 5887SOL     OW29293   3.897   3.111   9.565  0.2702 -0.0520  0.5763
 5887SOL    HW129294   3.826   3.078   9.620 -2.0029 -0.8496 -2.8404
 5887SOL    HW229295   3.888   3.206   9.571 -1.8929 -0.1688 -0.9465
 5888SOL     OW29296   1.929   4.158   7.870  0.4221  0.2180  0.0156
 5888SOL    HW129297   1.850   4.173   7.819  0.1465 -2.2776 -0.2827
 5888SOL    HW229298   1.917   4.212   7.947 -1.1119  0.1426 -0.1781
 5889SOL     OW29299   2.770   3.857   8.686  0.0194 -0.8242 -0.2068
 5889SOL    HW129300   2.821   3.871   8.765 -0.9480  1.0241  0.1086
 5889SOL    HW229301   2.691   3.899   8.721 -0.5774 -0.8725 -1.4716
 5890SOL     OW29302   4.410   4.317   6.999  0.2148 -0.4237 -0.1785
 5890SOL    HW129303   4.367   4.300   7.083  0.5023  0.9955  0.2628
 5890SOL    HW229304   4.354   4.281   6.931 -0.6753 -0.2948  0.4949
 5891SOL     OW29305   4.344   4.094   8.190 -0.0217 -0.8381 -0.7034
 5891SOL    HW129306   4.337   4.060   8.279  0.0384 -2.5449 -1.3426
 5891SOL    HW229307   4.406   4.164   8.211 -1.6882  0.6251 -0.6559
 5892SOL     OW29308   1.391   1.024   3.851  0.1717  0.0860 -0.4890
 5892SOL    HW129309   1.475   1.000   3.890 -0.9827 -1.8887  0.7811
 5892SOL    HW229310   1.371   1.112   3.881  0.5300 -0.4001  1.1585
 5893SOL     OW29311   2.283   4.285   3.399  0.4227  0.0645 -0.4012
 5893SOL    HW129312   2.214   4.317   3.457  0.2217  1.4956 -1.4234
 5893SOL    HW229313   2.239   4.282   3.314 -0.6045  1.5952  0.0710
 5894SOL     OW29314   4.168   2.445  13.532  0.2825  0.8428  0.0949
 5894SOL    HW129315   4.146   2.507  13.463  1.0107  2.0003  0.9115
 5894SOL    HW229316   4.187   2.365  13.483 -0.2965  1.2084 -0.7454
 5895SOL     OW29317   0.972   4.341   3.588 -0.0537 -0.0669  0.0988
 5895SOL    HW129318   0.952   4.431   3.613  1.6270  0.2747  0.2060
 5895SOL    HW229319   1.064   4.347   3.562  0.2517 -0.4538  1.1005
 5896SOL     OW29320   2.590   3.172   8.490 -0.1394  0.5043 -0.2744
 5896SOL    HW129321   2.574   3.263   8.464 -3.0309 -0.1509 -0.7223
 5896SOL    HW229322   2.677   3.144   8.462 -0.4648 -0.8003  0.0368
 5897SOL     OW29323   2.510   3.122   2.341 -0.3126  0.2262 -0.3160
 5897SOL    HW129324   2.506   3.098   2.434  1.1555 -2.3916 -0.9105
 5897SOL    HW229325   2.606   3.128   2.346 -0.2926 -1.0303  0.8772
 5898SOL     OW29326   0.139   2.822   3.003  0.2139 -0.0090 -0.4628
 5898SOL    HW129327   0.183   2.808   3.086 -1.9277  2.2392  1.0296
 5898SOL    HW229328   0.056   2.866   3.021  1.2398  1.7675 -0.1207
 5899SOL     OW29329   2.471   4.290   2.179  0.0215 -0.1741  0.2567
 5899SOL    HW129330   2.523   4.356   2.135 -0.8809  0.3170 -0.0771
 5899SOL    HW229331   2.389   4.335   2.200  0.7540  1.1415  0.2899
 5900SOL     OW29332   1.208   1.323   7.672  0.2730 -0.3706 -0.0591
 5900SOL    HW129333   1.205   1.304   7.578 -0.5985  0.1376 -0.1282
 5900SOL    HW229334   1.130   1.276   7.698  0.1027 -0.5344 -0.8638
 5901SOL     OW29335   0.940   2.397   2.688  0.7416  0.0889 -0.6078
 5901SOL    HW129336   0.861   2.381   2.636  0.0127 -1.7148  1.0556
 5901SOL    HW229337   0.930   2.490   2.710 -0.7239 -0.4374  0.8583
 5902SOL     OW29338   2.584   4.452  12.435 -0.2448  0.2243  0.0246
 5902SOL    HW129339   2.512   4.508  12.406 -0.0668 -1.1647 -3.1328
 5902SOL    HW229340   2.542   4.405  12.507 -0.5832  1.8603  0.8966
 5903SOL     OW29341   4.216   1.014  13.104  0.1656  0.0455  0.0132
 5903SOL    HW129342   4.185   1.004  13.015 -1.0706 -0.1029  0.4647
 5903SOL    HW229343   4.142   0.966  13.140  0.0909  0.5225  0.5103
 5904SOL     OW29344   1.025   3.926  13.812  0.0515  0.3652  0.3551
 5904SOL    HW129345   1.094   3.871  13.849 -0.1920 -1.1407 -1.4361
 5904SOL    HW229346   0.944   3.877  13.823  0.9595 -1.7972 -2.6381
 5905SOL     OW29347   3.830   2.990  13.841  0.2968 -0.2692 -0.5261
 5905SOL    HW129348   3.843   2.980  13.747  2.6427  0.2629 -0.2649
 5905SOL    HW229349   3.781   2.910  13.861  0.2590 -0.1506 -0.1367
 5906SOL     OW29350   2.424   1.908  11.685  0.2358 -0.2017  0.0610
 5906SOL    HW129351   2.343   1.932  11.729 -1.4902 -0.0807 -3.2389
 5906SOL    HW229352   2.426   1.960  11.605 -1.0422  0.9515  0.7817
 5907SOL     OW29353   0.221   2.398   7.354  0.0600 -0.0574  0.9897
 5907SOL    HW129354   0.143   2.377   7.405  0.4443 -0.2523  1.4998
 5907SOL    HW229355   0.278   2.405   7.430  1.7306  2.7200 -0.5302
 5908SOL     OW29356   1.636   3.904  13.506  0.1394 -0.6616  0.5013
 5908SOL    HW129357   1.695   3.834  13.481 -1.4327 -1.0430 -2.1226
 5908SOL    HW229358   1.697   3.972  13.481 -1.2804  1.0060  1.5601
 5909SOL     OW29359   1.432   0.512   4.549 -0.4943 -0.1518  0.5461
 5909SOL    HW129360   1.359   0.538   4.493 -0.3832 -3.9346 -1.3754
 5909SOL    HW229361   1.444   0.599   4.586  0.4820 -0.5250  1.1120
 5910SOL     OW29362   1.915   1.975   0.316  0.5271 -0.0746  0.3293
 5910SOL    HW129363   1.820   1.973   0.324  0.8299 -1.0240  3.6666
 5910SOL    HW229364   1.928   1.949   0.225  1.0903  0.0774  0.3629
 5911SOL     OW29365   0.466   3.733  11.384 -0.4095  0.1445  0.2165
 5911SOL    HW129366   0.490   3.648  11.349 -2.0519 -0.8122  1.4402
 5911SOL    HW229367   0.545   3.751  11.434  0.8110  2.8392 -2.6543
 5912SOL     OW29368   0.038   3.815   6.615 -0.1435 -0.0289  0.0784
 5912SOL    HW129369   0.051   3.883   6.681  0.3027 -1.7018  1.6846
 5912SOL    HW229370   0.107   3.753   6.638  0.8621  1.1704  0.2818
 5913SOL     OW29371   4.602   1.379  16.178 -0.1651 -0.2602  0.0648
 5913SOL    HW129372   4.534   1.332  16.131  1.5074 -0.9816 -1.6661
 5913SOL    HW229373   4.541   1.439  16.221 -1.4841 -1.6568  0.1416
 5914SOL     OW29374   0.672   2.682   9.690  0.1132 -0.0076  0.1087
 5914SOL    HW129375   0.593   2.736   9.693  1.0009  1.3575 -1.2384
 5914SOL    HW229376   0.642   2.625   9.760  1.2565 -2.7648 -1.6541
 5915SOL     OW29377   1.427   3.487   7.390 -0.1803  0.1949 -0.7168
 5915SOL    HW129378   1.486   3.454   7.322 -1.1863 -0.5119 -1.2386
 5915SOL    HW229379   1.344   3.450   7.361 -0.8615 -0.5212  2.1915
 5916SOL     OW29380   4.127   1.762  13.965  0.1732 -0.4513  0.0175
 5916SOL    HW129381   4.216   1.728  13.969 -0.5768 -2.4926 -0.7581
 5916SOL    HW229382   4.073   1.717  14.030  2.4072 -1.5491  1.1076
 5917SOL     OW29383   2.189   3.284   2.433 -0.2938 -0.2153  0.1197
 5917SOL    HW129384   2.172   3.259   2.343  0.3645  3.2334 -0.9391
 5917SOL    HW229385   2.154   3.207   2.478  1.2495 -0.6454  0.5707
 5918SOL     OW29386   4.408   0.892   3.224 -0.7871 -0.5001  0.3337
 5918SOL    HW129387   4.361   0.932   3.150 -2.3079 -0.4547  1.3274
 5918SOL    HW229388   4.471   0.829   3.190 -0.4756 -0.6142  1.1404
 5919SOL     OW29389   4.040   3.267   2.208  0.1099 -0.2248 -0.2405
 5919SOL    HW129390   4.078   3.222   2.133 -1.8981  0.8784 -1.9400
 5919SOL    HW229391   3.951   3.232   2.219 -0.1044  0.4419  0.1979
 5920SOL     OW29392   2.690   4.299   2.793  0.1681  0.3376  0.0153
 5920SOL    HW129393   2.759   4.365   2.803  0.9894 -0.2316 -1.8194
 5920SOL    HW229394   2.736   4.219   2.820 -0.8621 -0.5264 -0.7631
 5921SOL     OW29395   3.662   4.676   7.192  0.0169 -0.0159  0.6574
 5921SOL    HW129396   3.747   4.640   7.216  0.3927  1.2562  1.1914
 5921SOL    HW229397   3.603   4.608   7.225  2.6477 -2.0916  1.1237
 5922SOL     OW29398   0.556   2.936   6.824  0.7406 -0.2735  0.2986
 5922SOL    HW129399   0.543   2.984   6.742  2.3253  2.0328  1.3919
 5922SOL    HW229400   0.472   2.924   6.868  0.8112 -0.7688  0.2973
 5923SOL     OW29401   0.834   3.494  12.364 -0.1304  0.0641  0.0345
 5923SOL    HW129402   0.843   3.588  12.350  0.3727 -0.3514 -2.4041
 5923SOL    HW229403   0.800   3.499  12.454  1.5749  2.5234  0.5390
 5924SOL     OW29404   0.399   4.687   1.413  0.1031 -0.2230 -0.3175
 5924SOL    HW129405   0.334   4.711   1.347  1.1426  0.6461 -1.0204
 5924SOL    HW229406   0.476   0.004   1.391 -0.2219 -0.4420 -1.9151
 5925SOL     OW29407   1.079   0.596   6.952 -0.5083  0.0126  0.4880
 5925SOL    HW129408   1.067   0.531   7.022 -1.6739 -2.1457 -1.7164
 5925SOL    HW229409   0.994   0.599   6.909  0.0924 -2.1781 -0.8642
 5926SOL     OW29410   4.228   3.849  14.558  0.0475 -0.5984  0.1757
 5926SOL    HW129411   4.310   3.884  14.592  0.0552 -0.1732 -0.2808
 5926SOL    HW229412   4.271   3.776  14.513 -0.0066  0.8493 -2.2392
 5927SOL     OW29413   2.585   3.439   1.928 -0.3335  0.2859 -0.9329
 5927SOL    HW129414   2.517   3.500   1.898 -0.1012 -0.4583 -2.9406
 5927SOL    HW229415   2.541   3.371   1.980 -0.5510 -0.1122 -1.6413
 5928SOL     OW29416   0.976   3.059  13.222  0.3386 -0.1785 -0.3793
 5928SOL    HW129417   0.980   3.131  13.286  0.6611 -0.3551 -0.2020
 5928SOL    HW229418   1.068   3.063  13.197  1.1698 -0.0664  2.6308
 5929SOL     OW29419   4.570   2.375   5.686  0.1504 -0.1400 -0.0878
 5929SOL    HW129420   4.506   2.431   5.642 -0.1627  0.6617  1.4074
 5929SOL    HW229421   4.646   2.409   5.638  0.4364  0.3659  0.7273
 5930SOL     OW29422   2.777   0.354   4.609 -0.0778 -0.4938  0.5620
 5930SOL    HW129423   2.832   0.417   4.655 -1.2425  1.1620 -0.3141
 5930SOL    HW229424   2.687   0.373   4.635 -0.3469 -1.6454  0.4560
 5931SOL     OW29425   0.042   4.132  14.229 -0.4877 -0.4699 -0.7356
 5931SOL    HW129426   0.123   4.092  14.198  0.5318  1.9350 -1.1698
 5931SOL    HW229427   4.716   4.129  14.156  0.1238  0.5695 -1.2900
 5932SOL     OW29428   1.057   0.368   8.569 -0.2926 -0.0936 -0.0339
 5932SOL    HW129429   1.083   0.380   8.661  0.7690  0.5383 -0.4218
 5932SOL    HW229430   1.139   0.383   8.523  0.6766 -2.5560  0.8868
 5933SOL     OW29431   4.503   4.623   5.011  0.6657 -0.1425  0.8164
 5933SOL    HW129432   4.565   4.642   5.081 -1.1413 -2.2280  2.9691
 5933SOL    HW229433   4.511   4.704   4.961 -2.2341 -0.2987  0.0816
 5934SOL     OW29434   1.281   3.364   6.955 -0.1482 -0.3054  0.4881
 5934SOL    HW129435   1.303   3.311   6.878 -0.9167 -0.4350  0.3630
 5934SOL    HW229436   1.279   3.454   6.922 -2.8269  0.2649  2.2033
 5935SOL     OW29437   2.913   3.570  12.902  0.0915 -0.1488 -0.0365
 5935SOL    HW129438   2.947   3.603  12.985 -0.3142  1.4022 -0.4989
 5935SOL    HW229439   2.828   3.614  12.901  0.2147  0.1264  2.0154
 5936SOL     OW29440   2.832   3.551  12.381 -0.3857  0.1679 -0.1123
 5936SOL    HW129441   2.748   3.507  12.364  1.2646 -2.3172 -1.7752
 5936SOL    HW229442   2.874   3.470  12.410 -0.3189 -0.1718 -1.1420
 5937SOL     OW29443   1.974   2.947   4.275 -0.4970 -0.1235 -0.2604
 5937SOL    HW129444   2.036   2.974   4.341 -2.2643  3.0860  0.1031
 5937SOL    HW229445   2.028   2.882   4.230 -1.0476  0.9536 -2.5150
 5938SOL     OW29446   0.686   2.124  12.257 -0.1204 -0.2981  0.2736
 5938SOL    HW129447   0.620   2.192  12.249 -0.4275 -0.3931  2.0088
 5938SOL    HW229448   0.624   2.060  12.291  0.4098 -1.7189 -1.4047
 5939SOL     OW29449   0.765   1.056  16.641 -0.3227  0.0507 -0.2166
 5939SOL    HW129450   0.857   1.034  16.626 -0.5134 -0.1766 -1.0270
 5939SOL    HW229451   0.727   1.054  16.553 -1.0950 -2.6319  0.1874
 5940SOL     OW29452   1.692   1.513   7.112  0.0497  0.0708 -0.3917
 5940SOL    HW129453   1.666   1.470   7.193  2.6726  0.3411  0.5871
 5940SOL    HW229454   1.760   1.569   7.151  0.4727 -1.6075  1.2752
 5941SOL     OW29455   2.928   0.309  17.322  0.4870  0.3193  0.3641
 5941SOL    HW129456   2.863   0.242  17.340  1.1190 -0.6073 -0.7452
 5941SOL    HW229457   3.006   0.254  17.314  1.5585  1.9191 -0.4593
 5942SOL     OW29458   3.771   0.880  13.786  0.0594  0.1958 -0.0127
 5942SOL    HW129459   3.826   0.901  13.710  1.0175  0.6192  0.7911
 5942SOL    HW229460   3.738   0.798  13.750  0.9332 -0.0777 -0.1903
 5943SOL     OW29461   3.680   1.570   2.536  0.1459 -0.0824  0.6163
 5943SOL    HW129462   3.724   1.491   2.568  0.3455  0.2524  1.1704
 5943SOL    HW229463   3.595   1.571   2.581  0.5276  0.9761  1.3003
 5944SOL     OW29464   3.890   3.561   4.089  0.3300 -0.6749  0.5268
 5944SOL    HW129465   3.814   3.615   4.111 -0.1562 -0.3888 -1.8959
 5944SOL    HW229466   3.958   3.612   4.134 -0.5199  1.5708 -0.7442
 5945SOL     OW29467   2.816   2.687  15.709 -0.7646  0.0623  0.0248
 5945SOL    HW129468   2.906   2.682  15.743 -0.3138  1.8535 -0.9176
 5945SOL    HW229469   2.773   2.751  15.767  2.7702  1.7913  0.7653
 5946SOL     OW29470   3.005   2.171  12.774 -0.6429  0.0535 -0.4343
 5946SOL    HW129471   2.931   2.141  12.826 -1.0675  1.8489 -0.0182
 5946SOL    HW229472   3.068   2.099  12.783 -1.4020 -0.6149 -0.5676
 5947SOL     OW29473   3.900   2.184  15.354 -0.2199 -0.0337 -0.4888
 5947SOL    HW129474   3.912   2.103  15.305  0.4476  0.4024 -1.0548
 5947SOL    HW229475   3.990   2.215  15.351 -0.2125 -0.1128 -1.1376
 5948SOL     OW29476   3.267   0.739   1.606  0.2193  0.3505 -0.0325
 5948SOL    HW129477   3.350   0.781   1.630 -0.0570 -0.7307  2.7996
 5948SOL    HW229478   3.232   0.729   1.695 -0.0388  0.5800 -0.1067
 5949SOL     OW29479   0.413   0.814  16.353 -0.0865 -0.1706 -0.3007
 5949SOL    HW129480   0.457   0.754  16.293 -0.4109  1.9650 -2.6681
 5949SOL    HW229481   0.367   0.872  16.292 -0.9730  0.1586  0.6869
 5950SOL     OW29482   1.451   4.562   8.472 -0.4126 -0.0253  0.7473
 5950SOL    HW129483   1.387   4.619   8.430  0.3736  0.3716  0.0971
 5950SOL    HW229484   1.522   4.557   8.408 -1.2987 -1.2485 -0.1285
 5951SOL     OW29485   4.572   3.005   6.764  0.0052  0.5441  0.0870
 5951SOL    HW129486   4.516   2.956   6.824  0.3865  0.2187  0.1763
 5951SOL    HW229487   4.522   3.086   6.770 -1.4619 -0.3382 -0.0880
 5952SOL     OW29488   2.578   2.088   1.239 -0.1832 -0.1038 -0.4531
 5952SOL    HW129489   2.491   2.105   1.277 -0.9782 -1.4968 -1.6280
 5952SOL    HW229490   2.613   2.176   1.247 -1.3103  0.4288 -1.2190
 5953SOL     OW29491   4.240   0.896   4.105  0.1604  0.1335  0.4930
 5953SOL    HW129492   4.222   0.817   4.055 -1.8091 -0.6022  2.3367
 5953SOL    HW229493   4.197   0.858   4.182  1.9263 -3.5553 -0.3517
 5954SOL     OW29494   1.739   2.300   7.796 -0.0956  0.2006  0.0239
 5954SOL    HW129495   1.702   2.225   7.749  0.7688 -1.6750  2.3782
 5954SOL    HW229496   1.778   2.264   7.876 -0.9829 -0.1723  0.2853
 5955SOL     OW29497   1.589   3.737   3.330 -0.0468 -0.5171 -0.0993
 5955SOL    HW129498   1.509   3.733   3.382  1.2646 -1.4371  1.8675
 5955SOL    HW229499   1.557   3.762   3.243  1.2965  1.1552 -0.1162
 5956SOL     OW29500   3.237   0.452   3.802  0.0950 -0.1504  0.1407
 5956SOL    HW129501   3.317   0.412   3.835  0.2694  0.9266  1.0382
 5956SOL    HW229502   3.175   0.409   3.861 -0.8483  2.6382  1.1797
 5957SOL     OW29503   0.099   2.622  13.521 -0.2354  0.6878  0.1298
 5957SOL    HW129504   0.109   2.712  13.488  2.3402 -0.1204 -1.2556
 5957SOL    HW229505   0.187   2.589  13.538 -1.0500 -0.4631  2.1321
 5958SOL     OW29506   2.049   2.364  13.874 -0.1489  0.1393  0.5997
 5958SOL    HW129507   2.142   2.381  13.859 -0.3142  0.9031  0.3988
 5958SOL    HW229508   2.053   2.278  13.915 -0.4563 -0.4672 -0.6215
 5959SOL     OW29509   0.601   0.623  12.888  0.7381 -0.1515  0.0560
 5959SOL    HW129510   0.511   0.615  12.858  0.3062 -0.6755  1.4741
 5959SOL    HW229511   0.637   0.679  12.819  0.7155  1.6288  1.4796
 5960SOL     OW29512   3.066   1.855   4.227 -0.3970  0.1838  0.3771
 5960SOL    HW129513   3.144   1.902   4.196 -0.9720 -0.2742 -1.7853
 5960SOL    HW229514   3.018   1.930   4.263 -0.4815  0.1212  0.3921
 5961SOL     OW29515   4.615   2.933   4.360  0.2344 -0.3917  0.0153
 5961SOL    HW129516   4.601   2.999   4.292  0.3815 -0.8870 -0.5025
 5961SOL    HW229517   4.562   2.865   4.318  0.0147 -2.8019  4.2060
 5962SOL     OW29518   2.947   3.575   3.871  0.2712 -0.3223 -0.0816
 5962SOL    HW129519   3.005   3.601   3.800 -2.4141 -2.0091 -2.8604
 5962SOL    HW229520   2.997   3.626   3.936  0.7423  0.0469 -0.7367
 5963SOL     OW29521   4.345   2.484   3.086 -0.0718  0.0026  0.0765
 5963SOL    HW129522   4.389   2.533   3.017 -0.4642  1.2168  0.6810
 5963SOL    HW229523   4.269   2.541   3.090 -1.2776 -1.5804 -0.6612
 5964SOL     OW29524   1.096   3.585   6.618 -0.0726 -0.0449 -0.7009
 5964SOL    HW129525   1.131   3.519   6.559 -1.0397  0.9234 -2.3925
 5964SOL    HW229526   1.041   3.529   6.672  0.4231 -0.4016 -0.5708
 5965SOL     OW29527   4.105   1.745   6.590  0.0486  0.1782 -0.6013
 5965SOL    HW129528   4.185   1.750   6.536 -0.0708  0.2154 -0.7757
 5965SOL    HW229529   4.057   1.676   6.544 -1.1079 -0.1397  1.0886
 5966SOL     OW29530   1.190   2.215   7.738 -0.6767 -0.3535 -0.9259
 5966SOL    HW129531   1.183   2.140   7.679 -3.3354  0.6285 -1.8887
 5966SOL    HW229532   1.193   2.293   7.683 -1.3909  0.0824 -0.3506
 5967SOL     OW29533   3.035   3.413  16.533  0.3189  0.5148 -0.3624
 5967SOL    HW129534   3.067   3.390  16.446  0.1773  1.2238 -0.5984
 5967SOL    HW229535   2.940   3.403  16.519  0.6202  0.8078 -2.4871
 5968SOL     OW29536   0.647   2.725   4.822  0.2557  0.3356 -0.0449
 5968SOL    HW129537   0.626   2.817   4.836  0.5487  0.5935 -1.2806
 5968SOL    HW229538   0.566   2.690   4.785  0.2745 -0.3880  0.6162
 5969SOL     OW29539   2.789   0.346   6.863  0.0765  0.0606  0.4208
 5969SOL    HW129540   2.808   0.410   6.795  0.9979 -1.5752 -0.8512
 5969SOL    HW229541   2.696   0.360   6.880  0.4692  0.1753  2.4674
 5970SOL     OW29542   1.773   4.530   6.896 -0.4328  0.4528  0.1033
 5970SOL    HW129543   1.727   4.446   6.907 -0.9501  0.3563 -2.9968
 5970SOL    HW229544   1.720   4.561   6.822 -1.7064 -0.2112  0.7224
 5971SOL     OW29545   2.321   2.635   1.266  0.2497  0.7566 -0.2881
 5971SOL    HW129546   2.293   2.545   1.251 -1.2784  1.0376  0.8550
 5971SOL    HW229547   2.409   2.608   1.292  0.1130 -1.0600 -1.7098
 5972SOL     OW29548   1.613   3.304  10.050 -0.0298 -0.4525 -0.2955
 5972SOL    HW129549   1.631   3.220  10.007  2.8165  0.2071 -0.3807
 5972SOL    HW229550   1.603   3.368   9.981 -2.1640 -0.8508 -0.3548
 5973SOL     OW29551   2.669   0.817   6.989  0.8195 -0.1061 -0.0856
 5973SOL    HW129552   2.653   0.911   6.977 -3.2807 -0.8534 -0.3196
 5973SOL    HW229553   2.586   0.773   6.976 -0.4022  1.9913  0.5889
 5974SOL     OW29554   1.923   4.142   6.477  0.4081  0.2797  0.5119
 5974SOL    HW129555   1.976   4.221   6.475 -1.0868  1.2007 -1.8625
 5974SOL    HW229556   1.978   4.091   6.538 -0.4728  1.3239  2.1723
 5975SOL     OW29557   1.369   2.930   0.270  0.4203  0.3831 -0.0559
 5975SOL    HW129558   1.449   2.965   0.310  0.2660 -0.2239  0.7841
 5975SOL    HW229559   1.332   3.011   0.235  2.4097  0.7923 -1.2366
 5976SOL     OW29560   4.433   3.309   2.973  1.1256 -0.5319  0.4523
 5976SOL    HW129561   4.520   3.349   2.969  0.4801  0.8227  0.0122
 5976SOL    HW229562   4.446   3.231   2.919 -2.5192 -1.7937  1.3522
 5977SOL     OW29563   0.867   2.117  15.292 -0.9162  0.0854 -0.3046
 5977SOL    HW129564   0.787   2.067  15.276  0.3269 -2.2406  0.7445
 5977SOL    HW229565   0.828   2.196  15.329 -0.8585  0.2822 -0.6580
 5978SOL     OW29566   4.557   0.444   7.183  0.1987  0.1701 -0.1754
 5978SOL    HW129567   4.534   0.405   7.099 -0.6665 -0.3911  0.3304
 5978SOL    HW229568   4.652   0.432   7.185  0.1988 -0.1224 -2.0518
 5979SOL     OW29569   3.545   0.077   3.513 -0.0489  0.1849 -0.2475
 5979SOL    HW129570   3.481   0.017   3.475  0.3517 -1.1366  1.1712
 5979SOL    HW229571   3.585   0.029   3.585  0.3672  0.6910 -0.1417
 5980SOL     OW29572   1.206   3.784   8.710  0.1439  0.2257 -0.5153
 5980SOL    HW129573   1.265   3.708   8.718  0.6653  0.6663 -0.1373
 5980SOL    HW229574   1.200   3.802   8.804  2.2586 -1.3741 -0.0756
 5981SOL     OW29575   0.042   3.924  13.847 -0.5388 -0.0186 -0.4471
 5981SOL    HW129576   0.092   3.843  13.853 -1.6812 -0.8473 -2.1251
 5981SOL    HW229577   0.107   3.995  13.839 -0.9317  0.5122  1.0638
 5982SOL     OW29578   0.392   0.518  10.371  0.0793  0.0166  0.2730
 5982SOL    HW129579   0.388   0.475  10.286  1.5031 -1.4035  0.9175
 5982SOL    HW229580   0.461   0.473  10.420  0.5173  1.4149  0.9558
 5983SOL     OW29581   1.822   1.210   8.724  0.9322  0.2160 -0.0194
 5983SOL    HW129582   1.855   1.138   8.670 -0.7099 -0.5392 -0.0133
 5983SOL    HW229583   1.756   1.252   8.670 -0.6375 -2.7310 -0.4054
 5984SOL     OW29584   4.118   1.424   3.263  0.4358 -0.4591 -0.3183
 5984SOL    HW129585   4.189   1.392   3.207  0.7600  0.2857 -0.3361
 5984SOL    HW229586   4.058   1.360   3.225  0.1869 -0.5310  0.1963
 5985SOL     OW29587   2.793   3.593  16.619  0.6580  0.3232  0.1830
 5985SOL    HW129588   2.724   3.654  16.595  1.3510  0.4538 -1.5119
 5985SOL    HW229589   2.817   3.568  16.530 -2.7414  2.2631 -1.2856
 5986SOL     OW29590   0.542   3.070   7.373 -0.4624 -0.4950  0.1411
 5986SOL    HW129591   0.463   3.086   7.425 -0.9793  0.3648 -0.9178
 5986SOL    HW229592   0.522   3.121   7.295 -0.5247 -0.3242  0.2690
 5987SOL     OW29593   0.982   1.794   5.144  0.1369 -0.0627 -0.1157
 5987SOL    HW129594   1.065   1.783   5.098  0.8653 -1.2393  1.5106
 5987SOL    HW229595   0.980   1.731   5.215  2.1345  1.9471  1.7204
 5988SOL     OW29596   3.918   1.712  14.606 -0.3206 -0.0477  0.1268
 5988SOL    HW129597   3.866   1.635  14.583  1.0331 -0.7846 -0.4949
 5988SOL    HW229598   3.926   1.748  14.518 -2.3546  1.2714  0.4931
 5989SOL     OW29599   4.313   3.920   9.845  0.2149 -0.0847  0.3870
 5989SOL    HW129600   4.227   3.957   9.822  0.4370 -0.2354 -0.7075
 5989SOL    HW229601   4.335   3.871   9.766 -2.7474 -2.6585  1.1683
 5990SOL     OW29602   2.503   3.978   1.509  0.1024  0.2573 -0.0323
 5990SOL    HW129603   2.475   3.925   1.584  2.6795 -0.1075  0.6662
 5990SOL    HW229604   2.492   4.056   1.563  0.2253  1.0289 -1.1345
 5991SOL     OW29605   4.516   2.181  13.014  0.6274 -0.3772 -0.9930
 5991SOL    HW129606   4.564   2.228  12.945  0.9365  1.5945  0.5809
 5991SOL    HW229607   4.530   2.091  12.984  0.6033 -0.1269 -1.7666
 5992SOL     OW29608   2.882   4.558  15.019 -0.1114  0.1746  0.1815
 5992SOL    HW129609   2.883   4.473  14.975  1.0527 -0.2975  1.0853
 5992SOL    HW229610   2.788   4.568  15.027  0.0232 -0.6612  2.8175
 5993SOL     OW29611   2.654   3.070   7.387 -0.1934  0.5488  0.0546
 5993SOL    HW129612   2.610   3.010   7.447  0.0893 -1.3781 -1.6774
 5993SOL    HW229613   2.695   3.013   7.322 -3.1480 -2.9126  1.1800
 5994SOL     OW29614   3.536   0.782   3.823  0.3851  0.4897  0.1097
 5994SOL    HW129615   3.515   0.787   3.730  0.7430  1.0592  0.0631
 5994SOL    HW229616   3.521   0.867   3.864  0.6325  0.8052 -0.4706
 5995SOL     OW29617   0.973   1.730   2.323  0.2574 -0.0084  0.2918
 5995SOL    HW129618   1.008   1.653   2.369 -0.1436  0.4680  1.3904
 5995SOL    HW229619   0.897   1.736   2.382 -0.7263  0.7668 -1.0567
 5996SOL     OW29620   2.657   0.301  12.367 -0.2635  0.0669  0.1437
 5996SOL    HW129621   2.706   0.342  12.296 -0.0796 -0.3589  0.0257
 5996SOL    HW229622   2.678   0.358  12.441  1.4711  1.3529 -1.3388
 5997SOL     OW29623   0.308   1.169   4.369  0.7129 -0.7190 -0.4158
 5997SOL    HW129624   0.288   1.222   4.445  0.9528 -0.4057 -0.5722
 5997SOL    HW229625   0.330   1.081   4.401  0.8465 -0.9964 -1.2654
 5998SOL     OW29626   2.636   3.508   2.460 -0.0163  0.2546 -0.1244
 5998SOL    HW129627   2.665   3.514   2.369  1.0556  1.1386  0.2874
 5998SOL    HW229628   2.566   3.574   2.463  0.4343  0.7434 -0.3580
 5999SOL     OW29629   4.506   4.699  10.367  0.1918  0.3572 -0.2028
 5999SOL    HW129630   4.571   4.662  10.307  2.5902  1.3278  1.8312
 5999SOL    HW229631   4.543   4.663  10.447  2.0215  2.2454 -0.2097
 6000SOL     OW29632   2.766   4.454   7.269  0.9259 -0.2173  0.4030
 6000SOL    HW129633   2.816   4.531   7.296  0.7845 -0.2705  0.8201
 6000SOL    HW229634   2.692   4.502   7.232  0.9858  0.4513  1.1528
 6001SOL     OW29635   3.426   3.338   1.536 -0.3806 -0.0685 -0.0433
 6001SOL    HW129636   3.344   3.348   1.585  0.5944  0.7120  1.4438
 6001SOL    HW229637   3.480   3.412   1.565 -0.9980 -1.2147  4.1417
 6002SOL     OW29638   3.943   1.258   9.084  0.0907 -0.0305  0.1839
 6002SOL    HW129639   3.967   1.208   9.162 -4.0254  2.5345  3.0729
 6002SOL    HW229640   3.859   1.291   9.116 -0.0617  1.6443 -1.9413
 6003SOL     OW29641   4.454   1.414   8.039 -0.5024  0.3618 -0.4933
 6003SOL    HW129642   4.431   1.490   7.985  0.9138 -0.9818 -2.9801
 6003SOL    HW229643   4.365   1.381   8.051 -0.6780  0.3796 -1.7800
 6004SOL     OW29644   3.969   0.773  15.670  0.0170  0.4224 -0.0136
 6004SOL    HW129645   4.054   0.749  15.633  0.9662  1.4885  1.4792
 6004SOL    HW229646   3.942   0.685  15.695 -1.5263  0.6436 -0.9300
 6005SOL     OW29647   2.531   2.131   8.536 -0.7020  0.2425 -0.6529
 6005SOL    HW129648   2.531   2.138   8.632  1.3189 -1.8661 -0.5052
 6005SOL    HW229649   2.622   2.117   8.512 -0.8521 -3.6808  0.9803
 6006SOL     OW29650   0.520   3.977   1.219 -0.1412  0.3344 -0.3181
 6006SOL    HW129651   0.581   3.969   1.292 -0.7934 -1.9262 -0.0139
 6006SOL    HW229652   0.435   4.000   1.258  0.3112 -0.2926  1.0315
 6007SOL     OW29653   1.879   2.532   5.122  0.0852 -0.9910  0.1139
 6007SOL    HW129654   1.953   2.471   5.120 -0.7949 -2.0601  0.1871
 6007SOL    HW229655   1.916   2.608   5.077 -2.2306 -0.9831 -1.7795
 6008SOL     OW29656   2.365   1.327  11.455  0.1608 -0.2392 -0.3663
 6008SOL    HW129657   2.444   1.352  11.503 -0.0020 -0.5047  0.0407
 6008SOL    HW229658   2.320   1.282  11.527  0.5374 -1.4158 -0.8683
 6009SOL     OW29659   3.971   3.084   6.797  0.3872  0.2283 -0.0568
 6009SOL    HW129660   3.978   3.034   6.716  1.4798  0.8803 -0.3633
 6009SOL    HW229661   3.877   3.084   6.813  0.1428  0.2336 -1.5016
 6010SOL     OW29662   1.382   2.420   9.739  0.1569 -0.2042 -0.2979
 6010SOL    HW129663   1.458   2.471   9.712  0.8605 -1.4039 -0.5713
 6010SOL    HW229664   1.402   2.402   9.831 -0.8238  1.9134  0.3276
 6011SOL     OW29665   0.157   4.290   0.081 -0.2941  0.0045  0.4691
 6011SOL    HW129666   0.183   4.201   0.057 -2.0989  0.0075 -1.4533
 6011SOL    HW229667   0.237   4.341   0.067 -0.2984 -0.4329 -1.2293
 6012SOL     OW29668   1.743   2.907   8.104  0.1717 -0.6184 -0.3106
 6012SOL    HW129669   1.711   2.979   8.159  0.9886  0.9854 -1.9384
 6012SOL    HW229670   1.750   2.953   8.020 -0.5756 -0.0647 -0.0676
 6013SOL     OW29671   2.368   0.907   9.284 -0.1074 -0.1243  0.1365
 6013SOL    HW129672   2.342   0.996   9.261 -0.6161 -0.3982 -0.3423
 6013SOL    HW229673   2.323   0.888   9.366 -1.6906 -1.1407 -0.9700
 6014SOL     OW29674   1.486   0.401   3.954  0.1735 -0.4474  0.5157
 6014SOL    HW129675   1.502   0.487   3.994 -1.9456 -0.9757  2.4725
 6014SOL    HW229676   1.445   0.422   3.870 -1.3345 -0.9148  1.1355
 6015SOL     OW29677   0.435   3.928   9.274 -0.1049 -0.4122  0.5404
 6015SOL    HW129678   0.374   3.935   9.200 -0.8751 -2.8632  0.9570
 6015SOL    HW229679   0.506   3.876   9.235  0.6036  0.9837 -0.0536
 6016SOL     OW29680   4.103   1.194  14.362 -0.6730 -0.1544  0.0492
 6016SOL    HW129681   4.051   1.260  14.407  1.0177  0.9066  0.4421
 6016SOL    HW229682   4.066   1.115  14.400  3.0186 -1.8769  0.0755
 6017SOL     OW29683   0.917   4.142  17.341 -0.1178 -0.0980  0.4221
 6017SOL    HW129684   0.846   4.185  17.294 -0.2112 -0.1653  0.5032
 6017SOL    HW229685   0.892   4.160  17.431  0.7547  1.9526  0.2568
 6018SOL     OW29686   3.743   3.627   6.148  0.0438 -0.0604  0.0452
 6018SOL    HW129687   3.693   3.575   6.211 -2.7302  1.4197 -0.9774
 6018SOL    HW229688   3.826   3.596   6.185  1.0957  1.6938 -0.8265
 6019SOL     OW29689   0.524   0.990   7.691 -0.4167  0.0847  0.2979
 6019SOL    HW129690   0.587   0.973   7.621 -0.9928 -1.8546  0.2422
 6019SOL    HW229691   0.507   0.898   7.713 -0.5286 -0.1134 -0.6121
 6020SOL     OW29692   1.327   0.056   3.187  0.0526 -0.0656 -0.0148
 6020SOL    HW129693   1.232   0.042   3.194  0.1103  0.4078  1.7184
 6020SOL    HW229694   1.334   0.131   3.246  1.5546  0.0358 -0.3230
 6021SOL     OW29695   1.871   3.341   5.144  0.6694  0.2063  0.2962
 6021SOL    HW129696   1.797   3.385   5.103 -0.6189 -1.2898  1.0058
 6021SOL    HW229697   1.836   3.308   5.226 -0.5256 -2.0132 -1.0943
 6022SOL     OW29698   2.905   0.792   5.295 -0.1536  0.3181 -0.5054
 6022SOL    HW129699   2.972   0.775   5.361 -0.0623  1.4221 -0.3106
 6022SOL    HW229700   2.963   0.838   5.235  1.4128  0.1730  0.9020
 6023SOL     OW29701   2.956   3.213   0.487 -0.1868  0.0204 -0.0824
 6023SOL    HW129702   2.943   3.208   0.582 -0.6356  1.2920 -0.0735
 6023SOL    HW229703   3.049   3.235   0.478 -0.0646  1.1748  4.0247
 6024SOL     OW29704   1.993   1.807  14.914 -0.5415  0.0116  0.0691
 6024SOL    HW129705   1.964   1.887  14.870 -1.7810 -1.3487 -1.5721
 6024SOL    HW229706   2.088   1.823  14.910 -0.5834 -0.3697 -2.5068
 6025SOL     OW29707   1.918   4.018   9.305 -0.4177  0.2298 -0.1804
 6025SOL    HW129708   1.934   3.965   9.383  1.8241 -3.2446 -2.9888
 6025SOL    HW229709   1.863   4.083   9.348 -0.0618  0.4336 -0.0361
 6026SOL     OW29710   0.616   4.689   3.504 -0.3065 -0.4810  0.1171
 6026SOL    HW129711   0.620   4.667   3.411  1.5685 -2.1860  0.5990
 6026SOL    HW229712   0.590   4.600   3.528  0.3960 -0.5729  0.5227
 6027SOL     OW29713   0.009   1.262   2.856  0.0905 -0.0865 -0.3451
 6027SOL    HW129714   4.710   1.200   2.791 -2.8556 -0.7062  1.8388
 6027SOL    HW229715   0.022   1.348   2.816 -1.0094  0.3305  0.1802
 6028SOL     OW29716   3.696   2.083   3.804 -0.1839 -0.0027 -0.9429
 6028SOL    HW129717   3.772   2.140   3.810  0.0073 -0.2803 -0.7207
 6028SOL    HW229718   3.715   2.046   3.718 -0.0098  1.2029 -1.4263
 6029SOL     OW29719   3.632   1.537   5.701 -0.6458  0.1449 -0.0980
 6029SOL    HW129720   3.578   1.610   5.672  0.3134  1.1025  0.5327
 6029SOL    HW229721   3.703   1.587   5.741  1.9418 -2.0801 -1.8822
 6030SOL     OW29722   4.681   3.780   4.956  0.5521  0.3372 -0.0408
 6030SOL    HW129723   4.706   3.837   4.883 -0.2536  0.0014 -0.5712
 6030SOL    HW229724   0.003   3.706   4.940 -1.1789 -0.8052 -0.9596
 6031SOL     OW29725   0.351   2.834   8.731 -0.1877 -0.5773 -0.0058
 6031SOL    HW129726   0.272   2.788   8.702 -1.1840  0.1238  1.5703
 6031SOL    HW229727   0.342   2.805   8.822 -3.4275  0.0786 -0.0847
 6032SOL     OW29728   4.179   4.126   0.009 -0.1800  0.3456 -0.5173
 6032SOL    HW129729   4.133   4.056  17.704  0.5181 -0.4419 -0.0275
 6032SOL    HW229730   4.109   4.182   0.044 -1.6902 -1.5253 -0.5296
 6033SOL     OW29731   3.103   3.475   8.712 -0.0800  0.5828  0.0254
 6033SOL    HW129732   3.149   3.397   8.743  1.2190  2.3091  2.4630
 6033SOL    HW229733   3.162   3.515   8.648  2.7553  0.3364  2.4986
 6034SOL     OW29734   1.342   1.539  13.999  0.4092 -0.6368 -0.5279
 6034SOL    HW129735   1.304   1.626  14.012  0.4719 -0.3189 -2.4957
 6034SOL    HW229736   1.289   1.504  13.927 -1.0233  0.5794 -0.0619
 6035SOL     OW29737   1.120   3.777   5.295 -0.3087 -0.2992 -0.8775
 6035SOL    HW129738   1.050   3.822   5.342 -0.1679  0.9193 -1.8383
 6035SOL    HW229739   1.146   3.713   5.361  0.5770 -0.8438 -1.7574
 6036SOL     OW29740   3.676   1.508   8.060 -0.0233  0.1736 -0.7385
 6036SOL    HW129741   3.587   1.503   8.096  0.4076  2.0428  0.6029
 6036SOL    HW229742   3.725   1.493   8.141  0.0384  0.6015 -0.6961
 6037SOL     OW29743   2.725   2.626   5.448  0.2064 -0.7817 -0.4327
 6037SOL    HW129744   2.751   2.714   5.423  0.1648 -0.9155 -0.9431
 6037SOL    HW229745   2.688   2.610   5.361 -1.6588  0.1012  0.2024
 6038SOL     OW29746   0.033   1.032   0.528  0.0119 -0.0895 -0.0975
 6038SOL    HW129747   0.114   0.982   0.532 -0.1141 -0.1992  1.1963
 6038SOL    HW229748   0.006   1.040   0.620  1.9493 -1.3197  0.5658
 6039SOL     OW29749   2.209   4.128  13.822 -0.2980  0.0171 -0.0452
 6039SOL    HW129750   2.279   4.106  13.761 -0.2408 -0.4995  0.2099
 6039SOL    HW229751   2.147   4.057  13.803 -1.2293  1.2763 -1.7393
 6040SOL     OW29752   0.473   2.330  12.288 -0.1589  0.0051 -0.3072
 6040SOL    HW129753   0.417   2.392  12.334  1.5739  2.0585 -0.9568
 6040SOL    HW229754   0.460   2.350  12.195  0.0017 -0.5360 -0.4430
 6041SOL     OW29755   0.365   2.007   0.983  0.4114 -0.0925 -0.1778
 6041SOL    HW129756   0.354   1.970   1.070  1.4329 -2.5994 -1.1283
 6041SOL    HW229757   0.456   2.038   0.986  0.2955  0.1695  0.7931
 6042SOL     OW29758   1.072   2.953   6.987  0.3064 -0.0793 -0.7500
 6042SOL    HW129759   1.043   2.911   6.906  0.8419 -0.7742 -0.5837
 6042SOL    HW229760   1.107   2.876   7.032 -2.6667 -1.0776 -0.1318
 6043SOL     OW29761   3.069   3.423   4.190  0.6032  0.1223 -0.3921
 6043SOL    HW129762   3.090   3.492   4.253 -2.7516 -0.7576  1.7053
 6043SOL    HW229763   3.081   3.344   4.243  0.0832  0.9464  0.9780
 6044SOL     OW29764   0.057   2.288   7.848 -0.0092 -0.2984 -0.0504
 6044SOL    HW129765   0.052   2.367   7.794  2.1863 -1.1433 -1.5007
 6044SOL    HW229766   0.152   2.277   7.837 -0.2495  0.3020 -2.8726
 6045SOL     OW29767   4.337   3.561   5.498 -0.0080 -0.5112  0.2170
 6045SOL    HW129768   4.354   3.633   5.437 -2.9547 -0.2584 -0.3159
 6045SOL    HW229769   4.271   3.612   5.545 -0.2072 -1.8513  1.3832
 6046SOL     OW29770   0.937   0.962   6.155 -0.0085  0.1412  0.7332
 6046SOL    HW129771   0.900   0.878   6.181  2.3406 -0.8456  0.9321
 6046SOL    HW229772   1.024   0.935   6.125  0.4869  2.7173 -0.1802
 6047SOL     OW29773   3.237   2.918   8.614  0.2724  0.0992  0.4093
 6047SOL    HW129774   3.274   3.003   8.593 -0.0949 -0.0857 -0.9720
 6047SOL    HW229775   3.247   2.860   8.538  2.7760  0.4769  0.4560
 6048SOL     OW29776   3.138   1.987   4.966  0.1398 -0.1693 -0.0086
 6048SOL    HW129777   3.153   2.016   4.876 -0.4964  0.1794 -0.0042
 6048SOL    HW229778   3.226   1.972   5.000  0.0684 -0.2768  0.1276
 6049SOL     OW29779   2.957   1.221   6.712 -0.2097 -0.3488 -0.2241
 6049SOL    HW129780   2.937   1.225   6.619  0.0466 -1.8815 -0.3545
 6049SOL    HW229781   3.040   1.268   6.712 -0.5828  0.3145  2.8363
 6050SOL     OW29782   4.688   1.992   6.685 -0.5573  0.2693  0.3699
 6050SOL    HW129783   4.632   2.069   6.695 -0.0027  0.6430  0.6142
 6050SOL    HW229784   4.732   1.990   6.770  0.0677 -2.3583 -0.0118
 6051SOL     OW29785   1.341   0.925  12.168  0.4888  0.4690 -0.2770
 6051SOL    HW129786   1.341   0.939  12.073  2.4729 -0.4864 -0.4238
 6051SOL    HW229787   1.281   0.851  12.172 -0.0318  0.9423  0.4624
 6052SOL     OW29788   1.386   1.840   4.401 -0.0222 -0.2557 -0.1358
 6052SOL    HW129789   1.339   1.775   4.453  0.3387 -0.2241  0.2296
 6052SOL    HW229790   1.305   1.884   4.375  1.0711  3.4042  2.5785
 6053SOL     OW29791   1.368   0.162   5.870 -0.5384  0.0482  0.1307
 6053SOL    HW129792   1.276   0.135   5.872 -0.7112  0.6266 -0.3546
 6053SOL    HW229793   1.369   0.215   5.791 -0.5612  2.0573  1.4786
 6054SOL     OW29794   3.111   1.543   0.557  0.0710 -0.1096 -0.4334
 6054SOL    HW129795   3.166   1.605   0.605 -2.4415  2.4626 -0.8459
 6054SOL    HW229796   3.146   1.564   0.471  1.5041 -0.3160  0.0958
 6055SOL     OW29797   3.075   3.002   3.851 -0.0420  0.3986 -0.2687
 6055SOL    HW129798   3.019   3.018   3.775 -1.2498 -1.1041  0.2932
 6055SOL    HW229799   3.024   2.936   3.898 -1.3663  1.6197 -0.0036
 6056SOL     OW29800   4.725   2.297   5.231 -0.6028 -0.4948 -0.0506
 6056SOL    HW129801   0.049   2.232   5.194  1.1905  1.9145 -1.3736
 6056SOL    HW229802   4.723   2.263   5.321 -1.0584 -1.7535 -0.5339
 6057SOL     OW29803   1.073   2.877   8.147  0.1711  0.1695 -0.0763
 6057SOL    HW129804   1.118   2.942   8.202  0.9937  0.0167 -0.5608
 6057SOL    HW229805   1.122   2.805   8.187  0.8341  0.1926 -0.8388
 6058SOL     OW29806   0.648   0.993   4.919  0.0212 -0.0845  0.4714
 6058SOL    HW129807   0.710   1.047   4.967  1.1224  0.2552 -1.3389
 6058SOL    HW229808   0.660   1.030   4.832 -0.9145  0.7702  0.7012
 6059SOL     OW29809   1.985   4.445   6.738 -0.2252 -0.2028  0.1661
 6059SOL    HW129810   2.057   4.465   6.798 -1.1714 -0.4890  1.4230
 6059SOL    HW229811   1.921   4.496   6.788  0.3516 -0.2567  0.9693
 6060SOL     OW29812   0.672   4.723   4.149 -0.1819  0.8587  0.5188
 6060SOL    HW129813   0.689   4.660   4.219  1.1188  0.8232  0.1740
 6060SOL    HW229814   0.754   0.018   4.111 -0.1347  0.6531  0.4586
 6061SOL     OW29815   2.356   4.152   1.661 -0.3478 -0.0108 -0.2521
 6061SOL    HW129816   2.366   4.123   1.752 -0.4943 -0.1390 -0.2774
 6061SOL    HW229817   2.272   4.196   1.671 -0.9331 -1.1600 -0.1916
 6062SOL     OW29818   3.509   3.773  13.129 -0.2931  0.5354 -0.6717
 6062SOL    HW129819   3.552   3.857  13.144  0.4671  0.3686 -1.8828
 6062SOL    HW229820   3.582   3.713  13.109 -0.0840  1.4379 -2.6390
 6063SOL     OW29821   0.947   3.826   0.840  0.1979  0.3125 -0.1033
 6063SOL    HW129822   0.961   3.921   0.835  1.4687  0.0653 -1.2524
 6063SOL    HW229823   0.877   3.810   0.777 -1.9845  1.8094  1.9593
 6064SOL     OW29824   3.492   3.405  17.658 -0.1959 -0.4982 -0.3195
 6064SOL    HW129825   3.548   3.400  17.581 -1.3641 -0.5050 -1.1763
 6064SOL    HW229826   3.473   3.499  17.663 -0.1928 -0.3996 -2.0127
 6065SOL     OW29827   2.755   0.483   7.779  0.4260 -0.1266  0.2527
 6065SOL    HW129828   2.843   0.520   7.774  0.3348 -0.1232 -1.5113
 6065SOL    HW229829   2.719   0.512   7.695  3.7208  1.6307 -0.5440
 6066SOL     OW29830   1.469   1.805   3.487  0.1089 -0.1567 -0.0354
 6066SOL    HW129831   1.389   1.851   3.461  0.0061 -0.5717 -0.4598
 6066SOL    HW229832   1.461   1.723   3.438  1.0483  0.5383 -1.3338
 6067SOL     OW29833   2.610   2.591  14.907 -0.3150  0.0563  0.0215
 6067SOL    HW129834   2.582   2.655  14.972  0.4768  1.1426 -0.7004
 6067SOL    HW229835   2.702   2.613  14.889 -0.9463  1.5838 -1.3340
 6068SOL     OW29836   3.963   2.501  13.045 -0.3065  0.0653  0.4164
 6068SOL    HW129837   4.022   2.462  12.981  0.6159  1.4673  0.4122
 6068SOL    HW229838   3.889   2.514  12.986  0.8338  2.0243 -0.5944
 6069SOL     OW29839   1.190   2.188   1.134  0.6586  0.1044 -0.4662
 6069SOL    HW129840   1.192   2.117   1.198 -1.1443  0.9736  0.5579
 6069SOL    HW229841   1.199   2.267   1.187  0.0874  0.0874 -0.3405
 6070SOL     OW29842   0.879   3.878   5.444 -0.1606 -0.5124  0.2474
 6070SOL    HW129843   0.869   3.970   5.469  1.5834 -0.3471  0.3755
 6070SOL    HW229844   0.916   3.848   5.526 -0.7793 -1.2304  0.2596
 6071SOL     OW29845   4.211   3.531  11.645  0.2547 -0.2167  0.4074
 6071SOL    HW129846   4.277   3.466  11.621 -0.3108  0.1408 -2.1449
 6071SOL    HW229847   4.241   3.611  11.602  0.5314 -0.5051  0.0669
 6072SOL     OW29848   3.956   0.966   9.861 -0.0080 -0.0599  0.1099
 6072SOL    HW129849   3.981   0.875   9.845  1.8524  0.3172  0.9564
 6072SOL    HW229850   3.973   0.973   9.955  3.1001  2.0565 -0.6124
 6073SOL     OW29851   1.918   3.023   1.007 -0.0620  0.5038 -0.1262
 6073SOL    HW129852   1.917   3.118   1.005  0.6955  0.5678  2.4357
 6073SOL    HW229853   1.858   3.006   1.080 -2.5373  0.5872 -2.1251
 6074SOL     OW29854   3.233   3.367   8.380 -0.2291 -0.7579 -0.4963
 6074SOL    HW129855   3.191   3.366   8.294  1.7073 -0.6093 -1.4620
 6074SOL    HW229856   3.152   3.369   8.431  0.9270  0.0906  1.2978
 6075SOL     OW29857   0.275   0.900   0.531 -0.2878 -0.0967  0.3046
 6075SOL    HW129858   0.322   0.972   0.489  2.1488 -1.9981 -0.1376
 6075SOL    HW229859   0.324   0.826   0.496  0.1100  0.8603 -1.1816
 6076SOL     OW29860   4.716   2.078   7.508  0.2286 -0.0193 -0.5320
 6076SOL    HW129861   0.049   2.018   7.536  0.5638  0.4488 -0.3542
 6076SOL    HW229862   4.718   2.130   7.588 -1.1574 -1.3768  0.3896
 6077SOL     OW29863   2.917   0.138   1.565  0.0702 -0.6249  0.4557
 6077SOL    HW129864   2.905   0.176   1.478  2.5359  2.8911  1.6360
 6077SOL    HW229865   2.827   0.120   1.592  0.1453  1.7024  2.2953
 6078SOL     OW29866   4.229   3.105  14.007  1.2617  0.4680 -0.0816
 6078SOL    HW129867   4.145   3.145  14.033  1.6506  0.4069  1.2468
 6078SOL    HW229868   4.210   3.023  14.052  0.0775  0.1689 -1.1255
 6079SOL     OW29869   2.764   2.976   2.270  0.5383 -0.2469 -0.1617
 6079SOL    HW129870   2.818   2.934   2.337 -0.9714 -0.2378  1.0656
 6079SOL    HW229871   2.815   2.964   2.190  1.0165 -1.4331  0.3343
 6080SOL     OW29872   3.983   0.102   6.506  0.4759  0.3536  0.6088
 6080SOL    HW129873   4.015   0.105   6.416 -2.4742  1.0547 -0.4349
 6080SOL    HW229874   3.898   0.058   6.496  1.0471 -0.4603 -0.6827
 6081SOL     OW29875   0.516   4.443   8.428 -0.1766 -0.5617  0.0900
 6081SOL    HW129876   0.607   4.450   8.458 -0.0538  2.4546 -0.9666
 6081SOL    HW229877   0.516   4.348   8.414  0.9754 -0.6168  0.4092
 6082SOL     OW29878   1.989   3.141   1.952  0.6801 -0.1278 -0.1582
 6082SOL    HW129879   1.924   3.072   1.942  0.8477 -0.4080  0.7009
 6082SOL    HW229880   2.064   3.085   1.932  0.5285 -1.2684  2.5575
 6083SOL     OW29881   4.042   1.892   5.737 -0.6883  0.5349 -0.0961
 6083SOL    HW129882   4.124   1.923   5.698  0.9594 -1.8120  1.4932
 6083SOL    HW229883   4.004   1.854   5.658  0.4755 -1.5995  0.3593
 6084SOL     OW29884   2.868   3.824   2.304 -0.4371 -0.2557 -0.5234
 6084SOL    HW129885   2.940   3.880   2.276 -0.3492 -0.1002  0.0154
 6084SOL    HW229886   2.922   3.753   2.338  1.2228  0.0148 -2.5967
 6085SOL     OW29887   3.638   4.426   9.974 -0.3115  0.1601 -0.4493
 6085SOL    HW129888   3.694   4.501   9.995 -1.4996  1.5123 -2.1519
 6085SOL    HW229889   3.682   4.392   9.895 -2.8904 -0.0301 -1.8006
 6086SOL     OW29890   0.158   0.277   0.886  0.4298 -0.0592 -0.1563
 6086SOL    HW129891   0.080   0.320   0.852 -0.2246 -0.5166  0.7566
 6086SOL    HW229892   0.157   0.200   0.830  0.4816 -0.0681 -0.1454
 6087SOL     OW29893   0.401   0.998   0.162  0.3147 -0.1427 -0.0174
 6087SOL    HW129894   0.457   0.944   0.107  0.2111 -1.3848  1.0886
 6087SOL    HW229895   0.459   1.073   0.167  1.3452 -1.0528  1.7103
 6088SOL     OW29896   2.626   4.182   8.654  0.3703  0.4224 -0.5197
 6088SOL    HW129897   2.556   4.246   8.670 -0.6215 -1.0202  1.0239
 6088SOL    HW229898   2.586   4.111   8.603 -0.6302  0.2786  0.4596
 6089SOL     OW29899   4.243   0.551   0.904 -0.1881 -0.3978 -0.0063
 6089SOL    HW129900   4.254   0.523   0.813  0.4935 -1.9544  0.5557
 6089SOL    HW229901   4.148   0.559   0.913 -0.3876 -0.8411 -1.6978
 6090SOL     OW29902   2.269   3.270   4.707  0.4152 -0.0541  0.2491
 6090SOL    HW129903   2.247   3.307   4.792 -3.5312  1.0512 -1.2751
 6090SOL    HW229904   2.357   3.235   4.720  1.4143  2.4115  0.0965
 6091SOL     OW29905   3.499   1.173   8.360 -0.0068  0.4214 -0.2684
 6091SOL    HW129906   3.464   1.209   8.442 -1.8007 -3.0832  0.5144
 6091SOL    HW229907   3.452   1.090   8.351 -0.0554  0.5548 -1.1873
 6092SOL     OW29908   3.650   4.112   3.878 -0.3148  0.4923  0.7015
 6092SOL    HW129909   3.737   4.150   3.893  0.7920 -1.8572  0.1845
 6092SOL    HW229910   3.638   4.131   3.784 -0.7081 -0.3515  0.5798
 6093SOL     OW29911   1.324   2.162  12.047 -0.4817 -0.1113  0.5481
 6093SOL    HW129912   1.315   2.180  11.953 -1.1282  2.8562  1.1899
 6093SOL    HW229913   1.257   2.095  12.058  0.1289 -0.8548 -0.3399
 6094SOL     OW29914   3.483   3.288   8.449 -0.5035 -0.0907  0.6070
 6094SOL    HW129915   3.499   3.379   8.421 -1.2669 -0.4173 -0.9126
 6094SOL    HW229916   3.388   3.293   8.442 -0.4787 -0.8044 -0.2241
 6095SOL     OW29917   3.776   1.238  10.449 -0.5716 -0.4922  0.2898
 6095SOL    HW129918   3.825   1.241  10.531 -1.1955  2.6639  0.5454
 6095SOL    HW229919   3.812   1.315  10.405  0.4489 -0.8584  0.4776
 6096SOL     OW29920   0.272   2.588   8.117  0.2942  0.2711 -0.1488
 6096SOL    HW129921   0.279   2.674   8.158  0.7363  0.2250 -0.1260
 6096SOL    HW229922   0.331   2.597   8.042  1.9278 -0.7143  1.0136
 6097SOL     OW29923   3.278   0.576   2.011  0.0471 -0.0662 -0.6654
 6097SOL    HW129924   3.221   0.618   2.075 -1.1470  1.2515 -2.5929
 6097SOL    HW229925   3.224   0.546   1.937 -0.1983 -1.4141  0.0521
 6098SOL     OW29926   1.186   4.524   2.850  0.0778  0.1370  0.8341
 6098SOL    HW129927   1.149   4.515   2.762  2.0072 -2.5780  0.2955
 6098SOL    HW229928   1.188   4.619   2.862  1.0823  0.2352 -0.0965
 6099SOL     OW29929   0.516   4.202   6.507  0.1870 -0.4636 -0.1405
 6099SOL    HW129930   0.494   4.246   6.425 -1.0179 -0.8164 -0.0091
 6099SOL    HW229931   0.611   4.205   6.511  0.1967  0.4197 -1.3864
 6100SOL     OW29932   1.680   2.731   5.574  0.1078  0.0819 -0.2087
 6100SOL    HW129933   1.750   2.746   5.638 -0.2970  0.1089  0.2244
 6100SOL    HW229934   1.732   2.695   5.502 -0.3757 -1.5200  0.2462
 6101SOL     OW29935   3.037   3.317   5.850  0.0257 -0.1562  0.2592
 6101SOL    HW129936   3.101   3.247   5.858 -0.2550 -0.2246  1.7722
 6101SOL    HW229937   3.086   3.397   5.869 -2.9997  1.6364  0.5568
 6102SOL     OW29938   0.437   2.439   3.592 -0.2042 -0.5664 -0.3040
 6102SOL    HW129939   0.364   2.379   3.582 -2.8151  2.3872  1.0151
 6102SOL    HW229940   0.402   2.505   3.652  0.0806  0.8944 -1.7319
 6103SOL     OW29941   0.895   1.305   2.773  0.8262 -0.7535 -0.0648
 6103SOL    HW129942   0.945   1.237   2.727  1.8441  0.2980 -0.5073
 6103SOL    HW229943   0.833   1.335   2.706  0.0691  0.6576  1.2746
 6104SOL     OW29944   2.759   2.705   2.076  0.0534  0.0400 -0.1035
 6104SOL    HW129945   2.695   2.775   2.093  0.3329  0.0218  0.9927
 6104SOL    HW229946   2.700   2.640   2.037  0.0517  0.7296 -1.2356
 6105SOL     OW29947   2.465   1.686  15.321 -0.5188  0.3550  0.1280
 6105SOL    HW129948   2.375   1.669  15.350 -0.6580  0.4369 -0.2573
 6105SOL    HW229949   2.448   1.736  15.241  1.6423 -1.0016 -1.1765
 6106SOL     OW29950   3.188   3.849   7.270 -0.6878  0.1325  0.6018
 6106SOL    HW129951   3.189   3.794   7.349 -1.5161 -1.1301 -0.2657
 6106SOL    HW229952   3.197   3.786   7.199  0.3546  1.5838 -0.5485
 6107SOL     OW29953   2.377   4.018  11.927  0.0465 -0.3927 -0.1845
 6107SOL    HW129954   2.469   4.002  11.906  0.3868  0.5850  0.5458
 6107SOL    HW229955   2.368   4.037  12.021  1.5364  1.4782 -0.4342
 6108SOL     OW29956   1.534   0.597   5.236 -0.6627  0.4678  0.6288
 6108SOL    HW129957   1.524   0.502   5.239  0.7037  0.1648 -3.7254
 6108SOL    HW229958   1.626   0.609   5.262 -1.3024  2.0842  2.1272
 6109SOL     OW29959   4.144   4.294   3.273  0.1934 -0.0362  0.0507
 6109SOL    HW129960   4.219   4.240   3.298  1.2102  1.5918  0.4555
 6109SOL    HW229961   4.173   4.331   3.189  1.3424  1.3389  1.0575
 6110SOL     OW29962   1.402   4.052   4.018  0.2071 -0.6277  0.0725
 6110SOL    HW129963   1.426   4.143   4.035 -1.7253  0.2798 -2.0416
 6110SOL    HW229964   1.477   4.013   3.974  0.3363 -0.0270 -0.2371
 6111SOL     OW29965   0.782   3.488   9.994 -0.5288  0.2976 -0.2964
 6111SOL    HW129966   0.771   3.581   9.974 -0.7123  0.5071  0.7818
 6111SOL    HW229967   0.783   3.497  10.089 -0.2583  1.2389 -0.3863
 6112SOL     OW29968   3.013   0.837   7.861  0.2600  0.0914  0.1930
 6112SOL    HW129969   3.059   0.846   7.944  1.2364 -2.1422 -0.1112
 6112SOL    HW229970   3.045   0.910   7.809  1.0390 -1.4386 -1.4569
 6113SOL     OW29971   1.212   2.295   1.824  0.3692  0.1399  0.3277
 6113SOL    HW129972   1.275   2.308   1.895  0.4612 -0.7354  0.4092
 6113SOL    HW229973   1.134   2.277   1.876  0.3657 -0.1170  0.2345
 6114SOL     OW29974   3.059   1.265  10.474  0.1532 -0.1508  0.2166
 6114SOL    HW129975   3.030   1.352  10.447  2.0053 -0.2033 -2.0269
 6114SOL    HW229976   2.982   1.225  10.513 -0.8837  2.2852  0.6961
 6115SOL     OW29977   0.922   4.540   9.263 -0.2791  0.0809 -0.0652
 6115SOL    HW129978   0.982   4.615   9.265 -2.0626  1.4551  1.7522
 6115SOL    HW229979   0.900   4.539   9.356  0.0868  1.7754  0.0452
 6116SOL     OW29980   4.249   0.744   9.886 -0.7898 -0.3153  0.2945
 6116SOL    HW129981   4.244   0.773   9.977 -0.8234  0.2804  0.1015
 6116SOL    HW229982   4.240   0.651   9.907  1.6821 -0.6886 -0.2790
 6117SOL     OW29983   3.633   2.075   4.681 -0.6600 -0.5174 -0.2728
 6117SOL    HW129984   3.669   2.026   4.607  1.6775  1.7687 -0.6588
 6117SOL    HW229985   3.703   2.088   4.745 -2.2296 -0.1412  1.3620
 6118SOL     OW29986   0.282   4.688   7.952 -0.0778 -0.1206  0.1844
 6118SOL    HW129987   0.209   0.012   7.971  0.6300  0.9959 -0.5584
 6118SOL    HW229988   0.250   4.600   7.969 -2.5842  0.4530 -1.5302
 6119SOL     OW29989   3.979   3.101   1.318 -0.0874  0.2250 -0.4077
 6119SOL    HW129990   4.008   3.181   1.362  0.8709 -1.4489  2.0033
 6119SOL    HW229991   4.001   3.032   1.380  2.6910  2.1754  0.7854
 6120SOL     OW29992   3.087   4.261   5.906 -0.1145  0.3287 -0.1388
 6120SOL    HW129993   3.053   4.347   5.931  0.8293  1.0517 -1.3410
 6120SOL    HW229994   3.007   4.230   5.866 -1.6150  2.5569  1.1501
 6121SOL     OW29995   3.860   1.859   2.106 -0.4130 -0.5878  0.5899
 6121SOL    HW129996   3.841   1.780   2.156 -0.0050 -0.0969  1.5285
 6121SOL    HW229997   3.774   1.886   2.074 -0.0397  0.9038  0.8341
 6122SOL     OW29998   0.172   4.206   6.347  0.1566 -0.3434 -0.5676
 6122SOL    HW129999   0.191   4.297   6.325  3.6266 -0.9614 -0.1386
 6122SOL    HW230000   0.257   4.162   6.353 -1.8100 -4.2145 -1.0616
 6123SOL     OW30001   3.552   0.282   8.351 -0.0887 -0.5371  0.2941
 6123SOL    HW130002   3.575   0.203   8.303  1.3005  1.0543 -1.6984
 6123SOL    HW230003   3.471   0.297   8.302 -0.1474 -1.8972 -0.0042
 6124SOL     OW30004   2.259   0.120   7.190  0.1939  0.4386 -0.0430
 6124SOL    HW130005   2.214   0.043   7.225 -2.1596  0.6170 -2.7027
 6124SOL    HW230006   2.279   0.097   7.100 -0.5498  0.8617 -0.3166
 6125SOL     OW30007   0.276   3.498  17.001  0.0822  0.2035 -0.5727
 6125SOL    HW130008   0.320   3.555  16.938 -0.0643  1.6328  0.6433
 6125SOL    HW230009   0.226   3.567  17.045  1.7835  0.1069  1.5039
 6126SOL     OW30010   3.283   0.045   3.219 -0.6260  0.2555  0.5452
 6126SOL    HW130011   3.198   0.019   3.182 -0.6572 -0.0665  0.8370
 6126SOL    HW230012   3.298   4.726   3.296 -1.2643 -0.1938  0.3495
 6127SOL     OW30013   4.081   4.303   6.039 -0.1444 -0.4682  0.5002
 6127SOL    HW130014   4.148   4.237   6.021 -0.0331 -0.4587  0.8687
 6127SOL    HW230015   4.017   4.265   5.979  0.2681  0.5025 -0.5596
 6128SOL     OW30016   0.427   3.412   6.656 -0.1126 -0.2623 -0.0704
 6128SOL    HW130017   0.428   3.493   6.707  1.2662  0.2501 -0.9306
 6128SOL    HW230018   0.387   3.444   6.575 -0.0154  3.6931  1.4453
 6129SOL     OW30019   3.826   3.435  16.750 -0.3677 -0.1609  0.4778
 6129SOL    HW130020   3.768   3.498  16.792  2.7886  1.5979  2.2459
 6129SOL    HW230021   3.854   3.396  16.833  0.1328 -0.8082  0.0079
 6130SOL     OW30022   4.164   4.263   8.869  0.3372 -0.4240 -0.1982
 6130SOL    HW130023   4.249   4.301   8.894  0.6024 -2.1399  1.5374
 6130SOL    HW230024   4.111   4.340   8.850  0.3326 -1.0943 -2.9077
 6131SOL     OW30025   2.344   3.922   4.828 -0.8332 -0.3414 -0.6429
 6131SOL    HW130026   2.436   3.944   4.818 -1.0170  0.8600  0.3825
 6131SOL    HW230027   2.350   3.838   4.874 -2.0149 -1.3103 -2.2513
 6132SOL     OW30028   0.774   4.027   4.294 -0.1810 -0.0392  0.0659
 6132SOL    HW130029   0.757   3.936   4.316 -3.3731  0.6720  0.4290
 6132SOL    HW230030   0.763   4.025   4.199  1.4124 -3.5459 -0.0226
 6133SOL     OW30031   3.920   0.733  15.040 -0.9759 -1.1721  0.0498
 6133SOL    HW130032   3.861   0.745  14.965 -0.4855 -1.3777 -0.3702
 6133SOL    HW230033   3.995   0.743  14.981 -0.5302 -1.6626  0.5290
 6134SOL     OW30034   1.052   3.997   9.499 -0.2698  0.0985  0.3502
 6134SOL    HW130035   1.004   4.077   9.478  0.1632  0.1924 -0.3000
 6134SOL    HW230036   1.080   4.015   9.588  0.2126  0.5504  0.1110
 6135SOL     OW30037   1.484   4.235  10.885  1.0586  0.4190  0.4431
 6135SOL    HW130038   1.449   4.324  10.891  0.8457  0.3292  0.5220
 6135SOL    HW230039   1.406   4.194  10.921  1.8826 -0.3709  1.3449
 6136SOL     OW30040   4.050   2.701   8.848 -0.0669  0.0054  0.0394
 6136SOL    HW130041   4.063   2.710   8.754 -1.3511 -1.9783 -0.3374
 6136SOL    HW230042   4.073   2.783   8.891 -0.6370  0.3621 -0.3449
 6137SOL     OW30043   2.206   3.072  16.088 -0.1253  0.1494 -0.2431
 6137SOL    HW130044   2.266   3.127  16.139 -0.5294 -1.1883  1.6676
 6137SOL    HW230045   2.128   3.128  16.087 -2.4608 -3.0879  0.5606
 6138SOL     OW30046   2.528   1.504   3.938  0.2748 -0.3056  0.0264
 6138SOL    HW130047   2.468   1.434   3.962  2.6468 -2.0189  0.9554
 6138SOL    HW230048   2.522   1.492   3.843  0.1135  0.4046 -0.0535
 6139SOL     OW30049   0.509   3.524   5.258  0.1158  0.3081  0.0391
 6139SOL    HW130050   0.567   3.450   5.277 -1.6171 -1.3020 -0.9420
 6139SOL    HW230051   0.567   3.599   5.272 -0.1762  0.6781 -0.6945
 6140SOL     OW30052   4.277   2.266   6.777 -0.0866 -0.4675  0.3093
 6140SOL    HW130053   4.317   2.191   6.821  1.0572  0.2703  0.5167
 6140SOL    HW230054   4.355   2.295   6.730 -0.3846  2.7317  1.7643
 6141SOL     OW30055   1.953   0.519   7.532  0.2550 -0.3346  0.1626
 6141SOL    HW130056   2.008   0.549   7.604 -0.1838  0.5580  0.1333
 6141SOL    HW230057   1.922   0.596   7.483  0.0343  0.1112  1.0038
 6142SOL     OW30058   1.174   2.584   7.697  0.2470  0.2840  0.4953
 6142SOL    HW130059   1.245   2.645   7.677  0.1822 -0.3988 -1.7823
 6142SOL    HW230060   1.112   2.643   7.654  1.1296  0.4220 -0.5919
 6143SOL     OW30061   1.245   2.601   5.591  0.3198 -0.5026  0.8698
 6143SOL    HW130062   1.243   2.661   5.516 -2.1205  0.8654  2.0408
 6143SOL    HW230063   1.237   2.517   5.545 -0.6462  0.6245 -1.0443
 6144SOL     OW30064   3.509   0.283  11.732 -0.5407 -0.1012  0.0202
 6144SOL    HW130065   3.490   0.276  11.825  1.1749 -0.4084  0.3343
 6144SOL    HW230066   3.544   0.371  11.740  0.0513 -0.3991  0.6997
 6145SOL     OW30067   3.664   0.119  13.375  0.0031 -0.3958  0.4448
 6145SOL    HW130068   3.656   0.198  13.322 -0.2979 -1.1783 -0.6709
 6145SOL    HW230069   3.718   0.063  13.319 -0.6228 -1.3944  0.8462
 6146SOL     OW30070   1.593   2.344   9.543  0.5751 -0.0986 -0.4355
 6146SOL    HW130071   1.499   2.330   9.532  0.8507 -1.4412 -1.1888
 6146SOL    HW230072   1.629   2.306   9.463  1.8289 -2.0747  1.0544
 6147SOL     OW30073   4.575   0.982   7.645  0.0267  0.4578  0.2204
 6147SOL    HW130074   4.591   0.891   7.668  1.0275  0.0351 -2.1737
 6147SOL    HW230075   4.622   1.037   7.708 -2.0511  2.6665 -0.1768
 6148SOL     OW30076   2.366   4.395   7.698 -0.6832  0.1297  0.0960
 6148SOL    HW130077   2.298   4.356   7.753 -1.1420  0.5598 -0.1628
 6148SOL    HW230078   2.376   4.327   7.631  1.2534 -2.0773  2.6393
 6149SOL     OW30079   4.591   0.426   1.388  0.5105 -0.2165  0.6686
 6149SOL    HW130080   4.499   0.434   1.362  0.7790 -0.0049 -0.2104
 6149SOL    HW230081   4.593   0.452   1.480  1.2124  0.0456  0.5797
 6150SOL     OW30082   2.404   1.359   2.090  0.3180 -0.8608  0.1493
 6150SOL    HW130083   2.354   1.426   2.136  1.2100 -0.2449  0.2123
 6150SOL    HW230084   2.414   1.404   2.006  1.2511  0.8220  1.1615
 6151SOL     OW30085   3.387   2.060   3.392 -0.3235  0.1130  0.0839
 6151SOL    HW130086   3.379   2.130   3.328  3.8740 -2.0880 -2.8643
 6151SOL    HW230087   3.384   2.110   3.474 -0.1620 -0.6830  0.5806
 6152SOL     OW30088   0.419   3.961   2.081  0.0319 -0.6616  0.3098
 6152SOL    HW130089   0.447   4.051   2.062 -1.5427  0.0355  1.2870
 6152SOL    HW230090   0.331   3.965   2.044  0.1678  0.9056  0.1509
 6153SOL     OW30091   4.139   0.480  13.853  0.3556 -0.4838  0.0564
 6153SOL    HW130092   4.142   0.530  13.771  1.9201 -2.6064 -1.1963
 6153SOL    HW230093   4.185   0.402  13.821 -0.5085  0.1279 -2.7210
 6154SOL     OW30094   3.604   4.384   6.637  0.3507 -0.6876 -0.7838
 6154SOL    HW130095   3.512   4.356   6.633 -0.4245  1.3395  2.1870
 6154SOL    HW230096   3.652   4.308   6.606  0.5241 -0.0659 -2.0113
 6155SOL     OW30097   3.062   2.366   3.697  0.3800  0.1198 -0.0744
 6155SOL    HW130098   3.147   2.346   3.657  1.3017  0.9379  1.4648
 6155SOL    HW230099   3.041   2.428   3.628 -1.2167 -1.7148 -1.2495
 6156SOL     OW30100   2.472   2.077  13.259  0.0009 -0.3103 -0.2754
 6156SOL    HW130101   2.397   2.122  13.299  0.2839 -0.9716  0.9873
 6156SOL    HW230102   2.437   2.047  13.175 -3.1889  1.6901  0.3358
 6157SOL     OW30103   3.632   3.997   8.767 -0.4000 -0.0351  0.8851
 6157SOL    HW130104   3.547   3.997   8.810 -0.4356  1.2180  0.8119
 6157SOL    HW230105   3.611   3.934   8.698  2.4534 -1.5057  1.3690
 6158SOL     OW30106   4.440   1.115  10.831 -0.7334 -0.3724  0.2361
 6158SOL    HW130107   4.389   1.041  10.863  0.7828 -1.8187 -0.7047
 6158SOL    HW230108   4.499   1.060  10.780 -2.9732 -0.0533 -2.7089
 6159SOL     OW30109   4.525   1.842   3.462  0.1356 -0.2745 -0.6523
 6159SOL    HW130110   4.596   1.807   3.408 -0.4308 -3.3095  0.5484
 6159SOL    HW230111   4.558   1.852   3.552 -1.5907  2.3882 -0.3241
 6160SOL     OW30112   0.795   1.349   8.147 -0.3242 -0.5990  0.4807
 6160SOL    HW130113   0.743   1.270   8.131 -0.4117 -0.3935 -0.2180
 6160SOL    HW230114   0.758   1.413   8.087  0.4601  1.1207  1.8457
 6161SOL     OW30115   1.619   0.061   9.742  0.3506 -0.5907  0.7154
 6161SOL    HW130116   1.591   0.106   9.822  1.7686 -1.0553  1.4834
 6161SOL    HW230117   1.684   0.121   9.704 -0.0069 -0.7476 -0.1422
 6162SOL     OW30118   3.920   3.042   4.208 -0.0916 -0.2409  0.0376
 6162SOL    HW130119   3.977   3.110   4.242 -0.7167  0.2892  0.0237
 6162SOL    HW230120   3.939   2.974   4.273 -1.1338  0.6162  1.2529
 6163SOL     OW30121   1.808   1.100   7.395  0.1265  0.3334 -0.0795
 6163SOL    HW130122   1.777   1.094   7.485  1.0783 -0.8592  0.1584
 6163SOL    HW230123   1.902   1.117   7.399  0.0459 -0.0283  3.2266
 6164SOL     OW30124   2.938   1.571   4.317  0.1097  0.0735 -0.2809
 6164SOL    HW130125   2.931   1.644   4.255  0.2515  0.2455 -0.0919
 6164SOL    HW230126   2.852   1.531   4.335  0.6680 -0.8744  0.2581
 6165SOL     OW30127   3.787   3.704  16.904  0.4792 -0.0350 -0.2259
 6165SOL    HW130128   3.843   3.750  16.966 -1.0219  1.8494 -0.2500
 6165SOL    HW230129   3.795   3.753  16.822  0.0711 -0.3674 -0.4701
 6166SOL     OW30130   3.312   0.770   4.829 -0.0782  0.3322  0.1371
 6166SOL    HW130131   3.221   0.794   4.847  1.1433  1.4847  4.5853
 6166SOL    HW230132   3.347   0.828   4.761  1.0125 -0.1269  0.3074
 6167SOL     OW30133   4.706   2.390   3.013 -0.3239 -0.0967 -0.3725
 6167SOL    HW130134   4.622   2.433   2.998 -0.3518 -0.2287 -0.5929
 6167SOL    HW230135   4.669   2.302   3.020 -1.1723  0.3907  1.2818
 6168SOL     OW30136   0.968   3.365   9.807  0.3829 -0.6097 -0.4689
 6168SOL    HW130137   0.900   3.393   9.868  1.2422 -0.0073  0.2090
 6168SOL    HW230138   0.980   3.276   9.842 -2.7202 -0.5321  0.7773
 6169SOL     OW30139   2.989   2.125   7.110 -0.1899 -0.4963 -0.6501
 6169SOL    HW130140   2.904   2.095   7.078 -0.3935 -0.4219 -0.1826
 6169SOL    HW230141   3.010   2.203   7.059  0.0639  0.8541  1.5227
 6170SOL     OW30142   1.083   3.962   9.169 -0.1009 -0.0678 -0.0182
 6170SOL    HW130143   1.111   4.053   9.157  1.8500 -0.6703 -0.0554
 6170SOL    HW230144   1.062   3.968   9.262 -0.4806  0.9279 -0.1641
 6171SOL     OW30145   3.405   4.054   8.421 -0.0732 -0.3746 -0.6267
 6171SOL    HW130146   3.407   4.125   8.357 -0.5217 -2.1586 -2.6399
 6171SOL    HW230147   3.485   4.077   8.469 -0.4930 -0.3271  0.0461
 6172SOL     OW30148   3.753   2.715   1.445  0.5557  0.5814 -0.0327
 6172SOL    HW130149   3.763   2.807   1.467  0.1102  0.3876  1.0032
 6172SOL    HW230150   3.808   2.679   1.515 -0.7233  2.2164  1.8101
 6173SOL     OW30151   0.281   0.245   1.568  0.6913  0.2618 -0.4859
 6173SOL    HW130152   0.340   0.310   1.531  0.8398  1.3002  1.5730
 6173SOL    HW230153   0.256   0.196   1.490 -0.9594 -0.5626  0.5508
 6174SOL     OW30154   2.458   3.382   7.518 -0.0320 -0.0042  0.0532
 6174SOL    HW130155   2.473   3.345   7.605  2.8631  2.0347  0.4258
 6174SOL    HW230156   2.467   3.476   7.536 -3.7018  0.5092 -0.7926
 6175SOL     OW30157   3.085   1.731  13.758  0.6212 -0.1724 -0.4835
 6175SOL    HW130158   3.083   1.714  13.664 -1.5657 -0.7400 -0.3295
 6175SOL    HW230159   3.045   1.655  13.800 -2.5955  1.6570 -0.2377
 6176SOL     OW30160   2.984   4.703   2.239 -0.4685  0.6857 -0.1150
 6176SOL    HW130161   2.911   4.730   2.183  0.1195 -0.2360 -1.3341
 6176SOL    HW230162   3.008   0.046   2.286  2.3576  2.1397 -3.9767
 6177SOL     OW30163   2.678   3.005   8.710  0.2035  0.0990 -0.9781
 6177SOL    HW130164   2.656   3.070   8.644 -0.3235  2.8075  1.8911
 6177SOL    HW230165   2.774   3.013   8.709  0.1122  1.3060  0.1070
 6178SOL     OW30166   4.447   2.317   2.080 -0.2158 -0.0079 -0.3806
 6178SOL    HW130167   4.430   2.392   2.136 -0.1232 -1.1516  1.1679
 6178SOL    HW230168   4.402   2.242   2.119  2.6949 -2.0851 -1.0177
 6179SOL     OW30169   1.893   2.806   1.254  0.6856 -0.2106  0.0364
 6179SOL    HW130170   1.973   2.785   1.206  0.9869 -0.5328  0.6766
 6179SOL    HW230171   1.827   2.772   1.193  0.2444  1.3521 -0.3462
 6180SOL     OW30172   3.273   3.200  15.152 -0.0720  0.3470 -0.7036
 6180SOL    HW130173   3.364   3.176  15.171 -0.9019 -0.8891  1.7489
 6180SOL    HW230174   3.263   3.128  15.090  0.4579 -0.2073 -0.1461
 6181SOL     OW30175   1.163   0.801   2.427 -0.1361  0.3246  0.1968
 6181SOL    HW130176   1.123   0.887   2.441 -0.8441 -0.1064  0.8423
 6181SOL    HW230177   1.151   0.796   2.332 -0.4158  1.6198  0.1649
 6182SOL     OW30178   3.664   3.108   3.151  0.6662  0.3895 -0.2144
 6182SOL    HW130179   3.720   3.175   3.111  2.8582 -1.1722  0.2592
 6182SOL    HW230180   3.655   3.144   3.240 -0.4570 -0.6666  0.0939
 6183SOL     OW30181   2.233   2.710   5.335 -0.0725 -0.8899 -0.3132
 6183SOL    HW130182   2.292   2.739   5.404 -1.1454 -0.9498  0.6319
 6183SOL    HW230183   2.158   2.769   5.345  1.1659  0.3899  1.3455
 6184SOL     OW30184   1.119   0.072   5.811  0.3254  0.0013 -0.1428
 6184SOL    HW130185   1.032   0.036   5.828 -0.1908  1.5838  0.6218
 6184SOL    HW230186   1.108   0.147   5.753 -1.6926 -0.5221 -0.4183
 6185SOL     OW30187   3.462   3.224   3.960  0.2194  0.0006  0.4423
 6185SOL    HW130188   3.444   3.290   3.894 -0.8839  0.5207  1.2603
 6185SOL    HW230189   3.461   3.145   3.906  3.4286 -0.1094  0.5097
 6186SOL     OW30190   0.223   0.563  14.772  0.4506 -0.1896 -0.3738
 6186SOL    HW130191   0.214   0.480  14.819 -1.4253 -0.7999 -1.7863
 6186SOL    HW230192   0.134   0.598  14.782  0.9183  0.4260  1.6411
 6187SOL     OW30193   2.667   2.175   3.377 -0.7630 -0.3218 -0.4944
 6187SOL    HW130194   2.653   2.251   3.434 -2.3043  0.4893 -1.9480
 6187SOL    HW230195   2.762   2.163   3.377 -0.5975  1.0353 -0.6010
 6188SOL     OW30196   2.235   1.175   1.434 -0.7138 -0.1416  0.3387
 6188SOL    HW130197   2.237   1.259   1.388  1.8236 -0.4093  0.0056
 6188SOL    HW230198   2.143   1.152   1.423  0.0837 -2.8116 -0.6673
 6189SOL     OW30199   3.521   2.716   4.666  0.1775  0.1629  0.1663
 6189SOL    HW130200   3.473   2.782   4.616 -0.7632  0.8366  1.9328
 6189SOL    HW230201   3.468   2.706   4.746 -1.8211  1.8143 -0.9625
 6190SOL     OW30202   4.438   0.842   9.351 -0.3858  0.6715  0.1613
 6190SOL    HW130203   4.445   0.778   9.422 -0.7714  0.0752 -0.3416
 6190SOL    HW230204   4.356   0.817   9.309 -0.3635  3.3614 -1.4207
 6191SOL     OW30205   3.823   3.073   8.793 -0.0352  0.3234  0.3952
 6191SOL    HW130206   3.736   3.053   8.759 -0.1030  2.1433 -0.4996
 6191SOL    HW230207   3.884   3.061   8.719 -1.5465  1.8777 -1.0984
 6192SOL     OW30208   0.887   3.902   8.946 -0.4004  0.1237 -0.2593
 6192SOL    HW130209   0.970   3.926   8.988 -0.0286 -0.0215 -0.8947
 6192SOL    HW230210   0.892   3.807   8.956 -0.5572  0.0970 -0.4347
 6193SOL     OW30211   2.035   3.820   4.137 -0.1713  0.1557 -0.2538
 6193SOL    HW130212   2.000   3.832   4.048  1.0045 -1.1423 -0.8916
 6193SOL    HW230213   1.956   3.837   4.188 -0.6746  1.4830 -1.4772
 6194SOL     OW30214   4.544   4.053   9.964  0.0519 -0.1519  0.1651
 6194SOL    HW130215   4.464   4.010   9.933 -0.2535 -1.6902  3.1606
 6194SOL    HW230216   4.516   4.140   9.935 -1.8490 -0.7002  0.3351
 6195SOL     OW30217   0.871   1.421   4.280  0.4402  0.0062  0.1009
 6195SOL    HW130218   0.849   1.492   4.219  2.6170 -1.0448 -1.9135
 6195SOL    HW230219   0.958   1.439   4.317  0.8120  0.7040 -1.1038
 6196SOL     OW30220   1.180   2.199   4.350 -0.0296  0.5275  0.2363
 6196SOL    HW130221   1.114   2.158   4.295 -1.0746  0.9847  1.1407
 6196SOL    HW230222   1.250   2.213   4.287 -0.3414 -0.0488 -0.2340
 6197SOL     OW30223   4.543   4.359   7.874  0.2216  0.0083  0.1747
 6197SOL    HW130224   4.498   4.360   7.789  0.9607 -1.2405 -0.2298
 6197SOL    HW230225   4.618   4.309   7.840  1.4588  0.3358  2.4410
 6198SOL     OW30226   1.953   3.061  17.273 -0.8518 -0.4160 -0.0798
 6198SOL    HW130227   1.997   3.001  17.213 -0.7476  0.5665 -0.9881
 6198SOL    HW230228   1.868   3.017  17.274 -2.0866  1.9333 -0.3186
 6199SOL     OW30229   2.618   3.518  16.146  0.4103  0.4686  0.4089
 6199SOL    HW130230   2.583   3.443  16.097  0.1401  0.0513  1.2447
 6199SOL    HW230231   2.680   3.551  16.081  1.3401 -0.5851  0.7631
 6200SOL     OW30232   3.234   4.455   0.285  0.3985  0.5281  0.9738
 6200SOL    HW130233   3.329   4.456   0.292  0.7694 -3.5785 -3.6530
 6200SOL    HW230234   3.196   4.469   0.372 -0.8455 -1.9649  0.8304
 6201SOL     OW30235   1.506   2.786   8.233  0.1675 -0.2410  0.2222
 6201SOL    HW130236   1.566   2.800   8.160 -2.2743  0.6379 -1.5913
 6201SOL    HW230237   1.534   2.695   8.244 -0.9640 -0.7883 -1.5285
 6202SOL     OW30238   2.647   2.886   4.276 -0.2662 -0.0324 -0.1038
 6202SOL    HW130239   2.683   2.797   4.283  0.3598  0.4590  2.7803
 6202SOL    HW230240   2.678   2.922   4.193  0.4891 -1.5575 -0.4909
 6203SOL     OW30241   2.548   3.298  15.977 -0.4905 -0.1417  0.6110
 6203SOL    HW130242   2.588   3.234  16.037 -0.0258  0.1094  0.5625
 6203SOL    HW230243   2.469   3.249  15.954  0.6257 -1.1685 -1.0552
 6204SOL     OW30244   4.457   1.844   9.523  0.0330 -0.1693  0.3871
 6204SOL    HW130245   4.430   1.772   9.467 -0.5592  1.9569 -2.0646
 6204SOL    HW230246   4.373   1.886   9.540  0.0444  0.1120 -0.2650
 6205SOL     OW30247   0.376   1.428   0.692  0.0182 -0.0594  0.6227
 6205SOL    HW130248   0.310   1.368   0.726 -0.5760  1.0856  1.4792
 6205SOL    HW230249   0.412   1.458   0.776  0.1559  1.1688  0.1215
 6206SOL     OW30250   0.324   0.840   6.405  0.5419 -0.1107 -0.3659
 6206SOL    HW130251   0.340   0.766   6.463 -1.5594  1.4195  2.1567
 6206SOL    HW230252   0.357   0.910   6.461  0.3137  0.5839 -1.0945
 6207SOL     OW30253   2.984   2.210   3.959  0.0239  0.2188 -0.1562
 6207SOL    HW130254   2.957   2.250   3.877 -0.4211  1.0499  0.3947
 6207SOL    HW230255   2.901   2.168   3.982 -0.1183  0.0983 -0.8822
 6208SOL     OW30256   0.153   3.382   8.461 -0.0460 -0.3897 -0.1661
 6208SOL    HW130257   0.129   3.290   8.464 -0.2542 -0.3437 -0.4418
 6208SOL    HW230258   0.244   3.376   8.488  0.4070  0.4189 -1.5092
 6209SOL     OW30259   0.920   2.255  12.090 -0.3908 -0.0885 -0.2690
 6209SOL    HW130260   0.968   2.324  12.136 -1.9466 -0.3216  1.7128
 6209SOL    HW230261   0.847   2.229  12.146 -0.1098  1.3218  0.7536
 6210SOL     OW30262   2.905   4.726  11.200 -0.1671  0.2388  0.2963
 6210SOL    HW130263   2.926   0.023  11.287  0.0437  0.3030  0.2222
 6210SOL    HW230264   2.845   4.655  11.225  0.6240 -1.0734 -1.5172
 6211SOL     OW30265   2.641   2.383   6.636 -0.0676 -0.8135  0.6745
 6211SOL    HW130266   2.652   2.445   6.707 -0.5256 -0.1271  0.1381
 6211SOL    HW230267   2.671   2.438   6.564 -1.6793  1.3603  1.6836
 6212SOL     OW30268   3.247   1.416  13.862  0.3050 -0.1986 -0.4721
 6212SOL    HW130269   3.252   1.413  13.957  2.8613  0.3330 -0.6090
 6212SOL    HW230270   3.153   1.426  13.846  0.7122  0.9095 -2.2326
 6213SOL     OW30271   3.432   2.744  14.214 -1.1968 -0.4747 -0.5408
 6213SOL    HW130272   3.492   2.670  14.211 -0.3723  0.1240  1.3820
 6213SOL    HW230273   3.483   2.823  14.232 -1.7614 -0.5334  1.3559
 6214SOL     OW30274   1.752   0.180   6.121  0.3973  0.0799 -0.0723
 6214SOL    HW130275   1.687   0.162   6.188 -1.3326 -1.2907 -2.1099
 6214SOL    HW230276   1.833   0.177   6.171 -0.0564 -0.0186  0.6423
 6215SOL     OW30277   2.380   2.075   3.734  0.1922  0.0266 -0.0441
 6215SOL    HW130278   2.455   2.049   3.680 -0.7866 -0.5204 -1.1389
 6215SOL    HW230279   2.398   2.032   3.817 -1.7129  0.1180  0.4136
 6216SOL     OW30280   1.252   3.927  10.524  0.2851  0.5922 -0.0592
 6216SOL    HW130281   1.342   3.951  10.546  0.0039  1.7324 -0.1649
 6216SOL    HW230282   1.259   3.834  10.502  0.5432  0.1094  2.0672
 6217SOL     OW30283   4.549   0.722   6.612 -0.4332  0.2348  0.2027
 6217SOL    HW130284   4.541   0.796   6.553  3.3450 -1.0656 -1.9187
 6217SOL    HW230285   4.469   0.733   6.664 -0.9220  1.8550 -0.8974
 6218SOL     OW30286   0.086   1.749   2.100  0.3731  0.3627  0.2792
 6218SOL    HW130287   0.055   1.739   2.010  0.4172  0.3764  0.2623
 6218SOL    HW230288   0.173   1.710   2.087  0.4457  0.2965  0.9400
 6219SOL     OW30289   4.419   2.985   6.210  0.1078 -0.0976  0.4297
 6219SOL    HW130290   4.501   2.989   6.260  0.7370  0.6386 -0.6578
 6219SOL    HW230291   4.419   3.069   6.164 -0.3146 -0.0815  0.4623
 6220SOL     OW30292   1.461   3.577  16.480  0.0165 -0.0272 -0.3859
 6220SOL    HW130293   1.491   3.488  16.461 -0.5549 -0.9374  2.9108
 6220SOL    HW230294   1.382   3.593  16.429 -1.2670 -1.5891  1.0979
 6221SOL     OW30295   4.697   2.733   0.094  0.4136 -0.0454 -0.8919
 6221SOL    HW130296   4.710   2.815   0.047 -1.2533  1.3720  1.1061
 6221SOL    HW230297   4.700   2.670   0.022 -0.3716 -0.8497 -0.2307
 6222SOL     OW30298   4.503   3.753   3.604 -0.2427  0.0074 -0.1169
 6222SOL    HW130299   4.550   3.835   3.592  1.1493 -0.5882  1.3501
 6222SOL    HW230300   4.561   3.696   3.554 -1.9674 -0.8925 -1.1178
 6223SOL     OW30301   3.136   1.050  16.674  0.4023 -0.4452 -0.0013
 6223SOL    HW130302   3.078   1.109  16.722  2.1099  0.8100  0.5443
 6223SOL    HW230303   3.074   1.015  16.611 -2.2121  1.1263  1.7018
 6224SOL     OW30304   0.656   3.643  10.241 -0.2503 -0.2478  0.5024
 6224SOL    HW130305   0.622   3.554  10.244 -1.4056  0.0779 -3.0784
 6224SOL    HW230306   0.579   3.695  10.217 -0.7597 -2.0805 -1.8095
 6225SOL     OW30307   2.110   2.171   1.083  0.2409  0.4840 -0.0602
 6225SOL    HW130308   2.053   2.098   1.056  1.0455 -0.1042 -0.1673
 6225SOL    HW230309   2.091   2.156   1.175 -0.6663  0.1380 -0.3025
 6226SOL     OW30310   2.004   1.731   0.401  0.0844  0.0486 -0.8403
 6226SOL    HW130311   1.949   1.806   0.376 -0.6158  0.3368  1.5458
 6226SOL    HW230312   2.053   1.724   0.319  1.1772 -0.1947 -0.1620
 6227SOL     OW30313   4.529   1.453  14.797 -0.2538 -0.2709  0.8953
 6227SOL    HW130314   4.445   1.449  14.844 -0.7180 -0.9767  0.0221
 6227SOL    HW230315   4.503   1.416  14.713  0.3019  1.4749 -0.0366
 6228SOL     OW30316   2.225   0.827   0.892 -0.3846  0.2079 -0.1570
 6228SOL    HW130317   2.250   0.864   0.807  0.9876 -0.6540 -0.1457
 6228SOL    HW230318   2.133   0.852   0.901 -0.4143 -1.3969  3.8116
 6229SOL     OW30319   0.861   4.638   6.204 -0.4346  0.1100  0.0047
 6229SOL    HW130320   0.912   4.628   6.285  0.1846  0.0640 -0.3903
 6229SOL    HW230321   0.907   4.575   6.148 -1.7386 -2.7346  2.1053
 6230SOL     OW30322   1.228   0.698  11.683  0.3269  0.1788  0.0507
 6230SOL    HW130323   1.200   0.786  11.660 -1.3688  0.2525  2.3502
 6230SOL    HW230324   1.148   0.651  11.707 -0.3601  0.6830 -1.2645
 6231SOL     OW30325   4.567   4.547   8.386  0.3138  0.0983 -0.0537
 6231SOL    HW130326   4.600   4.571   8.300  0.8252 -0.8289 -0.1112
 6231SOL    HW230327   4.539   4.633   8.418 -1.0291 -0.6941  0.9082
 6232SOL     OW30328   4.572   2.759   8.332 -0.5485 -0.1618  0.0467
 6232SOL    HW130329   4.621   2.715   8.262 -1.2970  0.3743 -0.8169
 6232SOL    HW230330   4.587   2.698   8.404  1.6535  1.8397  1.2754
 6233SOL     OW30331   4.107   0.233   9.795 -0.4702  0.5989 -0.3177
 6233SOL    HW130332   4.154   0.174   9.854  0.2571  3.4286  1.9198
 6233SOL    HW230333   4.018   0.229   9.828 -0.9100  0.4117 -1.5205
 6234SOL     OW30334   1.645   0.909   8.428 -0.3118 -0.2095 -0.2373
 6234SOL    HW130335   1.617   0.854   8.354  1.4375 -0.4940 -0.6897
 6234SOL    HW230336   1.628   0.850   8.501  1.8210  0.5630  0.8750
 6235SOL     OW30337   4.555   1.670   4.997 -0.8721  0.0725 -0.1066
 6235SOL    HW130338   4.464   1.651   4.977 -0.6033 -2.3708  0.9971
 6235SOL    HW230339   4.577   1.747   4.944  0.0635  0.3428  0.6587
 6236SOL     OW30340   1.191   1.272   5.589  0.9319  0.7774  0.0642
 6236SOL    HW130341   1.167   1.338   5.655 -0.7573  0.6245 -0.3941
 6236SOL    HW230342   1.193   1.190   5.639  0.3868 -0.8953 -2.6775
 6237SOL     OW30343   0.714   4.603  11.509  0.3215  0.3421 -0.1333
 6237SOL    HW130344   0.742   4.601  11.418  1.9483 -2.8853  0.4071
 6237SOL    HW230345   0.703   4.510  11.530 -1.0962  0.3178 -0.9970
 6238SOL     OW30346   0.337   2.489   5.935  0.2756 -0.1881 -0.2454
 6238SOL    HW130347   0.379   2.486   5.849  0.9221 -0.5801  0.0817
 6238SOL    HW230348   0.288   2.570   5.923  3.0058  1.6784  1.3335
 6239SOL     OW30349   0.907   1.218   5.533  0.4561  0.1125 -0.6196
 6239SOL    HW130350   0.949   1.212   5.447  1.3826  2.1778 -0.3150
 6239SOL    HW230351   0.955   1.290   5.574  1.0544 -0.1765 -0.8206
 6240SOL     OW30352   4.622   0.882  15.565  0.0487  0.1365  0.1143
 6240SOL    HW130353   4.673   0.963  15.561  1.1144 -0.6092 -1.4496
 6240SOL    HW230354   4.635   0.856  15.656  0.6572  2.7298  0.7895
 6241SOL     OW30355   2.826   4.351   6.286  0.4678 -0.1137 -0.4317
 6241SOL    HW130356   2.765   4.290   6.244 -2.1406  2.3753 -0.2244
 6241SOL    HW230357   2.838   4.305   6.370 -2.0656 -1.6567 -0.8973
 6242SOL     OW30358   0.490   1.083   5.879 -0.8748  0.2695  0.3068
 6242SOL    HW130359   0.449   0.999   5.899  0.4396 -0.2968  0.5534
 6242SOL    HW230360   0.580   1.083   5.909  0.1409  0.1276 -2.7876
 6243SOL     OW30361   2.085   2.900   6.401 -0.3619  0.3727  0.3748
 6243SOL    HW130362   2.173   2.937   6.411  0.6345 -2.1101  0.7457
 6243SOL    HW230363   2.099   2.810   6.427 -3.8549  0.9922  4.3464
 6244SOL     OW30364   2.425   2.688   6.315  0.3347 -0.6557  0.4406
 6244SOL    HW130365   2.457   2.598   6.316  1.7717 -0.0985  2.8322
 6244SOL    HW230366   2.349   2.675   6.371 -0.0685  1.2853  0.3411
 6245SOL     OW30367   0.560   2.274   3.864 -0.6150  0.1558 -0.2146
 6245SOL    HW130368   0.576   2.332   3.939 -3.0766  0.1989  0.2797
 6245SOL    HW230369   0.559   2.343   3.797  0.4041 -1.0514 -1.4588
 6246SOL     OW30370   0.919   0.029   7.770  0.2295 -0.0296 -0.0971
 6246SOL    HW130371   0.974   0.055   7.844  0.3934 -0.8129  0.0635
 6246SOL    HW230372   0.977   4.697   7.734  0.8332  0.4632 -0.0557
 6247SOL     OW30373   1.227   4.223  10.540  0.1388 -0.6346  0.3313
 6247SOL    HW130374   1.263   4.141  10.505  1.9702  1.1895 -2.0255
 6247SOL    HW230375   1.204   4.200  10.631  0.7423  2.7050  1.3022
 6248SOL     OW30376   2.817   2.115   7.491  0.0110  0.0718 -0.0348
 6248SOL    HW130377   2.883   2.076   7.434 -0.2542 -2.9808  1.7281
 6248SOL    HW230378   2.815   2.048   7.560 -0.9531  1.4475  1.2915
 6249SOL     OW30379   1.274   0.357   2.898 -0.1128  0.3729  0.1427
 6249SOL    HW130380   1.353   0.393   2.938  0.3535 -1.1618  0.5794
 6249SOL    HW230381   1.263   0.279   2.952  0.3686 -1.9887 -3.2447
 6250SOL     OW30382   0.276   2.772   9.263  0.4494  0.5627  0.6119
 6250SOL    HW130383   0.306   2.839   9.324  2.2413  0.4435 -0.1405
 6250SOL    HW230384   0.222   2.708   9.311 -0.4712  0.6186 -0.3528
 6251SOL     OW30385   2.584   1.961   6.419  0.6030  0.1537  0.1490
 6251SOL    HW130386   2.587   2.047   6.460  0.2792  0.1062  0.2741
 6251SOL    HW230387   2.509   1.922   6.464  0.9060 -1.6271 -0.9000
 6252SOL     OW30388   0.457   4.476   5.089  0.1729  0.1472 -0.3635
 6252SOL    HW130389   0.379   4.530   5.073 -0.6695 -0.6783  0.9525
 6252SOL    HW230390   0.422   4.387   5.086  3.1059 -0.9382 -2.0452
 6253SOL     OW30391   1.152   4.480   6.342  0.0682  0.4393 -0.3125
 6253SOL    HW130392   1.197   4.395   6.346 -0.2461  0.3621  1.8083
 6253SOL    HW230393   1.187   4.512   6.259 -0.2050 -1.3377 -1.1204
 6254SOL     OW30394   4.153   1.893   7.423 -0.0912 -0.5375  0.0710
 6254SOL    HW130395   4.128   1.817   7.475  0.3652  0.0080  1.0947
 6254SOL    HW230396   4.065   1.927   7.402  1.2698  2.6986 -0.4288
 6255SOL     OW30397   2.045   3.564   3.886 -0.1770  0.0446  0.3471
 6255SOL    HW130398   1.954   3.545   3.909 -0.2135 -1.7780 -1.2965
 6255SOL    HW230399   2.050   3.658   3.902  1.8524 -0.2726  1.6083
 6256SOL     OW30400   3.394   2.725   2.048  0.3535 -0.1223 -0.5941
 6256SOL    HW130401   3.421   2.804   2.002  1.4065  0.7345  1.5170
 6256SOL    HW230402   3.461   2.660   2.026 -1.0599 -0.7818 -2.9461
 6257SOL     OW30403   2.154   0.216  12.133  0.5322  0.1800  0.1002
 6257SOL    HW130404   2.158   0.121  12.127  1.4709  0.2893 -1.0906
 6257SOL    HW230405   2.237   0.241  12.173  0.9776 -0.8475 -0.1847
 6258SOL     OW30406   0.833   3.300   3.501 -0.0768  0.0441 -0.3622
 6258SOL    HW130407   0.813   3.320   3.593  0.4309 -2.3017  0.2589
 6258SOL    HW230408   0.845   3.390   3.470  0.0137  0.3868  0.6659
 6259SOL     OW30409   2.365   1.736  16.013 -0.5877  0.0967 -0.0571
 6259SOL    HW130410   2.273   1.749  16.034 -0.8106 -2.3738  0.4991
 6259SOL    HW230411   2.363   1.702  15.924 -2.6854 -2.3936  0.9339
 6260SOL     OW30412   4.229   1.793  13.668  0.1906  0.2411 -0.9312
 6260SOL    HW130413   4.186   1.756  13.745 -0.6884  0.9209 -1.1095
 6260SOL    HW230414   4.152   1.839  13.636 -0.7481 -0.1592  0.7848
 6261SOL     OW30415   1.566   3.404   7.177 -0.1706  0.4693 -0.1685
 6261SOL    HW130416   1.521   3.320   7.186 -0.2403  0.6120  0.7551
 6261SOL    HW230417   1.644   3.366   7.138  0.2933  1.3347 -0.0846
 6262SOL     OW30418   2.473   0.341   1.614  0.5572  0.5712 -0.4590
 6262SOL    HW130419   2.465   0.429   1.651 -0.1411  0.2800  0.0921
 6262SOL    HW230420   2.391   0.341   1.564  0.3910  0.6109 -0.1880
 6263SOL     OW30421   1.978   1.341   4.733  0.2646  0.1102  0.0762
 6263SOL    HW130422   2.000   1.394   4.810  0.4196  1.3786 -0.8531
 6263SOL    HW230423   2.069   1.318   4.714 -0.2828 -0.7359 -1.5527
 6264SOL     OW30424   4.167   2.075  16.125 -0.2373 -0.4631  0.5428
 6264SOL    HW130425   4.111   2.100  16.199  0.3639 -2.3975  1.6582
 6264SOL    HW230426   4.096   2.039  16.072 -0.0427  0.9113 -0.6533
 6265SOL     OW30427   0.457   2.035   5.944 -0.3447  0.2950 -0.1767
 6265SOL    HW130428   0.483   1.967   6.006  2.3531  1.4214 -0.0414
 6265SOL    HW230429   0.492   1.996   5.864 -0.1873 -1.2585  0.6511
 6266SOL     OW30430   0.458   0.763   5.371 -0.0315 -0.0854  0.3647
 6266SOL    HW130431   0.387   0.800   5.320 -0.5282 -2.8032 -0.8600
 6266SOL    HW230432   0.501   0.730   5.292 -1.1199 -0.2750 -0.1388
 6267SOL     OW30433   0.146   3.811   8.500 -0.7508  0.4147 -0.3595
 6267SOL    HW130434   0.100   3.741   8.546  0.2712 -1.0354 -1.5464
 6267SOL    HW230435   0.217   3.758   8.463 -0.7483  0.5557 -0.5563
 6268SOL     OW30436   1.556   0.121  10.024 -0.2366 -0.1201 -0.0839
 6268SOL    HW130437   1.530   0.211  10.005  3.4123  0.9044 -0.3426
 6268SOL    HW230438   1.535   0.109  10.116  1.9731 -0.5739  0.3717
 6269SOL     OW30439   4.329   1.100   0.633  0.0237 -0.0352  0.3167
 6269SOL    HW130440   4.359   1.189   0.652  0.6745  0.2090 -1.8874
 6269SOL    HW230441   4.319   1.119   0.540  3.2852  2.7098  0.5163
 6270SOL     OW30442   3.507   2.886   8.466  0.1639 -0.3620 -0.3598
 6270SOL    HW130443   3.544   2.903   8.552  3.8746  0.3542 -2.1019
 6270SOL    HW230444   3.585   2.891   8.410 -1.5226  1.0492 -2.5999
 6271SOL     OW30445   2.864   4.067   2.572  0.1233 -0.2910  0.5094
 6271SOL    HW130446   2.791   4.017   2.537 -1.7159  1.6616  1.5383
 6271SOL    HW230447   2.938   4.036   2.520  0.5169  0.3100  0.7100
 6272SOL     OW30448   0.303   1.682  16.201 -1.1991 -0.0126  0.3084
 6272SOL    HW130449   0.312   1.768  16.243 -0.9296 -0.4579  1.1450
 6272SOL    HW230450   0.299   1.703  16.107  2.1335  2.6623  0.7312
 6273SOL     OW30451   1.619   0.904   3.959  0.6498 -0.2001 -0.2016
 6273SOL    HW130452   1.675   0.878   4.032  0.1967  2.4799  1.1055
 6273SOL    HW230453   1.586   0.816   3.940  0.8567 -0.7434  2.0235
 6274SOL     OW30454   1.312   4.326   9.734  0.2213 -0.2383 -0.6085
 6274SOL    HW130455   1.362   4.373   9.801  1.5659 -1.4955 -0.7289
 6274SOL    HW230456   1.258   4.400   9.706  0.8721  0.5136  0.0987
 6275SOL     OW30457   0.043   0.128  10.582  0.1518 -0.0029 -0.2601
 6275SOL    HW130458   0.098   0.050  10.574 -0.7785 -0.9878  2.8946
 6275SOL    HW230459   4.711   0.081  10.631  0.4955  0.9379  1.1100
 6276SOL     OW30460   0.381   0.820   3.517 -0.3380 -0.4883 -0.0614
 6276SOL    HW130461   0.463   0.856   3.482 -0.3030  0.7230  1.2490
 6276SOL    HW230462   0.334   0.898   3.546 -0.0824 -0.6055  0.6582
 6277SOL     OW30463   4.119   0.309   9.113 -0.0080  0.1886  0.6002
 6277SOL    HW130464   4.045   0.366   9.093  1.2809  1.1171 -1.5687
 6277SOL    HW230465   4.107   0.241   9.047 -1.5842 -1.4803  2.6102
 6278SOL     OW30466   0.948   0.214   4.930  0.1466  0.0542  0.7414
 6278SOL    HW130467   0.965   0.250   4.843 -1.2163  0.4327  0.6277
 6278SOL    HW230468   1.033   0.184   4.963 -0.0799 -1.2317  0.1144
 6279SOL     OW30469   4.582   1.581  15.528  1.0081  0.2736  0.5490
 6279SOL    HW130470   4.565   1.675  15.527  2.1272  0.4598 -0.1437
 6279SOL    HW230471   4.557   1.545  15.443 -0.4578  0.1728  1.0151
 6280SOL     OW30472   3.277   0.695   7.775  0.0052 -0.1493 -0.1849
 6280SOL    HW130473   3.370   0.674   7.787 -0.7629 -2.2085  2.1087
 6280SOL    HW230474   3.241   0.726   7.858  0.3584 -1.7346  0.5564
 6281SOL     OW30475   4.578   1.159   1.796  0.4530  0.1150  0.0069
 6281SOL    HW130476   4.484   1.175   1.805  0.6369  0.3883  1.4179
 6281SOL    HW230477   4.604   1.124   1.881  0.9562 -1.1078 -0.6494
 6282SOL     OW30478   3.215   3.249   6.881 -0.2041  0.6703 -0.5682
 6282SOL    HW130479   3.236   3.155   6.878  0.0175  0.6685  1.0536
 6282SOL    HW230480   3.260   3.268   6.798  1.6269 -0.2147  0.1962
 6283SOL     OW30481   4.122   1.227   0.763 -0.1377 -0.2172 -0.3387
 6283SOL    HW130482   4.100   1.156   0.823 -0.3435  0.6731  0.6464
 6283SOL    HW230483   4.115   1.188   0.676  0.9696 -0.5743 -0.2663
 6284SOL     OW30484   4.315   1.308   3.115 -0.4231  0.4975  0.2388
 6284SOL    HW130485   4.356   1.226   3.087 -0.9959 -0.2601  1.6065
 6284SOL    HW230486   4.342   1.365   3.043  1.2260  0.2004  0.6151
 6285SOL     OW30487   3.353   4.696  17.429  0.3517 -0.3057 -0.0140
 6285SOL    HW130488   3.350   0.021  17.354  0.3764  0.7533  0.8356
 6285SOL    HW230489   3.407   0.016  17.485 -2.7567  3.9047 -1.1775
 6286SOL     OW30490   2.282   3.644   1.071 -0.7562  0.3369 -0.3839
 6286SOL    HW130491   2.342   3.649   1.145 -0.0241 -1.0323 -0.8881
 6286SOL    HW230492   2.336   3.676   0.999 -3.1309  2.4309 -1.2102
 6287SOL     OW30493   1.252   2.586   9.092  0.7747  0.4765  0.3474
 6287SOL    HW130494   1.188   2.537   9.041  2.5095 -0.2169 -1.1941
 6287SOL    HW230495   1.201   2.647   9.145 -0.2627 -0.2717  0.2079
 6288SOL     OW30496   2.353   0.673   5.768 -0.2022  0.2582  0.1064
 6288SOL    HW130497   2.260   0.661   5.787 -0.3957  0.4108 -0.7496
 6288SOL    HW230498   2.383   0.641   5.854  0.3829  0.1894 -0.1207
 6289SOL     OW30499   3.567   3.901   5.021  0.3917  0.1680  0.0777
 6289SOL    HW130500   3.606   3.853   4.948 -0.1553  0.1268 -0.1882
 6289SOL    HW230501   3.479   3.914   4.986  0.3963  0.1331  0.0533
 6290SOL     OW30502   1.591   1.038  12.120 -0.4917  0.0040  0.5368
 6290SOL    HW130503   1.613   1.106  12.056 -0.4168 -0.4079  0.1273
 6290SOL    HW230504   1.495   1.035  12.121 -0.5376  0.9720 -0.4763
 6291SOL     OW30505   0.473   0.161   9.736  0.2716 -0.4529 -0.3634
 6291SOL    HW130506   0.485   0.253   9.760  0.6660 -0.2813 -1.2214
 6291SOL    HW230507   0.382   0.161   9.763  0.6656  1.8127  0.9338
 6292SOL     OW30508   3.148   1.312   3.466 -0.1016 -0.0636  0.0554
 6292SOL    HW130509   3.145   1.228   3.420  0.7704  0.5621 -1.1541
 6292SOL    HW230510   3.058   1.314   3.496  0.4252 -1.9330  1.7157
 6293SOL     OW30511   3.918   3.941   4.722  0.5296  0.3935  0.6620
 6293SOL    HW130512   3.834   3.981   4.700  0.5389 -0.7452 -1.4655
 6293SOL    HW230513   3.922   3.869   4.659 -1.3409 -1.2157  2.3681
 6294SOL     OW30514   1.363   0.099   6.494  0.4132  0.1948  0.2986
 6294SOL    HW130515   1.279   0.139   6.475  0.6532  0.2522 -0.6885
 6294SOL    HW230516   1.405   0.180   6.524 -2.7974  2.5116 -1.4748
 6295SOL     OW30517   0.345   0.097   2.682 -0.3093  0.7861 -0.2885
 6295SOL    HW130518   0.435   0.063   2.684 -0.8481 -0.3496  3.0558
 6295SOL    HW230519   0.294   0.025   2.646  0.8188 -0.6932  1.0511
 6296SOL     OW30520   3.895   0.751   2.668 -0.4900  0.0336  1.2319
 6296SOL    HW130521   3.939   0.673   2.703  0.5917 -0.1402 -0.4822
 6296SOL    HW230522   3.852   0.715   2.590 -0.8982  0.1409  1.4128
 6297SOL     OW30523   2.265   3.469   7.762  0.1376  0.0699 -0.0718
 6297SOL    HW130524   2.306   3.554   7.745 -1.4622  1.0261  0.8472
 6297SOL    HW230525   2.172   3.492   7.762 -0.2175 -1.3532 -0.6006
 6298SOL     OW30526   2.500   0.516   3.692  0.5085 -0.9039 -0.2077
 6298SOL    HW130527   2.536   0.471   3.768 -1.4305 -0.1601  1.1447
 6298SOL    HW230528   2.581   0.550   3.652 -0.0968  1.2715  0.3911
 6299SOL     OW30529   1.253   2.581   1.960 -0.3759 -0.1928  0.1443
 6299SOL    HW130530   1.160   2.568   1.976 -0.5422 -1.2501 -1.7378
 6299SOL    HW230531   1.283   2.524   2.030  3.0993  1.6260  0.1566
 6300SOL     OW30532   4.300   1.538  14.935  0.4993 -0.5217 -0.0718
 6300SOL    HW130533   4.340   1.620  14.968 -1.1392  0.1108  0.3359
 6300SOL    HW230534   4.237   1.576  14.874  0.0553  0.0071  0.7069
 6301SOL     OW30535   0.409   0.668   6.576  0.2143 -0.2541 -0.1804
 6301SOL    HW130536   0.420   0.574   6.588 -3.0273 -0.5827  0.2188
 6301SOL    HW230537   0.493   0.695   6.613 -0.3341  1.7736 -0.4292
 6302SOL     OW30538   2.286   2.070   8.420 -0.1987  0.3675  0.1454
 6302SOL    HW130539   2.229   2.102   8.490  0.6491 -0.8896  1.4084
 6302SOL    HW230540   2.372   2.076   8.462  0.0837 -0.4197 -0.3172
 6303SOL     OW30541   0.512   0.653   5.130 -0.0649  0.2683 -0.1213
 6303SOL    HW130542   0.452   0.644   5.057  0.9123 -0.4010 -0.8391
 6303SOL    HW230543   0.518   0.561   5.156  0.4857  0.5759  0.8583
 6304SOL     OW30544   2.866   3.948   8.025 -0.0421 -0.0494 -0.1463
 6304SOL    HW130545   2.819   4.013   7.974  0.1841  0.3941  0.2128
 6304SOL    HW230546   2.915   3.895   7.963 -0.1535 -1.0774  0.6388
 6305SOL     OW30547   2.844   3.939   4.578 -0.5959 -0.3971 -0.2025
 6305SOL    HW130548   2.755   3.971   4.594 -0.1872  1.2917 -1.3218
 6305SOL    HW230549   2.822   3.867   4.519  3.3807 -1.6087 -0.2002
 6306SOL     OW30550   2.735   1.452   4.981  0.5516  0.2904 -0.0312
 6306SOL    HW130551   2.648   1.414   4.995  0.7548  0.7489  2.5023
 6306SOL    HW230552   2.789   1.379   5.011  0.6263  0.3944  0.0858
 6307SOL     OW30553   0.062   1.589  17.347  0.2229 -0.1282  0.0210
 6307SOL    HW130554   0.144   1.635  17.362 -0.2949  0.7608  0.1011
 6307SOL    HW230555   4.732   1.640  17.394  0.1163  0.7746 -1.1218
 6308SOL     OW30556   3.307   2.252   6.786  0.0773 -0.3396  0.3791
 6308SOL    HW130557   3.335   2.337   6.821 -2.6587 -0.0431  1.8132
 6308SOL    HW230558   3.242   2.278   6.720  1.2583  2.4197  0.2942
 6309SOL     OW30559   1.268   2.341   9.390 -1.1657  0.3053 -0.8396
 6309SOL    HW130560   1.233   2.426   9.415  0.3966  0.9006 -0.6565
 6309SOL    HW230561   1.278   2.350   9.295  0.2749  1.7222 -0.5504
 6310SOL     OW30562   2.908   0.820   7.485 -0.6908  0.7876  0.1428
 6310SOL    HW130563   2.888   0.785   7.398  2.7143 -1.2517  0.1706
 6310SOL    HW230564   2.930   0.745   7.540 -3.3744  0.4663  0.7641
 6311SOL     OW30565   2.126   2.651   2.813  0.1755  0.2699  0.3182
 6311SOL    HW130566   2.193   2.587   2.789  1.0282  1.1628  0.2706
 6311SOL    HW230567   2.181   2.726   2.838 -2.9319  2.2538  1.2514
 6312SOL     OW30568   1.867   3.041   1.556  0.2832 -0.1646 -0.2690
 6312SOL    HW130569   1.956   3.057   1.588  0.5745 -1.0226 -0.6655
 6312SOL    HW230570   1.837   3.133   1.554 -2.2662 -0.9821 -0.2010
 6313SOL     OW30571   3.670   4.266   4.457 -0.7658  0.2532  0.4427
 6313SOL    HW130572   3.739   4.331   4.453 -0.7668  0.2758  0.7548
 6313SOL    HW230573   3.628   4.286   4.374 -2.5292  1.5900  1.6473
 6314SOL     OW30574   0.017   3.691   9.081 -0.2936  0.1342  0.4748
 6314SOL    HW130575   0.081   3.633   9.123  0.0144 -1.5219 -2.2633
 6314SOL    HW230576   0.068   3.767   9.053  0.5892 -0.1156  1.4131
 6315SOL     OW30577   2.621   2.554   7.612  0.1523  0.6364  0.4082
 6315SOL    HW130578   2.669   2.615   7.668  1.2951  0.4135 -0.3307
 6315SOL    HW230579   2.662   2.473   7.642 -3.4587 -0.7962  1.5136
 6316SOL     OW30580   3.449   0.583  10.964  0.6420 -0.3043 -0.2778
 6316SOL    HW130581   3.477   0.673  10.981 -2.0779  0.2308  1.2656
 6316SOL    HW230582   3.383   0.552  11.026  2.9622 -0.0279  2.3366
 6317SOL     OW30583   0.048   1.451   6.619 -0.4333  0.0336  0.1828
 6317SOL    HW130584   4.715   1.482   6.678 -0.3642  1.1696 -0.3304
 6317SOL    HW230585   0.002   1.450   6.534  2.7369 -1.3833 -1.5220
 6318SOL     OW30586   3.397   3.710   3.705 -0.1624  0.6619  0.1377
 6318SOL    HW130587   3.339   3.776   3.668 -0.4629 -0.3377 -1.1789
 6318SOL    HW230588   3.454   3.767   3.757  0.8107  0.6586 -0.9098
 6319SOL     OW30589   2.502   0.497   9.522 -0.1565 -0.5170 -0.1912
 6319SOL    HW130590   2.547   0.549   9.455 -1.2706  0.5976 -0.0630
 6319SOL    HW230591   2.440   0.437   9.480 -0.3639  0.4046 -1.2055
 6320SOL     OW30592   2.924   3.457   6.133  0.1553  0.5221  0.0573
 6320SOL    HW130593   2.857   3.389   6.127  0.5286  0.1427  0.1405
 6320SOL    HW230594   2.910   3.506   6.052  2.0495  2.2185  0.7422
 6321SOL     OW30595   3.905   4.364   4.696 -0.0874  0.0115 -0.5289
 6321SOL    HW130596   3.916   4.418   4.773 -0.1302 -2.6711  1.3571
 6321SOL    HW230597   3.846   4.419   4.644  2.2231 -0.1191 -3.2944
 6322SOL     OW30598   0.704   4.298   7.993  0.4266  0.5242  0.1102
 6322SOL    HW130599   0.712   4.375   7.937 -0.7839  0.7731  0.2702
 6322SOL    HW230600   0.736   4.336   8.075 -1.0751  1.4706  0.2553
 6323SOL     OW30601   1.899   2.591  15.016 -0.2603 -0.1761  0.4516
 6323SOL    HW130602   1.911   2.505  15.055 -2.3124 -0.6118  0.1098
 6323SOL    HW230603   1.982   2.600  14.969 -1.1768 -0.3239 -1.2018
 6324SOL     OW30604   1.610   4.144   1.814 -0.0890 -0.2370  0.0198
 6324SOL    HW130605   1.647   4.227   1.844 -0.8897  0.8375 -1.9529
 6324SOL    HW230606   1.690   4.103   1.780  0.5235 -0.0537  1.2397
 6325SOL     OW30607   3.844   1.187   5.944 -0.0824 -0.2712 -0.8681
 6325SOL    HW130608   3.911   1.141   5.893 -1.8767 -1.8961 -1.7426
 6325SOL    HW230609   3.792   1.235   5.880  0.5095 -0.3305 -1.3965
 6326SOL     OW30610   2.602   3.615   1.343  0.4244  0.1334  0.6278
 6326SOL    HW130611   2.646   3.642   1.424  0.4220  1.4079  0.2148
 6326SOL    HW230612   2.580   3.700   1.305 -0.7742 -0.3208  0.3265
 6327SOL     OW30613   1.418   1.467   6.090 -0.0270  0.4425  0.3414
 6327SOL    HW130614   1.369   1.547   6.110  1.3524  1.2064  0.6933
 6327SOL    HW230615   1.350   1.405   6.064  0.5161 -1.3980  3.2563
 6328SOL     OW30616   2.717   1.576   0.003 -0.0821 -0.1915  0.5270
 6328SOL    HW130617   2.801   1.560   0.045 -0.3632 -0.6968  0.8960
 6328SOL    HW230618   2.654   1.537   0.064  0.0835 -0.4651  0.5215
 6329SOL     OW30619   0.882   0.519   9.382  0.4819  0.0533 -0.3322
 6329SOL    HW130620   0.822   0.447   9.361 -0.7815  1.1919 -0.6812
 6329SOL    HW230621   0.828   0.594   9.409  0.9584 -0.0157  0.8257
 6330SOL     OW30622   0.526   1.283   2.177 -0.2017 -0.6460 -0.0020
 6330SOL    HW130623   0.434   1.259   2.170 -0.2715 -0.1298 -0.9148
 6330SOL    HW230624   0.570   1.200   2.159 -0.7410 -0.7810 -0.6697
 6331SOL     OW30625   1.042   1.770   7.454  0.1266 -0.2088 -0.4989
 6331SOL    HW130626   0.958   1.735   7.484 -0.5499 -0.0295 -2.1976
 6331SOL    HW230627   1.074   1.699   7.399  1.5631  0.0015  0.0376
 6332SOL     OW30628   2.381   2.368   3.746 -0.0589 -0.1035 -0.2924
 6332SOL    HW130629   2.316   2.391   3.680  1.9695  0.8936 -1.9726
 6332SOL    HW230630   2.375   2.273   3.737  0.5647 -0.2450  0.8047
 6333SOL     OW30631   3.009   1.794   3.140 -0.4299  0.3771  0.0714
 6333SOL    HW130632   3.023   1.832   3.227  1.0231  0.4779 -0.2076
 6333SOL    HW230633   3.044   1.706   3.156 -1.9053 -0.3454 -0.6954
 6334SOL     OW30634   4.293   1.309   7.816 -0.1779  0.0597  0.2881
 6334SOL    HW130635   4.279   1.262   7.734 -1.5104 -2.4427  1.9409
 6334SOL    HW230636   4.242   1.389   7.799  0.6181  0.7623  1.2007
 6335SOL     OW30637   3.212   4.497  17.740 -0.8599 -0.2230  0.5987
 6335SOL    HW130638   3.207   4.446   0.079 -0.7387  0.1122  0.8195
 6335SOL    HW230639   3.220   4.584   0.038 -2.5545  1.0587 -1.8732
 6336SOL     OW30640   1.575   2.376   5.649 -0.1214 -0.2879  0.1972
 6336SOL    HW130641   1.563   2.433   5.573 -0.2425  0.4457  0.7610
 6336SOL    HW230642   1.635   2.309   5.617  1.0392  1.1586 -0.6755
 6337SOL     OW30643   1.868   4.709   7.685 -0.4101 -0.2253  0.2549
 6337SOL    HW130644   1.855   4.725   7.779 -2.1823 -0.1034 -0.0271
 6337SOL    HW230645   1.812   0.033   7.637 -0.1959 -0.6682 -0.5378
 6338SOL     OW30646   2.205   3.804   6.543 -0.5651  0.7985  0.3164
 6338SOL    HW130647   2.194   3.725   6.594  0.6356 -0.6369 -1.6485
 6338SOL    HW230648   2.281   3.840   6.589  0.6994 -0.8314 -0.5069
 6339SOL     OW30649   0.849   2.149   8.605  0.2416  0.2081  0.6156
 6339SOL    HW130650   0.877   2.115   8.520  0.4293  0.5678  0.5352
 6339SOL    HW230651   0.832   2.241   8.585  0.7667  0.2798  0.4944
 6340SOL     OW30652   4.140   1.697  17.608 -0.2852 -0.3999  0.3935
 6340SOL    HW130653   4.183   1.627  17.559 -0.3050  0.2420 -0.5445
 6340SOL    HW230654   4.113   1.650  17.687  0.8598 -2.5744 -0.4988
 6341SOL     OW30655   2.642   4.500   6.429 -0.4505 -0.7869  0.4503
 6341SOL    HW130656   2.685   4.436   6.371 -1.8792 -1.7753  0.4972
 6341SOL    HW230657   2.697   4.578   6.419 -0.8534 -0.8056 -2.0324
 6342SOL     OW30658   2.098   4.727   5.178  0.1446  1.1384  0.4039
 6342SOL    HW130659   2.147   4.657   5.221  0.7114  0.8643 -0.6970
 6342SOL    HW230660   2.040   4.680   5.118  1.2052 -1.7248  1.6137
 6343SOL     OW30661   4.034   4.227   3.646 -0.0629  0.5709  0.4917
 6343SOL    HW130662   3.996   4.244   3.560  1.4627 -0.5794 -0.4181
 6343SOL    HW230663   4.074   4.142   3.629  1.8593  1.3308  1.2679
 6344SOL     OW30664   0.464   3.558   3.927 -0.3450 -0.3551  0.2170
 6344SOL    HW130665   0.497   3.648   3.914  0.9876 -0.8627  0.0198
 6344SOL    HW230666   0.543   3.504   3.927  1.9608  3.0002 -0.0392
 6345SOL     OW30667   2.298   4.036  17.051  0.3307 -0.2650 -0.4835
 6345SOL    HW130668   2.281   4.026  17.144 -1.8282  1.7570 -0.6670
 6345SOL    HW230669   2.388   4.002  17.045 -0.4278 -2.2899 -0.4755
 6346SOL     OW30670   4.549   2.658   3.878 -0.1814  0.0472  0.0254
 6346SOL    HW130671   4.487   2.723   3.845 -1.8563 -1.0784  0.9687
 6346SOL    HW230672   4.625   2.691   3.830 -1.5294  0.6994 -1.6674
 6347SOL     OW30673   3.507   4.042   6.533 -0.2749 -0.5241  0.4556
 6347SOL    HW130674   3.544   4.103   6.470 -1.6115  1.2880  1.4376
 6347SOL    HW230675   3.452   4.101   6.584 -0.4577  1.5407 -2.1412
 6348SOL     OW30676   2.785   2.597   2.344  0.3989  0.3709 -0.8967
 6348SOL    HW130677   2.775   2.645   2.262  0.7773  2.5769  0.3316
 6348SOL    HW230678   2.691   2.586   2.362  0.4082  1.5650 -0.0707
 6349SOL     OW30679   4.264   3.057   9.726  0.5167  0.0250  0.1979
 6349SOL    HW130680   4.235   3.081   9.638 -2.6354 -1.8414  0.7704
 6349SOL    HW230681   4.261   2.962   9.732  0.5641 -0.0009 -0.1879
 6350SOL     OW30682   1.223   0.747   6.504 -0.0776  0.0981  0.3944
 6350SOL    HW130683   1.218   0.713   6.594 -1.8355 -1.1339 -0.1662
 6350SOL    HW230684   1.213   0.840   6.524  0.8809  0.1875  0.4866
 6351SOL     OW30685   1.922   0.479   4.741 -0.1690  0.3106  0.3880
 6351SOL    HW130686   2.011   0.512   4.754  0.5747 -2.5000  2.4792
 6351SOL    HW230687   1.923   0.398   4.792  3.5146  0.4210  0.4713
 6352SOL     OW30688   2.844   3.309  10.016 -0.6739 -0.4467 -0.2654
 6352SOL    HW130689   2.878   3.233  10.063 -0.1463 -0.3334 -0.4596
 6352SOL    HW230690   2.774   3.336  10.075 -0.1683  0.3192 -0.0173
 6353SOL     OW30691   2.483   0.048   7.733 -0.2020 -0.1088 -0.5316
 6353SOL    HW130692   2.415   0.003   7.683 -0.5380  0.9229 -0.9963
 6353SOL    HW230693   2.474   0.136   7.696  1.7113  1.0615  1.7529
 6354SOL     OW30694   2.722   1.310   1.726 -0.0798 -0.0436  0.2424
 6354SOL    HW130695   2.711   1.218   1.750 -0.6715  0.1636  0.7785
 6354SOL    HW230696   2.638   1.346   1.756 -0.4932 -0.5513 -0.3164
 6355SOL     OW30697   3.484   2.522  15.157 -0.4897  0.0510 -0.3611
 6355SOL    HW130698   3.547   2.450  15.154  0.7519  1.0325  2.0229
 6355SOL    HW230699   3.453   2.510  15.246  1.8530  1.4822  0.6629
 6356SOL     OW30700   3.212   2.642   4.475 -0.1754 -0.5306 -0.1225
 6356SOL    HW130701   3.281   2.691   4.431  0.3774  0.4906  1.8923
 6356SOL    HW230702   3.196   2.565   4.419  1.7250  0.0150 -1.3975
 6357SOL     OW30703   1.268   0.588   9.129  0.0731 -0.2596  1.0713
 6357SOL    HW130704   1.303   0.585   9.040  0.1957 -0.6972  1.1344
 6357SOL    HW230705   1.192   0.641   9.107 -0.2670 -0.4127  1.8915
 6358SOL     OW30706   2.149   4.261   1.277  0.2295 -0.2449 -0.1957
 6358SOL    HW130707   2.115   4.235   1.363  0.6988 -0.3906 -0.0547
 6358SOL    HW230708   2.160   4.172   1.244 -2.8482 -1.6990  2.6148
 6359SOL     OW30709   3.582   4.171  13.679  0.4586 -0.0455 -0.1675
 6359SOL    HW130710   3.637   4.101  13.715  2.1284  1.2342 -0.2028
 6359SOL    HW230711   3.503   4.166  13.732 -0.2421  2.5098 -0.9818
 6360SOL     OW30712   3.899   3.340   6.376  0.6375 -0.0474 -0.4253
 6360SOL    HW130713   3.843   3.415   6.355 -1.1186 -1.8145 -2.0917
 6360SOL    HW230714   3.871   3.315   6.464 -0.6284 -0.4949 -0.9440
 6361SOL     OW30715   2.684   3.440   9.824  0.6484  0.4386 -0.0558
 6361SOL    HW130716   2.742   3.397   9.888 -0.2956 -0.7085  0.0192
 6361SOL    HW230717   2.598   3.402   9.840  0.7355 -0.7185 -2.4109
 6362SOL     OW30718   2.552   0.706   9.333 -0.3766  0.3036  0.2773
 6362SOL    HW130719   2.490   0.779   9.335  0.4768  0.9524  2.6852
 6362SOL    HW230720   2.621   0.748   9.282 -0.2506  1.1898  1.1782
 6363SOL     OW30721   3.513   3.250   7.300 -0.3576 -0.4620  0.3148
 6363SOL    HW130722   3.452   3.225   7.370 -2.4091  1.9436 -0.6081
 6363SOL    HW230723   3.469   3.211   7.224  1.7194 -2.4523  0.1317
 6364SOL     OW30724   2.431   1.917   7.963  0.4519 -0.4677  0.5198
 6364SOL    HW130725   2.350   1.968   7.961 -1.1051 -2.9594  0.3033
 6364SOL    HW230726   2.447   1.887   8.052  1.1673  1.8003  1.1456
 6365SOL     OW30727   3.040   1.056   7.521  0.5201  0.4216 -0.0822
 6365SOL    HW130728   3.078   1.069   7.434  2.6752 -0.9773  0.6388
 6365SOL    HW230729   2.985   0.979   7.505  0.0745  0.7731 -0.2103
 6366SOL     OW30730   2.310   1.095   1.880  0.6564 -0.0103  0.0347
 6366SOL    HW130731   2.268   1.046   1.809  1.3203 -0.2746 -0.1779
 6366SOL    HW230732   2.313   1.179   1.835 -0.6513  1.1779  2.1959
 6367SOL     OW30733   2.041   2.518   3.744 -0.4151 -0.3793  0.1591
 6367SOL    HW130734   2.095   2.465   3.685  1.1168 -0.2769  1.4671
 6367SOL    HW230735   2.041   2.592   3.684  2.7754  0.2980  0.9736
 6368SOL     OW30736   2.102   4.160   2.916  0.1064 -0.3756  0.8377
 6368SOL    HW130737   2.009   4.154   2.894  0.3763  0.3720 -0.4827
 6368SOL    HW230738   2.142   4.147   2.830  1.7764 -0.7315  1.6594
 6369SOL     OW30739   1.452   3.595   1.997 -0.7225  0.0271  0.0017
 6369SOL    HW130740   1.370   3.625   2.036 -1.6255 -0.6650 -1.3721
 6369SOL    HW230741   1.437   3.626   1.907 -2.0288 -1.2416 -0.2127
 6370SOL     OW30742   1.402   3.869   5.218  0.5860 -0.4944 -0.2617
 6370SOL    HW130743   1.309   3.855   5.199  0.3391  1.2213 -0.2747
 6370SOL    HW230744   1.400   3.859   5.313 -0.3910  1.8072 -0.0536
 6371SOL     OW30745   0.658   0.145   7.690  0.1822 -0.1546  0.2085
 6371SOL    HW130746   0.748   0.114   7.681 -0.4248 -0.3786 -4.9750
 6371SOL    HW230747   0.619   0.072   7.739  1.1505 -1.4533 -0.9538
 6372SOL     OW30748   1.875   2.139   6.836 -0.1644  0.3772 -0.4909
 6372SOL    HW130749   1.940   2.074   6.861 -1.0763  1.0743  3.6596
 6372SOL    HW230750   1.800   2.082   6.855  0.5880  0.3307  2.3012
 6373SOL     OW30751   0.899   0.394   8.167 -0.0018  0.0918 -0.0878
 6373SOL    HW130752   0.847   0.376   8.088  2.4021 -0.0649 -1.6156
 6373SOL    HW230753   0.826   0.411   8.228  0.6085  1.8273  0.1646
 6374SOL     OW30754   0.542   4.194   3.083 -0.0035  0.7502 -0.1005
 6374SOL    HW130755   0.506   4.281   3.098 -2.6077  0.0913 -2.4361
 6374SOL    HW230756   0.549   4.183   2.988  0.2243 -0.6845  0.0872
 6375SOL     OW30757   4.351   4.653   4.074  0.5595  0.3003 -0.0889
 6375SOL    HW130758   4.320   4.610   4.154 -0.9238 -1.9018 -1.8476
 6375SOL    HW230759   4.280   4.641   4.011  1.3126  2.1582 -1.2845
 6376SOL     OW30760   0.065   2.251   6.456 -0.4985  0.3502  0.2354
 6376SOL    HW130761   0.058   2.172   6.402 -1.2116  0.3331  0.3540
 6376SOL    HW230762   0.122   2.216   6.524 -2.1768 -2.5803  0.1315
 6377SOL     OW30763   0.471   2.641   2.203  0.1546  0.1351  0.4493
 6377SOL    HW130764   0.556   2.685   2.205  1.7634 -2.9007 -1.3483
 6377SOL    HW230765   0.453   2.646   2.109 -0.8239  0.3355  0.6525
 6378SOL     OW30766   2.893   1.416   3.130 -0.2101 -0.4010  0.3065
 6378SOL    HW130767   2.851   1.341   3.171 -1.3445  0.7994  1.3228
 6378SOL    HW230768   2.828   1.460   3.076  0.6580  1.4192  0.7462
 6379SOL     OW30769   1.814   3.730  16.015 -0.0923 -0.1462 -0.2625
 6379SOL    HW130770   1.749   3.800  16.023 -0.0177 -0.0560 -0.4447
 6379SOL    HW230771   1.854   3.752  15.931  1.1185  0.7995  0.5631
 6380SOL     OW30772   3.838   1.338   7.641  0.2715  0.5262  0.1786
 6380SOL    HW130773   3.907   1.393   7.678 -0.3550  0.4413  1.5015
 6380SOL    HW230774   3.884   1.284   7.577 -1.4062  1.3431 -1.6946
 6381SOL     OW30775   0.679   2.877  14.794 -0.4225  0.3772  0.0989
 6381SOL    HW130776   0.734   2.879  14.716 -2.2174 -0.2448 -1.1898
 6381SOL    HW230777   0.676   2.970  14.816 -3.1795 -0.0125  1.3795
 6382SOL     OW30778   2.823   0.746  15.103 -0.4693  0.5266  0.6113
 6382SOL    HW130779   2.754   0.767  15.039  1.6554 -1.7163 -2.4192
 6382SOL    HW230780   2.818   0.829  15.149 -0.6216  0.1579  1.2588
 6383SOL     OW30781   0.998   4.032   6.423 -0.2613  0.0083 -0.4056
 6383SOL    HW130782   0.908   4.024   6.453 -0.4121  1.3526 -0.4907
 6383SOL    HW230783   1.019   3.944   6.393  0.3842 -1.2944  3.8456
 6384SOL     OW30784   4.232   0.114  15.709 -0.0699  0.6565  0.0696
 6384SOL    HW130785   4.233   0.121  15.804  1.5620  0.0174  0.1110
 6384SOL    HW230786   4.241   0.204  15.679 -1.1670  1.3871  1.9489
 6385SOL     OW30787   0.622   3.799   9.115  0.1552 -0.1766  0.3011
 6385SOL    HW130788   0.610   3.761   9.027  0.5211  2.4136 -0.8594
 6385SOL    HW230789   0.673   3.724   9.145 -2.3206 -2.4131 -1.0729
 6386SOL     OW30790   2.182   1.797   4.333  0.3663  0.4430  0.7257
 6386SOL    HW130791   2.255   1.791   4.394 -0.3485 -2.6555  1.3090
 6386SOL    HW230792   2.194   1.876   4.281  1.5597 -1.4073 -1.7942
 6387SOL     OW30793   1.577   3.952   8.332  0.1281  0.1455 -0.7133
 6387SOL    HW130794   1.604   4.044   8.338 -1.3204  0.3745  2.0476
 6387SOL    HW230795   1.495   3.947   8.380  1.0172  1.1571  0.8983
 6388SOL     OW30796   4.295   0.661   9.645  0.2632  0.4307 -0.1577
 6388SOL    HW130797   4.224   0.597   9.652  1.2765 -0.8595 -1.6760
 6388SOL    HW230798   4.273   0.696   9.731 -3.7598 -1.2058 -0.5118
 6389SOL     OW30799   2.746   4.463   4.436  0.3236  0.0056 -0.2585
 6389SOL    HW130800   2.701   4.392   4.389  1.3278 -1.2724  0.7065
 6389SOL    HW230801   2.789   4.405   4.499 -1.3395  1.8782  2.6143
 6390SOL     OW30802   2.576   1.708  17.189 -0.1545 -0.4309 -0.1888
 6390SOL    HW130803   2.624   1.789  17.208  0.1640 -0.4731 -0.8058
 6390SOL    HW230804   2.539   1.690  17.276  1.7740 -1.6995  0.3658
 6391SOL     OW30805   1.100   2.399   8.956 -0.3965  0.3558 -0.1054
 6391SOL    HW130806   1.020   2.374   9.003  0.6568 -0.0259  1.4752
 6391SOL    HW230807   1.069   2.395   8.865  0.0585 -2.0363 -0.1667
 6392SOL     OW30808   4.658   4.047   8.477 -0.1875  0.0421 -0.2619
 6392SOL    HW130809   4.686   3.958   8.500 -3.6320 -0.7991  0.6302
 6392SOL    HW230810   4.695   4.055   8.389  0.0551 -0.4261 -0.2072
 6393SOL     OW30811   0.455   1.718   2.080  0.0115 -0.1482 -0.6313
 6393SOL    HW130812   0.447   1.749   1.990 -0.4977 -2.1457 -1.2870
 6393SOL    HW230813   0.482   1.799   2.122 -3.5003 -0.0574  1.3905
 6394SOL     OW30814   4.180   2.562   7.716  0.2745  0.0160  0.0541
 6394SOL    HW130815   4.108   2.512   7.754 -0.7123  1.7603  0.4250
 6394SOL    HW230816   4.148   2.619   7.646 -2.4958 -1.4951  0.1059
 6395SOL     OW30817   3.296   3.579  16.341 -0.2001 -0.0759  0.0504
 6395SOL    HW130818   3.219   3.525  16.326 -0.0734  0.1951 -1.5211
 6395SOL    HW230819   3.302   3.600  16.434 -1.1265 -0.0001  0.0893
 6396SOL     OW30820   4.289   0.808   2.601  0.2048 -0.6435  0.3885
 6396SOL    HW130821   4.256   0.803   2.691  0.1354 -0.3674  0.3789
 6396SOL    HW230822   4.257   0.893   2.570  2.0647  0.3038  0.9737
 6397SOL     OW30823   1.064   1.203   8.186 -0.1820 -0.4602  0.1448
 6397SOL    HW130824   0.990   1.262   8.171  1.3719  1.4358 -0.1081
 6397SOL    HW230825   1.022   1.129   8.230 -0.1783 -1.8742 -2.2630
 6398SOL     OW30826   3.555   4.471   0.742  0.4892 -0.1174 -0.0529
 6398SOL    HW130827   3.632   4.528   0.746  0.5918 -0.2760  0.2232
 6398SOL    HW230828   3.504   4.519   0.807 -0.9242  1.2413 -2.1827
 6399SOL     OW30829   4.063   1.604   4.865 -0.2492 -0.8347  0.4571
 6399SOL    HW130830   4.135   1.557   4.823 -1.2341 -1.1773 -0.8497
 6399SOL    HW230831   4.045   1.661   4.790 -0.3930  0.7245  1.6677
 6400SOL     OW30832   3.798   3.078   9.297 -0.5831  0.1293 -0.2213
 6400SOL    HW130833   3.852   3.107   9.370 -0.0550 -0.5938 -0.3225
 6400SOL    HW230834   3.709   3.080   9.332 -0.1692  0.9243  0.7823
 6401SOL     OW30835   2.644   1.281   4.206  0.4126  0.1737 -0.2061
 6401SOL    HW130836   2.636   1.346   4.137 -2.7558 -1.3692 -1.2583
 6401SOL    HW230837   2.595   1.207   4.171 -0.1421  0.8762 -0.9090
 6402SOL     OW30838   0.343   4.727   3.160 -0.2465  0.4218  0.2994
 6402SOL    HW130839   0.332   0.052   3.234 -0.2106 -0.7556  1.2840
 6402SOL    HW230840   0.342   0.048   3.084  2.0806 -1.7659 -1.3616
 6403SOL     OW30841   0.088   4.493   2.992 -0.0306  0.0632 -0.1825
 6403SOL    HW130842   0.121   4.511   3.080 -0.5075  0.0346  0.0021
 6403SOL    HW230843   0.039   4.412   3.004  0.7721 -0.1494  1.7008
 6404SOL     OW30844   3.599   2.339   8.259  0.3932  0.2650 -0.3635
 6404SOL    HW130845   3.537   2.312   8.326 -0.1367 -2.2414 -1.8633
 6404SOL    HW230846   3.560   2.292   8.185  0.9209  0.2782 -0.6511
 6405SOL     OW30847   1.199   0.885   6.143 -0.1802 -0.5164 -0.0783
 6405SOL    HW130848   1.262   0.842   6.085  0.6821  2.6781 -1.5150
 6405SOL    HW230849   1.255   0.949   6.187  0.0364 -0.4359 -0.4666
 6406SOL     OW30850   3.177   1.894  14.254 -0.1294 -0.4931  0.6130
 6406SOL    HW130851   3.203   1.981  14.223  2.1365 -1.5297 -0.3398
 6406SOL    HW230852   3.084   1.911  14.271 -0.3236 -0.7389 -0.1894
 6407SOL     OW30853   4.256   0.747  14.751  0.1702  0.0541  0.0392
 6407SOL    HW130854   4.304   0.822  14.717  1.5447 -0.6126  0.5104
 6407SOL    HW230855   4.264   0.774  14.843 -0.6160 -1.2777  0.4992
 6408SOL     OW30856   2.089   1.086   4.295 -0.4094 -0.2456 -0.6371
 6408SOL    HW130857   2.028   1.065   4.366  1.6228  0.6748  1.4049
 6408SOL    HW230858   2.155   1.023   4.323 -1.1311  0.0903  1.8528
 6409SOL     OW30859   1.457   3.632  17.169 -0.0636 -0.5254 -0.1323
 6409SOL    HW130860   1.460   3.544  17.206 -1.6420  0.1524  1.5901
 6409SOL    HW230861   1.543   3.672  17.181 -1.0237  0.5938  3.0289
 6410SOL     OW30862   4.180   3.079   5.652  0.7214  0.2519 -0.0307
 6410SOL    HW130863   4.217   3.106   5.736 -0.8087  0.8549  0.4470
 6410SOL    HW230864   4.185   2.984   5.654  2.5286  0.4039  1.4937
 6411SOL     OW30865   2.059   1.281  15.101  0.7007 -0.5402  0.0451
 6411SOL    HW130866   2.078   1.291  15.008  1.8092  0.3291  0.3626
 6411SOL    HW230867   2.051   1.367  15.142 -3.0752 -1.0604  0.4144
 6412SOL     OW30868   2.414   3.804   6.084 -0.2547  0.5119  0.0260
 6412SOL    HW130869   2.360   3.883   6.089 -0.7466  0.3096 -1.7171
 6412SOL    HW230870   2.374   3.756   6.156  3.2982  1.3453  2.5586
 6413SOL     OW30871   2.846   1.406  10.977  0.5458  0.4175  0.3666
 6413SOL    HW130872   2.780   1.351  11.018 -0.9195  1.1851 -0.9737
 6413SOL    HW230873   2.857   1.363  10.892 -2.3397  0.1126  0.1435
 6414SOL     OW30874   4.502   0.426  12.774 -0.1415  0.0777 -0.0889
 6414SOL    HW130875   4.469   0.426  12.864  1.6731  3.4014  0.5307
 6414SOL    HW230876   4.579   0.478  12.795  1.0269 -1.2980 -0.9854
 6415SOL     OW30877   3.897   3.251  15.617 -0.1333 -0.2002  0.2011
 6415SOL    HW130878   3.909   3.287  15.529 -0.6692  0.8840  0.5784
 6415SOL    HW230879   3.962   3.180  15.625 -0.8589 -1.1180 -2.1267
 6416SOL     OW30880   0.294   3.694   7.583  0.2892  0.3987 -0.1711
 6416SOL    HW130881   0.346   3.769   7.553  0.5381  1.3573  2.6380
 6416SOL    HW230882   0.278   3.649   7.501 -1.4425  0.0379  0.3549
 6417SOL     OW30883   1.540   4.407  13.372  0.1522 -0.3416  0.4643
 6417SOL    HW130884   1.516   4.495  13.344 -0.5765 -0.4111  0.8589
 6417SOL    HW230885   1.633   4.399  13.350  0.6786 -2.2081  3.2927
 6418SOL     OW30886   0.861   2.117   1.866 -0.3875  0.0446 -0.0476
 6418SOL    HW130887   0.776   2.093   1.905  0.5581 -1.2340  1.2423
 6418SOL    HW230888   0.854   2.102   1.772  0.5388  1.0923 -0.2817
 6419SOL     OW30889   1.374   0.245   6.926  0.8356 -0.0330 -0.4910
 6419SOL    HW130890   1.393   0.152   6.918  0.7152  0.1052 -2.5116
 6419SOL    HW230891   1.461   0.283   6.916  0.6293  0.6970  0.5099
 6420SOL     OW30892   1.359   1.271   7.085  0.0773 -0.1045 -0.6731
 6420SOL    HW130893   1.432   1.277   7.146 -1.9133  0.7246  1.6194
 6420SOL    HW230894   1.357   1.179   7.059  0.7150 -0.3393  0.0954
 6421SOL     OW30895   4.190   3.896   2.153  0.4264 -0.0820  0.1468
 6421SOL    HW130896   4.195   3.893   2.248  0.4630  2.3817  0.2099
 6421SOL    HW230897   4.251   3.828   2.121 -0.5840 -0.3615 -1.1910
 6422SOL     OW30898   3.323   2.500   6.901  0.1571 -1.3392 -0.3109
 6422SOL    HW130899   3.408   2.539   6.885 -1.3989  1.2302 -2.2435
 6422SOL    HW230900   3.338   2.477   6.993  2.0446 -1.0061 -0.5473
 6423SOL     OW30901   2.962   4.336   2.612  0.0267 -0.2875  0.9908
 6423SOL    HW130902   2.894   4.269   2.604  0.0164 -0.0187 -1.1057
 6423SOL    HW230903   3.031   4.278   2.642  0.2972 -0.8002 -0.6123
 6424SOL     OW30904   0.395   3.722   5.624  0.1678 -0.1621  0.1878
 6424SOL    HW130905   0.478   3.674   5.627  0.3787  0.1819 -0.2212
 6424SOL    HW230906   0.368   3.699   5.536  2.7266  1.9555 -1.1801
 6425SOL     OW30907   2.578   0.053  12.466 -0.8504 -0.1911 -0.3197
 6425SOL    HW130908   2.619   0.134  12.436 -1.2974  0.4738  0.8691
 6425SOL    HW230909   2.655   0.008  12.501 -0.1938 -0.5070 -2.1957
 6426SOL     OW30910   3.862   2.337   6.859  0.1936  0.3786 -0.5340
 6426SOL    HW130911   3.803   2.349   6.933  0.1899  3.6106 -1.0631
 6426SOL    HW230912   3.944   2.327   6.907  0.1563 -3.7591 -1.3457
 6427SOL     OW30913   1.884   0.118   3.767  0.0181  0.4984 -0.4533
 6427SOL    HW130914   1.895   0.121   3.862 -0.1144 -0.7434 -0.3895
 6427SOL    HW230915   1.792   0.091   3.759  0.3257 -0.8317  0.5267
 6428SOL     OW30916   4.506   2.587   3.399 -0.1569  0.0032  0.0142
 6428SOL    HW130917   4.546   2.576   3.313 -1.5787  1.0954 -0.7960
 6428SOL    HW230918   4.519   2.503   3.442 -0.2078  0.5970  1.1923
 6429SOL     OW30919   1.064   4.234  13.779  0.2499 -0.1325  0.3784
 6429SOL    HW130920   0.972   4.249  13.799  0.5512  0.4614  1.2587
 6429SOL    HW230921   1.071   4.145  13.743  0.2177 -0.2834  0.7485
 6430SOL     OW30922   2.866   1.244   7.632 -0.4861 -0.1281 -0.5194
 6430SOL    HW130923   2.915   1.167   7.602  0.5307  0.7695 -1.1755
 6430SOL    HW230924   2.822   1.265   7.549 -1.8368  1.2962  0.5529
 6431SOL     OW30925   2.087   2.903  17.101 -0.4002 -0.1585  0.1368
 6431SOL    HW130926   2.084   2.815  17.062  1.5348 -0.5041  0.7713
 6431SOL    HW230927   2.125   2.961  17.036 -0.2634 -1.1648 -0.6864
 6432SOL     OW30928   2.503   2.854   2.239  0.1959 -0.0766  0.0876
 6432SOL    HW130929   2.473   2.943   2.260  0.0682 -0.4175  1.3214
 6432SOL    HW230930   2.592   2.871   2.270 -0.0551  3.5797 -1.1875
 6433SOL     OW30931   1.390   4.050   4.494 -0.1254  0.4510 -0.5771
 6433SOL    HW130932   1.408   4.017   4.582  0.6993  0.1097 -0.8708
 6433SOL    HW230933   1.317   4.111   4.509 -0.9072 -0.5937 -0.1473
 6434SOL     OW30934   0.871   3.623   1.235  0.0779 -0.2408  0.2991
 6434SOL    HW130935   0.820   3.664   1.305 -2.4900 -2.6506 -0.1365
 6434SOL    HW230936   0.895   3.546   1.287 -1.8982 -2.0050 -1.4080
 6435SOL     OW30937   1.572   0.745   7.825 -0.5847 -0.1889  0.2883
 6435SOL    HW130938   1.568   0.693   7.905  1.9594 -0.5023  0.1985
 6435SOL    HW230939   1.650   0.709   7.784  0.3561  0.0214  1.8882
 6436SOL     OW30940   1.853   3.142   3.236 -0.0185 -0.2434  0.1759
 6436SOL    HW130941   1.773   3.193   3.221  0.2218  0.2277  0.5076
 6436SOL    HW230942   1.823   3.083   3.305 -1.9807  1.3736  0.7029
 6437SOL     OW30943   2.568   4.186   6.668 -0.1224 -0.2931 -0.7418
 6437SOL    HW130944   2.526   4.271   6.685  0.0749 -0.0834 -1.3081
 6437SOL    HW230945   2.530   4.150   6.748  3.5585 -1.0891  0.6508
 6438SOL     OW30946   1.799   0.103   8.824  0.0652  0.3422 -0.0963
 6438SOL    HW130947   1.713   0.102   8.866 -0.5702  0.9155 -1.3866
 6438SOL    HW230948   1.783   0.075   8.734  0.7471  1.1124 -0.4563
 6439SOL     OW30949   2.350   1.627   7.671  0.3351 -0.3048  0.1511
 6439SOL    HW130950   2.330   1.644   7.579 -1.0510  0.8545  0.6831
 6439SOL    HW230951   2.278   1.670   7.716  0.8309 -0.9813  1.5977
 6440SOL     OW30952   4.440   1.791  16.478 -0.1259 -0.6710  0.4410
 6440SOL    HW130953   4.375   1.811  16.411 -0.7239  1.4319  1.6381
 6440SOL    HW230954   4.459   1.880  16.508  1.0836 -0.7560 -0.0553
 6441SOL     OW30955   2.506   4.150  14.791  0.0049  0.6659  0.5345
 6441SOL    HW130956   2.511   4.228  14.735  0.7114  2.0787  2.5514
 6441SOL    HW230957   2.488   4.078  14.731  1.7677 -2.2477  3.5036
 6442SOL     OW30958   0.913   4.183  14.699  0.4620  0.4974 -0.5023
 6442SOL    HW130959   0.943   4.270  14.672  1.7514 -0.1666 -1.1578
 6442SOL    HW230960   0.921   4.147  14.610 -3.3696 -0.9797 -0.2468
 6443SOL     OW30961   4.476   0.589  17.277 -0.9789  0.0765 -0.0702
 6443SOL    HW130962   4.421   0.523  17.235  1.6307 -0.8798 -2.0267
 6443SOL    HW230963   4.453   0.668  17.227 -2.0914  0.2789  0.7660
 6444SOL     OW30964   3.421   4.615   1.278  0.2191  0.5860  0.0032
 6444SOL    HW130965   3.368   4.693   1.295 -0.6511 -0.4001  1.8203
 6444SOL    HW230966   3.431   4.572   1.362  2.3268  1.2985  0.1290
 6445SOL     OW30967   2.706   2.017  12.482 -1.3907 -0.3939 -0.0861
 6445SOL    HW130968   2.784   1.997  12.430  1.1635  0.3392  3.4922
 6445SOL    HW230969   2.673   1.929  12.502  1.0232 -1.6643 -1.6115
 6446SOL     OW30970   3.761   0.294  16.812 -0.4078 -0.6029  0.0477
 6446SOL    HW130971   3.724   0.206  16.821 -0.5951 -0.4619  0.6252
 6446SOL    HW230972   3.847   0.286  16.854  0.8747  1.2782 -2.2358
 6447SOL     OW30973   1.009   0.294   9.511 -0.2247 -0.2399  0.9061
 6447SOL    HW130974   0.977   0.384   9.504 -1.8121 -0.8722  0.0508
 6447SOL    HW230975   0.928   0.257   9.545 -1.1380  0.5126 -0.4862
 6448SOL     OW30976   3.314   0.042   4.705 -0.0829 -0.0900 -0.3543
 6448SOL    HW130977   3.307   0.137   4.698  0.9147  0.0212  0.1648
 6448SOL    HW230978   3.221   0.021   4.698 -0.0114 -0.9883  1.3025
 6449SOL     OW30979   4.199   0.981   3.076  0.0758  0.3013  0.3184
 6449SOL    HW130980   4.160   1.053   3.026 -1.2173  1.3621  2.8207
 6449SOL    HW230981   4.119   0.960   3.124  0.6580  1.4986  1.8219
 6450SOL     OW30982   2.043   4.499   1.468  0.3376 -0.3163  0.2212
 6450SOL    HW130983   1.966   4.469   1.419  1.8690 -3.4793 -0.2388
 6450SOL    HW230984   2.118   4.495   1.408  0.0403  3.4189 -0.4030
 6451SOL     OW30985   0.120   0.530   7.374  0.0229  0.0805 -0.0302
 6451SOL    HW130986   0.063   0.599   7.409  0.2582  0.1512  0.2161
 6451SOL    HW230987   0.194   0.575   7.415  0.3797 -1.6077  1.1877
 6452SOL     OW30988   1.029   0.276   3.677 -0.2199  0.9499  0.2264
 6452SOL    HW130989   0.950   0.222   3.691  1.0081 -0.9611 -0.1630
 6452SOL    HW230990   0.998   0.360   3.644 -4.3061 -1.5835 -2.3861
 6453SOL     OW30991   2.004   1.984   7.339 -0.0173 -0.5632  0.0856
 6453SOL    HW130992   1.999   2.080   7.334 -0.5455 -0.5614  0.6521
 6453SOL    HW230993   1.933   1.969   7.401 -0.4305  0.1308 -0.2248
 6454SOL     OW30994   2.462   1.732   4.804 -0.3369  0.0252  0.4336
 6454SOL    HW130995   2.484   1.778   4.722  3.2998  0.6559  1.7631
 6454SOL    HW230996   2.499   1.647   4.781  0.6972  0.9918 -1.4816
 6455SOL     OW30997   4.016   1.309  17.707 -0.5884  0.4503  0.2370
 6455SOL    HW130998   4.024   1.346  17.619  0.3234  1.8451  0.9155
 6455SOL    HW230999   4.101   1.338  17.741 -0.1053 -2.3363  1.4348
 6456SOL     OW31000   4.712   1.749   6.320 -0.0118 -0.0865  0.0660
 6456SOL    HW131001   4.685   1.658   6.318  1.0753 -0.3875 -0.9100
 6456SOL    HW231002   4.706   1.775   6.413 -1.7399 -0.4044  0.0274
 6457SOL     OW31003   3.742   3.017  17.640 -0.5833  0.1734 -0.6924
 6457SOL    HW131004   3.690   3.056  17.568  0.7236 -0.8527 -2.1907
 6457SOL    HW231005   3.704   2.929  17.642  0.6243 -0.2692  1.8813
 6458SOL     OW31006   0.623   3.526   7.740 -0.7503  0.7686  0.2555
 6458SOL    HW131007   0.530   3.550   7.740 -0.5518  1.5347  1.1074
 6458SOL    HW231008   0.622   3.430   7.744  0.0259  0.7244 -0.7070
 6459SOL     OW31009   4.159   0.071  10.051 -0.4904  0.2406 -0.2542
 6459SOL    HW131010   4.068   0.063  10.023 -0.5521 -2.1981  0.6267
 6459SOL    HW231011   4.195   4.725  10.019  1.5079  1.5191 -1.2916
 6460SOL     OW31012   1.595   3.773   8.942  0.0646 -0.2079 -0.1277
 6460SOL    HW131013   1.554   3.690   8.967 -1.3352  0.3545 -0.5549
 6460SOL    HW231014   1.676   3.743   8.899  0.3074  2.4210 -1.5035
 6461SOL     OW31015   1.623   1.747  17.199  0.6247  0.0467  0.0641
 6461SOL    HW131016   1.572   1.681  17.152  1.8686 -0.0455 -1.1442
 6461SOL    HW231017   1.665   1.799  17.131 -0.1028  1.2849  0.5765
 6462SOL     OW31018   1.510   3.931   1.944 -0.6801  0.4510  0.3346
 6462SOL    HW131019   1.537   4.014   1.905  1.7779 -1.2362 -1.5950
 6462SOL    HW231020   1.529   3.863   1.879  0.4860 -0.5137  1.6726
 6463SOL     OW31021   1.262   1.043  15.572  0.1874 -0.1401  0.4653
 6463SOL    HW131022   1.349   1.021  15.605  0.4221  1.5015  0.9372
 6463SOL    HW231023   1.272   1.138  15.562 -0.0872 -0.4090 -2.3219
 6464SOL     OW31024   4.710   0.204   6.827  0.3434  0.0055 -0.2267
 6464SOL    HW131025   4.630   0.157   6.802 -0.7930  2.2418 -0.7216
 6464SOL    HW231026   0.035   0.170   6.762  1.5713 -1.3040  1.5957
 6465SOL     OW31027   3.038   2.755   3.702  0.0258 -0.2200  0.1452
 6465SOL    HW131028   3.103   2.812   3.661 -0.5564 -0.9192 -1.7743
 6465SOL    HW231029   3.040   2.675   3.648 -1.1260 -2.2039  3.0418
 6466SOL     OW31030   2.083   3.745   9.225  0.0307 -0.1416 -0.0029
 6466SOL    HW131031   2.125   3.688   9.289  0.1915  3.6806  3.2619
 6466SOL    HW231032   2.126   3.826   9.250 -0.0093 -0.8231  2.2414
 6467SOL     OW31033   2.512   4.163   4.800 -0.3662  0.1727 -0.0674
 6467SOL    HW131034   2.576   4.151   4.869 -0.0268 -0.0609 -0.4236
 6467SOL    HW231035   2.439   4.197   4.851  0.8172 -1.0393  2.4163
 6468SOL     OW31036   0.545   3.247   5.541 -0.4145 -0.9782 -0.5361
 6468SOL    HW131037   0.571   3.158   5.563  0.2952 -0.1075  2.0909
 6468SOL    HW231038   0.587   3.264   5.456  0.2510 -3.0265 -0.6256
 6469SOL     OW31039   1.870   1.196  12.279  0.3711  0.1603  0.3639
 6469SOL    HW131040   1.841   1.246  12.203 -1.8875 -1.0510  0.4201
 6469SOL    HW231041   1.965   1.209  12.278  0.4949 -0.8910 -1.0087
 6470SOL     OW31042   0.614   4.168  10.834 -0.2652  0.0859 -0.0402
 6470SOL    HW131043   0.597   4.151  10.926 -0.0228 -0.1069 -0.0347
 6470SOL    HW231044   0.546   4.230  10.807  0.7541  1.5082  0.6832
 6471SOL     OW31045   1.051   1.026   2.786 -0.2267  0.1580  0.8035
 6471SOL    HW131046   1.033   0.956   2.848  0.1770 -2.1685 -1.7003
 6471SOL    HW231047   1.139   1.042   2.822 -0.2807  2.2309  0.0020
 6472SOL     OW31048   3.190   0.572   8.449  0.2125 -0.0601 -0.4362
 6472SOL    HW131049   3.181   0.665   8.426 -1.3472  0.0078  0.4516
 6472SOL    HW231050   3.124   0.537   8.388 -0.4658 -2.1235  1.4969
 6473SOL     OW31051   3.174   4.620   5.110 -0.3969  0.2582  0.4195
 6473SOL    HW131052   3.263   4.646   5.133  0.2662 -1.2650 -0.4262
 6473SOL    HW231053   3.183   4.572   5.027  1.2445  1.6463 -0.2284
 6474SOL     OW31054   4.014   2.009   2.265  0.7673 -0.3791  0.1704
 6474SOL    HW131055   3.957   1.956   2.209 -1.1228  0.3408  1.4220
 6474SOL    HW231056   4.036   1.944   2.331 -1.5020 -1.9945 -0.6718
 6475SOL     OW31057   1.536   2.805   4.935  0.0293 -0.0474  0.8430
 6475SOL    HW131058   1.611   2.816   4.876  1.2357  0.8158  2.5375
 6475SOL    HW231059   1.464   2.797   4.872  0.3145  0.4519  0.4494
 6476SOL     OW31060   3.703   2.755  13.838 -0.1931  0.4260 -0.4533
 6476SOL    HW131061   3.705   2.702  13.918 -3.5287  2.2673  0.8419
 6476SOL    HW231062   3.610   2.771  13.823 -0.7815 -1.2121  1.4454
 6477SOL     OW31063   3.231   3.364  16.715  0.2244 -0.3040 -0.1370
 6477SOL    HW131064   3.152   3.393  16.669  0.5026  0.9699  0.1873
 6477SOL    HW231065   3.261   3.454  16.728  0.5341 -0.6573  1.5852
 6478SOL     OW31066   2.938   4.587   2.710  0.3081  0.0948  0.0088
 6478SOL    HW131067   2.963   4.512   2.656  1.6188  0.3544  0.2411
 6478SOL    HW231068   2.899   4.544   2.786  1.0079  0.2139  0.4448
 6479SOL     OW31069   4.671   3.546  12.041  0.2072  0.1225  0.1674
 6479SOL    HW131070   4.695   3.453  12.047  1.8884  0.5977  0.9459
 6479SOL    HW231071   0.015   3.585  12.078 -0.2916 -0.2960  1.6850
 6480SOL     OW31072   3.366   2.579   7.171  0.3611  0.6434 -0.0784
 6480SOL    HW131073   3.434   2.645   7.156  1.5788 -0.8451 -1.1798
 6480SOL    HW231074   3.414   2.516   7.226  1.3176  0.8656 -0.6507
 6481SOL     OW31075   0.765   3.665  13.156  0.6172  0.0085  0.0099
 6481SOL    HW131076   0.688   3.638  13.207  0.0942  2.1093  0.3282
 6481SOL    HW231077   0.745   3.756  13.133 -0.9366 -0.4625 -0.5737
 6482SOL     OW31078   3.129   2.622   8.009  0.1928  0.1486  0.1756
 6482SOL    HW131079   3.041   2.601   8.042  0.1063  0.7157  0.2986
 6482SOL    HW231080   3.110   2.644   7.918  1.9865 -0.1428 -0.2658
 6483SOL     OW31081   3.561   3.413   8.694 -0.7278 -0.0624 -0.0513
 6483SOL    HW131082   3.517   3.338   8.655  2.6929 -2.1234  0.0063
 6483SOL    HW231083   3.644   3.402   8.647  0.4133 -1.2871  2.2596
 6484SOL     OW31084   0.498   1.902   5.078 -0.0018 -0.1677  0.2110
 6484SOL    HW131085   0.567   1.968   5.079 -1.0241  0.9215 -0.4501
 6484SOL    HW231086   0.478   1.886   5.171  0.1795  0.7347  0.4069
 6485SOL     OW31087   0.172   0.856   0.109  0.0503  0.3264  0.3535
 6485SOL    HW131088   0.232   0.930   0.106  1.1173 -0.5583 -0.5708
 6485SOL    HW231089   0.108   0.897   0.167  0.2079 -0.8119  1.3276
 6486SOL     OW31090   2.449   2.424  12.350  0.3136 -0.0665 -0.0689
 6486SOL    HW131091   2.505   2.392  12.279  1.4261 -0.1416  0.8488
 6486SOL    HW231092   2.363   2.434  12.309  0.9580  0.6246 -1.2743
 6487SOL     OW31093   3.697   0.148   7.551  0.3455  0.1825  0.0289
 6487SOL    HW131094   3.714   0.157   7.457  1.8708 -0.2022  0.2639
 6487SOL    HW231095   3.721   0.056   7.569  0.5700  0.3996  0.8598
 6488SOL     OW31096   2.830   4.234   6.514 -0.5421  0.7850  0.7668
 6488SOL    HW131097   2.754   4.232   6.572 -2.9619  0.3407 -2.4141
 6488SOL    HW231098   2.886   4.166   6.550 -0.9029  0.1375  0.1052
 6489SOL     OW31099   4.500   4.309   3.259 -0.1090  0.4682  0.3142
 6489SOL    HW131100   4.452   4.315   3.342  1.2140 -0.4214  1.1465
 6489SOL    HW231101   4.468   4.387   3.214 -0.1057 -0.1298 -0.7154
 6490SOL     OW31102   1.464   4.600   2.081 -0.2764  0.1222 -0.1776
 6490SOL    HW131103   1.423   4.674   2.036 -1.9661 -0.6569  0.0790
 6490SOL    HW231104   1.553   4.633   2.093 -0.3057 -0.2403  1.0633
 6491SOL     OW31105   1.953   0.851   5.005  0.7639 -0.4245  0.0733
 6491SOL    HW131106   1.869   0.893   4.986  0.0825 -0.6175  2.6565
 6491SOL    HW231107   1.961   0.875   5.098  0.2585  0.5948 -0.1463
 6492SOL     OW31108   4.413   0.322   5.490 -0.5234 -0.2788 -0.0730
 6492SOL    HW131109   4.480   0.262   5.523  0.7069 -0.4112 -2.8645
 6492SOL    HW231110   4.445   0.407   5.520 -0.8936  0.0125 -0.5064
 6493SOL     OW31111   3.507   0.746   2.015 -0.3429  0.1098 -0.0497
 6493SOL    HW131112   3.478   0.658   1.990 -0.6704 -0.5750  2.7449
 6493SOL    HW231113   3.476   0.745   2.106  0.3568  0.8140  0.1919
 6494SOL     OW31114   0.030   1.283   5.468 -0.1874  0.0386 -0.3353
 6494SOL    HW131115   0.077   1.219   5.414  0.6165 -1.2039  1.8702
 6494SOL    HW231116   4.706   1.213   5.496 -0.0238 -0.3761 -1.0162
 6495SOL     OW31117   0.085   1.657   2.477  0.4804 -0.3945  0.0499
 6495SOL    HW131118   0.114   1.747   2.487  1.3171 -0.5560 -0.9089
 6495SOL    HW231119   0.155   1.616   2.426  0.2195 -0.5694 -0.1692
 6496SOL     OW31120   2.377   2.644   8.937 -0.1370 -0.7269  0.0987
 6496SOL    HW131121   2.310   2.582   8.967 -0.2547  0.5601  2.5516
 6496SOL    HW231122   2.323   2.719   8.910  0.9310 -0.1181 -0.3438
 6497SOL     OW31123   3.754   0.982   3.670  0.6809 -0.0549  0.1924
 6497SOL    HW131124   3.769   1.052   3.605  0.1833  2.3850  2.7309
 6497SOL    HW231125   3.685   0.933   3.624  0.2931  0.8432 -0.1917
 6498SOL     OW31126   1.565   4.678   3.287  0.0546 -0.2025  0.5927
 6498SOL    HW131127   1.610   0.017   3.248  0.3620 -1.0376 -0.6775
 6498SOL    HW231128   1.483   4.680   3.238 -0.6752  1.1676  1.8898
 6499SOL     OW31129   3.773   3.232   2.249  0.2447  0.7953  0.0439
 6499SOL    HW131130   3.715   3.205   2.321  1.1443 -0.1221  0.4195
 6499SOL    HW231131   3.766   3.327   2.250  0.6417  0.8191  0.7253
 6500SOL     OW31132   0.146   3.364   5.506  0.0963  0.0723  0.6820
 6500SOL    HW131133   0.090   3.430   5.548  1.8819  0.8530  1.8059
 6500SOL    HW231134   0.177   3.416   5.433 -0.0647 -1.1986 -0.2854
 6501SOL     OW31135   2.779   0.877   4.927  0.0548  0.2813 -0.0102
 6501SOL    HW131136   2.863   0.839   4.954 -0.4207  1.1210  2.6801
 6501SOL    HW231137   2.804   0.929   4.850  0.8944  0.3981  0.3357
 6502SOL     OW31138   0.535   2.151   8.155  0.7161 -0.5636  0.1085
 6502SOL    HW131139   0.485   2.233   8.161  0.6147 -0.6568  0.4868
 6502SOL    HW231140   0.479   2.089   8.201 -0.2319 -0.8337 -1.3822
 6503SOL     OW31141   4.350   2.596   7.002 -0.4482  0.2803 -0.1582
 6503SOL    HW131142   4.428   2.598   6.947  0.2467  0.1889  0.8336
 6503SOL    HW231143   4.300   2.661   6.953  2.0173  0.5398 -2.3036
 6504SOL     OW31144   2.354   2.206  14.404 -0.5563 -0.2281  0.2669
 6504SOL    HW131145   2.410   2.199  14.481  1.0368  2.7250 -0.6162
 6504SOL    HW231146   2.414   2.249  14.343 -2.6056  0.1741 -1.4410
 6505SOL     OW31147   4.178   1.221  17.308 -0.0224  0.1185 -0.1948
 6505SOL    HW131148   4.263   1.264  17.293 -0.2111  0.8391  0.8096
 6505SOL    HW231149   4.205   1.157  17.373 -0.5386 -0.6369 -0.7250
 6506SOL     OW31150   1.083   3.001   9.708  0.0986 -0.9422 -0.1236
 6506SOL    HW131151   1.047   3.054   9.780 -1.4086 -0.3198 -1.3454
 6506SOL    HW231152   1.016   2.935   9.692 -1.2374  0.5409 -0.7500
 6507SOL     OW31153   1.765   2.683   6.668 -0.1269 -0.1843  0.0619
 6507SOL    HW131154   1.773   2.778   6.680 -3.0979  0.3375 -2.0608
 6507SOL    HW231155   1.723   2.677   6.583 -0.1173  4.1034 -0.2455
 6508SOL     OW31156   4.699   1.686   3.269  0.3018  0.7610 -0.3798
 6508SOL    HW131157   0.020   1.646   3.335 -0.3418 -1.6892 -1.3146
 6508SOL    HW231158   4.633   1.621   3.245  1.7237 -0.8798  0.1773
 6509SOL     OW31159   2.634   2.697  17.274 -0.0024  0.5305  0.0547
 6509SOL    HW131160   2.630   2.701  17.179 -1.7282 -0.9836  0.0661
 6509SOL    HW231161   2.562   2.757  17.296  0.1596  0.9422 -0.5260
 6510SOL     OW31162   3.536   0.634   7.947  0.3548  0.3734  0.0695
 6510SOL    HW131163   3.483   0.687   8.006  1.1766 -0.1840  1.3126
 6510SOL    HW231164   3.572   0.567   8.005 -1.8581 -1.9164 -1.2071
 6511SOL     OW31165   0.859   3.588   3.388  0.1666 -0.0921  0.2783
 6511SOL    HW131166   0.886   3.644   3.315 -0.5419 -0.3982 -0.2128
 6511SOL    HW231167   0.768   3.614   3.403  0.4795  1.7103 -0.8422
 6512SOL     OW31168   0.469   2.890   4.298  0.2519  0.4415 -0.4053
 6512SOL    HW131169   0.420   2.826   4.246  0.1191 -1.3184  1.8711
 6512SOL    HW231170   0.487   2.965   4.242  2.4441 -1.1373 -1.8433
 6513SOL     OW31171   2.931   3.515   2.868 -0.4007  0.1741  0.5358
 6513SOL    HW131172   2.936   3.567   2.948 -2.1276  1.0666  0.0476
 6513SOL    HW231173   2.863   3.560   2.817  0.2034  1.8325  1.1673
 6514SOL     OW31174   3.409   2.227  12.600  0.1509 -0.2866  0.0436
 6514SOL    HW131175   3.419   2.237  12.505  0.6582  2.4618  0.3742
 6514SOL    HW231176   3.315   2.231  12.617 -0.0602  1.2869 -1.5103
 6515SOL     OW31177   2.842   0.440   5.944  0.2620  0.3938 -0.2231
 6515SOL    HW131178   2.755   0.443   5.985  0.8689  0.5376  1.0477
 6515SOL    HW231179   2.855   0.347   5.928 -0.6931  0.4170 -1.1277
 6516SOL     OW31180   1.728   1.346  14.984 -0.2820  0.1593  0.2208
 6516SOL    HW131181   1.795   1.397  15.029 -0.1058  0.6952 -0.6511
 6516SOL    HW231182   1.696   1.289  15.054 -1.9339 -0.0290 -0.6941
 6517SOL     OW31183   0.298   3.596   9.228  0.4570 -0.2137  0.3776
 6517SOL    HW131184   0.310   3.502   9.212  0.9843 -0.5815  2.9115
 6517SOL    HW231185   0.387   3.626   9.245  0.3055  0.6465 -0.4131
 6518SOL     OW31186   4.374   4.665   7.762  0.1390 -0.6636  0.5671
 6518SOL    HW131187   4.390   4.577   7.727  0.1997 -0.8077  0.9510
 6518SOL    HW231188   4.423   4.711   7.694  0.6433 -0.5936  0.9784
 6519SOL     OW31189   1.526   4.076  14.185  0.1393 -0.2457 -0.5215
 6519SOL    HW131190   1.568   4.083  14.271  0.2790 -0.6800 -0.5512
 6519SOL    HW231191   1.490   4.164  14.175  0.3094 -0.1901 -0.6614
 6520SOL     OW31192   3.912   4.309   5.583  0.0931 -0.0327 -0.0813
 6520SOL    HW131193   3.956   4.234   5.625 -0.0698  0.7226  1.4486
 6520SOL    HW231194   3.992   4.360   5.582 -0.4014  0.6511 -2.3000
 6521SOL     OW31195   1.410   3.056   6.227 -0.4782 -0.1393 -0.0790
 6521SOL    HW131196   1.434   3.146   6.251  0.1371 -0.7504  1.5362
 6521SOL    HW231197   1.481   3.035   6.166 -0.2988 -3.5438  1.3514
 6522SOL     OW31198   4.080   2.543   5.669 -0.0521  0.0712  0.6502
 6522SOL    HW131199   4.132   2.486   5.726  0.8283 -1.7849 -1.9911
 6522SOL    HW231200   3.990   2.514   5.683 -0.6349  2.5593  1.9787
 6523SOL     OW31201   1.329   1.292   3.741  0.4165 -0.4039 -0.2995
 6523SOL    HW131202   1.414   1.266   3.706 -0.7412  0.1065 -3.4949
 6523SOL    HW231203   1.333   1.382   3.709  1.8121 -0.5270 -0.4773
 6524SOL     OW31204   2.832   3.085  13.840  0.2380  0.1155  0.0474
 6524SOL    HW131205   2.778   3.006  13.843 -0.2067  0.4400  0.8377
 6524SOL    HW231206   2.820   3.118  13.751 -0.3152 -0.3428 -0.0426
 6525SOL     OW31207   0.539   3.386  10.235 -0.2087  0.2250 -0.0361
 6525SOL    HW131208   0.470   3.408  10.172 -1.6142  1.0739  1.7855
 6525SOL    HW231209   0.583   3.306  10.208 -0.2800  0.1222  0.1511
 6526SOL     OW31210   2.263   2.540   1.578 -0.5428 -0.2041  0.0892
 6526SOL    HW131211   2.174   2.574   1.590 -0.7837 -0.6157 -0.5567
 6526SOL    HW231212   2.313   2.598   1.636 -1.5275  1.0360 -0.3089
 6527SOL     OW31213   4.279   2.140   2.222 -0.6862  0.6123  0.0309
 6527SOL    HW131214   4.197   2.092   2.214  0.2753 -0.5957 -2.5442
 6527SOL    HW231215   4.343   2.070   2.239 -0.5416  1.5597  3.3713
 6528SOL     OW31216   0.132   3.805   1.466  0.1557 -0.1123  0.6423
 6528SOL    HW131217   0.071   3.831   1.535 -0.4846 -0.8341  0.3397
 6528SOL    HW231218   0.096   3.724   1.430 -0.3966  0.3353  0.1810
 6529SOL     OW31219   4.490   2.557   2.519 -0.6319  0.7214  0.6308
 6529SOL    HW131220   4.585   2.546   2.520 -0.9827 -2.4204 -1.2147
 6529SOL    HW231221   4.477   2.496   2.591 -1.2015 -1.8591 -1.6599
 6530SOL     OW31222   0.921   4.302   5.217  0.5272 -0.0870  0.2399
 6530SOL    HW131223   0.969   4.334   5.141  0.6554  0.8960  0.7438
 6530SOL    HW231224   0.991   4.252   5.258 -1.3330 -1.4121  1.8170
 6531SOL     OW31225   1.220   4.445   8.877 -0.1525  0.1916 -0.2800
 6531SOL    HW131226   1.301   4.402   8.850  1.5802  1.4861  2.7010
 6531SOL    HW231227   1.147   4.392   8.847  0.5818 -0.5136 -0.8275
 6532SOL     OW31228   4.402   3.739   5.987 -0.4696 -0.1190 -0.4153
 6532SOL    HW131229   4.414   3.764   5.895  3.6177 -2.3344 -0.4948
 6532SOL    HW231230   4.403   3.824   6.029 -2.5368  0.1084 -0.8167
 6533SOL     OW31231   3.819   2.441  12.818 -0.5148 -0.3179  0.0028
 6533SOL    HW131232   3.762   2.492  12.875 -0.6906 -0.0622 -0.3990
 6533SOL    HW231233   3.752   2.373  12.808 -0.7122 -0.2669  1.0125
 6534SOL     OW31234   2.529   2.700  16.468 -0.1615  0.4798  0.1652
 6534SOL    HW131235   2.477   2.641  16.414 -1.2668  2.6969 -1.1625
 6534SOL    HW231236   2.621   2.680  16.448 -0.6812 -0.7807 -0.9790
 6535SOL     OW31237   1.622   2.641   9.373 -0.2787 -0.6316  0.1208
 6535SOL    HW131238   1.701   2.623   9.425  0.3282  1.6850 -0.0285
 6535SOL    HW231239   1.618   2.581   9.298  3.8999  1.7512 -1.9785
 6536SOL     OW31240   1.787   1.281   3.580  0.2662 -0.3937 -0.5140
 6536SOL    HW131241   1.707   1.255   3.535 -2.3342 -0.9428  4.3415
 6536SOL    HW231242   1.777   1.257   3.673  1.4600  0.5399 -0.1468
 6537SOL     OW31243   0.418   0.637  14.943 -0.5429 -0.1382 -0.1418
 6537SOL    HW131244   0.414   0.717  14.891  2.7501  0.2272  0.1953
 6537SOL    HW231245   0.352   0.587  14.895 -0.7646 -1.6233  1.7209
 6538SOL     OW31246   4.012   3.361  10.538 -0.1299  0.1924  0.2337
 6538SOL    HW131247   3.993   3.300  10.609  0.3497  0.7558  0.8479
 6538SOL    HW231248   4.078   3.424  10.567  1.8106 -1.3731 -0.8244
 6539SOL     OW31249   4.036   4.506   4.921  0.1848 -0.3398  0.0549
 6539SOL    HW131250   3.947   4.505   4.955  1.2311 -0.0182  2.7839
 6539SOL    HW231251   4.069   4.417   4.933  0.0439 -0.2453  1.1884
 6540SOL     OW31252   2.777   0.299   8.804  0.2725  0.1988 -0.0576
 6540SOL    HW131253   2.710   0.337   8.748 -0.1117  0.2226  0.4225
 6540SOL    HW231254   2.849   0.286   8.743  1.1636 -2.8423  1.6235
 6541SOL     OW31255   1.084   2.964   1.920 -0.5400  0.0865  0.4868
 6541SOL    HW131256   1.106   2.900   1.852 -0.0567 -1.0256  1.6814
 6541SOL    HW231257   1.124   2.921   1.995 -0.1956 -1.4826 -0.5917
 6542SOL     OW31258   4.338   2.729   4.982 -0.1651  0.1797  0.3773
 6542SOL    HW131259   4.344   2.802   4.920  0.8118 -1.0671 -0.9735
 6542SOL    HW231260   4.285   2.769   5.051  0.1040  0.5124  0.3919
 6543SOL     OW31261   2.822   2.677   2.912 -0.0111  0.6489 -0.0043
 6543SOL    HW131262   2.871   2.641   2.837 -0.1141  0.2757  0.1053
 6543SOL    HW231263   2.743   2.625   2.897  0.0824 -0.2187  2.4680
 6544SOL     OW31264   3.620   3.930   7.402 -0.2099  0.3158 -0.8042
 6544SOL    HW131265   3.682   3.904   7.334  1.2079  0.5441  0.3839
 6544SOL    HW231266   3.618   3.851   7.455  2.2622  1.2818  0.7246
 6545SOL     OW31267   4.379   3.988   6.141  0.0264  0.3068  0.1749
 6545SOL    HW131268   4.316   4.015   6.208 -1.9522 -0.0723 -1.5364
 6545SOL    HW231269   4.465   3.987   6.184 -1.0624  1.2328  2.3681
 6546SOL     OW31270   2.380   4.414   7.056 -0.0838 -0.2413 -0.3372
 6546SOL    HW131271   2.391   4.443   7.146 -2.2923  1.5047 -0.6567
 6546SOL    HW231272   2.471   4.395   7.031 -0.6792 -1.0045 -1.9586
 6547SOL     OW31273   1.478   1.302   6.684 -0.0378  0.1195  0.7076
 6547SOL    HW131274   1.506   1.275   6.772 -1.2949  2.0229  1.6884
 6547SOL    HW231275   1.384   1.310   6.700 -0.1159  2.0094 -0.7941
 6548SOL     OW31276   2.345   1.103   2.139 -0.1270 -0.0469  0.1892
 6548SOL    HW131277   2.360   1.197   2.130  1.2570 -0.3771 -1.0866
 6548SOL    HW231278   2.329   1.090   2.045 -0.8760 -1.1327  0.4722
 6549SOL     OW31279   2.743   2.817   6.677  0.4508 -0.2870 -0.1969
 6549SOL    HW131280   2.804   2.759   6.723  0.1047  1.3104  2.2663
 6549SOL    HW231281   2.665   2.762   6.673  1.6566 -1.8227 -2.6850
 6550SOL     OW31282   2.892   0.199  16.243  0.1577  0.4201 -0.0849
 6550SOL    HW131283   2.853   0.124  16.288  3.3224 -0.9802  0.3166
 6550SOL    HW231284   2.815   0.224  16.191 -0.9359 -0.9126  0.9055
 6551SOL     OW31285   0.083   0.066   0.725  0.0434  0.4400  0.4024
 6551SOL    HW131286   0.121   0.036   0.643 -0.4739 -1.2681  0.7687
 6551SOL    HW231287   0.085   4.713   0.761  0.6346  1.2213  2.2875
 6552SOL     OW31288   1.437   4.537  15.665  0.3247  0.1028  0.3398
 6552SOL    HW131289   1.409   4.538  15.757 -0.4186  1.4207  0.0994
 6552SOL    HW231290   1.355   4.567  15.626  0.6329  2.4698  1.5199
 6553SOL     OW31291   0.591   1.775   8.904 -0.0758  0.9560  0.1679
 6553SOL    HW131292   0.613   1.833   8.831  1.4585  1.1033  0.7437
 6553SOL    HW231293   0.497   1.763   8.893 -0.1283  1.6324 -0.1303
 6554SOL     OW31294   0.837   3.785   0.594  0.5818 -0.1348  0.1839
 6554SOL    HW131295   0.866   3.822   0.510 -0.5340  1.9022  0.7014
 6554SOL    HW231296   0.913   3.733   0.620  1.5556  2.6460  2.8540
 6555SOL     OW31297   4.468   2.939   7.257  0.5149 -0.2635  0.9240
 6555SOL    HW131298   4.449   2.851   7.288  0.4150 -1.1444 -1.7235
 6555SOL    HW231299   4.424   2.996   7.321  1.0048 -0.3566  1.3486
 6556SOL     OW31300   1.368   2.088   1.474 -0.4001 -0.4255 -0.1801
 6556SOL    HW131301   1.379   2.065   1.566 -2.0857 -3.5189 -0.7315
 6556SOL    HW231302   1.276   2.066   1.459 -0.7871  0.0056  1.5697
 6557SOL     OW31303   2.233   0.631  11.429  0.1519  1.0659 -0.0538
 6557SOL    HW131304   2.153   0.621  11.377 -2.8618  0.9315  4.5551
 6557SOL    HW231305   2.190   0.658  11.510  0.0045 -1.0437  0.5816
 6558SOL     OW31306   4.048   0.489  12.436 -0.2975 -0.2678 -0.5731
 6558SOL    HW131307   3.986   0.425  12.472 -1.5098  1.3415  0.1847
 6558SOL    HW231308   4.110   0.502  12.508 -3.1982 -0.1985  1.9308
 6559SOL     OW31309   2.220   4.246  11.152  0.0335 -0.2696 -0.7885
 6559SOL    HW131310   2.160   4.175  11.177 -0.5724  0.3552 -0.4514
 6559SOL    HW231311   2.169   4.326  11.164  1.0691  0.6427 -2.4141
 6560SOL     OW31312   0.899   3.550   9.478 -0.1847  0.6977  0.0999
 6560SOL    HW131313   0.890   3.515   9.390  1.8877 -0.1462  0.2208
 6560SOL    HW231314   0.965   3.616   9.458  1.1858 -0.3114  1.3180
 6561SOL     OW31315   4.187   2.237   3.469 -0.2545  0.3394 -0.5560
 6561SOL    HW131316   4.201   2.251   3.375  0.4185 -2.0119 -0.8062
 6561SOL    HW231317   4.091   2.237   3.475 -0.2917  0.8724 -1.0436
 6562SOL     OW31318   0.381   4.438   0.004 -0.6291  0.4715 -0.1677
 6562SOL    HW131319   0.437   4.363   0.024  1.1761  2.6845  3.1795
 6562SOL    HW231320   0.445   4.501  17.712 -1.8469  1.0149 -1.4268
 6563SOL     OW31321   4.311   1.342   3.490  0.2768  0.2826  0.3803
 6563SOL    HW131322   4.231   1.363   3.441  0.9826 -0.6310 -1.1740
 6563SOL    HW231323   4.344   1.273   3.432  1.3267  0.6040  0.5934
 6564SOL     OW31324   2.690   1.042   3.518  0.4002  0.3478 -0.2520
 6564SOL    HW131325   2.655   1.127   3.544  1.6457  0.7533  0.0801
 6564SOL    HW231326   2.606   1.005   3.489 -2.2942  3.5521  3.4403
 6565SOL     OW31327   1.072   1.870   6.806 -0.5063  0.1042 -0.4161
 6565SOL    HW131328   0.976   1.869   6.805 -0.5131 -1.2229  1.1192
 6565SOL    HW231329   1.082   1.957   6.768  2.3420  0.8636  2.0141
 6566SOL     OW31330   4.031   2.158   4.478 -0.1094  0.1382  0.2880
 6566SOL    HW131331   4.112   2.173   4.526  0.3628 -0.9409 -0.1643
 6566SOL    HW231332   3.993   2.246   4.483 -5.4949 -2.0394 -1.7426
 6567SOL     OW31333   2.130   3.108   4.496 -0.2164 -0.3830 -0.1980
 6567SOL    HW131334   2.122   3.159   4.576  1.2725  0.8022 -0.7939
 6567SOL    HW231335   2.150   3.171   4.426  1.5369 -0.6416  0.0604
 6568SOL     OW31336   0.007   0.210   4.757 -0.3610 -0.2237 -0.4536
 6568SOL    HW131337   0.055   0.293   4.760  0.4384 -0.6845 -0.3925
 6568SOL    HW231338   0.062   0.159   4.698 -0.5941 -2.1418  1.0091
 6569SOL     OW31339   2.334   4.497   3.105 -0.7062  0.1286 -0.0900
 6569SOL    HW131340   2.354   4.469   3.016  0.4884  2.1301 -0.4250
 6569SOL    HW231341   2.279   4.428   3.142  1.8895 -1.2547  1.1709
 6570SOL     OW31342   3.019   2.815   3.072 -0.7543 -0.2333 -0.1937
 6570SOL    HW131343   2.976   2.764   3.003 -0.5118 -1.2257  0.3954
 6570SOL    HW231344   2.944   2.838   3.128 -1.3898 -0.4137 -0.9738
 6571SOL     OW31345   1.462   2.665  14.297  0.1222 -0.1062 -0.1737
 6571SOL    HW131346   1.470   2.696  14.207  0.0861 -0.4665 -0.3002
 6571SOL    HW231347   1.471   2.755  14.328  1.3045  0.4473 -2.1186
 6572SOL     OW31348   2.913   0.584  17.347  0.4049  0.2739  0.0868
 6572SOL    HW131349   2.894   0.613  17.258 -0.0712  0.7983  0.3608
 6572SOL    HW231350   2.932   0.490  17.344 -2.7509 -0.3718  0.0585
 6573SOL     OW31351   4.357   2.244   6.291 -0.6495  0.5355  0.0720
 6573SOL    HW131352   4.432   2.196   6.253 -0.7844 -0.2999  0.8642
 6573SOL    HW231353   4.409   2.297   6.350 -0.5835  0.5334  0.0168
 6574SOL     OW31354   3.568   2.297   2.998 -0.3918  0.2775 -0.4547
 6574SOL    HW131355   3.621   2.328   2.924  3.1633  2.3909  2.9452
 6574SOL    HW231356   3.481   2.284   2.962 -0.8179  1.2875  0.2012
 6575SOL     OW31357   2.616   0.499   3.027 -0.3894  0.5194  0.2469
 6575SOL    HW131358   2.531   0.510   3.070 -0.9576 -0.7722 -0.5616
 6575SOL    HW231359   2.620   0.405   3.010  0.7639  0.9405 -1.7432
 6576SOL     OW31360   2.814   1.996   0.022  0.1003 -0.0689  0.4818
 6576SOL    HW131361   2.907   2.019   0.023  0.1799 -0.4640  1.4671
 6576SOL    HW231362   2.816   1.945  17.683  0.9786 -1.2534  1.2546
 6577SOL     OW31363   1.466   2.870   5.513  0.1947 -0.4704 -0.2459
 6577SOL    HW131364   1.545   2.858   5.565 -0.5191 -0.8111  0.7619
 6577SOL    HW231365   1.501   2.925   5.442 -1.3211  1.4813  0.5124
 6578SOL     OW31366   1.006   0.693   9.111  0.1086 -0.4006 -0.0478
 6578SOL    HW131367   0.942   0.639   9.065 -0.5563 -0.2049  0.6408
 6578SOL    HW231368   0.989   0.781   9.079 -1.6936 -0.0311  1.8986
 6579SOL     OW31369   2.442   2.830   9.680 -0.4054 -0.0496 -0.3812
 6579SOL    HW131370   2.479   2.795   9.761 -0.2969 -0.1030 -0.4535
 6579SOL    HW231371   2.501   2.797   9.611 -1.2032 -0.0940 -1.0382
 6580SOL     OW31372   0.140   3.821   3.847  0.0872 -0.3991 -0.0507
 6580SOL    HW131373   0.219   3.847   3.799 -0.0110 -0.6768 -0.3667
 6580SOL    HW231374   0.097   3.766   3.781 -0.7457 -0.9786  0.9650
 6581SOL     OW31375   0.678   0.590  17.694  0.2132  0.2801  0.2556
 6581SOL    HW131376   0.662   0.502  17.659  1.3912 -0.8452  2.5117
 6581SOL    HW231377   0.745   0.563   0.015  0.6111  0.1814 -0.2169
 6582SOL     OW31378   2.925   4.419   8.796 -0.1863  1.0362  0.4693
 6582SOL    HW131379   2.934   4.514   8.791 -0.8010  1.2318  2.8821
 6582SOL    HW231380   2.908   4.424   8.891 -0.2616  1.1890  0.4469
 6583SOL     OW31381   3.089   2.983   5.592  0.5545 -0.0355  0.1181
 6583SOL    HW131382   3.161   3.031   5.551 -1.3801  1.4910 -1.4752
 6583SOL    HW231383   3.108   2.986   5.686  2.4910 -0.6686 -0.2530
 6584SOL     OW31384   4.285   1.860  16.281 -0.3077  0.1669 -0.3693
 6584SOL    HW131385   4.270   1.947  16.245  0.7912  1.0052  1.2409
 6584SOL    HW231386   4.208   1.819  16.242  1.3159  0.1026 -3.5734
 6585SOL     OW31387   2.806   2.472  10.747  0.1378 -0.2758 -0.3121
 6585SOL    HW131388   2.827   2.513  10.831  0.4046 -2.2913  0.6090
 6585SOL    HW231389   2.712   2.481  10.732 -0.0048  2.0042  1.8109
 6586SOL     OW31390   2.362   2.316   5.398  0.2831  0.1481 -0.2589
 6586SOL    HW131391   2.380   2.222   5.404 -0.5445  0.1005  1.3642
 6586SOL    HW231392   2.381   2.348   5.486 -2.2681 -0.1258  0.3814
 6587SOL     OW31393   2.898   0.562   1.766 -0.0388  0.8524  0.3971
 6587SOL    HW131394   2.826   0.612   1.803 -0.3527 -0.0877  1.0636
 6587SOL    HW231395   2.850   0.528   1.691  0.7540  0.5703  0.0118
 6588SOL     OW31396   1.170   1.935   1.900  0.1774  0.3759  0.1841
 6588SOL    HW131397   1.160   2.017   1.948 -1.0243  1.9380 -2.7474
 6588SOL    HW231398   1.164   1.877   1.976  2.3294  0.1316  0.1608
 6589SOL     OW31399   0.773   1.400   2.549 -0.5233  0.5159  0.7209
 6589SOL    HW131400   0.751   1.362   2.465  1.7412  2.2484 -0.6704
 6589SOL    HW231401   0.735   1.487   2.560 -0.6397  0.2168  2.8546
 6590SOL     OW31402   1.441   4.265  15.697  0.5716 -0.3944 -0.1301
 6590SOL    HW131403   1.432   4.359  15.679  0.3767 -0.6091 -1.1436
 6590SOL    HW231404   1.534   4.249  15.678  0.4647 -1.5171  0.3415
 6591SOL     OW31405   1.930   4.065   7.074 -0.0940 -0.6485  0.2801
 6591SOL    HW131406   2.024   4.075   7.059 -0.3482 -0.8051 -1.4411
 6591SOL    HW231407   1.916   4.000   7.005  1.1585 -1.0972  0.4382
 6592SOL     OW31408   3.534   3.345  14.279 -0.1867 -0.5278 -0.8778
 6592SOL    HW131409   3.471   3.341  14.352  0.2627 -0.5848 -0.4921
 6592SOL    HW231410   3.553   3.438  14.267  1.5540 -0.9542 -1.3424
 6593SOL     OW31411   2.291   3.091   4.933  0.8802  0.3020 -0.3406
 6593SOL    HW131412   2.337   3.172   4.953  2.0822 -0.7199  0.9835
 6593SOL    HW231413   2.294   3.051   5.020  0.5810  2.5609  0.7091
 6594SOL     OW31414   1.275   1.110   3.171  0.3660  0.6328 -0.1850
 6594SOL    HW131415   1.353   1.070   3.131  1.0531  1.4536  0.3216
 6594SOL    HW231416   1.299   1.202   3.166 -1.7433  1.2558  1.5604
 6595SOL     OW31417   4.693   4.000   9.711  0.5464 -0.1777 -0.3047
 6595SOL    HW131418   4.620   4.007   9.650  1.0660  1.2350 -0.7814
 6595SOL    HW231419   4.654   3.994   9.798  0.2177  1.2630 -0.3481
 6596SOL     OW31420   4.031   2.379   7.847  0.1943 -0.0340 -0.0964
 6596SOL    HW131421   4.000   2.308   7.903  0.4949 -1.0906 -1.2709
 6596SOL    HW231422   4.039   2.455   7.903 -2.7298 -0.1727  0.5175
 6597SOL     OW31423   0.451   1.329  16.989 -0.7622  0.2213  0.1054
 6597SOL    HW131424   0.403   1.254  16.955  0.5554 -0.7942  0.4510
 6597SOL    HW231425   0.521   1.337  16.924  0.8941 -0.6748  1.7529
 6598SOL     OW31426   0.989   0.571   9.787  0.2440 -0.2635  0.8112
 6598SOL    HW131427   0.901   0.597   9.760  0.5515 -1.2401 -1.1501
 6598SOL    HW231428   1.037   0.575   9.704  2.4158 -0.5327  2.0468
 6599SOL     OW31429   0.107   0.621   1.062  0.0762  0.1647 -0.1671
 6599SOL    HW131430   0.028   0.669   1.087  0.4053 -0.2244  1.5918
 6599SOL    HW231431   0.136   0.671   0.985 -0.5084 -1.8833 -1.7142
 6600SOL     OW31432   4.239   3.737   3.959 -0.6704  0.2260  0.0426
 6600SOL    HW131433   4.226   3.700   4.046 -2.3992  2.6150  0.8269
 6600SOL    HW231434   4.154   3.713   3.922 -0.3239 -1.7913  0.5552
 6601SOL     OW31435   0.369   4.326  10.825 -0.0081 -0.0003 -0.3408
 6601SOL    HW131436   0.275   4.305  10.826 -0.6581  2.9243  0.5073
 6601SOL    HW231437   0.354   4.409  10.779 -0.9304  1.3611  2.4432
 6602SOL     OW31438   1.559   4.528   4.137  0.1236 -0.3739  0.0823
 6602SOL    HW131439   1.590   4.597   4.196 -0.1982  0.6582 -0.9414
 6602SOL    HW231440   1.475   4.569   4.117  0.2376  0.2664  0.9399
 6603SOL     OW31441   3.230   1.544  17.249  0.5648  0.0869 -0.1549
 6603SOL    HW131442   3.291   1.559  17.176  0.0872 -0.9320 -0.7680
 6603SOL    HW231443   3.143   1.556  17.212 -0.1491  1.4095  1.9466
 6604SOL     OW31444   0.501   2.501   5.683 -0.3002  0.1695 -0.6623
 6604SOL    HW131445   0.487   2.407   5.687 -1.5425  0.3684 -0.4806
 6604SOL    HW231446   0.584   2.505   5.636 -0.2850 -1.7559 -0.7987
 6605SOL     OW31447   4.389   1.367   6.869 -0.1774 -0.0725 -0.0232
 6605SOL    HW131448   4.307   1.372   6.917 -1.1915  0.0098 -1.7871
 6605SOL    HW231449   4.366   1.298   6.807 -0.4804 -1.2657  1.4040
 6606SOL     OW31450   1.552   2.026  12.179 -0.8718 -0.4753 -0.0875
 6606SOL    HW131451   1.607   2.104  12.185 -2.7201  0.8241  0.1574
 6606SOL    HW231452   1.472   2.067  12.145 -1.5697 -0.5566  1.4335
 6607SOL     OW31453   4.604   2.149   3.070  0.3920  0.0671  0.1780
 6607SOL    HW131454   4.630   2.057   3.068 -0.4352 -0.1625 -0.2528
 6607SOL    HW231455   4.518   2.150   3.112  1.3660 -0.3680  2.1633
 6608SOL     OW31456   1.128   1.753  14.714  0.0195  0.7121  0.5591
 6608SOL    HW131457   1.195   1.819  14.699 -0.2021  0.8735  0.2891
 6608SOL    HW231458   1.090   1.738  14.628  0.5137  2.9565 -0.0380
 6609SOL     OW31459   0.750   3.051   8.514 -0.3602  0.0031 -0.2798
 6609SOL    HW131460   0.742   3.053   8.419  0.9296 -0.3908 -0.3962
 6609SOL    HW231461   0.727   2.959   8.529  2.1359  0.0621  3.8783
 6610SOL     OW31462   2.681   3.915   6.707 -0.0015 -0.2229 -0.5059
 6610SOL    HW131463   2.596   3.891   6.671 -0.7756  0.0535  1.1157
 6610SOL    HW231464   2.663   4.007   6.721  1.7387 -0.5416  3.7967
 6611SOL     OW31465   1.009   1.531  14.115  0.0243 -0.0942  0.6019
 6611SOL    HW131466   1.062   1.477  14.174 -0.3082 -1.5495 -0.4316
 6611SOL    HW231467   1.037   1.622  14.122  1.7812 -0.3387 -3.5541
 6612SOL     OW31468   0.290   1.130   7.748 -0.1455 -0.2723  0.0775
 6612SOL    HW131469   0.354   1.089   7.690 -0.2109 -1.1267  0.6226
 6612SOL    HW231470   0.300   1.225   7.738 -0.0830 -0.4319 -1.4989
 6613SOL     OW31471   2.118   1.533  15.150 -0.4182  0.9023  0.0259
 6613SOL    HW131472   2.164   1.582  15.219  2.9075 -1.7406 -0.3271
 6613SOL    HW231473   2.196   1.511  15.099  1.4497  2.4736  2.2315
 6614SOL     OW31474   1.190   4.108   8.709 -0.1358  0.6331 -0.3736
 6614SOL    HW131475   1.283   4.109   8.684  0.1097  2.0530  0.5790
 6614SOL    HW231476   1.194   4.088   8.803  2.7344 -2.0270 -1.0831
 6615SOL     OW31477   0.701   0.319   9.327  1.0962  0.2925  0.3808
 6615SOL    HW131478   0.701   0.223   9.326  0.4649  0.3212 -3.0065
 6615SOL    HW231479   0.688   0.327   9.233 -2.8698 -4.2455  0.5856
 6616SOL     OW31480   2.469   0.236   9.135  0.4359 -0.4238  0.3039
 6616SOL    HW131481   2.403   0.228   9.066 -0.7303  0.6390  1.2696
 6616SOL    HW231482   2.488   0.329   9.145 -0.8567 -0.3489  2.2016
 6617SOL     OW31483   1.829   4.403   4.357  0.3708 -0.1504  0.2265
 6617SOL    HW131484   1.743   4.393   4.397  0.8447  0.1739  1.3106
 6617SOL    HW231485   1.872   4.323   4.387 -0.3204 -0.1987  1.0970
 6618SOL     OW31486   2.755   0.062   0.341 -0.0797  0.3556 -0.1728
 6618SOL    HW131487   2.731   0.009   0.418  0.3525 -1.2104 -1.1104
 6618SOL    HW231488   2.668   0.060   0.300 -0.7625 -0.8509  1.3141
 6619SOL     OW31489   2.023   0.160   6.230 -0.0213  0.5054 -0.1360
 6619SOL    HW131490   2.099   0.118   6.189  1.6609  1.6665  1.7751
 6619SOL    HW231491   2.068   0.231   6.276 -0.3610  0.0513  0.9042
 6620SOL     OW31492   1.806   0.438   0.340  0.3587 -0.0998  0.3771
 6620SOL    HW131493   1.743   0.486   0.394 -1.3466  0.6916 -2.2740
 6620SOL    HW231494   1.857   0.401   0.411 -0.1006 -0.3608  0.5758
 6621SOL     OW31495   4.471   3.259   9.756 -0.6284  0.5564 -0.0552
 6621SOL    HW131496   4.417   3.181   9.745  0.3343 -0.0400 -0.5101
 6621SOL    HW231497   4.562   3.233   9.769 -1.7386 -2.7195  1.2089
 6622SOL     OW31498   3.844   1.368   2.629 -0.1566 -0.0697  0.0847
 6622SOL    HW131499   3.871   1.360   2.720 -1.8087 -0.0794  0.5675
 6622SOL    HW231500   3.931   1.367   2.589  0.5038 -0.0509  1.5466
 6623SOL     OW31501   4.397   0.470   3.408 -0.1128 -0.0831 -0.2612
 6623SOL    HW131502   4.394   0.562   3.438 -0.3346 -0.5066  1.0304
 6623SOL    HW231503   4.322   0.462   3.349 -2.1067  0.5635  2.1719
 6624SOL     OW31504   4.309   0.295  10.153  0.1388  0.1631 -0.2586
 6624SOL    HW131505   4.321   0.277  10.246 -0.6464  0.0551 -0.1771
 6624SOL    HW231506   4.247   0.230  10.121  1.1598 -0.3966 -1.0931
 6625SOL     OW31507   1.533   1.908   4.659  0.2424  0.4188 -0.2926
 6625SOL    HW131508   1.537   1.888   4.565 -0.3289 -0.6671 -0.0832
 6625SOL    HW231509   1.626   1.915   4.682  0.3005 -1.3700  0.0096
 6626SOL     OW31510   2.668   2.119  12.747  0.4165  1.2819  0.0838
 6626SOL    HW131511   2.699   2.081  12.665 -1.4575  0.6892 -0.3454
 6626SOL    HW231512   2.631   2.204  12.724 -0.3560  0.4089 -1.8946
 6627SOL     OW31513   1.340   4.648  13.089 -0.2673 -0.0052  0.3601
 6627SOL    HW131514   1.379   4.650  13.176  0.5679  1.1655 -0.0445
 6627SOL    HW231515   1.411   4.677  13.032 -0.9482  1.6932  0.3514
 6628SOL     OW31516   0.308   2.330  11.099  0.3118 -0.1805 -0.4817
 6628SOL    HW131517   0.332   2.242  11.072 -2.8876 -0.8256 -1.2706
 6628SOL    HW231518   0.222   2.335  11.056 -0.3525  0.7036  0.9286
 6629SOL     OW31519   4.714   2.369   0.053 -0.2415 -0.4198 -0.4441
 6629SOL    HW131520   4.674   2.423  17.726  0.3094 -0.9687 -1.1973
 6629SOL    HW231521   4.648   2.352   0.120  0.9532 -1.4518  0.4580
 6630SOL     OW31522   0.108   3.057  13.963  0.1489  0.4846 -0.2955
 6630SOL    HW131523   0.159   2.984  13.999 -0.2455  1.8604  3.0248
 6630SOL    HW231524   0.087   3.103  14.044  1.5482 -1.9636  1.4650
 6631SOL     OW31525   1.502   0.113  12.480 -0.4382 -0.2382 -0.7804
 6631SOL    HW131526   1.497   0.203  12.448  1.2032  0.9405  2.2867
 6631SOL    HW231527   1.415   0.088  12.511 -0.9394 -0.0362 -2.0264
 6632SOL     OW31528   2.820   3.267   2.662 -0.1350 -0.1357  0.2606
 6632SOL    HW131529   2.858   3.345   2.703 -1.7574  0.0327  1.4188
 6632SOL    HW231530   2.831   3.288   2.569  1.7836  0.4811  0.6063
 6633SOL     OW31531   1.605   4.587   6.692  0.2330 -0.4646  0.0540
 6633SOL    HW131532   1.534   4.634   6.736  2.4399  0.3092  2.7514
 6633SOL    HW231533   1.576   4.495   6.690 -0.9111 -0.1006 -0.0283
 6634SOL     OW31534   1.517   0.577  17.685  0.1475 -0.0598 -0.0298
 6634SOL    HW131535   1.559   0.599   0.026  0.9244 -1.0842 -0.1528
 6634SOL    HW231536   1.528   0.482  17.680 -1.5732 -0.2859  0.7246
 6635SOL     OW31537   1.951   1.579  16.547  0.2139 -0.1644 -0.4678
 6635SOL    HW131538   1.958   1.666  16.509  0.3075  0.2559  0.5038
 6635SOL    HW231539   1.859   1.576  16.573  0.7405  0.1432  1.4124
 6636SOL     OW31540   0.508   3.294   7.218  0.1010 -0.6034  0.0513
 6636SOL    HW131541   0.559   3.359   7.169 -0.2506  1.0979  1.8894
 6636SOL    HW231542   0.419   3.295   7.184  0.6196 -0.9222 -1.2943
 6637SOL     OW31543   4.059   1.156   2.373 -0.1353  0.1096  0.2935
 6637SOL    HW131544   3.964   1.156   2.388 -0.1595  3.1671  0.0932
 6637SOL    HW231545   4.071   1.251   2.372  0.6376  0.0341  1.9109
 6638SOL     OW31546   0.347   0.956   8.636 -0.0826  0.0687  0.3892
 6638SOL    HW131547   0.420   0.901   8.608  1.2880  1.5367  0.9998
 6638SOL    HW231548   0.296   0.885   8.674  1.5099 -0.4562  1.5701
 6639SOL     OW31549   3.275   0.042   2.009 -0.5783  0.2922 -0.5565
 6639SOL    HW131550   3.250   0.117   2.062 -0.1892 -0.4192  0.6126
 6639SOL    HW231551   3.196   0.031   1.955 -1.4219 -2.1179  1.1744
 6640SOL     OW31552   1.138   1.737   2.987  0.2246  0.1873 -0.1752
 6640SOL    HW131553   1.066   1.697   2.937  0.6609  0.7095 -1.2238
 6640SOL    HW231554   1.119   1.830   2.978 -0.4448  0.1888  1.3346
 6641SOL     OW31555   1.507   1.990   6.388 -0.5853 -0.4771  0.3201
 6641SOL    HW131556   1.478   1.945   6.467  0.3763 -2.7446 -0.6214
 6641SOL    HW231557   1.601   1.968   6.385 -0.7720 -1.1315 -0.8179
 6642SOL     OW31558   3.847   3.627  10.056  0.3567 -0.5454  0.4398
 6642SOL    HW131559   3.925   3.678  10.076 -1.0242  1.5034  0.5965
 6642SOL    HW231560   3.848   3.629   9.960 -1.0269  0.5651  0.4472
 6643SOL     OW31561   0.206   4.047   3.299 -0.4049 -0.0964 -0.4098
 6643SOL    HW131562   0.226   4.004   3.216  0.4305  0.4508 -0.4939
 6643SOL    HW231563   0.164   4.128   3.268  0.2988 -0.8596 -3.3477
 6644SOL     OW31564   2.872   0.949   3.324  0.6948  0.1847 -0.0574
 6644SOL    HW131565   2.828   0.948   3.239 -0.6121 -0.4993  0.6376
 6644SOL    HW231566   2.800   0.976   3.381  1.7845 -0.2783  1.5093
 6645SOL     OW31567   1.630   0.191  10.517  0.2629  0.1524  0.2364
 6645SOL    HW131568   1.662   0.281  10.518 -3.2636  1.4429  0.1501
 6645SOL    HW231569   1.565   0.203  10.587 -0.4083  0.8162 -0.4914
 6646SOL     OW31570   1.619   1.569   3.208  0.4559 -0.4806 -0.1170
 6646SOL    HW131571   1.583   1.655   3.186 -0.6896 -0.9989 -0.2627
 6646SOL    HW231572   1.574   1.540   3.287  2.1089  1.1749  1.4425
 6647SOL     OW31573   4.194   0.950   6.827  0.4048  0.4507  0.1170
 6647SOL    HW131574   4.196   0.882   6.895 -0.3061 -0.5260 -0.8430
 6647SOL    HW231575   4.119   0.999   6.860  0.3338  1.0012 -0.8620
 6648SOL     OW31576   2.262   1.269   5.595 -0.1227 -0.1057  0.5629
 6648SOL    HW131577   2.351   1.237   5.611  0.3752  1.5476  1.1205
 6648SOL    HW231578   2.202   1.210   5.641 -1.6781  0.4091 -0.8114
 6649SOL     OW31579   3.752   3.656   2.566 -0.5001  0.2782  0.9422
 6649SOL    HW131580   3.675   3.711   2.583 -1.2251 -1.2859  2.6782
 6649SOL    HW231581   3.822   3.712   2.599 -1.3740  1.1946  1.2313
 6650SOL     OW31582   3.888   1.526  13.019 -0.5956  0.4539 -0.1594
 6650SOL    HW131583   3.881   1.492  13.108 -1.5811  0.0506 -0.3867
 6650SOL    HW231584   3.980   1.550  13.013 -0.5806  0.2573 -0.7837
 6651SOL     OW31585   4.275   1.104  17.537 -0.3442 -0.2224 -0.0667
 6651SOL    HW131586   4.186   1.075  17.558  0.3854 -1.9186  0.6647
 6651SOL    HW231587   4.297   1.140  17.623  0.2074 -1.0297  0.1221
 6652SOL     OW31588   4.011   4.581   7.618 -0.0202  0.9082 -0.2071
 6652SOL    HW131589   4.060   4.661   7.634  1.1623 -0.1059  1.2042
 6652SOL    HW231590   4.025   4.526   7.696 -3.0872  0.8170  0.2859
 6653SOL     OW31591   3.490   2.903   4.463  0.1916 -0.5642  0.2389
 6653SOL    HW131592   3.404   2.906   4.423 -0.8951  2.8631  2.8388
 6653SOL    HW231593   3.538   2.971   4.416  1.0039  0.6581  2.8162
 6654SOL     OW31594   4.006   0.791   7.315  0.2601 -0.6245 -1.3071
 6654SOL    HW131595   4.001   0.885   7.300 -0.6098 -0.0864  2.4826
 6654SOL    HW231596   3.932   0.771   7.258  0.2588  0.8193 -1.8135
 6655SOL     OW31597   2.747   2.374   5.024 -0.0511  0.5891 -0.2913
 6655SOL    HW131598   2.841   2.355   5.017 -0.2310  0.2892 -1.8897
 6655SOL    HW231599   2.704   2.289   5.009 -0.5761  0.9308 -0.7033
 6656SOL     OW31600   2.604   1.602  12.756  0.2314  0.0026 -0.1969
 6656SOL    HW131601   2.638   1.521  12.795  1.4422  0.3248 -0.5640
 6656SOL    HW231602   2.532   1.615  12.817  0.7463  2.3400 -0.0943
 6657SOL     OW31603   0.477   1.771   6.642 -0.1240 -0.1912  0.2443
 6657SOL    HW131604   0.527   1.706   6.692 -1.9479  0.1195  2.5034
 6657SOL    HW231605   0.391   1.731   6.631  0.7330 -1.6964 -0.9673
 6658SOL     OW31606   1.323   1.031   2.152  0.3515  0.2289  0.0942
 6658SOL    HW131607   1.249   1.086   2.178 -0.0356 -0.4842  0.5067
 6658SOL    HW231608   1.278   0.947   2.159 -1.2509  1.2726  2.4866
 6659SOL     OW31609   1.163   3.345   9.313  0.1302 -0.3632  0.3941
 6659SOL    HW131610   1.242   3.381   9.353 -1.1208  0.4989  2.1046
 6659SOL    HW231611   1.126   3.285   9.377  1.7298 -2.4568 -0.6345
 6660SOL     OW31612   2.025   4.629  17.524  0.5404  0.5832  0.3163
 6660SOL    HW131613   2.120   4.642  17.528  0.5386 -0.3104  3.3831
 6660SOL    HW231614   1.996   4.652  17.613 -0.2793 -0.3189  0.2780
 6661SOL     OW31615   0.554   3.807  13.862 -0.6659  0.5611 -1.0486
 6661SOL    HW131616   0.628   3.799  13.922 -0.1513 -0.7138 -1.8405
 6661SOL    HW231617   0.600   3.829  13.781  0.7695 -0.0827 -0.4104
 6662SOL     OW31618   3.350   3.609  16.685 -0.0529 -0.0212  0.0222
 6662SOL    HW131619   3.429   3.575  16.727 -1.4146 -1.7172  1.2077
 6662SOL    HW231620   3.325   3.680  16.745  0.7199  0.1163  0.1835
 6663SOL     OW31621   4.584   3.359   7.165  0.5494  0.0181 -0.0525
 6663SOL    HW131622   4.616   3.316   7.086 -2.5813 -0.2662 -1.1565
 6663SOL    HW231623   4.496   3.371   7.129  0.8767 -0.1430 -0.9135
 6664SOL     OW31624   0.916   4.582   1.227 -0.3152  1.0422  0.5228
 6664SOL    HW131625   0.983   4.614   1.288 -2.4359  0.6309  3.0797
 6664SOL    HW231626   0.869   4.526   1.288  0.4872  0.0790  0.2447
 6665SOL     OW31627   4.034   1.335   1.075  0.3203  0.2315  0.5054
 6665SOL    HW131628   3.989   1.369   0.998 -1.2052 -1.8407  0.4600
 6665SOL    HW231629   4.125   1.327   1.047  0.2201 -0.1770  0.2925
 6666SOL     OW31630   3.804   1.308   4.446 -0.6834 -0.5057  0.0291
 6666SOL    HW131631   3.862   1.375   4.409 -1.3972 -0.0204 -0.2104
 6666SOL    HW231632   3.776   1.270   4.363 -1.0293 -1.5581  0.6233
 6667SOL     OW31633   4.719   1.609   7.810  0.2794  0.0696 -0.2163
 6667SOL    HW131634   4.659   1.543   7.774 -1.7959  0.9960  1.5830
 6667SOL    HW231635   0.046   1.550   7.851  0.1239  0.7586  1.0145
 6668SOL     OW31636   4.193   3.395  15.806 -0.3416  0.3084 -0.5382
 6668SOL    HW131637   4.285   3.382  15.830 -0.0358  0.8819 -1.3900
 6668SOL    HW231638   4.205   3.374  15.713 -1.0463 -1.5178 -0.2177
 6669SOL     OW31639   0.433   1.979   7.869  0.1873 -0.1581 -0.3166
 6669SOL    HW131640   0.516   1.932   7.882  0.8575  0.4908 -2.2531
 6669SOL    HW231641   0.375   1.903   7.864 -1.0591  0.8344 -0.6558
 6670SOL     OW31642   2.574   2.979   5.658 -0.0728 -0.3374  0.3529
 6670SOL    HW131643   2.656   2.948   5.697  0.3083 -1.0308 -1.0075
 6670SOL    HW231644   2.558   3.053   5.716  0.8332 -0.9989  1.4438
 6671SOL     OW31645   3.897   2.891   9.107 -0.2515  0.2007  0.2626
 6671SOL    HW131646   3.920   2.814   9.159 -0.0937  1.3676  1.9216
 6671SOL    HW231647   3.867   2.949   9.177  0.2054 -1.5379  1.8909
 6672SOL     OW31648   0.493   4.152   7.887  0.0088 -0.1028  0.0812
 6672SOL    HW131649   0.521   4.192   7.805 -1.9002 -3.2323 -2.0953
 6672SOL    HW231650   0.561   4.194   7.940 -2.7842  0.3091  3.3080
 6673SOL     OW31651   2.624   3.594  12.600  0.0318 -0.0254 -0.5202
 6673SOL    HW131652   2.698   3.534  12.593  0.6219  0.3795  1.9765
 6673SOL    HW231653   2.664   3.681  12.609 -1.8271  0.6743  1.1516
 6674SOL     OW31654   4.243   4.050   9.245 -0.3164  0.6227 -0.2246
 6674SOL    HW131655   4.215   4.071   9.334  2.1020 -0.4769  0.7761
 6674SOL    HW231656   4.285   3.966   9.258 -0.0487  1.0073  1.3447
 6675SOL     OW31657   4.034   3.883   5.943  0.5211 -0.2606  0.3850
 6675SOL    HW131658   4.082   3.809   5.981 -1.9073 -0.5301  2.9063
 6675SOL    HW231659   3.958   3.850   5.895  0.9011  0.9984 -1.0886
 6676SOL     OW31660   2.609   3.749  16.495 -0.7043  0.1404 -0.7151
 6676SOL    HW131661   2.661   3.824  16.467 -3.0895  1.2614 -2.1728
 6676SOL    HW231662   2.561   3.784  16.570 -0.1733 -0.9830  0.1526
 6677SOL     OW31663   1.290   1.924  14.610  1.1746 -0.4030  0.0418
 6677SOL    HW131664   1.381   1.897  14.624  1.5433  0.6385 -0.3649
 6677SOL    HW231665   1.292   2.019  14.619 -0.4031 -0.4616  1.0812
 6678SOL     OW31666   3.911   4.557   7.259 -0.0145  0.1863 -0.3054
 6678SOL    HW131667   3.899   4.467   7.288  0.0875  0.1805 -0.2803
 6678SOL    HW231668   3.993   4.545   7.211  0.6835  0.2672  0.8702
 6679SOL     OW31669   3.317   2.553   8.198  0.1566  0.5074 -0.4705
 6679SOL    HW131670   3.260   2.593   8.132 -0.1115  1.4308  0.3335
 6679SOL    HW231671   3.390   2.521   8.144 -0.0114 -1.7506  0.6561
 6680SOL     OW31672   1.877   4.452   9.283  0.2753  0.0016 -0.6103
 6680SOL    HW131673   1.800   4.402   9.258  0.2679 -0.8872  1.1742
 6680SOL    HW231674   1.927   4.455   9.202 -2.5152 -0.2394 -2.3189
 6681SOL     OW31675   2.587   0.269  14.422 -0.0248  0.3347 -0.1362
 6681SOL    HW131676   2.600   0.348  14.370 -1.0497 -0.1921 -1.1855
 6681SOL    HW231677   2.638   0.207  14.369 -0.7942 -2.0320  1.8820
 6682SOL     OW31678   0.198   3.074   4.464 -0.3098  0.4237  0.4608
 6682SOL    HW131679   0.129   3.051   4.527 -0.7407 -0.2086 -0.2488
 6682SOL    HW231680   0.190   2.997   4.408  0.9454  0.0553  0.8023
 6683SOL     OW31681   4.139   3.387   8.720  0.2837  0.3039 -0.0286
 6683SOL    HW131682   4.149   3.392   8.815  1.0130 -1.4532 -0.0080
 6683SOL    HW231683   4.185   3.469   8.701  2.7764 -0.8836  0.8601
 6684SOL     OW31684   3.063   0.319   0.979  0.1417  0.1144 -0.7356
 6684SOL    HW131685   3.144   0.369   0.979  1.7611 -2.4865 -1.4356
 6684SOL    HW231686   3.046   0.287   0.891 -1.2246 -1.1906 -0.0103
 6685SOL     OW31687   2.295   4.309   8.648 -0.0648 -0.6381  0.1272
 6685SOL    HW131688   2.370   4.318   8.707  1.2400  0.4040 -1.6674
 6685SOL    HW231689   2.246   4.385   8.678 -0.0106 -0.1254 -1.0670
 6686SOL     OW31690   0.057   3.317   9.851  0.6277  0.6301  0.3671
 6686SOL    HW131691   0.058   3.221   9.859 -0.9186  0.8584  3.0857
 6686SOL    HW231692   0.040   3.347   9.940 -0.8710  3.5415 -0.8986
 6687SOL     OW31693   0.359   2.243   4.152  0.1112 -0.1788  0.5784
 6687SOL    HW131694   0.339   2.336   4.142  0.5711 -0.2173 -0.6410
 6687SOL    HW231695   0.265   2.224   4.155  0.5160 -2.4763 -1.4128
 6688SOL     OW31696   2.248   4.493  15.573  0.1489  1.0002 -0.0994
 6688SOL    HW131697   2.314   4.510  15.639  1.2459 -0.6087 -0.7633
 6688SOL    HW231698   2.210   4.574  15.539 -1.7922 -0.3674 -1.2277
 6689SOL     OW31699   0.855   0.475  16.185 -0.3026 -0.1517  0.2044
 6689SOL    HW131700   0.932   0.529  16.167  0.4804 -0.8105  1.5617
 6689SOL    HW231701   0.822   0.473  16.095 -3.0823  0.5004  1.2212
 6690SOL     OW31702   3.997   0.755  12.949  0.2614 -0.3084 -0.1104
 6690SOL    HW131703   3.958   0.835  12.914 -0.8719  0.0557  1.9720
 6690SOL    HW231704   4.091   0.766  12.936 -0.1535  1.0769 -2.0361
 6691SOL     OW31705   2.444   2.467   7.037  0.7949 -0.6478  0.3238
 6691SOL    HW131706   2.528   2.425   7.053  1.2104  0.7849  1.8560
 6691SOL    HW231707   2.424   2.538   7.098  2.4024 -0.4626  0.6227
 6692SOL     OW31708   3.030   2.058   7.800  0.0181 -0.6463  0.2458
 6692SOL    HW131709   3.028   2.051   7.896 -0.2063  0.8141  0.3439
 6692SOL    HW231710   2.940   2.050   7.767 -0.3392  1.4650  0.6776
 6693SOL     OW31711   2.222   1.110   9.102 -0.7805 -0.9864 -0.1745
 6693SOL    HW131712   2.281   1.098   9.028 -0.2985 -2.0923  0.4034
 6693SOL    HW231713   2.216   1.205   9.116 -0.1510 -1.2028  1.4810
 6694SOL     OW31714   3.013   2.863   2.234 -0.0862  0.0583  0.2155
 6694SOL    HW131715   3.030   2.781   2.188  0.4652 -1.0787  2.4491
 6694SOL    HW231716   3.068   2.928   2.190 -0.6480 -0.7153 -1.6183
 6695SOL     OW31717   3.381   0.682   8.199 -0.1648  0.3338  0.1641
 6695SOL    HW131718   3.336   0.608   8.158  1.5656 -1.3017  1.1879
 6695SOL    HW231719   3.425   0.650   8.278  1.0653  0.5138 -0.4395
 6696SOL     OW31720   0.240   3.244   2.516  0.6526  0.3977 -0.3736
 6696SOL    HW131721   0.264   3.160   2.556 -1.2315 -1.0804 -2.3345
 6696SOL    HW231722   0.303   3.237   2.445  1.0789  1.4823 -0.0987
 6697SOL     OW31723   2.096   2.108   6.248  0.1731 -0.5343  0.2802
 6697SOL    HW131724   2.141   2.192   6.260 -2.9044  1.3437 -1.3138
 6697SOL    HW231725   2.089   2.116   6.153  2.2382  1.5462  0.3029
 6698SOL     OW31726   1.516   2.804   3.362 -0.5803 -0.7291  0.0594
 6698SOL    HW131727   1.461   2.831   3.435 -0.6561  1.9875 -0.9705
 6698SOL    HW231728   1.458   2.809   3.286 -0.5045 -1.4268 -0.0465
 6699SOL     OW31729   4.151   1.392   4.542  0.0321 -0.1805  0.5288
 6699SOL    HW131730   4.122   1.376   4.453  1.3806  2.0112 -0.3060
 6699SOL    HW231731   4.097   1.331   4.592 -1.7092 -1.1790 -2.5516
 6700SOL     OW31732   3.644   1.822   8.357  0.5312 -0.7506  0.1434
 6700SOL    HW131733   3.585   1.747   8.363  0.3697 -0.7027 -0.7830
 6700SOL    HW231734   3.575   1.886   8.374  4.0871  2.8683  0.7927
 6701SOL     OW31735   1.493   3.302   1.347 -0.0404  0.0348 -0.2936
 6701SOL    HW131736   1.498   3.209   1.367  0.5432  0.3376  0.9512
 6701SOL    HW231737   1.535   3.340   1.424 -2.0980 -0.4675  1.0793
 6702SOL     OW31738   0.178   2.007   3.446 -0.3978 -0.1119  0.0519
 6702SOL    HW131739   0.197   1.951   3.371 -0.0653 -0.2332  0.2260
 6702SOL    HW231740   0.226   2.089   3.434  1.1030 -1.0656 -0.5047
 6703SOL     OW31741   4.474   1.538  10.067 -0.5032  0.4743  0.0388
 6703SOL    HW131742   4.566   1.539  10.094 -0.5809  1.7375  0.2438
 6703SOL    HW231743   4.455   1.629  10.089  2.5809  1.4715 -1.5017
 6704SOL     OW31744   3.476   1.432  17.454  0.3765  0.0976 -0.2940
 6704SOL    HW131745   3.560   1.396  17.425 -0.4287 -2.2730  0.3623
 6704SOL    HW231746   3.447   1.469  17.371  0.6966  1.9136  0.3990
 6705SOL     OW31747   3.683   0.135   5.778 -0.0992 -0.1618 -0.0125
 6705SOL    HW131748   3.776   0.129   5.757 -0.1969 -0.5701 -0.3233
 6705SOL    HW231749   3.658   0.042   5.774  2.1475 -0.6610 -2.3754
 6706SOL     OW31750   4.302   2.806   4.036  0.1275  0.1247 -0.7515
 6706SOL    HW131751   4.260   2.891   4.022 -0.2694  0.2728  1.3418
 6706SOL    HW231752   4.221   2.758   4.049  2.0832 -2.3471  2.3393
 6707SOL     OW31753   4.356   0.870  15.517  0.4417  0.2924  0.4552
 6707SOL    HW131754   4.375   0.948  15.464 -0.6528  0.0662 -0.2590
 6707SOL    HW231755   4.442   0.863  15.558 -1.0949 -0.8460  3.4652
 6708SOL     OW31756   4.076   1.913   4.946  0.4239 -0.2764  0.0600
 6708SOL    HW131757   4.041   1.883   4.862  2.9394 -1.3676 -0.5886
 6708SOL    HW231758   4.010   1.867   4.999  0.0635  0.9837  0.7021
 6709SOL     OW31759   1.977   4.403   2.749  0.2454  0.5806 -0.3120
 6709SOL    HW131760   1.947   4.332   2.805 -0.4036  0.1848 -1.1600
 6709SOL    HW231761   1.948   4.479   2.800  1.4440  0.6132  0.3048
 6710SOL     OW31762   3.657   2.790   3.839 -0.9341  0.0933 -0.1294
 6710SOL    HW131763   3.637   2.838   3.758 -1.3653 -0.0953 -0.1334
 6710SOL    HW231764   3.720   2.733   3.794 -1.2214 -0.7573  0.5575
 6711SOL     OW31765   4.555   4.704   5.456  0.1280  0.1497  0.0691
 6711SOL    HW131766   4.611   4.718   5.381 -0.6427  1.3565 -0.2970
 6711SOL    HW231767   4.591   0.027   5.523 -0.4873 -0.0142  0.5425
 6712SOL     OW31768   1.499   0.789   9.089  0.3697 -0.6558  0.5595
 6712SOL    HW131769   1.426   0.731   9.110 -1.2742  1.2540  0.1699
 6712SOL    HW231770   1.492   0.848   9.164  0.5689 -1.2866  1.0644
 6713SOL     OW31771   4.161   3.596  15.252  0.0383  0.6142  0.1274
 6713SOL    HW131772   4.228   3.578  15.319 -0.9439  0.1130  0.9804
 6713SOL    HW231773   4.202   3.568  15.171  0.5640  2.1686 -0.1380
 6714SOL     OW31774   0.834   0.048   9.088  0.2535 -0.4151  0.0539
 6714SOL    HW131775   0.811   0.120   9.029 -0.8691 -0.4221  0.4845
 6714SOL    HW231776   0.887   4.732   9.027 -0.2415 -0.8720  0.0144
 6715SOL     OW31777   3.488   1.442   6.011  0.5859  0.2436  0.5455
 6715SOL    HW131778   3.572   1.478   6.041  0.3557  0.8778  0.4260
 6715SOL    HW231779   3.496   1.365   6.067 -4.2656 -0.9681 -0.4551
 6716SOL     OW31780   2.300   0.773   2.416  0.4703 -0.6879  0.2799
 6716SOL    HW131781   2.341   0.740   2.496  1.8214  1.6771  0.5710
 6716SOL    HW231782   2.355   0.848   2.395 -1.2120  0.4203 -0.1887
 6717SOL     OW31783   1.346   0.603   3.133 -0.3620 -0.1355 -0.0660
 6717SOL    HW131784   1.437   0.607   3.162 -0.4627  0.5591  0.1445
 6717SOL    HW231785   1.301   0.536   3.186 -1.1285  1.4371  1.2662
 6718SOL     OW31786   1.472   1.504   6.512 -0.2218 -0.2110  0.0507
 6718SOL    HW131787   1.472   1.415   6.547 -1.4137  0.0942  0.8129
 6718SOL    HW231788   1.559   1.530   6.544 -0.9286  0.2775  1.5831
 6719SOL     OW31789   0.217   4.106   7.924 -0.0368 -0.0738 -0.2536
 6719SOL    HW131790   0.220   4.092   8.019  1.5415  3.6348  0.2386
 6719SOL    HW231791   0.303   4.137   7.897  1.2536 -2.2125  1.4142
 6720SOL     OW31792   1.789   1.672   7.501  0.4339  0.7046 -0.2005
 6720SOL    HW131793   1.725   1.685   7.430 -0.8711 -2.9061  0.2879
 6720SOL    HW231794   1.733   1.702   7.572  0.8147 -0.1829  0.4666
 6721SOL     OW31795   2.226   0.128   3.720 -0.1810  0.2861  0.1642
 6721SOL    HW131796   2.181   0.063   3.774 -1.0968  0.4348 -0.4216
 6721SOL    HW231797   2.184   0.113   3.636  0.9479 -1.4957 -0.0822
 6722SOL     OW31798   0.538   1.985   2.212  0.3114 -0.2119 -0.2662
 6722SOL    HW131799   0.474   2.048   2.179  0.0997  0.3264  1.1476
 6722SOL    HW231800   0.524   2.002   2.305  0.8568  2.2178 -0.6460
 6723SOL     OW31801   4.392   3.115   3.879 -0.1886  0.0330 -0.4975
 6723SOL    HW131802   4.401   3.210   3.871  2.0102 -0.3966 -3.0132
 6723SOL    HW231803   4.324   3.105   3.946  0.8577  2.4094  0.9151
 6724SOL     OW31804   3.226   4.566  12.886 -0.1659  0.0008 -0.0706
 6724SOL    HW131805   3.308   4.531  12.851  0.4255 -0.7021  2.0703
 6724SOL    HW231806   3.263   4.639  12.936 -0.0249 -1.4538  1.9213
 6725SOL     OW31807   0.238   3.434   2.751 -0.1572  0.4404 -0.1687
 6725SOL    HW131808   0.266   3.442   2.660  1.2007 -1.3663  0.0827
 6725SOL    HW231809   0.269   3.347   2.778  0.3168  0.9126  0.8128
 6726SOL     OW31810   3.696   1.091   1.772 -0.3779 -0.0525  0.5844
 6726SOL    HW131811   3.656   1.167   1.732 -0.1768 -1.4776 -2.3087
 6726SOL    HW231812   3.765   1.133   1.823  1.3662 -1.8454 -0.2723
 6727SOL     OW31813   2.325   3.531   4.014  0.3395 -0.2873  0.2012
 6727SOL    HW131814   2.245   3.526   3.961  2.0908 -1.4044 -2.2838
 6727SOL    HW231815   2.391   3.510   3.949  0.6148  1.3696 -0.0600
 6728SOL     OW31816   0.731   0.653   7.857  0.1538 -0.4385 -0.1660
 6728SOL    HW131817   0.682   0.645   7.775  0.7875  1.0192 -0.6765
 6728SOL    HW231818   0.819   0.629   7.828 -0.5692 -2.2430 -0.8938
 6729SOL     OW31819   0.746   1.206  12.565  0.1125 -0.0296  0.5790
 6729SOL    HW131820   0.839   1.205  12.590  0.0477 -1.0604  0.7437
 6729SOL    HW231821   0.757   1.152  12.487  3.2275  1.0416  0.2439
 6730SOL     OW31822   2.214   1.764  11.299 -0.3762 -0.1428 -0.6944
 6730SOL    HW131823   2.302   1.754  11.336 -1.0965 -2.7088  0.3318
 6730SOL    HW231824   2.165   1.763  11.381 -2.4310 -0.6946 -1.9370
 6731SOL     OW31825   1.854   1.408   4.025 -0.1314  0.7367  0.2189
 6731SOL    HW131826   1.853   1.328   4.077  0.7289 -0.0188 -0.9131
 6731SOL    HW231827   1.807   1.381   3.946  1.4884 -2.3249  0.2984
 6732SOL     OW31828   4.392   0.892   2.150  0.3989 -0.2542  0.2559
 6732SOL    HW131829   4.308   0.854   2.122  0.8822 -0.2161 -1.2274
 6732SOL    HW231830   4.450   0.816   2.151 -0.0285 -0.5934 -0.9347
 6733SOL     OW31831   1.537   4.173  10.028  0.6539  0.4647  0.0615
 6733SOL    HW131832   1.508   4.264  10.029  2.2528  0.9665  0.4573
 6733SOL    HW231833   1.470   4.135  10.085  0.8315 -0.6144 -0.4350
 6734SOL     OW31834   0.671   4.660   9.697 -0.7767  0.3205 -0.5385
 6734SOL    HW131835   0.582   4.689   9.676 -0.4399  2.1321  0.5128
 6734SOL    HW231836   0.697   4.730   9.758 -2.3699  0.2481  0.2240
 6735SOL     OW31837   3.142   3.290  16.010  0.2952  0.4080 -0.2130
 6735SOL    HW131838   3.072   3.240  15.967  2.0451 -2.9916  0.8788
 6735SOL    HW231839   3.104   3.377  16.005  0.9093  0.5490 -2.3831
 6736SOL     OW31840   4.680   0.142   7.115 -0.3201 -0.4127  0.4984
 6736SOL    HW131841   4.703   0.051   7.136 -0.9492 -0.1721  2.1988
 6736SOL    HW231842   4.698   0.145   7.021 -0.2549 -1.9775  0.4599
 6737SOL     OW31843   4.579   2.333   3.464  0.3165  0.2317 -0.2614
 6737SOL    HW131844   4.671   2.313   3.482 -1.1134 -4.5373  1.8692
 6737SOL    HW231845   4.541   2.248   3.486  1.7717  0.3431  2.6658
 6738SOL     OW31846   2.046   1.786   4.065  0.0345  0.5291 -0.3128
 6738SOL    HW131847   1.957   1.772   4.098  0.7141 -1.5013  0.6344
 6738SOL    HW231848   2.086   1.781   4.152  1.1064  3.8154 -0.6051
 6739SOL     OW31849   3.806   2.502   7.422 -0.2002 -0.2514 -0.2369
 6739SOL    HW131850   3.824   2.535   7.510  1.1131  0.2011 -0.6806
 6739SOL    HW231851   3.894   2.470   7.401 -0.4579 -0.5108 -0.9238
 6740SOL     OW31852   2.072   0.275   7.501  0.2098 -0.5178 -0.1731
 6740SOL    HW131853   2.027   0.359   7.497  0.5520 -0.2721  0.9631
 6740SOL    HW231854   2.161   0.297   7.472  0.1782 -0.1844 -0.0179
 6741SOL     OW31855   3.052   4.343  11.784  0.2989  0.0382 -0.0223
 6741SOL    HW131856   3.044   4.403  11.858 -1.3462  0.1911 -0.3327
 6741SOL    HW231857   3.049   4.402  11.708  0.5739  1.4269  1.0445
 6742SOL     OW31858   0.844   3.523  12.071 -0.2414  0.0140 -0.0374
 6742SOL    HW131859   0.819   3.527  12.163 -3.2411  0.9917 -0.9136
 6742SOL    HW231860   0.777   3.463  12.039 -0.5858  0.3587  0.0423
 6743SOL     OW31861   2.163   4.436  10.005  0.0688  0.2860 -0.0118
 6743SOL    HW131862   2.125   4.406  10.088  1.4346  2.1358  1.2964
 6743SOL    HW231863   2.206   4.514  10.041  1.4236 -0.3298 -0.3203
 6744SOL     OW31864   3.099   4.502   7.614  0.1182 -0.1225  0.0943
 6744SOL    HW131865   3.032   4.570   7.611 -0.0814 -0.3426 -0.3564
 6744SOL    HW231866   3.153   4.524   7.538  0.3181 -2.7916 -0.5166
 6745SOL     OW31867   3.849   0.389   3.446  0.3570  0.2170 -0.5934
 6745SOL    HW131868   3.755   0.383   3.458  0.5964 -0.2898  1.0016
 6745SOL    HW231869   3.871   0.304   3.410 -1.4210 -0.5074  0.0498
 6746SOL     OW31870   1.559   4.361   6.951 -0.3262  0.2384  0.5169
 6746SOL    HW131871   1.482   4.387   6.901 -0.1899 -1.2463 -0.4475
 6746SOL    HW231872   1.508   4.333   7.027  0.8235 -2.1531  0.3928
 6747SOL     OW31873   2.489   3.611   6.540 -0.2614 -0.1121 -0.1324
 6747SOL    HW131874   2.579   3.599   6.512 -0.3961 -0.1226 -0.5506
 6747SOL    HW231875   2.466   3.524   6.573  1.4628 -0.9738 -1.2126
 6748SOL     OW31876   0.360   1.139  12.485  0.0203 -0.3850 -0.3379
 6748SOL    HW131877   0.343   1.186  12.403  3.1176  0.4235 -0.5261
 6748SOL    HW231878   0.269   1.133  12.513  0.0313 -0.5389 -0.3300
 6749SOL     OW31879   1.605   3.159   4.399  0.5008 -0.2694  0.1123
 6749SOL    HW131880   1.638   3.069   4.403 -0.5225 -0.6861 -0.9808
 6749SOL    HW231881   1.528   3.150   4.454 -0.4639 -1.8281 -1.4741
 6750SOL     OW31882   3.396   4.551   4.413 -0.0794 -0.0872  0.0634
 6750SOL    HW131883   3.439   4.470   4.389 -0.6276 -0.0754 -0.9764
 6750SOL    HW231884   3.460   4.618   4.389  0.3956 -1.0342 -1.2811
 6751SOL     OW31885   1.071   2.000   3.017 -0.6763 -0.0038 -0.1953
 6751SOL    HW131886   1.080   2.016   3.111  2.0463 -2.7022  0.0114
 6751SOL    HW231887   1.053   2.088   2.983 -2.3733  0.2664  1.3645
 6752SOL     OW31888   2.607   0.508  12.565 -0.2482  0.2691 -0.1803
 6752SOL    HW131889   2.661   0.462  12.629  0.3668  0.4427 -0.5715
 6752SOL    HW231890   2.522   0.464  12.571  0.4458 -1.3544 -2.1804
 6753SOL     OW31891   2.136   2.173   7.059  0.4116  0.2558 -0.0833
 6753SOL    HW131892   2.088   2.227   7.121  0.1599  0.2863 -0.3064
 6753SOL    HW231893   2.084   2.092   7.058  0.3458  0.3044 -0.5470
 6754SOL     OW31894   0.287   2.094   2.195 -0.2809  0.1648  0.4609
 6754SOL    HW131895   0.320   2.075   2.107 -0.8105  0.4001  0.2085
 6754SOL    HW231896   0.304   2.188   2.204  0.8518  0.3370 -3.6068
 6755SOL     OW31897   0.629   0.703  10.416 -0.2042 -0.2729  0.2987
 6755SOL    HW131898   0.537   0.699  10.445 -0.7404 -0.8559 -1.5136
 6755SOL    HW231899   0.670   0.702  10.503  0.0294  0.9931  0.2026
 6756SOL     OW31900   3.419   2.895   7.788 -0.0833 -0.0388  0.5077
 6756SOL    HW131901   3.438   2.988   7.793 -1.1652  0.2537 -0.8655
 6756SOL    HW231902   3.324   2.906   7.790 -0.1556 -0.3792 -1.1484
 6757SOL     OW31903   3.475   3.052   2.167  0.2080  0.1236  0.1761
 6757SOL    HW131904   3.533   3.048   2.092 -0.4783  0.4313 -0.3666
 6757SOL    HW231905   3.504   2.981   2.224  0.2153  0.7390  0.9470
 6758SOL     OW31906   3.850   3.003   3.824 -0.1442  0.6344 -0.0668
 6758SOL    HW131907   3.806   2.919   3.835  0.4268  0.3011 -0.3011
 6758SOL    HW231908   3.928   2.977   3.774 -0.3841 -1.2020  0.5059
 6759SOL     OW31909   0.526   2.962   2.112  0.0676 -0.3591  0.8389
 6759SOL    HW131910   0.529   3.017   2.033 -2.5778 -1.0829  0.2313
 6759SOL    HW231911   0.594   2.899   2.090 -0.4009  0.3497 -2.6680
 6760SOL     OW31912   1.766   4.044   6.289 -0.0524 -0.2288  0.4100
 6760SOL    HW131913   1.825   4.076   6.357 -2.2631  0.1455  2.1754
 6760SOL    HW231914   1.774   3.950   6.302 -0.7668 -0.1183  1.6130
 6761SOL     OW31915   3.236   1.785  15.387  0.1407 -0.3286 -0.1932
 6761SOL    HW131916   3.172   1.715  15.374 -0.0777 -0.4559  1.5258
 6761SOL    HW231917   3.175   1.855  15.365 -1.7290 -1.5789  1.0766
 6762SOL     OW31918   0.191   3.289  13.206  0.1225  0.0752 -0.3440
 6762SOL    HW131919   0.264   3.321  13.260  0.8951 -2.7350  0.2881
 6762SOL    HW231920   0.119   3.304  13.267  0.0871  1.1018 -0.6414
 6763SOL     OW31921   1.851   3.665   9.127 -0.0866  0.0743 -0.2695
 6763SOL    HW131922   1.932   3.692   9.171  0.4815 -1.1542 -0.5617
 6763SOL    HW231923   1.789   3.668   9.200  1.6825  0.2504  1.2345
 6764SOL     OW31924   3.990   1.670   7.500  0.5304 -0.3540 -0.0768
 6764SOL    HW131925   3.896   1.656   7.511  0.8594 -1.4523  1.3303
 6764SOL    HW231926   4.011   1.706   7.586  1.9858  0.7231 -0.8786
 6765SOL     OW31927   2.177   3.512   5.453 -0.2398  0.3373  0.1730
 6765SOL    HW131928   2.088   3.548   5.445 -0.4377 -0.4547 -1.0215
 6765SOL    HW231929   2.172   3.478   5.543 -3.1082 -3.0986 -1.3034
 6766SOL     OW31930   1.816   0.698   8.277 -0.2032  0.0949 -0.3202
 6766SOL    HW131931   1.736   0.708   8.226 -1.4959  0.8130  1.8759
 6766SOL    HW231932   1.864   0.638   8.220 -1.5465 -0.1323 -1.1987
 6767SOL     OW31933   3.230   4.074   6.956 -0.2780  0.7042 -0.6423
 6767SOL    HW131934   3.284   4.131   7.011 -1.4076 -0.4232  1.6306
 6767SOL    HW231935   3.170   4.141   6.920 -0.8493 -0.2729 -1.5325
 6768SOL     OW31936   2.278   3.525   9.843 -0.0639 -0.4511 -0.3358
 6768SOL    HW131937   2.280   3.618   9.867  5.2031 -0.6580  0.0308
 6768SOL    HW231938   2.362   3.516   9.798  1.1834  0.5347  1.7575
 6769SOL     OW31939   0.579   4.563   8.711  0.2624 -0.5533  0.2342
 6769SOL    HW131940   0.665   4.540   8.675 -0.3673 -0.1154 -1.5866
 6769SOL    HW231941   0.586   4.657   8.696  0.4559 -0.6172 -0.0709
 6770SOL     OW31942   3.919   2.154  17.151  0.1420  0.6161  0.6459
 6770SOL    HW131943   3.927   2.208  17.073  1.3329 -2.2334 -1.2238
 6770SOL    HW231944   3.970   2.079  17.119 -1.6018  0.1097 -0.8745
 6771SOL     OW31945   2.297   0.805   5.149 -0.3608 -0.0464  0.0227
 6771SOL    HW131946   2.377   0.825   5.100 -0.0645  1.6675  1.2293
 6771SOL    HW231947   2.249   0.887   5.145 -0.3814 -0.0378  0.3941
 6772SOL     OW31948   0.147   4.050   4.480  1.0250  0.5854 -0.0533
 6772SOL    HW131949   0.094   3.984   4.435  0.8321 -0.0826  1.1609
 6772SOL    HW231950   0.232   4.028   4.442  1.4064 -0.7173  1.5720
 6773SOL     OW31951   0.821   1.418   9.381  0.1708  0.2606  0.4686
 6773SOL    HW131952   0.864   1.435   9.297 -1.3370 -1.1124 -0.5840
 6773SOL    HW231953   0.812   1.510   9.406 -2.5022  0.2241 -0.3525
 6774SOL     OW31954   3.306   1.497   4.813 -0.0108  0.3285 -0.3358
 6774SOL    HW131955   3.272   1.409   4.796  1.0453 -0.4411  1.6192
 6774SOL    HW231956   3.305   1.504   4.908  3.5720  0.8361 -0.3411
 6775SOL     OW31957   0.478   4.479   3.626  0.3074  0.0957  0.2401
 6775SOL    HW131958   0.479   4.418   3.553 -0.6516 -0.2331  0.5140
 6775SOL    HW231959   0.388   4.511   3.623  0.4261  0.3025 -1.2752
 6776SOL     OW31960   2.629   2.760   4.608 -0.5222 -0.1587  0.0104
 6776SOL    HW131961   2.578   2.824   4.658  1.4349  0.6620  0.9760
 6776SOL    HW231962   2.700   2.818   4.581 -0.1454 -0.8564 -0.4988
 6777SOL     OW31963   0.182   3.883   7.021  0.0699  0.4396 -0.3538
 6777SOL    HW131964   0.112   3.932   7.063 -0.9397 -0.1465 -1.3755
 6777SOL    HW231965   0.258   3.916   7.069  0.5730 -1.8991  0.4405
 6778SOL     OW31966   1.300   2.014  15.265 -0.4420  0.3187 -0.0063
 6778SOL    HW131967   1.222   1.965  15.290  0.9701 -1.3525  1.1667
 6778SOL    HW231968   1.350   2.020  15.347 -0.9526 -1.3979  0.4501
 6779SOL     OW31969   0.086   3.943  11.299 -0.3493 -0.4146  0.0906
 6779SOL    HW131970   0.113   3.965  11.389 -0.4949  0.8709 -0.1834
 6779SOL    HW231971   0.014   3.889  11.331 -2.0007  0.5822 -1.9899
 6780SOL     OW31972   4.040   1.635  11.288 -0.3408 -0.9888  0.1688
 6780SOL    HW131973   4.032   1.600  11.199  0.1807 -0.6883  0.0032
 6780SOL    HW231974   3.954   1.635  11.331 -1.5079  1.7316 -2.1575
 6781SOL     OW31975   1.243   3.856   1.332 -0.3102 -0.3242 -0.1285
 6781SOL    HW131976   1.245   3.799   1.255 -1.2708 -0.9819  0.3254
 6781SOL    HW231977   1.247   3.798   1.408 -0.8154 -0.1714  0.0149
 6782SOL     OW31978   1.908   2.021  13.548  0.1927  0.2779 -0.6221
 6782SOL    HW131979   1.946   1.981  13.469  3.0304  2.1545 -0.1918
 6782SOL    HW231980   1.988   2.057  13.587 -0.6320  0.4359  0.9005
 6783SOL     OW31981   2.523   0.723   8.103  0.2421  0.5680 -0.0722
 6783SOL    HW131982   2.536   0.704   8.010 -2.9995  2.1306 -0.8499
 6783SOL    HW231983   2.578   0.801   8.110 -1.3121  1.6547  0.1591
 6784SOL     OW31984   4.459   0.644   5.957 -0.0328 -0.1160  0.1344
 6784SOL    HW131985   4.485   0.668   6.046  1.9440 -1.7002 -0.0355
 6784SOL    HW231986   4.378   0.695   5.945  0.2713  0.2463 -0.3769
 6785SOL     OW31987   3.212   3.012   2.567  0.3508  0.3897  0.2395
 6785SOL    HW131988   3.124   2.975   2.564  0.7831 -0.5946 -0.5323
 6785SOL    HW231989   3.199   3.083   2.504  0.5569 -1.0572 -1.4556
 6786SOL     OW31990   4.028   4.527   9.398 -0.3248 -0.3149 -0.1965
 6786SOL    HW131991   3.980   4.513   9.317  0.2956  0.8159 -0.7586
 6786SOL    HW231992   4.083   4.449   9.398  0.5398  0.2833  0.9613
 6787SOL     OW31993   1.236   3.866   2.861  0.1430  0.4217  0.1401
 6787SOL    HW131994   1.280   3.943   2.823 -0.0699  0.9732  0.9971
 6787SOL    HW231995   1.235   3.812   2.782  0.6927 -1.4493  1.4144
 6788SOL     OW31996   2.491   0.183   5.449 -0.8036  0.7305 -0.3552
 6788SOL    HW131997   2.400   0.170   5.476 -1.3517  0.6196 -2.2169
 6788SOL    HW231998   2.481   0.274   5.423  1.6341  1.2532  0.6106
 6789SOL     OW31999   1.262   0.861   8.538  0.7301 -0.1432  0.4718
 6789SOL    HW132000   1.336   0.816   8.579  1.7536  0.0547 -1.2027
 6789SOL    HW232001   1.264   0.826   8.449  0.6238 -1.6766  1.0566
 6790SOL     OW32002   2.908   1.497   5.900 -0.3870  0.1412  0.6723
 6790SOL    HW132003   2.977   1.524   5.840  0.4880 -1.1974  1.0769
 6790SOL    HW232004   2.945   1.534   5.981 -0.7362  0.8747  0.4979
 6791SOL     OW32005   2.648   4.446   0.252  0.4469 -0.1642 -0.3348
 6791SOL    HW132006   2.725   4.419   0.301  1.4496  0.0355 -1.7946
 6791SOL    HW232007   2.614   4.365   0.214 -1.6938  1.6795 -2.4486
 6792SOL     OW32008   3.090   3.995   9.533  0.4836 -0.6981  0.0427
 6792SOL    HW132009   3.117   4.085   9.514  1.8894 -0.9533  0.7941
 6792SOL    HW232010   3.171   3.945   9.533  1.2754  0.5673  0.5591
 6793SOL     OW32011   0.827   1.054   8.423  0.1628  0.2539  0.1432
 6793SOL    HW132012   0.770   0.979   8.405 -0.5324  0.0414  3.1797
 6793SOL    HW232013   0.783   1.109   8.488  0.1332  0.9450 -0.4743
 6794SOL     OW32014   0.321   0.547   8.041  0.3016 -0.9246 -0.0031
 6794SOL    HW132015   0.245   0.525   7.988 -2.1714  1.9818  2.3253
 6794SOL    HW232016   0.349   0.458   8.063 -0.1348 -0.1586  3.6228
 6795SOL     OW32017   0.345   0.133  14.933  0.2185 -0.0863 -0.1816
 6795SOL    HW132018   0.404   0.059  14.943  0.6643 -0.0651 -2.5204
 6795SOL    HW232019   0.393   0.170  14.858  1.9792  2.0483  1.9941
 6796SOL     OW32020   3.906   3.700   9.134  0.6201  0.1774  0.2624
 6796SOL    HW132021   3.853   3.622   9.151 -1.8068  1.6866 -0.3887
 6796SOL    HW232022   3.902   3.705   9.039 -0.4774  0.0014  0.2989
 6797SOL     OW32023   4.475   1.995   5.073  0.3595  0.6207 -0.0065
 6797SOL    HW132024   4.423   2.074   5.057 -0.4871  0.1957  0.6272
 6797SOL    HW232025   4.522   1.972   4.994  2.0924  0.0145  1.1941
 6798SOL     OW32026   0.677   0.915   7.483 -0.1755  0.1889  0.2430
 6798SOL    HW132027   0.675   0.924   7.387 -0.0366  1.6134  0.3632
 6798SOL    HW232028   0.668   0.821   7.495  2.3575 -0.2293 -1.0150
 6799SOL     OW32029   0.564   0.948   8.362 -0.0038  0.2510 -0.1823
 6799SOL    HW132030   0.500   0.917   8.299  0.7758 -1.0694 -0.3207
 6799SOL    HW232031   0.579   0.878   8.425 -0.3579  0.0584 -0.3164
 6800SOL     OW32032   3.052   1.572  11.134  0.0387 -0.3039 -0.1466
 6800SOL    HW132033   2.999   1.586  11.056 -1.0735 -1.2731  0.4420
 6800SOL    HW232034   3.130   1.526  11.103 -0.9396 -1.9472 -0.1763
 6801SOL     OW32035   2.561   4.022   3.615  0.1191 -0.4045 -0.1155
 6801SOL    HW132036   2.512   3.989   3.540 -0.0433  0.8277 -0.5601
 6801SOL    HW232037   2.586   4.109   3.581 -1.5663 -0.2749 -1.0583
 6802SOL     OW32038   2.220   0.475   1.502  0.0905 -0.2788 -0.2398
 6802SOL    HW132039   2.150   0.424   1.542 -0.4971  0.5167 -0.2436
 6802SOL    HW232040   2.189   0.566   1.502  0.6206 -0.0997 -1.7928
 6803SOL     OW32041   1.211   3.758   8.975  0.5428  0.1968 -0.1178
 6803SOL    HW132042   1.194   3.697   9.048  0.7323  0.2020 -0.0708
 6803SOL    HW232043   1.189   3.837   9.024 -1.1949 -0.6435  0.4575
 6804SOL     OW32044   0.676   1.783   7.766 -0.2726 -0.6811  0.6086
 6804SOL    HW132045   0.727   1.864   7.767 -0.3117 -0.6260 -1.7557
 6804SOL    HW232046   0.746   1.727   7.800  0.3159 -1.1695 -1.4181
 6805SOL     OW32047   4.341   1.385  14.510  0.4166  0.1953  0.5993
 6805SOL    HW132048   4.265   1.404  14.565  0.7655 -0.3991  1.2793
 6805SOL    HW232049   4.341   1.290  14.497 -0.9529  0.5093 -1.7357
 6806SOL     OW32050   2.362   2.726  14.562 -0.3711  0.0809  0.7086
 6806SOL    HW132051   2.424   2.735  14.489 -0.2221  2.8074  1.1857
 6806SOL    HW232052   2.286   2.779  14.538  0.5764  0.2124 -2.0330
 6807SOL     OW32053   1.800   3.202   6.771  0.0087  0.1591  0.1804
 6807SOL    HW132054   1.826   3.120   6.728 -0.7540  0.9573 -1.7863
 6807SOL    HW232055   1.706   3.202   6.758  0.0793  3.7033 -0.3208
 6808SOL     OW32056   0.499   0.037  10.118 -0.2417  0.4310 -0.0904
 6808SOL    HW132057   0.557   0.113  10.106  0.2040  0.2829  1.0902
 6808SOL    HW232058   0.418   0.082  10.141 -1.4347 -2.2914  1.0090
 6809SOL     OW32059   2.128   1.214   3.727  0.1594 -0.7106  0.1377
 6809SOL    HW132060   2.128   1.153   3.801 -0.2985 -1.3597 -0.4017
 6809SOL    HW232061   2.138   1.151   3.655  1.5330 -0.5567  0.1836
 6810SOL     OW32062   4.284   4.336   3.803  0.9028 -0.2057 -0.4646
 6810SOL    HW132063   4.342   4.278   3.854  0.5963  1.5716  1.9059
 6810SOL    HW232064   4.219   4.270   3.780  1.3641 -0.8229 -0.0055
 6811SOL     OW32065   1.721   0.659   9.136 -0.0193  0.1695 -0.8175
 6811SOL    HW132066   1.739   0.647   9.229 -1.1513  2.2069 -0.3252
 6811SOL    HW232067   1.640   0.710   9.141 -0.4482 -0.6345  0.3690
 6812SOL     OW32068   3.454   2.533   5.491  0.8068  0.1398 -0.2530
 6812SOL    HW132069   3.506   2.454   5.473  1.2655  0.2927  0.4010
 6812SOL    HW232070   3.504   2.583   5.556 -0.2392  1.7121 -0.6547
 6813SOL     OW32071   2.419   2.512  17.365  0.5251 -0.0818  0.2450
 6813SOL    HW132072   2.457   2.458  17.295 -0.3289 -1.2379  0.6976
 6813SOL    HW232073   2.476   2.589  17.361  1.5540 -0.9672 -2.4348
 6814SOL     OW32074   1.334   4.070   7.935 -0.3764  0.3430 -0.2689
 6814SOL    HW132075   1.263   4.010   7.914 -1.5837  1.2773  1.1640
 6814SOL    HW232076   1.314   4.096   8.025 -1.3092  0.6373 -0.5627
 6815SOL     OW32077   4.084   1.959  17.741 -0.1234  0.0444 -0.7006
 6815SOL    HW132078   4.120   1.876  17.710  0.3906  1.2509 -3.3308
 6815SOL    HW232079   4.011   1.967  17.679  0.1158  1.0210 -0.8533
 6816SOL     OW32080   2.923   4.681  16.809 -0.0152  0.3887 -0.2454
 6816SOL    HW132081   2.872   4.600  16.816 -0.5054  0.5745 -1.6315
 6816SOL    HW232082   2.859   0.013  16.787 -1.0149 -0.1886  0.8969
 6817SOL     OW32083   3.157   1.336   7.012 -0.1914 -0.3726 -0.5888
 6817SOL    HW132084   3.190   1.266   6.956 -0.8642 -0.8214 -0.4249
 6817SOL    HW232085   3.109   1.380   6.942  2.8281 -1.4114 -3.3233
 6818SOL     OW32086   2.704   2.931  15.868 -0.0235 -0.2164  0.1968
 6818SOL    HW132087   2.622   2.977  15.886 -0.3890 -0.8338  0.1359
 6818SOL    HW232088   2.707   2.860  15.932 -0.7631  1.2584  1.8768
 6819SOL     OW32089   3.108   3.979   5.952  0.0211 -0.4295  0.1633
 6819SOL    HW132090   3.050   4.049   5.980  1.4595  0.8177  0.0576
 6819SOL    HW232091   3.048   3.907   5.939 -1.9543  0.9648  1.5666
 6820SOL     OW32092   0.016   3.544   9.687 -0.6583 -0.4178  0.0351
 6820SOL    HW132093   4.709   3.521   9.604  1.0144 -1.3359 -0.5602
 6820SOL    HW232094   0.040   3.457   9.718 -0.1440  0.1388  1.1555
 6821SOL     OW32095   2.883   2.568  14.819 -1.0152  0.4549 -0.1014
 6821SOL    HW132096   2.930   2.633  14.767 -2.2974 -1.3307 -3.4481
 6821SOL    HW232097   2.874   2.494  14.759  0.7752 -0.1503  0.3513
 6822SOL     OW32098   3.732   2.346  16.561  0.2791  0.5252  0.8986
 6822SOL    HW132099   3.743   2.337  16.655  1.2341  1.0719  0.8437
 6822SOL    HW232100   3.793   2.417  16.541  2.0297 -0.9593  0.9657
 6823SOL     OW32101   4.410   2.820  12.834 -0.1347  0.0670  0.2410
 6823SOL    HW132102   4.467   2.787  12.765  0.6173  1.5381  0.1526
 6823SOL    HW232103   4.465   2.805  12.911  0.0754 -2.2740 -0.3737
 6824SOL     OW32104   3.791   3.742   3.719  0.3781 -0.4962  0.3625
 6824SOL    HW132105   3.773   3.655   3.684 -2.2312  0.2741 -0.2648
 6824SOL    HW232106   3.774   3.795   3.641 -0.6754  0.7666  1.4490
 6825SOL     OW32107   0.804   3.980   5.892  0.4194  0.5092  0.0680
 6825SOL    HW132108   0.714   3.949   5.899  0.6919  0.0696  1.5211
 6825SOL    HW232109   0.836   3.963   5.980  0.8765 -0.0037 -0.1967
 6826SOL     OW32110   0.137   2.968   4.950 -0.0380  0.5886  0.4578
 6826SOL    HW132111   0.202   3.014   5.003  0.6273  0.4547 -0.2369
 6826SOL    HW232112   0.064   3.023   4.979 -0.3249  1.2692 -1.5202
 6827SOL     OW32113   1.525   2.756   7.326  0.2312 -0.2668  0.1431
 6827SOL    HW132114   1.497   2.746   7.235 -0.4142 -0.0248  0.3135
 6827SOL    HW232115   1.495   2.847   7.331 -0.0362 -0.3215 -0.5231
 6828SOL     OW32116   3.471   2.464   8.925  0.2326 -0.4344  0.3142
 6828SOL    HW132117   3.418   2.476   9.004  1.3393  1.8080  0.7187
 6828SOL    HW232118   3.410   2.479   8.853  1.8608 -2.6029 -1.5035
 6829SOL     OW32119   1.686   3.140   9.754  0.3608  0.0462  0.4966
 6829SOL    HW132120   1.694   3.046   9.738 -0.6552 -0.0701  0.6664
 6829SOL    HW232121   1.707   3.178   9.668 -1.5325 -0.3799 -0.1464
 6830SOL     OW32122   4.438   3.795   5.729  0.1545 -0.0952  0.0004
 6830SOL    HW132123   4.514   3.777   5.674 -1.2244  0.2270 -2.0314
 6830SOL    HW232124   4.479   3.873   5.766  2.0108 -0.7901 -0.6062
 6831SOL     OW32125   3.853   0.636   6.710  0.5303 -0.4721 -0.4575
 6831SOL    HW132126   3.941   0.599   6.713  0.6159 -0.4056 -2.5728
 6831SOL    HW232127   3.857   0.689   6.790  1.3657 -0.1886 -0.6856
 6832SOL     OW32128   2.363   0.399  12.537  0.2390 -0.2224  0.0367
 6832SOL    HW132129   2.396   0.318  12.577  3.2018  1.4495  0.9050
 6832SOL    HW232130   2.276   0.406  12.576  0.5630 -0.4116  0.7834
 6833SOL     OW32131   2.046   0.204   5.776  0.2888 -0.3246 -0.3389
 6833SOL    HW132132   2.017   0.271   5.838  2.9080 -1.2733  1.9381
 6833SOL    HW232133   1.970   0.149   5.758  0.5136 -0.1625 -1.7987
 6834SOL     OW32134   4.408   1.558   5.551  0.1503 -0.2581 -0.1786
 6834SOL    HW132135   4.410   1.575   5.457  1.4728  1.3208  0.1284
 6834SOL    HW232136   4.503   1.553   5.563  0.3538  2.2962 -0.7384
 6835SOL     OW32137   2.068   3.886  13.717  0.4723 -0.4258 -0.4085
 6835SOL    HW132138   1.979   3.874  13.750  0.4094 -2.4658 -1.3641
 6835SOL    HW232139   2.111   3.802  13.731 -0.1347 -0.2822  2.1846
 6836SOL     OW32140   4.715   3.453   0.802 -0.2924 -0.3448  0.0829
 6836SOL    HW132141   4.634   3.489   0.766 -0.3418 -2.1117 -1.5578
 6836SOL    HW232142   4.694   3.475   0.893  0.5553 -0.0569  0.2126
 6837SOL     OW32143   1.174   4.235   6.520  0.5665 -0.6439 -0.0574
 6837SOL    HW132144   1.119   4.169   6.478  1.5282 -0.8095 -1.0359
 6837SOL    HW232145   1.119   4.310   6.540  1.3765  0.0578 -0.4683
 6838SOL     OW32146   0.753   3.223  12.400  0.8480  0.3866  0.2052
 6838SOL    HW132147   0.713   3.168  12.333 -0.2649  1.6240 -0.1330
 6838SOL    HW232148   0.774   3.303  12.353  0.0858  0.8242  0.6127
 6839SOL     OW32149   1.051   4.691   8.940 -0.2587 -0.0291  0.4379
 6839SOL    HW132150   1.115   4.624   8.917 -0.5389  0.0696 -0.6205
 6839SOL    HW232151   1.106   0.020   8.985 -0.7115  0.5381  0.1695
 6840SOL     OW32152   1.983   3.522   9.807  0.4489 -0.1218  0.1541
 6840SOL    HW132153   2.076   3.537   9.791  0.8408 -1.7176  0.9462
 6840SOL    HW232154   1.958   3.593   9.866 -1.7756 -0.8947  0.1463
 6841SOL     OW32155   0.163   0.805   4.981 -0.0924 -0.0055 -0.1558
 6841SOL    HW132156   0.184   0.713   4.961 -2.1493 -0.8065  1.3570
 6841SOL    HW232157   0.180   0.810   5.075 -0.6183 -3.1799  0.1321
 6842SOL     OW32158   2.293   2.051   7.442 -0.1527  0.0859 -0.4729
 6842SOL    HW132159   2.272   2.070   7.534 -1.8191 -0.2941 -0.7633
 6842SOL    HW232160   2.257   2.129   7.400  0.0573 -0.0330 -0.8700
 6843SOL     OW32161   3.325   1.700   7.022 -0.1714  0.0100  0.5440
 6843SOL    HW132162   3.381   1.626   7.048 -1.6763  0.1747  4.2055
 6843SOL    HW232163   3.271   1.646   6.965  0.6418 -0.7154  0.4575
 6844SOL     OW32164   2.257   4.206   5.347 -0.2388 -0.1570  0.1953
 6844SOL    HW132165   2.342   4.218   5.303  0.3582 -1.6691  0.9441
 6844SOL    HW232166   2.222   4.295   5.350 -1.2416 -0.5934  1.1433
 6845SOL     OW32167   2.749   2.978   6.422 -0.1263  0.2348 -0.1102
 6845SOL    HW132168   2.817   3.046   6.419 -0.2136  0.3922  1.4760
 6845SOL    HW232169   2.793   2.916   6.479 -1.3085  0.1556  0.7118
 6846SOL     OW32170   2.544   0.160   1.962 -0.6044 -0.3750 -0.0329
 6846SOL    HW132171   2.518   0.243   2.002 -0.7955 -1.0978  1.3296
 6846SOL    HW232172   2.459   0.116   1.953  1.3470 -4.1566  0.0485
 6847SOL     OW32173   0.062   3.263  13.611  0.0145  0.0346 -0.3912
 6847SOL    HW132174   4.733   3.217  13.665  1.0158  0.2440  0.9942
 6847SOL    HW232175   0.037   3.249  13.520 -1.7609 -0.7297  0.2241
 6848SOL     OW32176   2.465   0.035   4.086  0.2517  0.1060  0.4534
 6848SOL    HW132177   2.374   0.058   4.106 -0.2063 -1.2642 -0.0076
 6848SOL    HW232178   2.511   0.048   4.168 -2.5234 -1.0406  2.2123
 6849SOL     OW32179   3.434   3.206   3.044  0.4616 -0.8188 -0.1131
 6849SOL    HW132180   3.515   3.160   3.067 -1.3673 -1.7466  4.2610
 6849SOL    HW232181   3.439   3.191   2.949  0.9493 -0.9529 -0.0644
 6850SOL     OW32182   0.616   3.124  16.288  0.4185  0.4335 -0.0973
 6850SOL    HW132183   0.534   3.077  16.270 -0.3929  2.2066 -0.9843
 6850SOL    HW232184   0.604   3.181  16.212  0.2173  0.3886 -0.0982
 6851SOL     OW32185   3.772   4.339   9.771 -0.4199  0.2590 -0.3039
 6851SOL    HW132186   3.760   4.269   9.706 -0.5974  0.6507 -0.6934
 6851SOL    HW232187   3.717   4.403   9.727  1.5913  1.2323 -1.4047
 6852SOL     OW32188   0.451   3.476   4.998  0.0690 -0.2030  0.0745
 6852SOL    HW132189   0.430   3.383   4.997 -1.0227  0.0501 -0.3877
 6852SOL    HW232190   0.434   3.513   5.085  0.9402 -1.6280  0.8442
 6853SOL     OW32191   0.729   4.211   2.630  0.3242 -0.3492 -0.5060
 6853SOL    HW132192   0.779   4.280   2.587 -0.6439  0.1000 -0.9097
 6853SOL    HW232193   0.720   4.150   2.557 -2.3944 -2.2819  1.4168
 6854SOL     OW32194   1.200   2.389   7.518 -0.1004 -0.1494  0.2142
 6854SOL    HW132195   1.140   2.434   7.459  0.6716 -1.4770 -1.5852
 6854SOL    HW232196   1.214   2.457   7.585 -0.8193  1.3107 -1.1192
 6855SOL     OW32197   4.514   0.970  10.537  0.3965 -0.2137 -0.2208
 6855SOL    HW132198   4.562   0.941  10.614 -1.9049  1.8733  1.9998
 6855SOL    HW232199   4.515   0.885  10.492 -3.0831 -0.2788 -0.1507
 6856SOL     OW32200   2.088   0.284   9.660 -0.2567  0.2906 -0.4485
 6856SOL    HW132201   2.176   0.318   9.644  0.1624 -1.4254 -1.8647
 6856SOL    HW232202   2.100   0.192   9.634 -0.5221 -0.4848  2.2227
 6857SOL     OW32203   3.662   0.161   8.589 -0.0488 -0.1890 -0.3208
 6857SOL    HW132204   3.607   0.083   8.582 -0.8630  0.5563 -2.1090
 6857SOL    HW232205   3.617   0.224   8.534 -1.5323 -1.4807 -0.5824
 6858SOL     OW32206   3.577   4.191   0.773  0.2592 -0.2353 -0.3462
 6858SOL    HW132207   3.555   4.284   0.769  1.4754  0.1374  1.4801
 6858SOL    HW232208   3.505   4.178   0.836  1.2273 -1.6309  0.4774
 6859SOL     OW32209   1.201   0.950  12.721  0.2317  0.2262  0.2841
 6859SOL    HW132210   1.208   0.976  12.813 -2.7557  2.1676 -0.0264
 6859SOL    HW232211   1.293   0.951  12.694  0.2356 -0.0309  0.2904
 6860SOL     OW32212   0.908   3.670  16.590 -0.0387 -0.0661  0.4464
 6860SOL    HW132213   0.844   3.638  16.654 -0.5039  1.3720  0.6940
 6860SOL    HW232214   0.945   3.730  16.654  0.1037 -2.1299  2.2792
 6861SOL     OW32215   4.523   0.948   4.081  0.1952 -0.3478  0.1054
 6861SOL    HW132216   4.439   0.931   4.122 -0.2966  1.2681 -0.2027
 6861SOL    HW232217   4.504   1.035   4.045  0.1640  0.1387  1.3178
 6862SOL     OW32218   3.131   0.713   6.807  0.1299 -0.2964  0.0130
 6862SOL    HW132219   3.093   0.798   6.786 -0.9538 -0.7398  0.1779
 6862SOL    HW232220   3.200   0.714   6.740  1.2263  1.6053  1.1847
 6863SOL     OW32221   0.124   3.112   8.487 -0.4587 -0.3369  0.2377
 6863SOL    HW132222   0.051   3.071   8.440 -1.2485 -0.0257  1.2017
 6863SOL    HW232223   0.198   3.058   8.459 -0.8923 -0.1425 -1.3087
 6864SOL     OW32224   3.796   0.914  12.834  0.2914  0.1821 -0.3137
 6864SOL    HW132225   3.787   0.891  12.742  1.0607 -0.6049 -0.1910
 6864SOL    HW232226   3.717   0.868  12.865  0.1996  2.2099  2.4754
 6865SOL     OW32227   4.139   2.771   1.681 -0.4777 -0.4129 -0.1656
 6865SOL    HW132228   4.126   2.804   1.770 -0.0531 -2.1597  0.5371
 6865SOL    HW232229   4.234   2.762   1.679 -0.2235  1.6589  2.3472
 6866SOL     OW32230   0.756   3.150   6.936  0.4062 -0.0930 -0.3182
 6866SOL    HW132231   0.800   3.112   7.012  0.4975  2.1346  0.7549
 6866SOL    HW232232   0.691   3.083   6.918  0.3874 -0.6209  1.7655
 6867SOL     OW32233   4.692   4.308  10.387 -0.2160  0.2908 -0.0941
 6867SOL    HW132234   0.029   4.261  10.347  0.4501 -0.0820  1.5682
 6867SOL    HW232235   4.730   4.313  10.474  0.8604  1.8714 -0.6525
 6868SOL     OW32236   2.178   4.267  11.791  0.7452  0.5137  0.0872
 6868SOL    HW132237   2.157   4.357  11.814 -1.1174 -0.1232  0.9241
 6868SOL    HW232238   2.253   4.239  11.844 -0.8434  0.7168  2.4402
 6869SOL     OW32239   3.224   0.457   8.094 -0.0352  0.3346  0.0302
 6869SOL    HW132240   3.274   0.377   8.107 -0.4786  0.1258  0.4443
 6869SOL    HW232241   3.152   0.445   8.156  0.2650  0.0837  0.3276
 6870SOL     OW32242   0.740   3.670   0.997 -0.1834 -1.3198  0.1396
 6870SOL    HW132243   0.735   3.764   1.015 -0.3091 -0.8599 -2.2161
 6870SOL    HW232244   0.799   3.643   1.068  0.1855 -0.1769  0.2770
 6871SOL     OW32245   4.118   1.420   2.563  0.2579  0.0112 -0.3098
 6871SOL    HW132246   4.095   1.509   2.589  0.9404 -0.3560  1.5299
 6871SOL    HW232247   4.199   1.398   2.610  0.9543  2.4241 -0.3731
 6872SOL     OW32248   3.937   1.950  16.059 -0.2867 -0.2634 -0.1467
 6872SOL    HW132249   3.913   1.947  15.966 -0.8092 -0.7915  0.0052
 6872SOL    HW232250   3.852   1.955  16.103  0.8607  0.8119  1.9948
 6873SOL     OW32251   2.954   3.846   4.028  0.0841 -0.5908  0.3306
 6873SOL    HW132252   2.959   3.761   4.070 -0.5172 -1.2161 -0.8713
 6873SOL    HW232253   2.864   3.873   4.048 -0.0599 -0.5400 -0.3992
 6874SOL     OW32254   2.346   0.608   2.197 -0.6329  0.2576 -0.6577
 6874SOL    HW132255   2.324   0.661   2.273  1.8018 -0.4416  0.5217
 6874SOL    HW232256   2.354   0.667   2.122  0.3801 -2.0721 -2.3904
 6875SOL     OW32257   4.648   4.488  12.318 -0.2943 -0.4051  0.1758
 6875SOL    HW132258   4.653   4.417  12.382  1.2418  0.9545  1.5625
 6875SOL    HW232259   4.723   4.468  12.262  1.9422  1.6359  2.4499
 6876SOL     OW32260   3.487   1.166   4.665 -0.1258 -0.0594 -0.7541
 6876SOL    HW132261   3.407   1.212   4.689  0.0692  0.9103 -1.9964
 6876SOL    HW232262   3.459   1.104   4.598  0.4807 -1.7217  0.5146
 6877SOL     OW32263   1.787   2.046   8.890  0.2901  1.3310  0.3330
 6877SOL    HW132264   1.751   2.025   8.976  0.1842  0.7162  0.1413
 6877SOL    HW232265   1.818   2.136   8.892 -0.2541  1.5040  0.7603
 6878SOL     OW32266   0.007   3.641   5.913 -0.1278  0.5180  0.9304
 6878SOL    HW132267   0.075   3.704   5.886 -0.2325 -0.2294 -1.0076
 6878SOL    HW232268   4.666   3.698   5.912 -0.3751  0.2095  2.4053
 6879SOL     OW32269   3.157   4.493   8.652  0.3598 -0.5738  0.4290
 6879SOL    HW132270   3.085   4.485   8.715 -1.0550  2.7562 -0.7967
 6879SOL    HW232271   3.230   4.504   8.714  0.8802  0.1066 -0.3120
 6880SOL     OW32272   3.642   4.259   5.749 -0.0800 -0.0562  0.6080
 6880SOL    HW132273   3.707   4.327   5.734  0.0790 -0.3440  0.0080
 6880SOL    HW232274   3.613   4.250   5.658  1.9901 -1.4996  0.0821
 6881SOL     OW32275   0.315   2.222   7.837 -0.6365  0.3103  0.1236
 6881SOL    HW132276   0.334   2.266   7.919  3.5453 -2.9444  0.9118
 6881SOL    HW232277   0.342   2.135   7.867  2.5752  0.8356 -1.2344
 6882SOL     OW32278   1.794   4.441   2.273 -0.3047 -0.0585 -0.0913
 6882SOL    HW132279   1.801   4.354   2.234 -0.3257 -0.6006  1.1246
 6882SOL    HW232280   1.843   4.429   2.354 -0.6348 -0.1813  0.0854
 6883SOL     OW32281   0.982   0.641  16.554  0.5134  0.8038 -0.3119
 6883SOL    HW132282   1.057   0.658  16.497  0.3508  0.5961 -0.5823
 6883SOL    HW232283   0.904   0.626  16.501  1.1470  2.8293 -1.8395
 6884SOL     OW32284   3.509   2.250   4.254 -0.8429  0.0132  0.3240
 6884SOL    HW132285   3.473   2.268   4.341 -1.3946  0.6198 -0.0326
 6884SOL    HW232286   3.550   2.167   4.279 -0.8047 -0.9570 -2.9668
 6885SOL     OW32287   4.587   2.379   5.954  0.5486  0.0932  0.2705
 6885SOL    HW132288   4.586   2.395   5.860 -0.9912 -0.1449  0.2369
 6885SOL    HW232289   4.681   2.368   5.969  0.0846 -1.2848  2.1642
 6886SOL     OW32290   3.651   0.360   6.431 -0.0677 -0.5349 -0.1806
 6886SOL    HW132291   3.742   0.338   6.413  0.0536  0.4648 -0.7853
 6886SOL    HW232292   3.610   0.295   6.374 -2.2729 -0.5684  1.4064
 6887SOL     OW32293   0.027   3.013  12.902 -0.0011 -0.1158 -0.1483
 6887SOL    HW132294   0.014   3.002  12.997  0.5212 -0.9810 -0.1740
 6887SOL    HW232295   4.673   3.036  12.878 -0.8322 -0.8132  2.2356
 6888SOL     OW32296   3.091   2.325   6.317  0.1892  0.2410 -0.0331
 6888SOL    HW132297   3.063   2.235   6.331  0.3319  0.5968  2.5631
 6888SOL    HW232298   3.171   2.320   6.369 -0.2287  0.4413  0.6356
 6889SOL     OW32299   3.709   1.683   0.603 -0.2736  0.5465  0.5884
 6889SOL    HW132300   3.690   1.777   0.595 -1.0948  0.2158 -1.4540
 6889SOL    HW232301   3.695   1.656   0.512  0.4979 -1.0426  0.9451
 6890SOL     OW32302   3.423   1.492   4.563 -0.5190 -0.0520  0.3610
 6890SOL    HW132303   3.390   1.520   4.648  1.9131 -1.2492  1.7094
 6890SOL    HW232304   3.501   1.440   4.584  0.1687  0.7319 -0.2087
 6891SOL     OW32305   0.346   1.715  12.635  0.1129  0.1570 -0.3187
 6891SOL    HW132306   0.342   1.627  12.672  0.4800  0.1655 -0.2532
 6891SOL    HW232307   0.341   1.768  12.715  2.1889  0.7390 -0.5547
 6892SOL     OW32308   3.183   3.368   9.932  0.3479 -0.1715  0.0964
 6892SOL    HW132309   3.144   3.449   9.967  3.1174  1.7694 -1.3263
 6892SOL    HW232310   3.247   3.355  10.002 -0.8120 -0.3336  1.1480
 6893SOL     OW32311   0.386   0.152   1.016  0.4109  0.4292  0.1837
 6893SOL    HW132312   0.360   0.063   0.990  0.2401  0.2173  1.0770
 6893SOL    HW232313   0.346   0.208   0.950 -0.0332  0.6024  0.5922
 6894SOL     OW32314   2.218   2.343   6.290 -0.0212 -0.8058  0.2049
 6894SOL    HW132315   2.286   2.380   6.235 -0.4042 -1.5631 -0.7687
 6894SOL    HW232316   2.259   2.340   6.377 -1.6627  0.3915  1.0433
 6895SOL     OW32317   2.925   0.524   4.247 -0.1877 -0.2854  0.7697
 6895SOL    HW132318   2.926   0.616   4.220  0.1278  0.2317  2.5541
 6895SOL    HW232319   2.960   0.531   4.336  0.2456 -0.1242  0.5905
 6896SOL     OW32320   1.395   4.230  11.268  0.1440  0.3218 -0.5893
 6896SOL    HW132321   1.431   4.176  11.338  0.3813 -2.3782 -2.7865
 6896SOL    HW232322   1.400   4.175  11.189  0.3572  0.6285 -0.7907
 6897SOL     OW32323   2.371   2.962  12.822 -0.1332 -0.0216 -0.0645
 6897SOL    HW132324   2.442   3.013  12.861 -0.7264  1.6311 -1.1618
 6897SOL    HW232325   2.339   3.026  12.760  0.5433  2.6579  2.3506
 6898SOL     OW32326   4.533   3.120   8.131  0.7883 -0.1554 -0.1541
 6898SOL    HW132327   4.519   3.048   8.070 -0.8698  2.2009 -2.5433
 6898SOL    HW232328   4.442   3.147   8.141  0.1343 -2.6366  0.6830
 6899SOL     OW32329   1.735   1.630   9.110  0.1759 -0.9082 -0.5330
 6899SOL    HW132330   1.776   1.544   9.114  0.5976 -0.7750 -2.0065
 6899SOL    HW232331   1.662   1.620   9.171  0.4625  0.9505  0.1334
 6900SOL     OW32332   4.613   2.138   6.133 -0.7928 -0.0912  0.6619
 6900SOL    HW132333   4.563   2.083   6.072  2.0157  0.0276 -1.7380
 6900SOL    HW232334   4.611   2.222   6.087 -0.8585 -0.4690 -0.0178
 6901SOL     OW32335   2.428   4.460   8.229  0.0174  0.3679  0.1345
 6901SOL    HW132336   2.401   4.386   8.283 -0.4806  0.1327 -0.4371
 6901SOL    HW232337   2.351   4.457   8.172  0.9072  1.1157 -1.0930
 6902SOL     OW32338   3.122   1.441   4.450 -0.2652 -1.0800  0.5822
 6902SOL    HW132339   3.070   1.501   4.396  2.2844  0.7412  0.1888
 6902SOL    HW232340   3.126   1.497   4.527  0.8062  0.0157 -0.2606
 6903SOL     OW32341   2.491   1.590   3.398  0.7713 -0.1400  0.1747
 6903SOL    HW132342   2.431   1.646   3.448 -0.1710 -1.5935  0.6744
 6903SOL    HW232343   2.463   1.502   3.424 -0.7807 -0.3557 -2.2120
 6904SOL     OW32344   2.014   0.594   2.419  0.5078  0.1764  0.0548
 6904SOL    HW132345   1.994   0.688   2.418 -0.6882 -0.0555  1.7113
 6904SOL    HW232346   1.946   0.563   2.479  1.4860 -0.7657  0.6694
 6905SOL     OW32347   1.473   1.530  11.555 -0.1364 -0.0867  0.0606
 6905SOL    HW132348   1.515   1.452  11.517  2.2297  0.3930  1.6888
 6905SOL    HW232349   1.383   1.501  11.545 -0.3784 -0.2387  2.7141
 6906SOL     OW32350   1.651   1.213   1.911 -1.0925  0.4657 -0.1187
 6906SOL    HW132351   1.657   1.211   2.006 -3.7382 -0.1571  0.0130
 6906SOL    HW232352   1.557   1.196   1.903 -1.3685  2.2698 -0.7833
 6907SOL     OW32353   0.260   3.738  10.299  0.6350  0.0834  0.7217
 6907SOL    HW132354   0.165   3.726  10.298  0.5224  0.9599  1.3026
 6907SOL    HW232355   0.285   3.696  10.381 -3.2011 -0.6050  1.5360
 6908SOL     OW32356   3.055   4.643   9.843  0.6549  0.0114  0.5669
 6908SOL    HW132357   3.039   4.597   9.925  2.4582 -1.1182  0.3063
 6908SOL    HW232358   3.150   4.635   9.834  0.3515 -0.9548 -1.9075
 6909SOL     OW32359   3.474   0.344   2.068 -0.3205  0.1301 -0.2172
 6909SOL    HW132360   3.397   0.358   2.123  0.5394  0.7435  0.8266
 6909SOL    HW232361   3.522   0.275   2.114 -2.5823 -1.0140  0.4565
 6910SOL     OW32362   1.400   2.574  14.980  0.3347  0.1288  0.0020
 6910SOL    HW132363   1.400   2.485  14.944 -1.5426  0.9929 -2.1105
 6910SOL    HW232364   1.491   2.599  14.994  0.0122  0.4926  1.4938
 6911SOL     OW32365   1.140   2.431  10.609 -0.1769  0.3215  0.1917
 6911SOL    HW132366   1.161   2.522  10.589 -0.7755  0.4180 -0.0096
 6911SOL    HW232367   1.065   2.447  10.667 -0.6144 -3.0062  0.5673
 6912SOL     OW32368   2.361   3.184   0.979 -0.6334  0.0197  0.2169
 6912SOL    HW132369   2.443   3.233   0.979 -0.3050 -0.5283 -2.0395
 6912SOL    HW232370   2.388   3.116   1.041  1.9966  2.3677  1.6660
 6913SOL     OW32371   3.016   0.317   4.481  0.4116 -0.5751  0.2214
 6913SOL    HW132372   2.980   0.269   4.405  1.0521 -1.7565  0.6588
 6913SOL    HW232373   2.939   0.314   4.538 -0.9966 -3.4154 -1.8208
 6914SOL     OW32374   0.390   4.100  16.873  0.1952 -0.0040  0.8917
 6914SOL    HW132375   0.296   4.118  16.876  0.0245 -0.8283  0.5591
 6914SOL    HW232376   0.413   4.099  16.966  0.8574  0.3855  0.7297
 6915SOL     OW32377   4.441   1.670   2.139 -0.3971 -0.1702  0.7556
 6915SOL    HW132378   4.455   1.579   2.111  1.0412 -0.4141  2.2655
 6915SOL    HW232379   4.473   1.675   2.229  1.2833 -0.9604  0.2000
 6916SOL     OW32380   3.161   4.407  15.824 -0.2048 -0.0578 -0.2515
 6916SOL    HW132381   3.217   4.358  15.883  0.2544  2.3358  1.2712
 6916SOL    HW232382   3.203   4.410  15.738 -0.7621  0.7698 -0.5018
 6917SOL     OW32383   2.040   3.264   6.635 -0.1008 -0.4960 -0.1962
 6917SOL    HW132384   1.964   3.272   6.692 -0.4736  1.0020 -0.9061
 6917SOL    HW232385   2.116   3.239   6.688 -2.0797 -0.5007  2.6288
 6918SOL     OW32386   4.242   0.589   8.512 -0.4696 -0.0512 -0.1731
 6918SOL    HW132387   4.224   0.573   8.605  0.3865 -0.6070 -0.0992
 6918SOL    HW232388   4.154   0.565   8.483 -0.1896 -0.7930 -0.4164
 6919SOL     OW32389   1.706   2.975   4.787 -0.0322  0.3358  0.2602
 6919SOL    HW132390   1.758   3.040   4.740  1.3550  0.3478  1.8258
 6919SOL    HW232391   1.775   2.915   4.816  0.1120  0.2369 -0.2955
 6920SOL     OW32392   0.722   1.694   2.497  0.1131  0.1302  0.0219
 6920SOL    HW132393   0.693   1.632   2.430 -0.7927  2.4854 -1.7529
 6920SOL    HW232394   0.643   1.694   2.551  0.8533 -0.4552  1.1060
 6921SOL     OW32395   3.586   1.753   9.942  0.2903 -0.1353 -0.6903
 6921SOL    HW132396   3.525   1.826   9.929  1.6975  0.8625 -1.7316
 6921SOL    HW232397   3.616   1.771  10.031  1.6319 -0.5378 -1.0607
 6922SOL     OW32398   3.408   1.329   5.775 -0.0857  0.4022 -0.0769
 6922SOL    HW132399   3.436   1.383   5.701  1.6961  0.4477  0.6374
 6922SOL    HW232400   3.450   1.371   5.850 -1.4054 -0.1319  0.9681
 6923SOL     OW32401   0.706   1.218   7.400  0.3747 -0.4686 -0.3330
 6923SOL    HW132402   0.757   1.275   7.341 -1.3517  2.2910  0.8552
 6923SOL    HW232403   0.626   1.214   7.348 -0.8666 -0.6798  1.5968
 6924SOL     OW32404   2.458   3.282   9.921  0.4595 -0.3578  0.6556
 6924SOL    HW132405   2.473   3.302  10.013  0.0518 -0.1242  0.6680
 6924SOL    HW232406   2.372   3.239   9.919  0.2490 -0.0052  2.1045
 6925SOL     OW32407   2.577   3.484  14.589  0.6824 -0.4321 -0.8212
 6925SOL    HW132408   2.568   3.421  14.661  2.4055  1.8834  1.4141
 6925SOL    HW232409   2.483   3.501  14.587  0.5726 -0.9246  0.6485
 6926SOL     OW32410   4.197   2.010   4.326  0.1964  0.1456 -0.2493
 6926SOL    HW132411   4.182   2.001   4.232 -3.2995 -0.9220  0.3887
 6926SOL    HW232412   4.128   2.074   4.343 -1.2203 -0.9566 -1.7614
 6927SOL     OW32413   1.977   2.929   9.622  0.2212  0.0065  0.4473
 6927SOL    HW132414   1.913   2.997   9.602 -0.2712 -0.6800 -0.3042
 6927SOL    HW232415   2.047   2.940   9.558 -0.1338  2.7924  0.5662
 6928SOL     OW32416   2.810   0.596   5.055 -0.2437  0.4830 -0.2212
 6928SOL    HW132417   2.904   0.611   5.060 -0.0875  0.0917 -1.7976
 6928SOL    HW232418   2.814   0.547   4.972 -2.7829  2.3409 -1.4358
 6929SOL     OW32419   0.696   1.382   8.492  0.3953 -0.2506 -0.0941
 6929SOL    HW132420   0.647   1.380   8.410 -1.1744  3.8100  0.7081
 6929SOL    HW232421   0.698   1.476   8.513 -2.3446  0.0475 -1.1308
 6930SOL     OW32422   4.126   0.816   8.138  0.2191 -0.4150  0.2838
 6930SOL    HW132423   4.093   0.831   8.227  0.9389 -1.0787  0.6668
 6930SOL    HW232424   4.145   0.723   8.150  0.1883 -0.4280  0.2314
 6931SOL     OW32425   0.440   3.702   6.618  0.2431 -0.3182 -0.2652
 6931SOL    HW132426   0.403   3.745   6.694  0.5341 -0.3567 -0.1016
 6931SOL    HW232427   0.437   3.772   6.552 -0.7273  1.3329  1.5360
 6932SOL     OW32428   4.426   0.280   2.829  0.0095 -0.4757  0.8666
 6932SOL    HW132429   4.394   0.368   2.849 -1.4778 -0.9163  0.4271
 6932SOL    HW232430   4.446   0.268   2.736 -0.9398 -0.4076  0.6549
 6933SOL     OW32431   1.212   4.732   4.685 -0.0044  0.5510  0.3239
 6933SOL    HW132432   1.165   4.650   4.694 -0.3924  0.6237 -1.0210
 6933SOL    HW232433   1.219   0.028   4.775 -0.3717 -2.3438  1.3510
 6934SOL     OW32434   1.794   3.133   8.745  0.3639  0.0158  0.7161
 6934SOL    HW132435   1.849   3.113   8.821  1.5174  1.0307  0.1616
 6934SOL    HW232436   1.748   3.214   8.769 -0.9948 -0.6598  0.3497
 6935SOL     OW32437   0.428   0.610  12.373 -0.0267  0.0329  0.1820
 6935SOL    HW132438   0.459   0.691  12.332  2.2090 -0.4815  0.8296
 6935SOL    HW232439   0.351   0.643  12.420  0.1654  2.4624 -1.1967
 6936SOL     OW32440   4.497   4.719  12.265 -0.3589 -0.4776 -0.0277
 6936SOL    HW132441   4.447   4.734  12.345 -2.3507  1.4336 -1.6014
 6936SOL    HW232442   4.546   4.640  12.288 -0.1982  0.2656  2.1374
 6937SOL     OW32443   2.828   2.620  12.865 -0.0604  0.2366  0.1060
 6937SOL    HW132444   2.795   2.543  12.911 -1.5096  0.8027 -0.0022
 6937SOL    HW232445   2.850   2.568  12.788 -0.6355 -0.1726  0.2240
 6938SOL     OW32446   0.632   1.010  15.138  0.2994  0.3118 -0.3355
 6938SOL    HW132447   0.677   1.016  15.054  1.1112 -0.7724  0.0196
 6938SOL    HW232448   0.540   0.996  15.116  0.1674  2.6644 -1.3460
 6939SOL     OW32449   3.710   1.080   0.422  0.6096 -0.0373  0.3017
 6939SOL    HW132450   3.715   1.035   0.337 -2.5122  1.1654 -0.5051
 6939SOL    HW232451   3.633   1.042   0.465  0.2734 -1.3519 -1.4251
 6940SOL     OW32452   3.778   2.638   4.169  0.2224  0.3920  0.1973
 6940SOL    HW132453   3.723   2.706   4.131 -0.2895  0.3804  0.9108
 6940SOL    HW232454   3.724   2.559   4.163  0.8507 -0.1726  2.0864
 6941SOL     OW32455   0.637   0.049   8.594  0.3769 -0.2470 -0.0640
 6941SOL    HW132456   0.571   0.118   8.594  1.6607  1.0048 -0.0532
 6941SOL    HW232457   0.720   0.097   8.593  1.0579 -1.3867  2.3944
 6942SOL     OW32458   3.470   2.331  10.978 -0.2039  0.8646 -0.7127
 6942SOL    HW132459   3.407   2.355  10.910  0.9659  3.7282 -0.7510
 6942SOL    HW232460   3.465   2.235  10.981 -0.4594  0.8949 -0.1872
 6943SOL     OW32461   3.474   0.854  13.790  0.6862  0.3886  0.1134
 6943SOL    HW132462   3.542   0.898  13.842 -0.8650 -0.7504  3.0826
 6943SOL    HW232463   3.525   0.794  13.735  0.5353 -0.5515  1.0058
 6944SOL     OW32464   2.195   2.197  11.630 -0.0254 -0.4974 -0.1485
 6944SOL    HW132465   2.109   2.236  11.646 -0.0900 -0.3488 -0.8762
 6944SOL    HW232466   2.191   2.123  11.691  1.8260 -1.2019 -0.8885
 6945SOL     OW32467   3.822   2.528   2.431 -0.5702 -0.0121 -0.3068
 6945SOL    HW132468   3.835   2.435   2.411 -0.3805 -0.1814  0.6027
 6945SOL    HW232469   3.750   2.526   2.494  0.5927  1.6697  1.0623
 6946SOL     OW32470   3.597   4.648   6.836 -0.2929 -0.4656 -0.1524
 6946SOL    HW132471   3.535   4.626   6.766  0.0101 -0.0379 -0.5494
 6946SOL    HW232472   3.633   4.561   6.853 -1.7617 -0.8129  1.1413
 6947SOL     OW32473   4.459   4.202   5.082  0.2937  0.4555  0.2044
 6947SOL    HW132474   4.467   4.151   5.001  1.4932 -0.7125  1.0668
 6947SOL    HW232475   4.445   4.287   5.041  0.7554  1.0051  1.2174
 6948SOL     OW32476   1.763   4.675   5.154 -0.2676 -0.1928  0.1410
 6948SOL    HW132477   1.798   4.602   5.206 -1.1219  0.2347  1.3182
 6948SOL    HW232478   1.699   4.705   5.218 -0.7205  0.4662 -0.6249
 6949SOL     OW32479   1.640   0.687  16.940 -0.0158 -0.2885  0.3394
 6949SOL    HW132480   1.676   0.702  16.853  0.3740 -1.5148  0.2988
 6949SOL    HW232481   1.615   0.597  16.919 -0.3033 -0.4222  1.2511
 6950SOL     OW32482   3.124   2.003   6.811  0.6792 -0.0210 -0.4552
 6950SOL    HW132483   3.155   2.092   6.792 -0.7529  1.0499  2.2605
 6950SOL    HW232484   3.186   1.961   6.870 -0.2519 -0.1861  0.3968
 6951SOL     OW32485   1.906   3.515   6.272  0.1797 -0.2795 -0.0783
 6951SOL    HW132486   1.993   3.550   6.252  0.9347 -2.2198 -0.1618
 6951SOL    HW232487   1.859   3.513   6.189 -0.7985 -0.8496  0.4958
 6952SOL     OW32488   3.122   1.907   7.612  0.2419  0.6408  0.5365
 6952SOL    HW132489   3.040   1.864   7.584  0.9256  0.1848 -0.7713
 6952SOL    HW232490   3.099   1.968   7.682 -1.0978 -0.6331  1.2220
 6953SOL     OW32491   2.211   2.792   2.381  0.1450 -0.8021 -0.5287
 6953SOL    HW132492   2.138   2.738   2.350  0.7448 -0.9304 -1.7375
 6953SOL    HW232493   2.288   2.735   2.387  1.5603  0.8636 -2.5914
 6954SOL     OW32494   0.831   0.337  13.423 -0.0262 -0.2701 -0.2001
 6954SOL    HW132495   0.913   0.385  13.413  0.6898 -1.8186 -1.7671
 6954SOL    HW232496   0.836   0.289  13.340 -1.5825 -1.9913  0.6807
 6955SOL     OW32497   0.098   1.687  13.517  0.1353 -0.0710  0.1565
 6955SOL    HW132498   0.073   1.628  13.588  0.7796  0.6366  0.9844
 6955SOL    HW232499   0.193   1.677  13.516  0.1045 -0.5317  1.8074
 6956SOL     OW32500   0.488   1.581   3.908  0.1065  0.1055  0.1445
 6956SOL    HW132501   0.448   1.522   3.972 -2.1408  0.4866 -0.9052
 6956SOL    HW232502   0.554   1.621   3.965 -0.3758  2.0266 -0.6430
 6957SOL     OW32503   0.351   3.160   2.806 -0.3359  0.2358 -0.1937
 6957SOL    HW132504   0.392   3.123   2.729 -0.3069 -0.0007 -0.0636
 6957SOL    HW232505   0.315   3.080   2.844 -0.5884 -0.4565 -1.8917
 6958SOL     OW32506   1.496   2.664   7.079  0.4370  0.0651 -0.0726
 6958SOL    HW132507   1.484   2.569   7.089  1.8274  0.1444  2.3212
 6958SOL    HW232508   1.583   2.675   7.042  0.7105  2.3476  1.2670
 6959SOL     OW32509   3.385   4.342  16.180  0.4996 -0.0702  0.4740
 6959SOL    HW132510   3.314   4.356  16.243 -0.6049 -2.7773 -0.1467
 6959SOL    HW232511   3.435   4.269  16.216  3.1736  1.3308 -0.4443
 6960SOL     OW32512   1.174   3.455   9.019  0.1962  0.2414 -0.0980
 6960SOL    HW132513   1.171   3.360   9.035 -0.2345 -0.0609 -1.9248
 6960SOL    HW232514   1.111   3.468   8.948  2.1955 -0.6459 -2.0273
 6961SOL     OW32515   1.141   3.502   9.976 -0.5796 -0.4848  0.0426
 6961SOL    HW132516   1.134   3.428   9.915  2.4037 -0.4543 -0.2939
 6961SOL    HW232517   1.181   3.457  10.051  0.6368  1.1721  0.3935
 6962SOL     OW32518   1.117   4.519  14.780  0.4728 -0.0404  0.5890
 6962SOL    HW132519   1.040   4.504  14.834  0.1980 -1.0214 -0.0703
 6962SOL    HW232520   1.112   4.445  14.719  2.2709 -0.1349  0.5586
 6963SOL     OW32521   2.829   1.928   2.357 -0.2598  0.1525  0.0696
 6963SOL    HW132522   2.884   1.926   2.436 -0.0128  1.2905 -0.0799
 6963SOL    HW232523   2.902   1.939   2.295 -1.2485 -0.5453 -1.2269
 6964SOL     OW32524   4.451   2.508  10.045  0.0325  0.1383 -0.6888
 6964SOL    HW132525   4.449   2.586   9.991  1.2383  2.2735  2.3710
 6964SOL    HW232526   4.462   2.542  10.134 -0.1238  1.3032 -1.1192
 6965SOL     OW32527   4.184   0.025   7.377 -0.3472 -0.4462  0.2533
 6965SOL    HW132528   4.095   0.045   7.403 -1.3761 -0.4836 -3.1717
 6965SOL    HW232529   4.195   0.091   7.309  3.1617 -1.0251  0.2638
 6966SOL     OW32530   2.458   2.301  13.014  0.3272 -0.2340 -0.7019
 6966SOL    HW132531   2.370   2.295  13.050  0.7969 -0.4851  0.4092
 6966SOL    HW232532   2.476   2.209  12.992 -1.4481 -0.3276 -1.7578
 6967SOL     OW32533   0.120   1.743   6.858 -0.5564 -0.4096  0.5541
 6967SOL    HW132534   0.043   1.770   6.908 -1.1705 -2.2244  0.5965
 6967SOL    HW232535   0.141   1.650   6.870  1.2816 -0.1210 -0.5455
 6968SOL     OW32536   3.877   1.635   1.016  0.5044 -0.6005  0.0329
 6968SOL    HW132537   3.798   1.655   0.966 -0.7416 -0.9795  1.8619
 6968SOL    HW232538   3.930   1.585   0.954 -0.3659  0.3688 -1.4901
 6969SOL     OW32539   0.563   0.956   5.586 -0.0432 -0.4131 -0.1691
 6969SOL    HW132540   0.516   0.872   5.582  0.0449 -0.5270  1.2331
 6969SOL    HW232541   0.585   0.975   5.495  1.8807 -0.1789  0.3657
 6970SOL     OW32542   3.959   0.151   5.737 -0.3427 -0.0182 -0.2201
 6970SOL    HW132543   4.033   0.176   5.682 -0.2399  1.2105  0.4706
 6970SOL    HW232544   4.011   0.103   5.801 -2.1650  0.0133  1.2690
 6971SOL     OW32545   2.257   1.721   4.995 -0.0193  0.0214  0.3878
 6971SOL    HW132546   2.325   1.698   4.931 -0.5787 -0.3263 -0.0855
 6971SOL    HW232547   2.186   1.738   4.933  1.3764 -0.8841 -1.4468
 6972SOL     OW32548   4.314   3.585   2.321  0.0277  0.4600  0.6169
 6972SOL    HW132549   4.239   3.600   2.264  0.1856  0.0802  0.3156
 6972SOL    HW232550   4.310   3.491   2.340 -1.4377  0.5845  0.9172
 6973SOL     OW32551   3.051   4.321   4.420  0.2208 -0.6422  0.1071
 6973SOL    HW132552   2.963   4.302   4.452 -0.0865 -1.0649 -0.9867
 6973SOL    HW232553   3.080   4.374   4.495  1.8316  1.0549 -1.7178
 6974SOL     OW32554   0.347   4.372  16.754 -0.4166 -0.2188  0.3146
 6974SOL    HW132555   0.308   4.460  16.757  0.7738  0.3934 -2.2621
 6974SOL    HW232556   0.268   4.318  16.758  1.3715 -2.8267  0.2614
 6975SOL     OW32557   2.526   2.477   2.394  0.0400  0.1401  0.3074
 6975SOL    HW132558   2.529   2.479   2.298  0.6165 -2.1840  0.2849
 6975SOL    HW232559   2.536   2.383   2.409  2.1166  0.0323 -1.7456
 6976SOL     OW32560   0.697   1.449   3.673  0.0842 -0.9360  0.0012
 6976SOL    HW132561   0.784   1.464   3.708  0.0240  0.4375 -0.4370
 6976SOL    HW232562   0.644   1.441   3.752  0.5898 -2.0517  0.2310
 6977SOL     OW32563   3.227   4.511   4.143  0.3534  0.1398  0.6434
 6977SOL    HW132564   3.181   4.558   4.213  0.3871  1.3189 -0.1220
 6977SOL    HW232565   3.237   4.424   4.183  1.1939  0.1720  0.4852
 6978SOL     OW32566   2.809   3.079   4.372  0.4092 -0.1970 -0.4014
 6978SOL    HW132567   2.772   3.167   4.386 -2.6707 -1.4596 -0.5408
 6978SOL    HW232568   2.744   3.040   4.313  0.2873 -1.1101  0.3344
 6979SOL     OW32569   2.395   2.499   2.796 -0.3321 -0.4266 -0.1478
 6979SOL    HW132570   2.484   2.525   2.775 -1.1921  1.7704 -1.0203
 6979SOL    HW232571   2.397   2.448   2.878  0.8500  0.8394  0.5963
 6980SOL     OW32572   1.118   3.218   2.094  0.7501 -0.1464 -0.2086
 6980SOL    HW132573   1.070   3.145   2.056 -1.0899  1.3747 -0.8151
 6980SOL    HW232574   1.099   3.204   2.186 -1.0767  0.1106 -0.5531
 6981SOL     OW32575   3.228   0.065   0.092  0.2056  0.0848 -0.1160
 6981SOL    HW132576   3.205   0.104   0.008 -2.4827  0.6084  0.8598
 6981SOL    HW232577   3.324   0.065   0.094  0.1818 -1.3874  1.8089
 6982SOL     OW32578   0.767   3.635   5.999 -0.2493  0.2252 -0.2394
 6982SOL    HW132579   0.812   3.557   5.967  1.0858  2.5347 -4.0002
 6982SOL    HW232580   0.680   3.630   5.959 -0.0684  1.7792 -0.8250
 6983SOL     OW32581   4.215   2.779   9.739 -0.5904 -0.1566 -0.4431
 6983SOL    HW132582   4.157   2.718   9.693  2.9629 -2.5819 -1.7228
 6983SOL    HW232583   4.296   2.728   9.744 -0.1651  0.4611 -1.2164
 6984SOL     OW32584   2.857   1.109  11.070  0.1720  0.3513  0.3966
 6984SOL    HW132585   2.947   1.094  11.041  0.5049 -0.3095  1.7912
 6984SOL    HW232586   2.814   1.031  11.034 -1.6044  1.3291  0.3831
 6985SOL     OW32587   0.079   2.308   3.912  0.0080  0.2932  0.4000
 6985SOL    HW132588   0.074   2.395   3.952 -3.0934  0.4493 -0.3204
 6985SOL    HW232589   4.736   2.264   3.944  0.8621 -1.8566 -0.4595
 6986SOL     OW32590   3.389   1.077   7.676  0.5278  0.3027  0.2568
 6986SOL    HW132591   3.464   1.047   7.728 -0.5864 -0.9736  1.1396
 6986SOL    HW232592   3.420   1.160   7.641 -0.7548 -0.2143 -2.0849
 6987SOL     OW32593   0.978   1.149   5.947  0.0144  0.0333  0.2238
 6987SOL    HW132594   0.887   1.119   5.938  0.1024 -0.2584  0.3226
 6987SOL    HW232595   0.985   1.124   6.039  2.2012  2.8944  0.8445
 6988SOL     OW32596   3.877   0.439   4.833  0.2942 -0.3436  0.6378
 6988SOL    HW132597   3.880   0.526   4.872 -1.2541  0.1779 -0.4553
 6988SOL    HW232598   3.909   0.462   4.746  0.8501  1.4156  1.3046
 6989SOL     OW32599   4.714   0.039   5.245  0.5530  0.0599  0.0749
 6989SOL    HW132600   0.072   0.053   5.232  0.5719 -0.5235 -0.4363
 6989SOL    HW232601   4.684   0.129   5.255  0.2227 -0.0669  0.2392
 6990SOL     OW32602   4.315   3.289   7.794 -0.7029  0.2968 -0.9883
 6990SOL    HW132603   4.296   3.370   7.842 -0.5356 -1.2808  1.7372
 6990SOL    HW232604   4.255   3.225   7.831 -1.0460  1.5207  0.5758
 6991SOL     OW32605   2.719   2.614   7.352  0.0682 -0.0117  0.2884
 6991SOL    HW132606   2.639   2.572   7.323  0.8867 -1.8272  0.6843
 6991SOL    HW232607   2.698   2.613   7.446  1.1831 -1.7574  0.5172
 6992SOL     OW32608   1.222   4.441  12.979  0.0121  0.2892 -0.1763
 6992SOL    HW132609   1.278   4.502  13.026 -0.9299 -0.0272  1.3250
 6992SOL    HW232610   1.229   4.470  12.888 -0.2540 -0.3808 -0.4149
 6993SOL     OW32611   1.997   3.557  12.350 -0.5413  0.2469  0.3863
 6993SOL    HW132612   2.013   3.536  12.442 -0.5566  1.2794  0.6150
 6993SOL    HW232613   1.961   3.476  12.314 -0.0834  0.2716 -0.1256
 6994SOL     OW32614   3.313   1.656   4.217  0.3595  0.2985  0.1036
 6994SOL    HW132615   3.227   1.616   4.231 -0.2781  2.6123  2.6427
 6994SOL    HW232616   3.325   1.708   4.296  2.0126  0.5178 -0.3068
 6995SOL     OW32617   1.917   4.465   8.445 -0.3316  0.3995  0.3424
 6995SOL    HW132618   1.898   4.443   8.537  1.1265  1.4138  0.8953
 6995SOL    HW232619   1.972   4.394   8.412  1.4594  1.2571  1.4464
 6996SOL     OW32620   3.326   0.158   3.641  0.0676  0.4424  0.7005
 6996SOL    HW132621   3.409   0.181   3.599  0.3143  0.8422  1.4084
 6996SOL    HW232622   3.264   0.230   3.628  0.3415  0.6467  0.5293
 6997SOL     OW32623   1.537   4.494   3.796  0.2177 -0.1197 -0.0439
 6997SOL    HW132624   1.609   4.478   3.735  1.2622  2.2756  0.5561
 6997SOL    HW232625   1.497   4.576   3.764 -2.1555 -1.4543 -0.5157
 6998SOL     OW32626   1.266   2.184   9.604 -0.0745 -0.4458  0.8599
 6998SOL    HW132627   1.299   2.247   9.669 -1.6742 -1.3501  2.5455
 6998SOL    HW232628   1.243   2.238   9.529 -2.1368 -1.6028  0.6790
 6999SOL     OW32629   2.452   4.465   2.857 -0.5834  0.1187 -0.4972
 6999SOL    HW132630   2.524   4.411   2.823 -0.6717 -0.1980 -0.1925
 6999SOL    HW232631   2.376   4.468   2.800 -1.9487  1.6193  1.3966
 7000SOL     OW32632   0.801   1.131   2.955 -0.2111  0.0341 -0.0295
 7000SOL    HW132633   0.834   1.184   2.883 -1.1812  1.4541  0.5752
 7000SOL    HW232634   0.873   1.135   3.018 -0.0104  2.3555 -0.4256
 7001SOL     OW32635   3.430   4.146   4.319  0.0073  0.0312 -0.1481
 7001SOL    HW132636   3.340   4.132   4.291  1.0278  0.9122 -3.8210
 7001SOL    HW232637   3.462   4.219   4.266 -0.5180  0.8565  0.6758
 7002SOL     OW32638   1.664   4.726  15.133 -0.7330 -0.6718  0.6044
 7002SOL    HW132639   1.682   0.029  15.047 -0.8093  0.0216  0.8992
 7002SOL    HW232640   1.739   0.014  15.188 -1.8590  0.6416  1.5636
 7003SOL     OW32641   4.330   3.009   1.605 -0.0221  0.0984  0.1110
 7003SOL    HW132642   4.314   2.986   1.514 -3.3761  2.1148  0.1979
 7003SOL    HW232643   4.420   2.980   1.621 -0.3900 -1.6520 -1.0289
 7004SOL     OW32644   2.339   2.699   5.099 -0.0221 -0.1628 -0.5112
 7004SOL    HW132645   2.316   2.696   5.192 -1.5305  0.9580 -0.8541
 7004SOL    HW232646   2.372   2.609   5.088 -0.3580 -0.0315 -2.4977
 7005SOL     OW32647   3.110   2.431   5.815  0.6310 -0.6245  0.5285
 7005SOL    HW132648   3.146   2.404   5.731  0.0152 -0.1843  0.1198
 7005SOL    HW232649   3.186   2.432   5.873  0.1789 -0.9756  1.1240
 7006SOL     OW32650   2.385   2.422   5.133 -0.4596  0.2241  0.0901
 7006SOL    HW132651   2.378   2.377   5.217 -2.8421  1.0159  0.3292
 7006SOL    HW232652   2.461   2.378   5.094 -0.8748 -1.1712  0.9051
 7007SOL     OW32653   4.554   1.302   4.214 -0.3771 -0.0814 -0.1272
 7007SOL    HW132654   4.515   1.252   4.142 -0.2777  0.2746 -0.4328
 7007SOL    HW232655   4.524   1.259   4.294  0.7527  1.2736  1.0253
 7008SOL     OW32656   2.816   3.044   8.433  0.1291 -0.1347  0.0652
 7008SOL    HW132657   2.910   3.054   8.420  0.1025  1.7782  1.2425
 7008SOL    HW232658   2.815   2.949   8.440 -1.2612 -0.1917 -0.9598
 7009SOL     OW32659   2.890   2.802   9.487 -0.1177  0.5307  0.8704
 7009SOL    HW132660   2.938   2.743   9.546  2.0242  0.2254 -1.1906
 7009SOL    HW232661   2.932   2.885   9.509 -0.7578  1.4854 -1.5860
 7010SOL     OW32662   1.012   0.250   3.362 -0.0900  0.5290 -0.2412
 7010SOL    HW132663   0.947   0.310   3.400 -2.1457 -2.2600  0.6938
 7010SOL    HW232664   0.955   0.206   3.299  0.7577 -0.1079 -0.5641
 7011SOL     OW32665   0.593   1.209  13.526  0.7903 -0.3644 -0.5498
 7011SOL    HW132666   0.593   1.182  13.618  0.3569 -0.2476 -0.5118
 7011SOL    HW232667   0.505   1.241  13.505  0.3253  0.7019  2.9510
 7012SOL     OW32668   3.577   1.657   5.059  0.0807  0.1543  0.1283
 7012SOL    HW132669   3.582   1.641   5.153  0.7327 -0.7709 -0.0617
 7012SOL    HW232670   3.587   1.564   5.038 -2.4812  0.0739 -0.7234
 7013SOL     OW32671   0.996   4.254   9.226  0.2125 -0.7530 -0.4259
 7013SOL    HW132672   0.980   4.343   9.259  0.3081 -1.0961  0.5527
 7013SOL    HW232673   0.905   4.234   9.205 -0.2457 -1.3725  2.0635
 7014SOL     OW32674   2.565   0.360   3.338  0.0097 -0.2625 -0.4155
 7014SOL    HW132675   2.485   0.364   3.284  0.7065 -1.2784 -1.5192
 7014SOL    HW232676   2.520   0.326   3.416 -0.3038  0.8211 -0.1250
 7015SOL     OW32677   2.506   1.955  14.644  0.4694 -0.3431 -0.0850
 7015SOL    HW132678   2.483   1.863  14.639  0.2851 -0.3720  1.2054
 7015SOL    HW232679   2.427   1.988  14.686  1.7880 -2.3485  3.9608
 7016SOL     OW32680   4.615   2.960   9.316  0.0469  0.7744 -0.1288
 7016SOL    HW132681   4.697   2.920   9.289  0.1130  1.1462 -0.4691
 7016SOL    HW232682   4.559   2.889   9.349  2.0005 -1.0848 -0.8477
 7017SOL     OW32683   1.241   0.402   8.386  0.3787  0.1149  0.0372
 7017SOL    HW132684   1.326   0.441   8.366 -0.5945  1.1298 -2.1522
 7017SOL    HW232685   1.176   0.456   8.342  0.0331 -0.3658 -0.0443
 7018SOL     OW32686   4.210   3.089  16.568  0.2340 -0.4961  0.3327
 7018SOL    HW132687   4.186   3.029  16.639 -0.1746  0.3627  0.9205
 7018SOL    HW232688   4.292   3.126  16.600  0.2709 -1.0283  0.8691
 7019SOL     OW32689   3.074   1.653  13.496 -0.3349 -0.0072 -0.4525
 7019SOL    HW132690   3.028   1.663  13.413 -0.7898  2.5995  0.1207
 7019SOL    HW232691   3.147   1.602  13.461  1.6514  0.2609  3.2321
 7020SOL     OW32692   1.497   1.224   4.106  0.4753  0.5496 -0.7113
 7020SOL    HW132693   1.438   1.154   4.136  1.0812 -0.4392 -1.8233
 7020SOL    HW232694   1.511   1.281   4.181 -0.6484 -0.0535 -0.0494
 7021SOL     OW32695   0.311   0.427   9.511 -0.6294 -0.6293 -0.3112
 7021SOL    HW132696   0.362   0.464   9.439 -0.2506  0.5440  0.5508
 7021SOL    HW232697   0.300   0.338   9.479  0.1652 -1.1758  0.9393
 7022SOL     OW32698   3.380   0.852   5.431  0.8081  0.1497 -0.6189
 7022SOL    HW132699   3.381   0.769   5.383 -1.0971 -0.2721  0.0573
 7022SOL    HW232700   3.432   0.825   5.506 -2.1910 -1.7332  0.7740
 7023SOL     OW32701   1.995   4.130   7.324  0.0349 -0.6554  0.2184
 7023SOL    HW132702   1.942   4.070   7.376 -0.9375 -0.3644 -0.4384
 7023SOL    HW232703   1.969   4.099   7.237 -1.1991 -0.6897  0.6007
 7024SOL     OW32704   1.335   4.124   2.764 -0.6029  0.1452 -0.1079
 7024SOL    HW132705   1.301   4.170   2.841  0.0259  1.0905 -0.3912
 7024SOL    HW232706   1.322   4.192   2.697 -1.2210  2.1069  2.0017
 7025SOL     OW32707   1.348   1.044   5.204 -0.2809 -0.0700  0.2983
 7025SOL    HW132708   1.425   1.101   5.207 -1.0063  1.1053 -2.8561
 7025SOL    HW232709   1.366   1.006   5.118 -0.6246  1.9347 -0.6675
 7026SOL     OW32710   0.836   3.004   5.849 -0.3406 -0.5166  0.0440
 7026SOL    HW132711   0.802   2.915   5.858 -1.2641 -0.1023  0.6901
 7026SOL    HW232712   0.762   3.053   5.885 -0.3451  0.6360 -1.5517
 7027SOL     OW32713   2.146   3.473   5.729 -0.0436 -0.2633  0.2913
 7027SOL    HW132714   2.100   3.427   5.799 -2.2575  0.2686 -0.8065
 7027SOL    HW232715   2.230   3.488   5.771  0.5209 -1.7682 -0.3026
 7028SOL     OW32716   0.993   3.485   7.821  0.1507 -0.6145 -0.3055
 7028SOL    HW132717   1.054   3.434   7.875 -0.4075 -1.6170 -0.6243
 7028SOL    HW232718   0.936   3.412   7.797 -0.8522  0.0902 -0.0633
 7029SOL     OW32719   0.634   4.050  17.534  0.4568 -0.2151  0.4548
 7029SOL    HW132720   0.715   4.087  17.568  0.5998 -1.0500  1.0169
 7029SOL    HW232721   0.592   4.034  17.618  0.3991 -1.1526  0.2466
 7030SOL     OW32722   0.713   0.594  17.291  0.4492 -0.3358  1.2462
 7030SOL    HW132723   0.621   0.615  17.308  0.1277 -1.8624  1.4437
 7030SOL    HW232724   0.725   0.622  17.200 -0.0765  0.5425  1.4442
 7031SOL     OW32725   2.553   0.299  11.300 -0.0857  0.4709 -0.2613
 7031SOL    HW132726   2.531   0.333  11.214  0.3984 -2.1565 -1.4231
 7031SOL    HW232727   2.563   0.381  11.349 -1.1041  0.4536 -0.0289
 7032SOL     OW32728   1.049   0.006   9.469  0.5503 -0.3504 -0.9287
 7032SOL    HW132729   1.029   0.099   9.471  1.3102 -0.2413  1.9209
 7032SOL    HW232730   0.958   4.713   9.482  1.2317 -1.0195  2.4976
 7033SOL     OW32731   0.452   2.163   6.896  0.0175  0.5315 -0.2829
 7033SOL    HW132732   0.375   2.213   6.923  0.3974  1.2737 -0.5535
 7033SOL    HW232733   0.408   2.079   6.889  2.1344 -0.8063  2.6076
 7034SOL     OW32734   0.020   3.836   2.382  0.3661 -0.1520 -0.0927
 7034SOL    HW132735   4.717   3.864   2.300 -0.2010  1.6190  0.7780
 7034SOL    HW232736   4.691   3.870   2.445  0.0129 -0.6108 -0.2129
 7035SOL     OW32737   4.044   3.552   8.432  0.4198 -0.9131  0.7196
 7035SOL    HW132738   4.108   3.598   8.486  1.9516 -1.3811 -0.6880
 7035SOL    HW232739   4.031   3.475   8.488 -0.6975  0.4184  2.2832
 7036SOL     OW32740   1.041   2.788   4.093  0.5178 -0.6045 -0.3674
 7036SOL    HW132741   0.961   2.835   4.118  1.2981 -0.7060  2.2957
 7036SOL    HW232742   1.092   2.865   4.066 -4.1979  2.3002 -0.9038
 7037SOL     OW32743   3.972   0.215   9.362  0.0950 -0.3486 -0.4566
 7037SOL    HW132744   4.019   0.293   9.392  0.0568  0.1716 -1.7403
 7037SOL    HW232745   4.051   0.165   9.339  0.3562 -0.3776  0.5340
 7038SOL     OW32746   1.054   3.126   9.440  0.6742  0.3275 -0.0963
 7038SOL    HW132747   1.060   3.070   9.517 -0.6623 -1.1198 -1.0518
 7038SOL    HW232748   0.964   3.117   9.409  0.2810  0.7435  0.9165
 7039SOL     OW32749   2.032   2.676   8.037 -0.1918 -0.3196 -0.4625
 7039SOL    HW132750   1.984   2.600   8.068 -1.8431  0.8415 -0.1657
 7039SOL    HW232751   2.024   2.736   8.111  0.9387 -0.3705 -0.2962
 7040SOL     OW32752   2.962   3.210   7.461  0.3506  0.7140  0.0846
 7040SOL    HW132753   2.880   3.243   7.424 -0.9754 -1.5032  1.0571
 7040SOL    HW232754   2.959   3.226   7.555 -1.2222  0.8132  0.0085
 7041SOL     OW32755   0.539   3.001   3.807  0.1130  0.2873  0.5267
 7041SOL    HW132756   0.548   3.050   3.889  1.9734 -0.0746  0.5300
 7041SOL    HW232757   0.449   3.027   3.788  0.2504  0.9347  0.7304
 7042SOL     OW32758   0.861   4.527   2.119 -0.1142  0.1102 -0.6512
 7042SOL    HW132759   0.831   4.446   2.161 -3.3104  1.9630  0.5865
 7042SOL    HW232760   0.938   4.483   2.083 -0.1616  0.2176 -0.8787
 7043SOL     OW32761   1.000   0.062   3.012 -0.0466 -0.0351 -0.2038
 7043SOL    HW132762   0.928   0.079   3.073 -0.2807  2.1825 -1.1157
 7043SOL    HW232763   0.961   0.105   2.936  1.0914  0.5478 -0.4603
 7044SOL     OW32764   1.709   4.142   4.730  0.2838  0.6922  0.0440
 7044SOL    HW132765   1.792   4.103   4.704  0.7265  1.7097 -0.0828
 7044SOL    HW232766   1.725   4.225   4.776  0.5990  0.6393  0.0280
 7045SOL     OW32767   3.959   0.387   6.492 -0.0638 -0.1654 -0.0187
 7045SOL    HW132768   3.974   0.298   6.523  0.0641  0.6341  2.2181
 7045SOL    HW232769   4.015   0.436   6.551 -2.0891  2.4033 -0.2103
 7046SOL     OW32770   1.958   2.584   2.587  0.1529 -0.4275  0.0496
 7046SOL    HW132771   1.943   2.675   2.561 -1.2562 -0.5645  0.3902
 7046SOL    HW232772   2.030   2.597   2.649  0.1791 -1.6858  0.2924
 7047SOL     OW32773   2.605   3.154  10.336 -0.4363  0.1834 -0.4500
 7047SOL    HW132774   2.691   3.139  10.375 -1.7625 -1.4220  1.8373
 7047SOL    HW232775   2.556   3.079  10.369  1.0420 -1.1616 -1.3523
 7048SOL     OW32776   0.976   0.408   8.853  0.4256 -0.1185  0.1979
 7048SOL    HW132777   0.881   0.411   8.839  0.2016 -1.3821  1.4947
 7048SOL    HW232778   0.979   0.500   8.879  2.5880  0.0128 -0.5319
 7049SOL     OW32779   0.357   2.680   3.461 -0.6028  0.0997  0.0370
 7049SOL    HW132780   0.440   2.687   3.508 -0.8138  0.1302  0.4066
 7049SOL    HW232781   0.383   2.603   3.411 -0.0333  0.5247 -0.3207
 7050SOL     OW32782   3.760   1.372   4.113 -0.5683  0.1420  0.0777
 7050SOL    HW132783   3.826   1.432   4.077 -1.1363  0.9751  0.4130
 7050SOL    HW232784   3.695   1.433   4.148  1.5235  2.0940  0.5622
 7051SOL     OW32785   1.600   3.838   1.367  0.0544  1.2207  0.3354
 7051SOL    HW132786   1.638   3.868   1.449 -2.2079 -0.8951  2.1371
 7051SOL    HW232787   1.677   3.827   1.312  1.7823  0.5260  2.9465
 7052SOL     OW32788   1.284   0.252   9.638  0.2169  0.5415 -0.1286
 7052SOL    HW132789   1.205   0.302   9.616  1.1053  2.0351  0.0983
 7052SOL    HW232790   1.308   0.197   9.564 -2.1501 -1.6641  0.7600
 7053SOL     OW32791   2.135   4.690  12.924 -0.1655  0.9826 -0.0952
 7053SOL    HW132792   2.059   4.715  12.976 -2.1638 -0.4064 -2.2990
 7053SOL    HW232793   2.103   4.728  12.842 -1.3115  1.2255  0.4674
 7054SOL     OW32794   0.407   2.772  13.748 -0.5264 -0.1250 -0.1504
 7054SOL    HW132795   0.442   2.832  13.813  1.2109 -1.6848  0.3788
 7054SOL    HW232796   0.459   2.691  13.754  2.0196  1.4316 -1.1615
 7055SOL     OW32797   3.646   3.205  15.692  0.2152 -0.3412 -0.4783
 7055SOL    HW132798   3.720   3.261  15.669 -0.3875  1.0821  1.0574
 7055SOL    HW232799   3.584   3.212  15.619 -1.5862 -1.0738  0.9736
 7056SOL     OW32800   0.589   0.771   9.239  0.2861  0.4690 -0.0128
 7056SOL    HW132801   0.528   0.837   9.273  1.2886  2.0730 -1.2724
 7056SOL    HW232802   0.661   0.797   9.296  0.9083  0.0023 -0.5846
 7057SOL     OW32803   3.835   0.911   7.664 -1.1012 -0.1083  0.5193
 7057SOL    HW132804   3.916   0.962   7.661  0.0381 -2.0296 -1.5525
 7057SOL    HW232805   3.797   0.925   7.578  2.0366  0.2432 -0.8087
 7058SOL     OW32806   1.258   3.296  10.659 -0.1308 -1.1546  0.1667
 7058SOL    HW132807   1.256   3.239  10.736 -1.1663 -3.2839 -1.4211
 7058SOL    HW232808   1.186   3.353  10.686 -0.2257 -1.6937  1.0603
 7059SOL     OW32809   2.294   2.332   1.394 -0.3457 -0.4374  0.0837
 7059SOL    HW132810   2.270   2.249   1.435 -2.9551  1.4454  2.3884
 7059SOL    HW232811   2.275   2.391   1.467  1.6189 -0.1154  0.3298
 7060SOL     OW32812   0.005   4.154   6.031  0.1258 -0.3535  0.1308
 7060SOL    HW132813   0.044   4.213   5.967  0.6783 -0.2534  0.5583
 7060SOL    HW232814   4.703   4.201   6.105 -1.8593  0.2976 -1.2706
 7061SOL     OW32815   3.682   0.750   1.337 -0.4349  0.3943 -0.0599
 7061SOL    HW132816   3.771   0.785   1.339 -0.5602  0.6808  0.4888
 7061SOL    HW232817   3.637   0.826   1.375 -0.6122  0.6431 -0.7808
 7062SOL     OW32818   4.155   2.517  13.987 -0.0636  0.4132 -0.2270
 7062SOL    HW132819   4.162   2.557  13.900  1.9680  1.7726  0.5593
 7062SOL    HW232820   4.251   2.515  13.997  0.0029 -0.0572 -0.9449
 7063SOL     OW32821   1.491   2.880   1.609  0.4573  0.0243  0.4221
 7063SOL    HW132822   1.561   2.845   1.553  0.7167  0.4870  0.4597
 7063SOL    HW232823   1.415   2.830   1.579 -1.9986  4.4409 -0.6987
 7064SOL     OW32824   1.310   1.534   9.871 -0.0738  0.0323 -0.1062
 7064SOL    HW132825   1.295   1.626   9.893  2.5992 -0.1200  2.4607
 7064SOL    HW232826   1.375   1.541   9.801 -0.5590  3.3335 -0.1901
 7065SOL     OW32827   1.866   2.510   6.405  0.1499  0.3272 -0.2577
 7065SOL    HW132828   1.816   2.436   6.371  1.2619 -0.5334 -0.0163
 7065SOL    HW232829   1.796   2.574   6.392 -0.3115 -0.2018 -0.3191
 7066SOL     OW32830   1.394   4.343   3.219  0.0372 -0.5996 -0.3701
 7066SOL    HW132831   1.331   4.413   3.240  0.0628 -0.7065  0.0694
 7066SOL    HW232832   1.453   4.354   3.294  0.3087 -1.2634 -0.4909
 7067SOL     OW32833   1.644   2.615   9.681 -0.3450 -0.2081 -0.2828
 7067SOL    HW132834   1.657   2.535   9.631 -1.7727 -0.2622 -0.5841
 7067SOL    HW232835   1.695   2.596   9.760  0.9745  0.5450 -0.9608
 7068SOL     OW32836   0.378   4.554   6.296 -0.0852  0.0689 -0.3300
 7068SOL    HW132837   0.388   4.459   6.291  2.1715  0.3647 -1.8395
 7068SOL    HW232838   0.462   4.575   6.336 -0.1211  0.9449 -0.7021
 7069SOL     OW32839   1.700   1.178   8.454  0.1308  0.9737  0.2797
 7069SOL    HW132840   1.695   1.082   8.455 -3.6451  1.1557 -2.0581
 7069SOL    HW232841   1.607   1.198   8.442 -0.0938 -1.3381 -2.0103
 7070SOL     OW32842   3.301   3.722   4.955  0.3955 -0.3545  0.5612
 7070SOL    HW132843   3.264   3.722   4.867 -4.8331 -0.3102  2.8018
 7070SOL    HW232844   3.364   3.650   4.951  0.1560 -0.4354 -1.6405
 7071SOL     OW32845   4.069   1.342   4.298  0.0045  0.0206  0.2361
 7071SOL    HW132846   4.111   1.264   4.263  0.1394 -0.6165  1.8003
 7071SOL    HW232847   4.051   1.402   4.226  0.9861 -2.0394 -1.7267
 7072SOL     OW32848   1.931   2.075  14.790  0.4045 -0.0665  0.2349
 7072SOL    HW132849   1.912   2.121  14.872  0.0091 -0.6026  0.4478
 7072SOL    HW232850   2.006   2.131  14.769 -0.4584  0.8129 -0.4803
 7073SOL     OW32851   1.500   1.037   3.059  0.4568 -0.1529  0.5128
 7073SOL    HW132852   1.573   1.031   3.120  3.6050  1.8743 -3.0522
 7073SOL    HW232853   1.522   1.122   3.019  2.4934 -0.7664  0.3189
 7074SOL     OW32854   2.505   1.622  14.368  0.2764  0.6225  0.2744
 7074SOL    HW132855   2.446   1.589  14.300 -0.2588  1.7497  0.1881
 7074SOL    HW232856   2.520   1.713  14.339  0.5310  0.2692 -0.7094
 7075SOL     OW32857   4.244   4.415   3.063  0.3004 -0.6541 -0.1192
 7075SOL    HW132858   4.256   4.375   2.977  1.0293  1.3792 -0.9474
 7075SOL    HW232859   4.318   4.473   3.052  0.9662 -1.2414  1.2277
 7076SOL     OW32860   0.392   3.464  11.305 -0.0004 -0.1846  0.5607
 7076SOL    HW132861   0.476   3.431  11.337  0.0521 -1.0637 -0.4898
 7076SOL    HW232862   0.337   3.386  11.318 -1.8413  1.0563  0.1726
 7077SOL     OW32863   1.700   2.111   2.704 -1.0070 -0.4535 -0.4294
 7077SOL    HW132864   1.691   2.082   2.795  0.0574  1.0708  0.1705
 7077SOL    HW232865   1.719   2.203   2.724 -0.7609 -0.1957 -1.8227
 7078SOL     OW32866   1.408   3.379   2.191  0.1651  0.4285 -0.0937
 7078SOL    HW132867   1.494   3.383   2.233 -1.0427  2.4690  2.1197
 7078SOL    HW232868   1.412   3.457   2.136  0.5308  0.8723  0.5702
 7079SOL     OW32869   2.413   3.749   3.603 -0.0932  0.0861 -0.6157
 7079SOL    HW132870   2.337   3.789   3.645  1.4431  0.8349  1.4591
 7079SOL    HW232871   2.393   3.772   3.512 -1.2525 -1.8238 -0.8293
 7080SOL     OW32872   1.991   1.941   6.959  0.1836  0.6309 -0.1474
 7080SOL    HW132873   2.068   1.886   6.948 -0.9103 -0.9540  0.2251
 7080SOL    HW232874   1.918   1.884   6.980  1.9524 -1.3957  0.4701
 7081SOL     OW32875   0.045   3.539   1.542 -0.2351 -0.0096 -0.1270
 7081SOL    HW132876   0.132   3.562   1.574  0.3303 -0.1175 -1.5940
 7081SOL    HW232877   4.729   3.547   1.622  0.2911 -1.0004  0.3102
 7082SOL     OW32878   4.036   1.494   5.120 -0.5280  0.3938 -0.6983
 7082SOL    HW132879   4.038   1.546   5.040  0.3342 -1.8565 -2.1377
 7082SOL    HW232880   4.053   1.557   5.190  1.9732 -0.1730 -0.8129
 7083SOL     OW32881   0.225   1.816   7.864 -0.2607  0.1906  0.1186
 7083SOL    HW132882   0.187   1.822   7.952 -0.5121 -0.7866  0.0789
 7083SOL    HW232883   0.240   1.721   7.867 -3.2768 -0.2908  0.2023
 7084SOL     OW32884   1.807   3.619   8.531  0.7990 -0.3605  0.5103
 7084SOL    HW132885   1.870   3.571   8.477 -0.2458 -3.5761  2.1957
 7084SOL    HW232886   1.871   3.687   8.549  1.7457 -0.7725 -1.3365
 7085SOL     OW32887   1.355   2.679   4.202 -0.6122 -0.0146  0.2174
 7085SOL    HW132888   1.379   2.771   4.185 -3.1367  0.1762 -2.3396
 7085SOL    HW232889   1.260   2.691   4.197 -0.5832 -0.6211 -1.8317
 7086SOL     OW32890   0.806   1.717  14.055 -0.1160 -0.3665  0.2584
 7086SOL    HW132891   0.875   1.767  14.099  0.5183 -0.5301 -0.5312
 7086SOL    HW232892   0.852   1.634  14.045 -0.3738 -0.6063  1.0724
 7087SOL     OW32893   3.788   0.417  14.471 -0.1094  0.2524  0.1948
 7087SOL    HW132894   3.773   0.465  14.389 -2.9797  1.8475  1.6761
 7087SOL    HW232895   3.861   0.470  14.502 -1.3173  1.1383  1.5463
 7088SOL     OW32896   2.233   1.481  17.731  0.3039 -0.3449  0.2049
 7088SOL    HW132897   2.237   1.550  17.665  1.0666  1.4828  2.1559
 7088SOL    HW232898   2.202   1.402  17.688 -0.0389  0.5853 -1.2483
 7089SOL     OW32899   3.372   0.526  15.977  0.0858  0.2442 -0.3770
 7089SOL    HW132900   3.333   0.594  15.922 -0.6518  0.9168  0.9641
 7089SOL    HW232901   3.454   0.506  15.932 -0.4492 -0.5050 -1.0044
 7090SOL     OW32902   0.564   0.614   4.735 -0.0984 -0.3697 -0.0567
 7090SOL    HW132903   0.658   0.599   4.728 -0.2644  0.0214 -2.9280
 7090SOL    HW232904   0.541   0.540   4.791 -0.0534  1.5195  2.4657
 7091SOL     OW32905   4.138   2.895   6.093 -0.0710  0.0977 -0.5145
 7091SOL    HW132906   4.201   2.941   6.148  0.7430 -0.7402 -0.7373
 7091SOL    HW232907   4.180   2.815   6.062  0.1096 -0.2209  0.5768
 7092SOL     OW32908   0.641   2.596   8.056  0.9984  0.3040 -0.3593
 7092SOL    HW132909   0.626   2.583   7.962  0.1997 -3.3798  0.2687
 7092SOL    HW232910   0.662   2.689   8.063 -0.5386  0.6120  0.1286
 7093SOL     OW32911   3.109   4.484   2.378  0.2205 -0.3215 -0.2604
 7093SOL    HW132912   3.063   4.463   2.459  0.8274 -1.9243 -0.3304
 7093SOL    HW232913   3.044   4.546   2.345 -1.8571 -2.1509  0.4243
 7094SOL     OW32914   2.179   0.503   8.968  0.1120 -0.3357 -0.7315
 7094SOL    HW132915   2.102   0.489   9.022  1.6744  1.9284  2.1051
 7094SOL    HW232916   2.213   0.582   9.010 -0.3813  0.1477 -1.2435
 7095SOL     OW32917   0.192   4.151  10.260  0.0236 -0.5594  0.2250
 7095SOL    HW132918   0.255   4.085  10.287 -2.1496 -2.1729  1.2790
 7095SOL    HW232919   0.141   4.094  10.203 -0.3456 -0.2645  0.2604
 7096SOL     OW32920   0.749   3.708   8.691 -0.5540  0.3754 -0.0185
 7096SOL    HW132921   0.830   3.684   8.644  0.1655  2.3750  0.2033
 7096SOL    HW232922   0.749   3.804   8.694  1.7852  0.3404  1.3277
 7097SOL     OW32923   3.870   1.802   5.535  0.2461  0.1403  0.0080
 7097SOL    HW132924   3.848   1.722   5.487  0.9592 -0.1295  0.1389
 7097SOL    HW232925   3.828   1.780   5.618 -2.4363 -3.8538 -2.3885
 7098SOL     OW32926   3.048   0.830  14.232  0.0329  0.1690  0.3476
 7098SOL    HW132927   3.069   0.776  14.156  3.3666  1.9245 -0.0126
 7098SOL    HW232928   3.023   0.763  14.295  0.1540 -1.4296 -1.2882
 7099SOL     OW32929   1.309   3.661  14.646 -0.1005 -0.6296 -0.1849
 7099SOL    HW132930   1.296   3.567  14.638 -0.3706 -0.6663  0.6637
 7099SOL    HW232931   1.387   3.663  14.700 -0.3597 -1.6527  0.2178
 7100SOL     OW32932   0.923   3.528   3.795 -0.0185  0.8043 -0.3534
 7100SOL    HW132933   0.989   3.559   3.733  0.5816  1.6247  0.6839
 7100SOL    HW232934   0.967   3.468   3.855 -0.3144  0.0094 -0.9336
 7101SOL     OW32935   4.193   3.474   1.993 -0.3563  0.0486 -0.0455
 7101SOL    HW132936   4.133   3.449   1.923 -1.0538  1.9501 -0.1059
 7101SOL    HW232937   4.128   3.489   2.061 -1.2549 -3.2842 -0.1763
 7102SOL     OW32938   0.023   2.563   2.490 -0.3066 -0.1702  0.3177
 7102SOL    HW132939   0.104   2.548   2.441 -0.8518  1.3290 -1.0565
 7102SOL    HW232940   0.055   2.597   2.574  0.8291  2.4128 -1.1256
 7103SOL     OW32941   2.083   1.160   6.661 -0.0670 -0.3018 -0.2642
 7103SOL    HW132942   2.152   1.224   6.677 -1.3869  0.5759  2.0326
 7103SOL    HW232943   2.022   1.200   6.723 -0.1778 -1.8300  0.6330
 7104SOL     OW32944   0.689   0.306   7.458 -0.7643 -0.0358  0.2636
 7104SOL    HW132945   0.601   0.301   7.421 -0.2829 -2.4220 -0.5666
 7104SOL    HW232946   0.680   0.254   7.538 -0.8751 -0.9280 -0.3238
 7105SOL     OW32947   2.514   1.736   0.819  0.0704  0.1717  0.1143
 7105SOL    HW132948   2.541   1.695   0.737  0.6121  1.4987 -0.3795
 7105SOL    HW232949   2.587   1.789   0.850 -0.4265  0.9687 -0.0681
 7106SOL     OW32950   2.445   2.184   2.450 -0.2170 -0.0185 -0.1094
 7106SOL    HW132951   2.378   2.124   2.418 -2.8908  2.1213  1.4948
 7106SOL    HW232952   2.413   2.208   2.537 -1.0800  1.8120 -0.9330
 7107SOL     OW32953   3.758   0.263   4.524 -0.2614  0.1887  0.2445
 7107SOL    HW132954   3.751   0.168   4.514 -0.8021  0.3426 -0.8001
 7107SOL    HW232955   3.670   0.299   4.534 -1.0475 -2.0102  1.4023
 7108SOL     OW32956   2.039   0.508  13.190  0.4002 -0.0858  0.0230
 7108SOL    HW132957   2.073   0.584  13.142  0.9376 -1.4947 -1.8457
 7108SOL    HW232958   2.049   0.549  13.276  0.5833 -0.9283  0.4024
 7109SOL     OW32959   0.532   0.090   4.944  0.2640 -0.0052  0.1003
 7109SOL    HW132960   0.458   0.030   4.932  0.3552 -0.2999  1.0341
 7109SOL    HW232961   0.578   0.090   4.860  1.4090  0.8573  0.7274
 7110SOL     OW32962   0.421   3.215   2.316  0.3141  0.1298 -1.0492
 7110SOL    HW132963   0.484   3.148   2.343  1.2305  0.8306 -1.4226
 7110SOL    HW232964   0.375   3.183   2.239 -0.6125 -0.9623 -0.0256
 7111SOL     OW32965   0.246   4.102  13.798  0.3002  0.0601  0.2855
 7111SOL    HW132966   0.295   4.136  13.873 -2.7581 -0.7189  2.6523
 7111SOL    HW232967   0.314   4.083  13.733 -0.3004  1.8382 -0.8857
 7112SOL     OW32968   0.339   2.987   2.579  0.3288 -0.3675  0.4894
 7112SOL    HW132969   0.388   2.954   2.503  1.4138 -0.2083  1.1220
 7112SOL    HW232970   0.391   2.938   2.643  2.8635 -1.8528 -2.6804
 7113SOL     OW32971   4.159   0.016   9.323  0.3958  0.0065 -0.1826
 7113SOL    HW132972   4.103   4.686   9.364 -0.5414  1.1992  0.4635
 7113SOL    HW232973   4.192   4.711   9.242 -0.6237  0.0044 -0.5966
 7114SOL     OW32974   2.981   4.259   7.700 -0.1131  0.1846  0.3820
 7114SOL    HW132975   2.902   4.293   7.743  0.3182 -0.9067  2.0432
 7114SOL    HW232976   3.020   4.341   7.669 -2.8633  1.4898  0.4342
 7115SOL     OW32977   0.670   3.076  12.184  0.0323 -0.4872 -0.0909
 7115SOL    HW132978   0.712   3.079  12.098  1.9089  3.1144  0.9393
 7115SOL    HW232979   0.658   2.981  12.191 -1.5168 -0.3979 -1.5378
 7116SOL     OW32980   0.270   3.102   3.768  0.1020 -0.5289 -0.9055
 7116SOL    HW132981   0.274   3.023   3.714  1.7580 -0.9363 -0.1706
 7116SOL    HW232982   0.197   3.146   3.724 -0.2344  0.8759  1.0434
 7117SOL     OW32983   4.552   0.739  17.714 -0.1775 -0.3891 -0.0556
 7117SOL    HW132984   4.635   0.777  17.684 -0.0164 -1.3249 -0.8009
 7117SOL    HW232985   4.497   0.813  17.737 -0.5759 -0.0080 -2.3383
 7118SOL     OW32986   3.257   3.591   7.327  0.2240  0.0421 -0.2697
 7118SOL    HW132987   3.264   3.573   7.421 -2.2061  0.3410 -0.0262
 7118SOL    HW232988   3.212   3.510   7.303  1.4727 -0.8114  0.2801
 7119SOL     OW32989   3.463   2.587   3.242  0.3476 -0.3974 -0.1078
 7119SOL    HW132990   3.532   2.641   3.280  1.0191  0.0599 -1.9636
 7119SOL    HW232991   3.438   2.637   3.164  0.5881 -0.2755 -0.1070
 7120SOL     OW32992   0.576   4.137   0.746  0.9188 -0.1695  0.3094
 7120SOL    HW132993   0.631   4.216   0.748  0.7332 -0.0287 -0.3284
 7120SOL    HW232994   0.609   4.096   0.827  3.7661  1.8128  0.1877
 7121SOL     OW32995   0.247   0.747   8.794  0.1687 -0.2249  0.1592
 7121SOL    HW132996   0.319   0.742   8.857  2.6504 -1.2255 -2.7944
 7121SOL    HW232997   0.175   0.712   8.847  1.4692 -2.5089  0.4212
 7122SOL     OW32998   2.878   3.657   8.348 -0.7321 -0.7430 -0.4372
 7122SOL    HW132999   2.792   3.659   8.392  0.1443 -1.0262  1.2826
 7122SOL    HW233000   2.928   3.727   8.390 -0.6664 -0.2473 -1.3255
 7123SOL     OW33001   1.527   0.418   8.291 -0.3392  0.0882  0.1640
 7123SOL    HW133002   1.591   0.368   8.240 -1.8940 -0.7090 -0.9906
 7123SOL    HW233003   1.531   0.394   8.384 -1.0382 -1.0505 -0.0923
 7124SOL     OW33004   2.821   1.193   3.784  0.1539  0.4945  0.2877
 7124SOL    HW133005   2.859   1.210   3.871 -1.4669 -0.5460  1.1963
 7124SOL    HW233006   2.789   1.104   3.799  0.7406  0.1990 -0.2296
 7125SOL     OW33007   4.150   0.567   4.728 -0.5960 -0.4049  0.4090
 7125SOL    HW133008   4.235   0.538   4.693 -0.0276  0.9878  0.6261
 7125SOL    HW233009   4.093   0.508   4.679 -1.1215 -0.4643  1.0947
 7126SOL     OW33010   0.496   4.270  11.069 -0.4807 -0.0229 -0.1712
 7126SOL    HW133011   0.515   4.364  11.065  2.3960 -0.5956 -0.1760
 7126SOL    HW233012   0.411   4.267  11.024  0.2709 -2.7555 -1.3688
 7127SOL     OW33013   3.479   1.025  15.290 -0.5179 -0.0594  0.0038
 7127SOL    HW133014   3.426   1.055  15.364  0.1166 -1.4093  1.0046
 7127SOL    HW233015   3.414   0.973  15.242 -0.2720  0.5049 -0.9366
 7128SOL     OW33016   3.481   1.494   3.917 -0.0763 -0.4488 -0.4651
 7128SOL    HW133017   3.542   1.561   3.887 -0.3532 -0.4854 -1.1241
 7128SOL    HW233018   3.532   1.435   3.972 -1.8124 -2.2834 -0.8177
 7129SOL     OW33019   0.684   3.492   9.174 -0.0809  0.6471 -0.3074
 7129SOL    HW133020   0.779   3.497   9.166 -0.0541  1.5772  0.5615
 7129SOL    HW233021   0.660   3.418   9.118  1.6160  1.3112 -1.9102
 7130SOL     OW33022   2.964   2.718  15.161 -0.0511  0.4512 -0.0572
 7130SOL    HW133023   2.888   2.729  15.218 -0.3958 -0.1706 -0.3964
 7130SOL    HW233024   3.020   2.793  15.179  1.7133 -1.1121  0.9256
 7131SOL     OW33025   0.220   0.283   2.487 -0.2065 -0.3801 -0.4443
 7131SOL    HW133026   0.263   0.238   2.560 -0.0220 -0.4479 -0.5962
 7131SOL    HW233027   0.294   0.291   2.427 -0.7493  1.5221 -0.8521
 7132SOL     OW33028   1.848   1.541   8.414 -0.2293  0.3537  0.3148
 7132SOL    HW133029   1.923   1.482   8.415  0.5492  1.3528  1.2793
 7132SOL    HW233030   1.805   1.524   8.330  0.3128 -2.7860  0.6553
 7133SOL     OW33031   3.400   2.951  12.409 -0.1703 -0.2548  0.0645
 7133SOL    HW133032   3.351   2.891  12.465  1.5447  0.2599  2.1323
 7133SOL    HW233033   3.439   2.892  12.346  1.0381  2.5848 -1.8697
 7134SOL     OW33034   1.957   0.485   7.090  0.0743  0.6095  0.4411
 7134SOL    HW133035   1.930   0.531   7.010 -0.2499 -0.0913  0.1469
 7134SOL    HW233036   2.050   0.475   7.070 -0.3970 -0.9481 -0.9509
 7135SOL     OW33037   4.172   0.762   2.878  0.4288  0.0837  0.4535
 7135SOL    HW133038   4.113   0.726   2.945 -1.8100  1.2528 -0.9039
 7135SOL    HW233039   4.195   0.837   2.934 -1.4377  2.2441 -1.6916
 7136SOL     OW33040   3.197   2.240   8.089 -0.3819 -0.3739 -0.2839
 7136SOL    HW133041   3.106   2.248   8.061 -0.4325  0.1784  0.0316
 7136SOL    HW233042   3.195   2.294   8.168  2.1122 -0.8409  0.1158
 7137SOL     OW33043   3.482   1.199   4.127 -0.6390  0.3420 -0.0508
 7137SOL    HW133044   3.569   1.223   4.158 -1.3378  0.9988  1.4185
 7137SOL    HW233045   3.425   1.211   4.203  1.2000 -0.6308  1.4741
 7138SOL     OW33046   3.835   3.332   8.214 -0.0745 -0.0160  0.3356
 7138SOL    HW133047   3.864   3.241   8.207  1.3595  0.5583 -1.3009
 7138SOL    HW233048   3.846   3.351   8.308 -0.8838  1.7535  0.0725
 7139SOL     OW33049   3.653   2.167  15.918 -0.0304 -0.2207  0.5979
 7139SOL    HW133050   3.681   2.253  15.950  1.1831 -0.1344 -0.7268
 7139SOL    HW233051   3.603   2.184  15.839 -0.5607 -0.7408  0.8174
 7140SOL     OW33052   2.239   0.159   5.556  0.0755 -0.3695  0.3028
 7140SOL    HW133053   2.185   0.176   5.633  0.5096  3.5622 -0.2784
 7140SOL    HW233054   2.214   0.068   5.542  1.0558 -0.8235  1.4949
 7141SOL     OW33055   3.888   1.003   0.134  0.1925  0.2808 -0.5986
 7141SOL    HW133056   3.868   1.090   0.168  0.1763  0.0185  0.0746
 7141SOL    HW233057   3.955   0.989   0.201  0.2048  1.9617 -0.2635
 7142SOL     OW33058   3.529   3.750   8.585 -0.0804  0.5271  0.1749
 7142SOL    HW133059   3.491   3.717   8.504 -0.8009 -1.1709  1.2183
 7142SOL    HW233060   3.606   3.693   8.591  0.9365  1.7886 -0.8135
 7143SOL     OW33061   4.384   0.504   8.047  0.0813 -0.1541  0.5015
 7143SOL    HW133062   4.384   0.532   8.139 -0.8029  2.0215 -0.1707
 7143SOL    HW233063   4.434   0.422   8.048 -0.3306 -0.4359 -2.1930
 7144SOL     OW33064   2.959   1.312   2.095 -0.7918  0.0755 -0.4077
 7144SOL    HW133065   2.866   1.314   2.076 -1.1568  0.8114  1.4905
 7144SOL    HW233066   2.995   1.358   2.019  2.7317  0.0394  1.2191
 7145SOL     OW33067   0.576   3.965  14.792  0.2673 -0.0600  0.4762
 7145SOL    HW133068   0.517   3.965  14.866 -2.2531  3.2096 -1.5192
 7145SOL    HW233069   0.641   4.029  14.821  0.0405  0.7767 -0.8467
 7146SOL     OW33070   4.627   2.474  12.225 -0.5967 -0.0940  0.3164
 7146SOL    HW133071   4.670   2.556  12.198  1.1997 -0.9418  0.5917
 7146SOL    HW233072   4.555   2.476  12.162 -0.4812 -0.4925  0.1741
 7147SOL     OW33073   2.214   3.609   6.709 -0.1561  0.0567 -0.0843
 7147SOL    HW133074   2.269   3.564   6.773 -0.7619 -1.3525 -0.5277
 7147SOL    HW233075   2.129   3.569   6.726  0.7416 -2.1488 -0.7895
 7148SOL     OW33076   4.071   4.433   7.856 -0.0580  0.1705 -0.0481
 7148SOL    HW133077   4.060   4.338   7.858  0.6564  0.0831 -0.6736
 7148SOL    HW233078   4.139   4.445   7.922  2.2163 -2.3791 -1.9775
 7149SOL     OW33079   3.695   4.212   3.613 -0.2051 -0.4347  0.8858
 7149SOL    HW133080   3.628   4.170   3.559  0.6003  1.3252 -1.4874
 7149SOL    HW233081   3.778   4.186   3.571  0.0188  0.7558  0.6059
 7150SOL     OW33082   1.552   3.621  10.309  0.0752  0.5133 -0.6891
 7150SOL    HW133083   1.511   3.628  10.395  0.1286  3.8752 -0.9509
 7150SOL    HW233084   1.636   3.577  10.326  1.2346  2.4594 -1.3542
 7151SOL     OW33085   2.228   3.819   9.554  0.0504  0.4172  0.0180
 7151SOL    HW133086   2.281   3.748   9.520 -2.1902 -0.3732 -1.7607
 7151SOL    HW233087   2.285   3.870   9.613  0.3118 -0.6278  0.6577
 7152SOL     OW33088   2.864   1.004   2.003 -0.0227  0.0760  0.6005
 7152SOL    HW133089   2.914   1.064   2.060  0.9530  0.5409 -0.7600
 7152SOL    HW233090   2.774   1.012   2.035  0.2675  1.1048  1.1678
 7153SOL     OW33091   3.466   4.004   3.461 -0.2147 -0.6753 -0.0047
 7153SOL    HW133092   3.404   3.959   3.518  0.5599 -1.6765  0.0371
 7153SOL    HW233093   3.437   4.095   3.470  1.4073 -0.2319  0.7399
 7154SOL     OW33094   1.857   4.644   2.855  0.3953 -0.0967 -0.4538
 7154SOL    HW133095   1.887   4.735   2.858 -0.0750  0.0788 -1.1150
 7154SOL    HW233096   1.762   4.660   2.862  0.5344  0.5835 -0.0756
 7155SOL     OW33097   2.173   4.085  11.579  0.6529 -0.5563 -0.4563
 7155SOL    HW133098   2.170   4.140  11.657 -0.1380  0.2776 -1.0667
 7155SOL    HW233099   2.140   4.148  11.515  1.1297 -0.7782 -0.9235
 7156SOL     OW33100   4.725   3.982   7.164  0.2019  0.6397  0.3994
 7156SOL    HW133101   4.677   4.045   7.110 -0.8148 -1.6085 -1.3285
 7156SOL    HW233102   4.718   4.025   7.249 -0.8896  3.4191 -1.0989
 7157SOL     OW33103   0.518   1.220   8.302 -0.4358 -0.2047 -0.4519
 7157SOL    HW133104   0.430   1.245   8.329 -1.0406 -1.0961 -1.6364
 7157SOL    HW233105   0.545   1.148   8.360  1.6092  0.9235 -0.0131
 7158SOL     OW33106   2.036   1.362   8.832 -0.2160 -0.0270 -0.2882
 7158SOL    HW133107   1.964   1.304   8.808  0.5085 -0.1332 -2.1709
 7158SOL    HW233108   2.009   1.445   8.794  2.0189  1.1792  0.7511
 7159SOL     OW33109   3.378   1.876   6.181 -0.4329  0.4893  0.6557
 7159SOL    HW133110   3.343   1.790   6.204  0.6107 -0.3371 -0.7804
 7159SOL    HW233111   3.473   1.867   6.190 -0.1283  1.5915 -1.2938
 7160SOL     OW33112   2.864   1.700   5.266  0.1299  0.1173  0.0826
 7160SOL    HW133113   2.806   1.695   5.190 -0.7546 -0.5424  0.7990
 7160SOL    HW233114   2.910   1.781   5.244 -0.6363  1.0446  1.8845
 7161SOL     OW33115   3.228   0.176   6.782  0.0808  0.7216 -0.0146
 7161SOL    HW133116   3.225   0.126   6.701 -0.8028  3.0926 -1.4611
 7161SOL    HW233117   3.151   0.128   6.811 -0.7687  1.9829 -0.1740
 7162SOL     OW33118   4.616   2.405   4.608  0.0912  0.8984  0.1605
 7162SOL    HW133119   4.651   2.432   4.523 -0.7781  1.4044 -0.0394
 7162SOL    HW233120   4.528   2.392   4.572 -0.0510  1.8189  0.1795
 7163SOL     OW33121   3.444   1.542   1.854 -0.0730 -0.6970  0.4616
 7163SOL    HW133122   3.457   1.448   1.865  2.7929 -0.7405 -3.0796
 7163SOL    HW233123   3.457   1.539   1.759  0.1483  3.5978  0.3864
 7164SOL     OW33124   0.519   3.492   2.327 -0.1146 -0.5224  0.1878
 7164SOL    HW133125   0.567   3.512   2.247 -0.4105  0.2020  0.1915
 7164SOL    HW233126   0.507   3.398   2.311  0.6621 -0.9520  2.1798
 7165SOL     OW33127   3.231   0.243   8.880  0.3712  0.5089  0.3148
 7165SOL    HW133128   3.176   0.288   8.816 -0.1718 -0.8694 -0.1862
 7165SOL    HW233129   3.251   0.311   8.944 -0.8153  1.1232  0.0346
 7166SOL     OW33130   2.166   3.495   3.220  0.4708  0.2741  0.0068
 7166SOL    HW133131   2.231   3.473   3.152 -0.9566 -1.0144 -0.9437
 7166SOL    HW233132   2.098   3.538   3.168 -0.0348  1.5279  1.6929
 7167SOL     OW33133   4.643   3.035   9.685 -0.1396  0.3264 -0.3975
 7167SOL    HW133134   4.591   2.982   9.624  1.6860 -1.6357 -0.2638
 7167SOL    HW233135   4.709   3.073   9.626  1.4924 -2.7860 -0.6055
 7168SOL     OW33136   1.396   0.253   7.864  0.0140 -0.3232 -0.1665
 7168SOL    HW133137   1.370   0.210   7.783  2.4559 -1.3368 -0.3939
 7168SOL    HW233138   1.375   0.182   7.925 -2.5463  0.9926  0.4718
 7169SOL     OW33139   3.904   2.267  13.493 -0.2244  0.5040  0.3426
 7169SOL    HW133140   3.878   2.336  13.433 -2.1161 -1.0935 -0.6744
 7169SOL    HW233141   3.917   2.319  13.572 -4.9798  0.9137  0.8264
 7170SOL     OW33142   0.012   4.193   7.775  0.2315  0.2562  0.1728
 7170SOL    HW133143   0.076   4.263   7.761 -1.3641  1.6370 -0.3300
 7170SOL    HW233144   0.068   4.125   7.811  0.3739  0.1805 -0.1836
 7171SOL     OW33145   1.401   4.252   7.750  0.1577  0.4291 -0.5716
 7171SOL    HW133146   1.377   4.201   7.828 -0.2156  1.2461 -0.1492
 7171SOL    HW233147   1.318   4.228   7.708  0.8101 -3.1047  0.1386
 7172SOL     OW33148   3.473   4.626   2.295 -0.1960 -0.0698  0.7697
 7172SOL    HW133149   3.562   4.656   2.314  0.4747 -0.9846 -0.9860
 7172SOL    HW233150   3.429   4.649   2.377 -1.2266  0.9529 -0.0755
 7173SOL     OW33151   0.193   4.468  17.534 -0.7451  0.2616 -0.2199
 7173SOL    HW133152   0.234   4.554  17.532  1.9197 -1.0438 -1.7279
 7173SOL    HW233153   0.214   4.442  17.623  1.9215  1.8566 -0.3980
 7174SOL     OW33154   1.389   1.710   2.239 -0.3265  0.5026 -0.4392
 7174SOL    HW133155   1.431   1.726   2.155  0.8091 -0.5267 -0.0696
 7174SOL    HW233156   1.459   1.687   2.300 -0.5884  3.0899  0.8378
 7175SOL     OW33157   0.026   1.575   7.262 -0.1003  0.3890 -0.3321
 7175SOL    HW133158   0.092   1.586   7.331  0.1884  1.6674 -0.8077
 7175SOL    HW233159   4.732   1.485   7.270  1.2248 -0.2414 -2.4278
 7176SOL     OW33160   3.041   0.853  13.176 -0.5147 -0.1515  0.5763
 7176SOL    HW133161   2.946   0.866  13.185 -0.4638  1.7631 -1.7052
 7176SOL    HW233162   3.071   0.927  13.228 -1.0483 -0.5646  1.4700
 7177SOL     OW33163   3.126   0.584   7.102  0.1502 -0.5301 -0.1988
 7177SOL    HW133164   3.098   0.670   7.070 -0.4446  0.3271  2.5636
 7177SOL    HW233165   3.177   0.614   7.178  1.7857 -1.0663 -1.0801
 7178SOL     OW33166   1.807   1.314  12.035  0.5902  0.0649 -0.3502
 7178SOL    HW133167   1.758   1.264  11.970 -0.7831  1.1852 -0.1700
 7178SOL    HW233168   1.770   1.402  12.029  0.0351 -0.1450  0.0490
 7179SOL     OW33169   1.567   1.221   7.255  0.3866  0.2137 -0.1983
 7179SOL    HW133170   1.512   1.249   7.329  0.1424  0.5149 -0.4937
 7179SOL    HW233171   1.652   1.209   7.298  1.6086  0.5755 -2.5236
 7180SOL     OW33172   0.863   3.837   6.143 -0.4139 -0.0811  0.0522
 7180SOL    HW133173   0.828   3.769   6.085  1.4171  0.7535 -2.0099
 7180SOL    HW233174   0.830   3.814   6.230 -1.1463 -2.2387 -0.8071
 7181SOL     OW33175   1.562   2.221   9.069  0.2931  0.1218 -0.5653
 7181SOL    HW133176   1.473   2.185   9.075  1.0327 -1.0371  3.0410
 7181SOL    HW233177   1.591   2.194   8.981  0.6959  0.7858 -0.6364
 7182SOL     OW33178   0.796   2.341   5.699  0.2109 -0.0571 -0.0364
 7182SOL    HW133179   0.801   2.302   5.612 -1.6840 -0.3605 -0.0107
 7182SOL    HW233180   0.757   2.425   5.673  1.9870  0.9951  0.7356
 7183SOL     OW33181   0.673   3.702   4.258 -0.1271 -0.1987 -0.0725
 7183SOL    HW133182   0.604   3.719   4.322 -0.5588 -0.3496 -0.4977
 7183SOL    HW233183   0.646   3.757   4.184 -0.0550  1.1460  0.9052
 7184SOL     OW33184   4.670   2.566   7.767  0.8111 -0.0615  0.1578
 7184SOL    HW133185   4.648   2.617   7.689  0.1109 -1.8004 -0.8079
 7184SOL    HW233186   4.606   2.496   7.753  1.2081  0.0148 -2.0355
 7185SOL     OW33187   2.230   2.072  15.215  0.8503 -0.4558  0.1914
 7185SOL    HW133188   2.162   2.032  15.270  1.4478  0.8159  1.8708
 7185SOL    HW233189   2.278   1.993  15.189  0.6693 -0.1445 -1.0811
 7186SOL     OW33190   1.204   3.933   5.668  0.4631  0.4482  0.0192
 7186SOL    HW133191   1.113   3.908   5.654  0.3911  0.1263  1.0561
 7186SOL    HW233192   1.226   3.900   5.755 -0.1613  1.4974  0.5713
 7187SOL     OW33193   4.668   0.820   8.874  0.5214  0.5951 -0.5487
 7187SOL    HW133194   4.579   0.788   8.884  0.0891  1.8425 -0.3058
 7187SOL    HW233195   4.713   0.737   8.886  0.9028  1.0659  1.2130
 7188SOL     OW33196   4.084   4.541   8.328  0.4098  0.3131 -0.0705
 7188SOL    HW133197   4.117   4.622   8.290  0.0875  0.3360 -0.3048
 7188SOL    HW233198   4.080   4.496   8.243 -1.3733 -0.7346  0.5700
 7189SOL     OW33199   4.377   2.742   5.313 -0.0997  0.1968 -0.1589
 7189SOL    HW133200   4.458   2.691   5.317 -1.2322 -1.4316  1.8260
 7189SOL    HW233201   4.312   2.684   5.352  0.7374  0.4812  1.6290
 7190SOL     OW33202   4.224   3.817  15.610 -0.5239  0.5081  0.0268
 7190SOL    HW133203   4.164   3.749  15.643 -0.0975 -1.1765 -2.6671
 7190SOL    HW233204   4.304   3.794  15.658 -0.4694  2.4682  0.8868
 7191SOL     OW33205   0.889   0.515   2.390  0.3902 -0.1938 -0.0338
 7191SOL    HW133206   0.803   0.538   2.426  0.2587 -0.0630 -0.4227
 7191SOL    HW233207   0.864   0.474   2.307 -2.4018 -1.9099  1.6655
 7192SOL     OW33208   3.898   3.873   7.050  0.4977  0.5561  0.2942
 7192SOL    HW133209   3.893   3.781   7.076  1.1835  0.9301  1.7562
 7192SOL    HW233210   3.954   3.867   6.972  1.0247  1.9138  0.5668
 7193SOL     OW33211   0.579   3.172  17.289 -0.2844 -0.2259  0.0000
 7193SOL    HW133212   0.540   3.212  17.211 -1.3769  0.2163  0.7703
 7193SOL    HW233213   0.529   3.208  17.363 -1.0684 -1.5814  0.1266
 7194SOL     OW33214   4.190   2.935   9.271 -0.2226  0.0080  0.2675
 7194SOL    HW133215   4.149   2.854   9.300  1.0695 -0.0950  1.7865
 7194SOL    HW233216   4.260   2.893   9.221 -1.2147  0.7951 -1.8222
 7195SOL     OW33217   1.543   2.646   6.077 -0.1096  0.5271  0.2840
 7195SOL    HW133218   1.450   2.661   6.064 -0.6331 -0.6859  2.6815
 7195SOL    HW233219   1.592   2.672   5.999 -2.4108  2.7777 -0.4202
 7196SOL     OW33220   0.870   0.698  10.017  0.3098 -0.0382  0.0484
 7196SOL    HW133221   0.921   0.723  10.094  0.6444 -2.0630  0.4688
 7196SOL    HW233222   0.934   0.666   9.954  1.8171  1.3084  0.8980
 7197SOL     OW33223   2.537   4.311   3.507  0.0557  0.0910  0.5143
 7197SOL    HW133224   2.469   4.290   3.444  1.8570 -2.4033 -0.5841
 7197SOL    HW233225   2.504   4.395   3.541  1.3022  1.1077 -0.7877
 7198SOL     OW33226   3.882   1.946   7.388 -0.1554 -0.2980 -0.0385
 7198SOL    HW133227   3.816   1.948   7.457  0.1389 -3.2440  0.3230
 7198SOL    HW233228   3.876   2.033   7.349  3.9733  0.2913  0.5862
 7199SOL     OW33229   3.900   0.582   7.923 -0.9529 -0.0301 -0.1778
 7199SOL    HW133230   3.841   0.508   7.915 -1.8769  0.7817 -0.7931
 7199SOL    HW233231   3.919   0.589   7.830  0.2033  1.2911  0.1413
 7200SOL     OW33232   4.076   3.120   8.359  0.5482 -0.0914 -0.7934
 7200SOL    HW133233   4.038   3.034   8.342  1.0311 -0.9556  2.5615
 7200SOL    HW233234   4.088   3.122   8.454  2.8526  2.9574 -1.1557
 7201SOL     OW33235   1.681   4.564   8.316  0.1413 -0.3129  0.8916
 7201SOL    HW133236   1.715   4.628   8.253 -0.9873 -0.2438  0.3598
 7201SOL    HW233237   1.755   4.552   8.376  0.1951 -1.3245  0.6207
 7202SOL     OW33238   2.776   3.086  15.586 -0.2647  0.2177  0.4501
 7202SOL    HW133239   2.729   3.009  15.554 -1.5562  1.0783  0.3075
 7202SOL    HW233240   2.865   3.051  15.590 -0.6735 -0.9536 -0.5913
 7203SOL     OW33241   1.639   3.578   7.849  0.2604  0.2000  0.2571
 7203SOL    HW133242   1.679   3.585   7.935 -1.2732 -0.9773  1.0656
 7203SOL    HW233243   1.580   3.653   7.855  3.9240  2.9351  2.1395
 7204SOL     OW33244   2.531   3.199   4.807  0.2896 -0.6138 -0.4296
 7204SOL    HW133245   2.495   3.233   4.890 -1.2888  1.1285 -1.8127
 7204SOL    HW233246   2.624   3.207   4.825  0.4125  0.7656 -1.6821
 7205SOL     OW33247   1.278   0.496   7.589 -0.7593 -0.0982  0.1385
 7205SOL    HW133248   1.333   0.464   7.517 -0.1352  1.2433  0.0177
 7205SOL    HW233249   1.228   0.418   7.615  0.5152 -1.0634 -0.2768
 7206SOL     OW33250   3.838   0.578  13.755  0.3101  0.1206  0.2165
 7206SOL    HW133251   3.749   0.609  13.735 -1.1142 -3.2234  1.4839
 7206SOL    HW233252   3.877   0.567  13.668  0.0420 -0.3062  0.1525
 7207SOL     OW33253   1.401   4.567   0.477 -0.2002 -0.5317 -0.2375
 7207SOL    HW133254   1.419   4.475   0.455  2.0591  0.3408 -2.0339
 7207SOL    HW233255   1.314   4.555   0.517  1.5268 -0.1865  3.5967
 7208SOL     OW33256   0.853   4.571   9.517 -0.1286 -0.1810  0.2884
 7208SOL    HW133257   0.774   4.605   9.558 -0.8738  0.2915 -1.5520
 7208SOL    HW233258   0.869   4.498   9.578 -1.0213  0.6443  1.5256
 7209SOL     OW33259   2.972   3.032   9.172  0.3040 -0.0063  0.6201
 7209SOL    HW133260   2.924   3.084   9.108  0.5181  1.0099  1.2911
 7209SOL    HW233261   2.901   2.990   9.221 -0.0578 -0.3159 -0.1662
 7210SOL     OW33262   3.171   0.076  14.005  0.1777  0.0990 -1.0596
 7210SOL    HW133263   3.250   0.081  13.952  1.9604  1.0880  1.7111
 7210SOL    HW233264   3.196   0.134  14.076 -2.5256 -0.1118  0.0902
 7211SOL     OW33265   4.677   0.824  15.289  0.0776 -0.3553 -0.1238
 7211SOL    HW133266   4.665   0.841  15.383  0.8984  0.9692 -0.2543
 7211SOL    HW233267   4.588   0.800  15.262  0.1448 -0.5130 -0.2061
 7212SOL     OW33268   1.746   0.276   5.246 -0.3131 -0.1532 -0.8955
 7212SOL    HW133269   1.824   0.278   5.301 -0.1372  0.5855 -1.1676
 7212SOL    HW233270   1.704   0.193   5.270  1.6301 -0.4011  1.5785
 7213SOL     OW33271   3.957   2.667   6.445 -0.3137  0.1583 -0.0588
 7213SOL    HW133272   4.005   2.613   6.383 -2.0563 -1.4776 -0.0035
 7213SOL    HW233273   3.972   2.607   6.519  0.8974  1.5182  0.7881
 7214SOL     OW33274   1.074   0.576  13.732 -0.7550 -0.0754 -0.6743
 7214SOL    HW133275   1.064   0.488  13.695  0.5550  1.2294 -4.2062
 7214SOL    HW233276   1.100   0.553  13.821  2.1696  0.4966 -1.3652
 7215SOL     OW33277   1.176   3.843   0.604 -0.5866 -0.2664 -0.1985
 7215SOL    HW133278   1.212   3.779   0.666 -3.1081 -1.6353 -0.1490
 7215SOL    HW233279   1.133   3.911   0.656  0.0789 -0.0248  0.0364
 7216SOL     OW33280   2.479   1.485   8.607  0.1675 -0.1322  0.0122
 7216SOL    HW133281   2.526   1.562   8.638 -0.6865  0.6349 -0.6052
 7216SOL    HW233282   2.541   1.420   8.640 -0.7334  0.5614  2.9908
 7217SOL     OW33283   4.682   0.417   0.811 -0.0800  0.0515  1.3492
 7217SOL    HW133284   4.686   0.504   0.771  2.5176  0.1749  1.8973
 7217SOL    HW233285   4.661   0.435   0.902 -1.3741  2.7731  0.5306
 7218SOL     OW33286   1.659   3.844   2.196 -0.4996 -0.6888  0.2432
 7218SOL    HW133287   1.754   3.841   2.184 -0.5403 -0.3764 -0.1757
 7218SOL    HW233288   1.611   3.860   2.115  0.1677  1.1649  0.2054
 7219SOL     OW33289   4.568   3.480   6.669 -0.0427  0.1662  0.1377
 7219SOL    HW133290   4.586   3.536   6.593 -0.7729 -0.7169 -0.6799
 7219SOL    HW233291   4.549   3.539   6.742 -0.0781  0.2984  0.0239
 7220SOL     OW33292   2.926   0.339  11.877  0.3952  0.0944 -0.1047
 7220SOL    HW133293   2.950   0.263  11.824  0.3343 -0.1446  0.2130
 7220SOL    HW233294   2.834   0.351  11.853 -0.6163  0.0014  3.8167
 7221SOL     OW33295   3.545   3.275   1.836  0.4428  0.2232 -0.2212
 7221SOL    HW133296   3.632   3.246   1.866  0.6169  1.0293  0.0513
 7221SOL    HW233297   3.545   3.360   1.880 -0.7054 -0.1697  0.5273
 7222SOL     OW33298   2.999   0.494   8.284  0.1525 -0.8792 -0.1335
 7222SOL    HW133299   2.940   0.564   8.257  0.0760 -1.7272 -2.1379
 7222SOL    HW233300   2.946   0.423   8.320  0.7486 -0.9885  0.5416
 7223SOL     OW33301   1.832   0.904  15.479  0.8352 -0.1955  0.2483
 7223SOL    HW133302   1.823   0.908  15.574  1.1544  0.5785  0.2452
 7223SOL    HW233303   1.893   0.831  15.476  0.2935 -0.6950  1.5827
 7224SOL     OW33304   1.756   3.539   8.089 -0.0667  0.1288 -0.2116
 7224SOL    HW133305   1.711   3.585   8.160 -0.3951  1.5344 -1.3358
 7224SOL    HW233306   1.761   3.450   8.123 -0.6228  1.0218  2.2326
 7225SOL     OW33307   4.051   0.912   4.895  0.2796 -0.3694 -0.8507
 7225SOL    HW133308   4.135   0.933   4.855  2.1880 -0.9616  2.8650
 7225SOL    HW233309   4.005   0.995   4.879 -0.7480 -0.6441  0.6979
 7226SOL     OW33310   0.526   2.530   9.329  0.0409 -0.8989 -0.1999
 7226SOL    HW133311   0.534   2.456   9.267 -1.3665 -1.1807 -0.0503
 7226SOL    HW233312   0.462   2.590   9.291  0.8429  1.4193  2.1844
 7227SOL     OW33313   2.124   3.329   9.015  0.0866 -0.2389 -0.6306
 7227SOL    HW133314   2.201   3.277   8.991  1.6971  1.1584  1.5420
 7227SOL    HW233315   2.168   3.412   9.031 -1.1111 -0.0175  1.5023
 7228SOL     OW33316   4.376   4.441  11.604 -0.8457 -0.8535  0.4320
 7228SOL    HW133317   4.370   4.442  11.699 -0.6128  1.8828  0.4114
 7228SOL    HW233318   4.469   4.421  11.592 -1.1106 -1.9032  0.1247
 7229SOL     OW33319   2.235   0.255  16.544 -0.0482  0.0808  0.7289
 7229SOL    HW133320   2.198   0.196  16.610 -0.6204  0.4719  0.7661
 7229SOL    HW233321   2.232   0.333  16.598 -0.8742 -0.0082  0.8160
 7230SOL     OW33322   2.042   1.762   8.335  0.5200  0.2132 -0.1976
 7230SOL    HW133323   1.955   1.780   8.371 -1.3863 -0.3408 -4.4978
 7230SOL    HW233324   2.060   1.679   8.381 -2.5839 -0.6364 -0.5082
 7231SOL     OW33325   1.894   2.194   4.934 -0.1948  0.1463 -0.6451
 7231SOL    HW133326   1.947   2.250   4.878  0.8934 -0.2759 -0.0341
 7231SOL    HW233327   1.805   2.228   4.923  0.1178  1.6132  1.3403
 7232SOL     OW33328   2.262   2.457   4.671 -0.0916 -0.0616  0.3319
 7232SOL    HW133329   2.286   2.365   4.665  0.6181  0.1331  0.1524
 7232SOL    HW233330   2.329   2.491   4.731  0.1230  0.3244 -0.1221
 7233SOL     OW33331   2.008   2.012   1.543 -0.0510  0.3897  0.0780
 7233SOL    HW133332   1.955   2.085   1.514 -1.0807  0.3920  1.9186
 7233SOL    HW233333   2.002   1.958   1.464  0.0665 -1.8682  1.5968
 7234SOL     OW33334   1.277   2.403   1.302 -0.2506  0.3120  0.6678
 7234SOL    HW133335   1.197   2.449   1.276 -1.0275 -1.1010  0.5957
 7234SOL    HW233336   1.284   2.419   1.396  1.1907 -0.5413  0.7013
 7235SOL     OW33337   1.313   0.412   1.645 -0.5415  0.3363  0.0377
 7235SOL    HW133338   1.366   0.333   1.654 -1.7568 -0.3869  0.8325
 7235SOL    HW233339   1.378   0.479   1.669 -0.0607  0.4219 -1.5153
 7236SOL     OW33340   2.313   2.563   4.219 -0.3153  0.4492 -0.2522
 7236SOL    HW133341   2.284   2.545   4.130  0.0109 -0.4357 -0.1885
 7236SOL    HW233342   2.308   2.658   4.228 -0.7461  0.3587  0.4438
 7237SOL     OW33343   3.045   1.452   1.170 -0.3138  0.6458  0.1513
 7237SOL    HW133344   3.051   1.373   1.115 -3.2697  0.7837 -0.3941
 7237SOL    HW233345   3.137   1.478   1.172  0.2141 -1.2228  0.4761
 7238SOL     OW33346   0.084   0.383   1.866 -0.4658 -0.0013 -0.1716
 7238SOL    HW133347   0.049   0.304   1.906 -1.3582  0.8157  0.6640
 7238SOL    HW233348   0.096   0.435   1.945  0.4377 -2.3499  1.2260
 7239SOL     OW33349   1.053   1.247   5.108  0.0100  0.1509 -0.3184
 7239SOL    HW133350   1.056   1.208   5.195 -0.8079 -0.5147 -0.5851
 7239SOL    HW233351   1.147   1.260   5.109  0.2927 -1.6770 -2.0929
 7240SOL     OW33352   1.944   1.154   2.982 -0.2870 -0.1936 -0.8158
 7240SOL    HW133353   1.876   1.107   2.934 -1.3799  0.3915  0.1386
 7240SOL    HW233354   1.973   1.091   3.048  0.2616 -1.3230 -2.1407
 7241SOL     OW33355   3.016   2.991   0.965 -0.4625  0.1222 -0.5764
 7241SOL    HW133356   3.105   3.007   0.995 -1.5940  0.1419  2.7682
 7241SOL    HW233357   3.039   2.952   0.881 -0.2639  0.5005 -0.6971
 7242SOL     OW33358   3.600   2.941   6.014  0.0461 -0.4815  0.2893
 7242SOL    HW133359   3.634   2.972   5.931 -0.8581 -2.5981 -0.8671
 7242SOL    HW233360   3.666   2.872   6.027  0.4929 -0.4687 -2.0552
 7243SOL     OW33361   2.408   3.173   4.086  0.0987  0.5127  0.2756
 7243SOL    HW133362   2.405   3.084   4.050 -0.3386 -0.4977  2.8335
 7243SOL    HW233363   2.497   3.190   4.056  0.0159  0.5796  0.0629
 7244SOL     OW33364   2.374   0.743  15.531 -0.7795  0.0543 -0.3564
 7244SOL    HW133365   2.347   0.657  15.499 -0.8871 -0.2440  0.5220
 7244SOL    HW233366   2.469   0.732  15.526 -0.8331 -0.4065 -0.3598
 7245SOL     OW33367   2.754   4.011   2.837 -0.0190 -0.8825 -0.4869
 7245SOL    HW133368   2.691   3.938   2.844 -0.7781 -0.1444  0.4211
 7245SOL    HW233369   2.804   3.993   2.757  2.3818  2.0691  0.3606
 7246SOL     OW33370   2.016   1.654   3.597  0.1074 -0.7047  0.0627
 7246SOL    HW133371   2.029   1.606   3.679 -1.0901  1.7878  1.7420
 7246SOL    HW233372   1.952   1.607   3.545 -0.1748  0.6566 -0.8303
 7247SOL     OW33373   0.640   1.463   7.958  0.0331 -0.4059  0.7108
 7247SOL    HW133374   0.679   1.483   7.873  1.4931 -0.2225  1.4207
 7247SOL    HW233375   0.603   1.378   7.936 -1.1264  0.8419 -2.2353
 7248SOL     OW33376   4.171   2.830   7.065  0.4920 -0.0083  0.1951
 7248SOL    HW133377   4.134   2.777   7.135  2.2267  2.8527  3.2922
 7248SOL    HW233378   4.102   2.895   7.055  1.5513  0.7172 -2.4874
 7249SOL     OW33379   3.944   0.598  14.584 -0.2631  0.0445 -0.0565
 7249SOL    HW133380   3.878   0.656  14.547  1.2861  1.6467 -0.2802
 7249SOL    HW233381   4.027   0.616  14.540 -2.2000  3.8281 -2.1466
 7250SOL     OW33382   3.658   4.077  12.074 -0.1899  0.2902  0.1785
 7250SOL    HW133383   3.663   3.982  12.072  0.2745  0.3243 -0.2100
 7250SOL    HW233384   3.568   4.087  12.043 -0.0337  0.5552 -0.2040
 7251SOL     OW33385   2.180   0.556   8.427  0.1657  0.2658 -0.5260
 7251SOL    HW133386   2.230   0.496   8.483  0.2852  1.2919  0.4705
 7251SOL    HW233387   2.112   0.498   8.391 -0.4083  0.0774  0.8272
 7252SOL     OW33388   3.926   3.955   5.420 -0.2156  0.2130  0.1953
 7252SOL    HW133389   3.978   3.880   5.391  0.3761 -0.2508  2.4732
 7252SOL    HW233390   3.876   3.978   5.341  0.8241  1.5179 -0.0776
 7253SOL     OW33391   0.097   3.439  13.920 -0.2632  0.1215  0.3435
 7253SOL    HW133392   0.032   3.420  13.988  2.0384 -1.4880  2.0981
 7253SOL    HW233393   0.177   3.407  13.962  0.5276  1.2452 -0.3254
 7254SOL     OW33394   3.514   1.167  17.512 -0.4859 -0.5648 -0.0190
 7254SOL    HW133395   3.449   1.231  17.486 -0.3651 -1.6186 -2.8739
 7254SOL    HW233396   3.564   1.225  17.570 -1.0524 -0.7618  0.6752
 7255SOL     OW33397   0.108   4.294   3.251  0.2589 -0.2974 -0.2970
 7255SOL    HW133398   0.040   4.277   3.317 -0.5042  1.1472 -0.7078
 7255SOL    HW233399   0.129   4.386   3.265  3.2203 -1.0587  0.1781
 7256SOL     OW33400   1.188   1.049   5.811 -0.0955  0.5787 -0.2683
 7256SOL    HW133401   1.151   0.966   5.781 -2.4715  1.1632  1.0176
 7256SOL    HW233402   1.116   1.082   5.865 -0.5532 -0.0762 -0.4769
 7257SOL     OW33403   1.072   3.616  11.938 -0.5615 -0.0701 -0.2410
 7257SOL    HW133404   1.126   3.540  11.959 -0.2160  0.6883  1.5339
 7257SOL    HW233405   0.982   3.600  11.968  0.0297  0.2851  1.6527
 7258SOL     OW33406   2.184   3.107   2.942  0.1523  0.2970  0.8100
 7258SOL    HW133407   2.262   3.157   2.918 -0.0208  0.4850  0.6358
 7258SOL    HW233408   2.229   3.025   2.924  0.1604  0.7289 -1.2134
 7259SOL     OW33409   3.283   2.191   7.471 -0.5974  0.3608  0.1714
 7259SOL    HW133410   3.225   2.252   7.424 -0.5769  0.3227  0.0958
 7259SOL    HW233411   3.248   2.106   7.447 -0.6522 -0.1111  2.0024
 7260SOL     OW33412   4.368   4.152   4.613  0.3909  0.3068  0.2084
 7260SOL    HW133413   4.338   4.079   4.558  0.7195  1.1316 -1.0531
 7260SOL    HW233414   4.288   4.204   4.613  0.2676  0.1195  0.0552
 7261SOL     OW33415   0.577   3.857   0.275  0.5953  0.2872 -0.0476
 7261SOL    HW133416   0.667   3.846   0.307  0.2694 -2.1001  0.0856
 7261SOL    HW233417   0.535   3.872   0.360  1.2368  0.7493  0.1874
 7262SOL     OW33418   3.127   1.849  17.224  0.1294 -0.1938  0.0129
 7262SOL    HW133419   3.050   1.814  17.270  1.0210 -3.4484 -0.9588
 7262SOL    HW233420   3.194   1.822  17.288 -0.1717 -2.5639 -0.6585
 7263SOL     OW33421   1.050   0.475   2.788  0.4977  0.2864  0.1576
 7263SOL    HW133422   1.077   0.509   2.702  0.7644  0.8548  0.4671
 7263SOL    HW233423   1.135   0.440   2.814  1.1468  1.4042 -0.4566
 7264SOL     OW33424   0.033   4.076   7.407 -0.3089  0.1804  0.2612
 7264SOL    HW133425   0.086   4.106   7.481 -0.8799  0.2777  0.6319
 7264SOL    HW233426   4.705   4.018   7.449 -0.0148 -0.1532  0.2454
 7265SOL     OW33427   3.636   4.148   2.667 -0.2772 -0.3472 -0.1110
 7265SOL    HW133428   3.682   4.232   2.664 -0.5505 -0.1276  1.6769
 7265SOL    HW233429   3.647   4.133   2.761  1.3958  2.8642  0.1933
 7266SOL     OW33430   1.090   3.124   5.094  0.6187  0.2683  0.9569
 7266SOL    HW133431   1.128   3.103   5.008 -0.4820 -2.4206  1.1007
 7266SOL    HW233432   1.146   3.086   5.161  1.4555  1.7589  1.0767
 7267SOL     OW33433   0.984   2.901   6.463 -0.4733  0.0781  0.0346
 7267SOL    HW133434   1.036   2.821   6.457  0.2950  0.3791  2.5282
 7267SOL    HW233435   1.020   2.962   6.398  1.5198 -2.5641 -1.3306
 7268SOL     OW33436   1.985   3.816   8.554  0.1569  0.1114  0.4469
 7268SOL    HW133437   2.019   3.905   8.564 -2.0388  0.9142  0.7360
 7268SOL    HW233438   2.045   3.780   8.488 -1.0025  0.7432 -0.9479
 7269SOL     OW33439   3.727   3.181   3.628 -0.0469  0.2244 -0.4229
 7269SOL    HW133440   3.808   3.231   3.619 -0.9419  1.4318 -1.6849
 7269SOL    HW233441   3.756   3.120   3.696 -1.4504 -0.3143 -0.3020
 7270SOL     OW33442   2.858   4.481   6.040 -0.1032  0.1609  0.7758
 7270SOL    HW133443   2.779   4.460   5.989 -0.4062 -0.0622  1.3389
 7270SOL    HW233444   2.855   4.402   6.094  0.4794  0.3582  1.0942
 7271SOL     OW33445   0.411   0.623   9.964 -0.3384 -0.2237 -0.3860
 7271SOL    HW133446   0.441   0.532   9.964 -1.0168 -0.4445 -0.3078
 7271SOL    HW233447   0.482   0.668  10.011 -0.6389  1.7677 -1.8144
 7272SOL     OW33448   4.174   0.287   8.345 -0.2709  0.6555 -0.2834
 7272SOL    HW133449   4.146   0.359   8.289  1.5175  2.3108  0.9654
 7272SOL    HW233450   4.111   0.306   8.414  1.4977 -1.2240  1.8530
 7273SOL     OW33451   4.109   4.461   6.259  0.1458  0.1142 -0.4568
 7273SOL    HW133452   4.102   4.393   6.192  1.0609  0.2813 -0.7193
 7273SOL    HW233453   4.204   4.475   6.265  0.3419 -1.0541 -0.8181
 7274SOL     OW33454   2.653   0.518   7.518 -0.3449  0.6671  0.2983
 7274SOL    HW133455   2.736   0.493   7.477  0.1966 -0.0757  1.8430
 7274SOL    HW233456   2.605   0.556   7.444 -0.5909  0.8638  0.5586
 7275SOL     OW33457   0.537   0.026   8.068  0.3709 -0.0578 -0.9003
 7275SOL    HW133458   0.466   4.697   8.069  0.6632 -0.3758 -0.2937
 7275SOL    HW233459   0.570   0.021   8.158  0.2252 -1.7410 -0.9328
 7276SOL     OW33460   0.667   2.699   4.406 -0.5641  0.4112 -0.2575
 7276SOL    HW133461   0.723   2.654   4.342  1.1356  2.3125 -0.1029
 7276SOL    HW233462   0.610   2.758   4.357 -0.8671  0.4426  0.1382
 7277SOL     OW33463   0.165   3.054   9.845 -0.4955  0.0564  0.7831
 7277SOL    HW133464   0.111   2.975   9.855  1.2432 -1.1889  0.3343
 7277SOL    HW233465   0.179   3.070   9.938  1.0627 -0.6971  0.6730
 7278SOL     OW33466   2.798   3.594   3.252  0.4211  0.4344 -0.5699
 7278SOL    HW133467   2.874   3.584   3.310  1.3243  1.3345 -1.6158
 7278SOL    HW233468   2.758   3.507   3.262  2.1242 -0.2387  0.5463
 7279SOL     OW33469   2.011   0.971   3.210  0.6299 -0.4528 -0.0179
 7279SOL    HW133470   1.960   0.890   3.211 -1.5331  0.9014 -0.3874
 7279SOL    HW233471   1.981   1.010   3.292 -0.2965  1.2608 -1.1768
 7280SOL     OW33472   1.174   4.093   9.728  0.1907  0.1548 -1.0133
 7280SOL    HW133473   1.219   4.171   9.697 -2.8013  1.3331 -2.3821
 7280SOL    HW233474   1.113   4.132   9.790 -0.2793  1.5247 -2.3432
 7281SOL     OW33475   0.777   0.412   5.083  0.1124 -0.4275 -0.3371
 7281SOL    HW133476   0.823   0.371   5.009 -0.4646  1.2316 -1.6283
 7281SOL    HW233477   0.842   0.469   5.125  1.5444 -2.5658  0.3353
 7282SOL     OW33478   3.666   1.939  16.094  0.6573 -0.4870  0.7957
 7282SOL    HW133479   3.583   1.892  16.081 -1.0882  2.8598 -0.2061
 7282SOL    HW233480   3.663   2.019  16.042 -0.3813 -1.1527 -0.1755
 7283SOL     OW33481   1.981   2.421   4.793  0.2261  0.4646  0.0439
 7283SOL    HW133482   2.068   2.441   4.757 -0.1307 -0.3998 -1.3066
 7283SOL    HW233483   1.968   2.492   4.855 -1.0341  0.9151 -0.7450
 7284SOL     OW33484   4.438   1.281  17.277  0.2214 -0.3834 -0.4242
 7284SOL    HW133485   4.456   1.375  17.277  2.5340 -0.8064  1.2539
 7284SOL    HW233486   4.502   1.244  17.216  2.7754 -1.3737  2.8346
 7285SOL     OW33487   1.728   3.320   4.588 -0.0672  0.4433 -0.1362
 7285SOL    HW133488   1.747   3.226   4.584 -1.5647  0.1257  0.2899
 7285SOL    HW233489   1.777   3.345   4.666 -1.4752  0.5229  0.6994
 7286SOL     OW33490   0.446   4.443   5.364 -0.0277 -0.1412  0.2869
 7286SOL    HW133491   0.540   4.455   5.376  0.2960 -1.2414 -0.9831
 7286SOL    HW233492   0.438   4.471   5.272 -1.4767 -2.1292 -0.1911
 7287SOL     OW33493   0.439   0.810   7.231 -0.2394  0.1495  0.0721
 7287SOL    HW133494   0.357   0.855   7.251 -0.7651 -0.3956 -0.8456
 7287SOL    HW233495   0.422   0.778   7.142 -1.4510 -0.7799  0.6462
 7288SOL     OW33496   4.424   4.074   6.569  0.4310 -0.0884 -0.5581
 7288SOL    HW133497   4.505   4.124   6.559  0.6132 -0.3066 -0.1651
 7288SOL    HW233498   4.379   4.095   6.487  1.1647 -2.2797 -1.5251
 7289SOL     OW33499   2.475   0.246   3.568  0.8013  0.1850  0.2725
 7289SOL    HW133500   2.481   0.302   3.645 -1.8427  0.8140  0.0190
 7289SOL    HW233501   2.525   0.172   3.603 -0.2117 -0.9138 -0.6060
 7290SOL     OW33502   0.104   4.225  10.880 -0.0548 -0.6648  0.2225
 7290SOL    HW133503   0.154   4.193  10.955 -1.1697 -5.1040 -0.9224
 7290SOL    HW233504   0.049   4.285  10.930  1.5034  0.6391  0.3739
 7291SOL     OW33505   0.135   2.092   5.101  0.1639 -0.1933  0.2384
 7291SOL    HW133506   0.114   2.120   5.012 -1.5253 -2.5368 -0.1016
 7291SOL    HW233507   0.226   2.120   5.102 -0.2751  1.3004 -1.6060
 7292SOL     OW33508   2.416   3.582  16.333 -0.0517 -0.3055  0.5678
 7292SOL    HW133509   2.465   3.586  16.251 -1.7536  0.2824 -0.4321
 7292SOL    HW233510   2.481   3.629  16.385 -1.1039 -0.9014  2.4544
 7293SOL     OW33511   3.506   0.195   6.644 -0.6837 -0.9116 -0.0993
 7293SOL    HW133512   3.553   0.266   6.688 -1.0748  0.8389 -2.4939
 7293SOL    HW233513   3.419   0.211   6.681 -1.2334 -1.3515 -1.1878
 7294SOL     OW33514   4.220   0.364   2.284  0.4257 -0.0002  1.0878
 7294SOL    HW133515   4.196   0.387   2.194  3.4515 -0.2803  0.2270
 7294SOL    HW233516   4.204   0.445   2.332 -0.6519 -0.2949  1.2349
 7295SOL     OW33517   2.629   0.938   7.420 -0.2483  0.4394 -0.7435
 7295SOL    HW133518   2.714   0.904   7.392  0.0391 -1.5897  2.5161
 7295SOL    HW233519   2.651   1.003   7.486 -1.4190  1.9839 -1.8766
 7296SOL     OW33520   0.329   3.298   9.722 -0.0214  0.6887 -0.1279
 7296SOL    HW133521   0.348   3.221   9.776  0.0373 -2.0274 -3.9745
 7296SOL    HW233522   0.260   3.336   9.776 -0.5364  0.2841 -0.5050
 7297SOL     OW33523   3.038   0.648   8.819 -0.1133  0.0666  0.4745
 7297SOL    HW133524   3.090   0.728   8.829  0.1638  0.0203 -0.6545
 7297SOL    HW233525   2.950   0.677   8.841 -1.5392 -1.3087 -3.5656
 7298SOL     OW33526   0.824   1.768   9.404 -0.5977  0.0331  0.2506
 7298SOL    HW133527   0.753   1.745   9.343 -0.2062 -1.4817  0.3640
 7298SOL    HW233528   0.808   1.862   9.416 -2.0271 -0.1555 -0.1267
 7299SOL     OW33529   1.984   4.051   8.193 -0.2227  0.0084 -0.5696
 7299SOL    HW133530   1.923   3.977   8.195 -2.3081  1.7852  0.7262
 7299SOL    HW233531   1.924   4.123   8.174  1.8594  1.9716  0.2365
 7300SOL     OW33532   4.495   0.231   2.580  0.3995 -0.1311  0.4768
 7300SOL    HW133533   4.467   0.322   2.571  0.6890  0.1383  2.3849
 7300SOL    HW233534   4.444   0.201   2.505  2.3988  0.8028 -1.2810
 7301SOL     OW33535   1.982   2.672   2.294 -0.5647 -0.0049 -0.1965
 7301SOL    HW133536   1.904   2.698   2.344 -1.3423 -4.1286  0.7452
 7301SOL    HW233537   1.945   2.589   2.265  0.8370 -0.7902  0.2478
 7302SOL     OW33538   2.447   3.667   5.679 -0.0682  0.8253  0.0774
 7302SOL    HW133539   2.454   3.606   5.606 -0.0673  1.7330 -0.6906
 7302SOL    HW233540   2.420   3.614   5.754 -2.2165  2.3095  0.3597
 7303SOL     OW33541   3.609   2.968   0.827  0.2232 -0.0148  0.6677
 7303SOL    HW133542   3.662   2.927   0.895 -0.4096 -1.5449  0.2534
 7303SOL    HW233543   3.622   3.062   0.837  1.0254  0.3651 -3.9599
 7304SOL     OW33544   2.457   2.667   1.748  0.4356  0.2645 -0.8536
 7304SOL    HW133545   2.470   2.744   1.693  0.6934 -0.7441 -2.2078
 7304SOL    HW233546   2.547   2.637   1.760  0.1890 -0.5623 -1.0265
 7305SOL     OW33547   1.084   2.020   7.580 -0.3482  0.5376 -0.2501
 7305SOL    HW133548   1.061   1.969   7.502 -1.9841 -1.4208  1.5153
 7305SOL    HW233549   1.016   1.982   7.636  0.0798  0.1338 -0.0122
 7306SOL     OW33550   4.006   2.949  16.457  0.3882 -0.5615 -0.4308
 7306SOL    HW133551   4.064   2.997  16.516 -0.0202 -0.8117  0.1770
 7306SOL    HW233552   4.038   2.970  16.370  1.8923  0.0890  0.2935
 7307SOL     OW33553   2.153   1.692   1.915 -0.1007  0.3494 -0.1721
 7307SOL    HW133554   2.133   1.781   1.884 -1.6386  0.0491 -0.0263
 7307SOL    HW233555   2.146   1.654   1.828  2.4513  1.0598 -0.6993
 7308SOL     OW33556   0.800   4.686   6.765 -0.0171 -0.1640  0.1201
 7308SOL    HW133557   0.714   4.726   6.752 -0.5346 -1.1796  0.3927
 7308SOL    HW233558   0.860   0.020   6.743  0.7732 -0.5756  0.9869
 7309SOL     OW33559   0.703   4.281   8.893 -0.2769 -0.5934 -0.5003
 7309SOL    HW133560   0.615   4.245   8.901  1.3928 -3.9749  2.5028
 7309SOL    HW233561   0.713   4.335   8.972 -0.1769  0.0690 -0.9589
 7310SOL     OW33562   1.853   0.857   2.153 -0.5712 -0.5332  0.5500
 7310SOL    HW133563   1.783   0.818   2.206  0.8250 -6.1592 -1.7451
 7310SOL    HW233564   1.930   0.863   2.210  0.7606  0.1832 -1.3369
 7311SOL     OW33565   0.647   0.984   4.517  0.1701 -0.5540 -0.1291
 7311SOL    HW133566   0.656   1.072   4.554  0.7819  0.2387 -2.1169
 7311SOL    HW233567   0.737   0.964   4.489 -0.2113  1.0632 -2.5264
 7312SOL     OW33568   2.481   3.151   9.630  0.1951 -0.4225  0.0851
 7312SOL    HW133569   2.545   3.111   9.688 -0.4342  0.8777  1.6700
 7312SOL    HW233570   2.427   3.191   9.698 -0.4505 -0.2864 -0.4986
 7313SOL     OW33571   0.256   1.201   2.181  0.4248 -0.0507 -0.7027
 7313SOL    HW133572   0.201   1.272   2.213 -0.1111 -0.6642 -0.2725
 7313SOL    HW233573   0.209   1.183   2.099  1.0199 -1.4297 -0.7502
 7314SOL     OW33574   2.106   2.357   5.103  0.1839  1.4333 -0.4968
 7314SOL    HW133575   2.180   2.416   5.119  0.4978  1.8248 -3.5033
 7314SOL    HW233576   2.126   2.319   5.018 -1.7769 -1.5552  0.3984
 7315SOL     OW33577   4.380   0.154   3.777  0.2003 -0.4425  0.0908
 7315SOL    HW133578   4.446   0.090   3.751  0.1315 -0.3870 -0.2155
 7315SOL    HW233579   4.303   0.122   3.730 -0.1727  0.6914 -0.0501
 7316SOL     OW33580   2.778   3.691   9.731  0.1767  0.1991 -0.4116
 7316SOL    HW133581   2.868   3.687   9.698  0.0150 -0.8700 -0.7088
 7316SOL    HW233582   2.768   3.605   9.771  0.3329 -0.1830 -1.2000
 7317SOL     OW33583   0.536   4.640   5.752 -0.7614  0.4489  0.3250
 7317SOL    HW133584   0.556   4.726   5.787  1.7415  0.9311 -2.2976
 7317SOL    HW233585   0.614   4.585   5.759 -0.7991  0.8176  3.5566
 7318SOL     OW33586   2.212   1.411   1.331  0.3208  0.0119 -0.2109
 7318SOL    HW133587   2.198   1.502   1.304 -1.1619 -0.3205 -0.6025
 7318SOL    HW233588   2.307   1.408   1.337  0.3045 -0.1408 -0.0514
 7319SOL     OW33589   3.007   2.455   4.263 -0.5859  0.6405  0.0728
 7319SOL    HW133590   2.995   2.529   4.204  1.7373  0.3870 -0.7389
 7319SOL    HW233591   2.944   2.481   4.331 -0.1302  0.7125  0.4691
 7320SOL     OW33592   2.984   2.895   7.181  0.9107 -0.8782 -0.2533
 7320SOL    HW133593   2.936   2.924   7.104  0.4866 -2.9342 -0.7699
 7320SOL    HW233594   3.040   2.968   7.206  1.1298 -1.1613  0.0803
 7321SOL     OW33595   3.818   1.954   8.163 -0.3990 -0.4874  0.0794
 7321SOL    HW133596   3.783   1.913   8.242  2.7010 -0.9976  1.1717
 7321SOL    HW233597   3.764   1.898   8.108  0.3244 -0.2232 -0.8972
 7322SOL     OW33598   4.583   0.695   2.168  0.1968 -0.0372 -0.1575
 7322SOL    HW133599   4.631   0.762   2.218 -0.1038  0.0524  0.0122
 7322SOL    HW233600   4.625   0.685   2.083  0.6057  0.6004 -0.0323
 7323SOL     OW33601   4.246   4.726  17.723 -0.0506  0.3867  0.4789
 7323SOL    HW133602   4.179   4.682  17.672 -0.8062  1.0101  0.9311
 7323SOL    HW233603   4.317   4.667  17.698 -0.4765 -0.6682  1.7795
 7324SOL     OW33604   1.330   1.368   2.277 -0.2794  0.1473  0.3451
 7324SOL    HW133605   1.420   1.361   2.307  0.1624 -2.5337 -1.5918
 7324SOL    HW233606   1.337   1.444   2.220  0.1331  2.1494  3.0426
 7325SOL     OW33607   0.476   1.416   8.831  0.6308 -0.5796  0.4067
 7325SOL    HW133608   0.482   1.339   8.774 -0.9601  0.3402 -0.9902
 7325SOL    HW233609   0.522   1.399   8.913  0.8291 -2.8535 -0.1706
 7326SOL     OW33610   4.497   1.175   3.959 -0.5424  0.2204 -0.2975
 7326SOL    HW133611   4.537   1.259   3.937  1.4683 -0.3517  1.2396
 7326SOL    HW233612   4.470   1.142   3.874  2.3003 -0.2589 -1.0059
 7327SOL     OW33613   3.729   2.647  14.076 -0.2697  0.0882  0.5623
 7327SOL    HW133614   3.697   2.602  14.154 -3.1783  0.7599 -0.2524
 7327SOL    HW233615   3.805   2.597  14.046 -0.5617 -0.6086  0.9877
 7328SOL     OW33616   2.914   3.707   1.354  0.1602 -0.0785 -0.1562
 7328SOL    HW133617   2.885   3.730   1.443  0.0957  0.9508 -0.4451
 7328SOL    HW233618   2.881   3.779   1.300 -1.0343 -0.9605 -0.6157
 7329SOL     OW33619   0.609   3.975   0.977 -0.0775  0.4162  0.1667
 7329SOL    HW133620   0.693   4.013   1.002 -1.4927  4.0683 -0.7344
 7329SOL    HW233621   0.579   3.980   1.068 -1.8810 -2.0109 -0.2981
 7330SOL     OW33622   3.495   1.321   5.108  0.4304 -0.1490 -0.0069
 7330SOL    HW133623   3.587   1.336   5.087  0.3325 -0.7195 -0.8033
 7330SOL    HW233624   3.483   1.227   5.103 -1.8600  0.2673 -2.3099
 7331SOL     OW33625   1.994   4.477   2.471  0.6280 -1.2163  0.4718
 7331SOL    HW133626   2.027   4.445   2.555  0.3815 -0.0973  0.9947
 7331SOL    HW233627   1.986   4.569   2.496  0.8456 -0.8510 -0.8314
 7332SOL     OW33628   3.189   0.859   8.051  0.5294  0.6679 -0.0029
 7332SOL    HW133629   3.227   0.947   8.055  1.9221 -0.0520  2.6800
 7332SOL    HW233630   3.255   0.802   8.092  0.7747  0.9964  0.0588
 7333SOL     OW33631   1.457   0.148  10.287 -0.2204 -0.3321  0.1910
 7333SOL    HW133632   1.425   0.238  10.278 -0.4482 -0.8895 -4.2633
 7333SOL    HW233633   1.524   0.151  10.356  0.3568 -0.8933 -0.3471
 7334SOL     OW33634   0.192   0.581  15.843 -0.2133  0.3211  0.0446
 7334SOL    HW133635   0.217   0.496  15.806 -1.6746  0.4389 -1.2164
 7334SOL    HW233636   0.155   0.631  15.771 -2.5537 -0.3576  0.7845
 7335SOL     OW33637   1.313   3.492   6.413 -0.0388  0.1017 -0.2427
 7335SOL    HW133638   1.382   3.549   6.447  0.5550  0.7661 -2.5474
 7335SOL    HW233639   1.349   3.467   6.328  1.0956 -0.6073  0.4530
 7336SOL     OW33640   4.372   0.486   4.610  0.3821 -0.3767 -0.7746
 7336SOL    HW133641   4.353   0.394   4.591  2.5340 -0.8826 -0.3996
 7336SOL    HW233642   4.442   0.503   4.547  2.2980 -2.2166  0.8758
 7337SOL     OW33643   1.162   3.041   5.448 -0.4413  0.2754 -0.8199
 7337SOL    HW133644   1.150   3.133   5.424 -0.7362  0.8568  1.6197
 7337SOL    HW233645   1.257   3.031   5.441 -0.3736 -0.4694  1.1668
 7338SOL     OW33646   3.981   0.362  10.669  0.7115 -0.6430 -0.0009
 7338SOL    HW133647   3.906   0.337  10.615  0.9643  2.2862 -1.6711
 7338SOL    HW233648   4.052   0.313  10.627  1.2557  0.4455 -0.3606
 7339SOL     OW33649   0.572   4.469   7.258  0.3506 -1.0487  0.4068
 7339SOL    HW133650   0.479   4.450   7.245 -0.1531 -0.0432  2.4452
 7339SOL    HW233651   0.580   4.467   7.354  1.2734  3.8263  0.4227
 7340SOL     OW33652   3.913   2.268   3.897 -0.3698 -0.0693  0.6805
 7340SOL    HW133653   3.940   2.282   3.988  2.6258  1.3340 -0.4263
 7340SOL    HW233654   3.836   2.325   3.887  0.5685  1.1780  0.5454
 7341SOL     OW33655   2.808   2.697  13.811 -0.4325  0.6875  0.1222
 7341SOL    HW133656   2.732   2.692  13.868 -2.6377  0.2946 -2.8558
 7341SOL    HW233657   2.868   2.627  13.837  0.2444  0.8457 -0.9886
 7342SOL     OW33658   1.646   0.394   5.645 -0.1470 -0.1052  0.4799
 7342SOL    HW133659   1.720   0.380   5.586  1.1249  0.0192  2.0373
 7342SOL    HW233660   1.696   0.448   5.707 -1.6795  2.0935 -0.1888
 7343SOL     OW33661   3.907   4.701  14.977  0.0755  0.0175 -0.5931
 7343SOL    HW133662   3.835   4.647  15.010 -0.2891  1.5343  1.1153
 7343SOL    HW233663   3.940   4.662  14.896  0.7419  0.9135 -0.7552
 7344SOL     OW33664   2.607   0.101   1.703 -0.9464 -0.1357  0.5753
 7344SOL    HW133665   2.543   0.172   1.696 -1.4022 -0.6130 -0.1574
 7344SOL    HW233666   2.598   0.097   1.798  0.7012  2.2754  0.8348
 7345SOL     OW33667   1.636   4.236   8.409 -1.0917  0.3325  0.4165
 7345SOL    HW133668   1.658   4.312   8.357 -0.2378 -0.8926 -1.0185
 7345SOL    HW233669   1.649   4.263   8.500 -0.4870 -1.0035  0.7288
 7346SOL     OW33670   0.581   0.504  12.574 -0.0681  0.1899  0.4650
 7346SOL    HW133671   0.522   0.512  12.499 -1.2101 -3.1203  1.0110
 7346SOL    HW233672   0.568   0.594  12.604  0.3519  1.0862 -2.0479
 7347SOL     OW33673   0.288   3.970   7.317 -0.8994 -0.2935 -0.3389
 7347SOL    HW133674   0.349   3.933   7.381  0.1529  1.9941 -0.0405
 7347SOL    HW233675   0.210   4.001   7.364 -0.2744  0.5516  0.1430
 7348SOL     OW33676   3.030   0.482   2.108  0.5062  0.0388 -0.5538
 7348SOL    HW133677   2.978   0.562   2.110 -2.3139 -1.7786 -1.4647
 7348SOL    HW233678   3.070   0.491   2.195  0.9616  0.9823 -0.8681
 7349SOL     OW33679   0.987   2.797   5.450  0.2091 -0.4850 -0.0750
 7349SOL    HW133680   1.051   2.868   5.457  0.6057 -0.7330 -1.2246
 7349SOL    HW233681   0.987   2.766   5.541 -0.4807  4.2441  1.5265
 7350SOL     OW33682   3.374   2.983   4.865 -0.0777  0.2207 -0.4349
 7350SOL    HW133683   3.410   3.060   4.821 -2.1122  2.9592  2.6570
 7350SOL    HW233684   3.445   2.982   4.930 -0.3981  1.2447 -0.0613
 7351SOL     OW33685   0.763   0.762   5.093  0.2372 -0.1839 -0.9631
 7351SOL    HW133686   0.684   0.715   5.122 -0.4567  0.6037 -1.5980
 7351SOL    HW233687   0.732   0.826   5.029  1.6292 -0.7847 -2.2212
 7352SOL     OW33688   0.360   3.926   4.876 -0.5030  0.2227  0.1343
 7352SOL    HW133689   0.353   4.014   4.839  1.7373  0.5209  0.4114
 7352SOL    HW233690   0.294   3.875   4.829  0.9107 -2.7557  1.3841
 7353SOL     OW33691   2.171   4.272   1.891 -0.4203  0.1879  0.5491
 7353SOL    HW133692   2.262   4.242   1.901  0.1315  1.9942  1.0133
 7353SOL    HW233693   2.187   4.365   1.878  2.9850 -0.6550 -1.3633
 7354SOL     OW33694   2.700   0.048   3.668  0.1618  0.1088  0.1030
 7354SOL    HW133695   2.780   0.091   3.700 -0.9402  3.2293 -1.2827
 7354SOL    HW233696   2.680   4.720   3.736  0.5523  2.2995  2.2725
 7355SOL     OW33697   2.183   3.876   3.683 -0.2068  0.0375 -0.5539
 7355SOL    HW133698   2.121   3.901   3.752  0.4709 -2.6493  1.0489
 7355SOL    HW233699   2.127   3.803   3.656  1.6349 -0.8646 -1.9314
 7356SOL     OW33700   0.584   0.353  17.574 -0.2741  0.5286  0.4223
 7356SOL    HW133701   0.553   0.334  17.485  0.6788 -2.8818  0.8187
 7356SOL    HW233702   0.525   0.295  17.621  2.0059 -1.0551  1.3461
 7357SOL     OW33703   3.503   4.610   2.030 -0.1494  0.1933 -0.1562
 7357SOL    HW133704   3.495   4.617   2.125 -2.7372 -1.2206 -0.2631
 7357SOL    HW233705   3.418   4.644   2.002  0.0369  0.9731  0.2341
 7358SOL     OW33706   3.173   3.078  11.228 -0.0001  0.5007  0.3690
 7358SOL    HW133707   3.127   3.162  11.227 -0.2578  0.3685  1.0100
 7358SOL    HW233708   3.136   3.022  11.296  1.7640 -1.2304 -0.1019
 7359SOL     OW33709   0.437   3.115   1.665 -0.1869 -0.1124  0.4606
 7359SOL    HW133710   0.393   3.074   1.591  0.0449  1.3243 -0.4760
 7359SOL    HW233711   0.528   3.089   1.650 -0.1619  0.5192 -0.5051
 7360SOL     OW33712   3.985   3.948   3.302 -0.0764 -0.1799  0.0217
 7360SOL    HW133713   3.932   3.870   3.319  0.0311  0.6313  4.1592
 7360SOL    HW233714   4.025   3.937   3.216  4.0035  1.9318  1.6036
 7361SOL     OW33715   4.651   3.497   8.324  0.1801  0.3540 -0.2978
 7361SOL    HW133716   4.676   3.445   8.248  2.1017 -0.7526  1.1052
 7361SOL    HW233717   4.725   3.489   8.384 -0.4875 -3.4652  0.0176
 7362SOL     OW33718   4.703   1.273   1.571 -0.5477 -0.0885 -0.8179
 7362SOL    HW133719   4.656   1.232   1.644  0.9558  0.7959  0.6260
 7362SOL    HW233720   0.041   1.317   1.614  0.4250 -1.7279 -0.7850
 7363SOL     OW33721   2.974   1.567  17.154  0.0340 -0.0116 -0.4318
 7363SOL    HW133722   2.955   1.630  17.223 -0.3315 -0.3277 -0.2395
 7363SOL    HW233723   2.885   1.530  17.152  0.1674 -0.4673  2.0052
 7364SOL     OW33724   3.367   3.312   6.333  0.6703 -0.1040 -0.5472
 7364SOL    HW133725   3.279   3.312   6.297 -0.7969  1.0038  3.1068
 7364SOL    HW233726   3.409   3.231   6.304 -2.1646 -1.2430 -1.3822
 7365SOL     OW33727   0.959   0.152   6.679  0.2069  0.7767 -0.2663
 7365SOL    HW133728   1.026   0.167   6.745 -1.9647  0.8581  1.9386
 7365SOL    HW233729   0.962   0.233   6.629 -0.3078  0.3457 -0.9867
 7366SOL     OW33730   1.394   2.230   8.715  0.4396 -0.4551 -0.2621
 7366SOL    HW133731   1.302   2.203   8.715  0.3371 -0.0693  0.9575
 7366SOL    HW233732   1.440   2.148   8.730 -2.5372 -2.0573 -0.0822
 7367SOL     OW33733   4.199   2.122  12.599 -0.1604 -0.2113  0.0902
 7367SOL    HW133734   4.160   2.035  12.595  0.1077 -0.3834  1.3431
 7367SOL    HW233735   4.123   2.177  12.616 -2.1972 -2.0397 -3.1024
 7368SOL     OW33736   2.528   0.430   6.894  0.1282  0.6520  0.0885
 7368SOL    HW133737   2.520   0.409   6.987 -0.8319  1.3851  0.1675
 7368SOL    HW233738   2.442   0.397   6.866  0.2905  0.8419 -0.6323
 7369SOL     OW33739   2.407   3.995   4.527  0.0485  0.1565 -0.1585
 7369SOL    HW133740   2.364   3.925   4.479  2.3777 -1.0936 -0.4101
 7369SOL    HW233741   2.329   4.046   4.549  0.3329  0.2489  0.6434
 7370SOL     OW33742   3.626   2.374   8.717 -0.3609 -0.4116 -0.4316
 7370SOL    HW133743   3.590   2.375   8.806 -1.4507  1.6786 -0.8824
 7370SOL    HW233744   3.664   2.461   8.705 -2.4422  0.7089  0.9953
 7371SOL     OW33745   4.635   2.765   8.651 -0.6381 -0.0747 -0.4911
 7371SOL    HW133746   4.547   2.776   8.616  0.2480 -0.4298 -2.8199
 7371SOL    HW233747   4.662   2.856   8.662  2.9285 -1.3108  1.0845
 7372SOL     OW33748   4.424   4.333  10.422 -0.1347 -0.1710  0.2352
 7372SOL    HW133749   4.431   4.307  10.514 -1.1062  1.4573  0.7595
 7372SOL    HW233750   4.516   4.337  10.394 -0.0859  1.3822  0.5954
 7373SOL     OW33751   0.886   3.545   7.039 -0.7665  0.2034 -0.4133
 7373SOL    HW133752   0.897   3.638   7.021 -2.7762  0.6539  0.5777
 7373SOL    HW233753   0.925   3.517   6.956 -1.2455  0.4213 -0.7193
 7374SOL     OW33754   2.363   0.607   6.037  0.3109 -0.5502 -0.0462
 7374SOL    HW133755   2.388   0.518   6.060  0.6381 -0.0022  1.7255
 7374SOL    HW233756   2.284   0.621   6.089 -0.1613  1.4838 -1.2676
 7375SOL     OW33757   1.504   2.570   7.762  0.7370 -0.5014  0.2220
 7375SOL    HW133758   1.496   2.480   7.730  1.2795 -0.0096 -1.2793
 7375SOL    HW233759   1.468   2.620   7.689 -1.5999 -2.4319  0.0714
 7376SOL     OW33760   3.276   4.097   5.565 -0.2370  0.2875 -0.3000
 7376SOL    HW133761   3.281   4.192   5.551 -0.8968  0.4602  0.6671
 7376SOL    HW233762   3.238   4.067   5.482  0.3907 -0.1269 -0.4319
 7377SOL     OW33763   2.645   2.564   8.956 -0.0672 -0.0091 -0.4254
 7377SOL    HW133764   2.667   2.636   8.897 -0.3692  2.6397  2.7352
 7377SOL    HW233765   2.550   2.575   8.948 -0.2091  0.4292  1.9592
 7378SOL     OW33766   0.064   2.956   2.473  0.4930 -0.0948 -0.1575
 7378SOL    HW133767   0.146   2.964   2.520  0.3048 -0.3264  0.2067
 7378SOL    HW233768   0.002   2.943   2.545  2.2448 -0.8808  1.1979
 7379SOL     OW33769   4.694   4.441   9.739 -0.0216 -0.1180  0.7352
 7379SOL    HW133770   4.688   4.536   9.726  0.6132  0.0772  1.8041
 7379SOL    HW233771   4.652   4.411   9.659  1.7771  0.5331 -0.4434
 7380SOL     OW33772   1.393   4.065  13.858 -0.1262 -0.2049  0.0897
 7380SOL    HW133773   1.356   4.080  13.771  1.3199  0.2189 -0.4500
 7380SOL    HW233774   1.336   4.123  13.910 -0.3111  0.1785 -0.5434
 7381SOL     OW33775   4.058   2.718   4.170  0.2279 -0.6754  0.0804
 7381SOL    HW133776   3.965   2.694   4.162  0.0330 -0.2599  1.1638
 7381SOL    HW233777   4.065   2.794   4.227 -2.1637 -0.1986 -0.2707
 7382SOL     OW33778   1.880   4.236   8.627  0.0724  0.3207  0.2387
 7382SOL    HW133779   1.959   4.210   8.675 -1.0152  0.6505  2.2029
 7382SOL    HW233780   1.809   4.213   8.687 -1.5821  1.7944 -1.1575
 7383SOL     OW33781   3.173   1.812   7.211 -0.1432 -0.5392 -0.2491
 7383SOL    HW133782   3.196   1.890   7.161 -0.9972 -0.2265 -0.1572
 7383SOL    HW233783   3.229   1.755   7.159 -0.4373 -1.3610  0.3348
 7384SOL     OW33784   3.952   3.812   2.696  0.3771 -0.4383  0.0252
 7384SOL    HW133785   4.046   3.802   2.682  0.6851  1.1929  0.9864
 7384SOL    HW233786   3.948   3.832   2.789  1.6999 -1.4398  0.2998
 7385SOL     OW33787   2.122   0.670   5.510 -0.5738  0.5114 -0.2285
 7385SOL    HW133788   2.161   0.589   5.480 -1.0277  0.2083  0.0008
 7385SOL    HW233789   2.134   0.727   5.434  2.5624  0.0082 -0.1115
 7386SOL     OW33790   3.875   3.584   0.435 -0.0836  0.3133 -0.0081
 7386SOL    HW133791   3.839   3.671   0.454 -0.4214  0.3210 -0.6903
 7386SOL    HW233792   3.797   3.530   0.431  1.3503 -1.8103  1.0138
 7387SOL     OW33793   2.522   2.036   2.164  0.1543 -0.2338 -0.7396
 7387SOL    HW133794   2.527   1.954   2.213  2.0889  0.2009 -0.2338
 7387SOL    HW233795   2.463   2.095   2.211 -1.1132 -1.9393 -0.1764
 7388SOL     OW33796   1.508   0.071   3.615 -0.0403 -0.2670  0.4999
 7388SOL    HW133797   1.437   0.008   3.598 -0.2587 -0.3772  1.8653
 7388SOL    HW233798   1.481   0.097   3.703 -1.0850 -1.7108  0.6264
 7389SOL     OW33799   1.075   0.467  13.986 -0.2694 -0.7087  0.3518
 7389SOL    HW133800   0.997   0.420  13.957  0.9280 -1.0352 -2.3376
 7389SOL    HW233801   1.060   0.454  14.080 -1.7447 -0.8484  0.0941
 7390SOL     OW33802   1.680   2.168  13.496 -0.7523 -0.7303  0.2941
 7390SOL    HW133803   1.677   2.227  13.571  0.8485 -1.6711  1.0906
 7390SOL    HW233804   1.745   2.106  13.530  1.8429  0.9929 -1.5377
 7391SOL     OW33805   0.171   3.944   7.717 -0.0786 -0.3315  0.0798
 7391SOL    HW133806   0.189   3.968   7.808  0.6420  1.9416 -0.6752
 7391SOL    HW233807   0.118   3.864   7.716  0.8180 -0.9252  0.1267
 7392SOL     OW33808   2.974   2.688  17.629 -0.2400  0.4895 -0.0867
 7392SOL    HW133809   2.947   2.667  17.539 -0.2977  1.3683 -0.2686
 7392SOL    HW233810   2.892   2.702  17.676  1.7187 -0.7624  3.7363
 7393SOL     OW33811   4.006   1.707   0.618  0.2794  0.2847  0.3584
 7393SOL    HW133812   3.919   1.715   0.656 -0.9706 -1.1663 -2.2151
 7393SOL    HW233813   3.994   1.738   0.528  1.1170  0.3499  0.2697
 7394SOL     OW33814   0.655   3.120   2.785 -0.0764  0.4857 -0.0312
 7394SOL    HW133815   0.642   3.214   2.794  0.0150  0.3684  1.2919
 7394SOL    HW233816   0.649   3.097   2.877 -0.6814 -1.3257 -0.5194
 7395SOL     OW33817   2.266   0.985   6.902 -0.3705 -0.2380  0.8146
 7395SOL    HW133818   2.333   0.960   6.837 -0.5325 -0.2254  0.6421
 7395SOL    HW233819   2.280   1.079   6.910  0.2106  0.1804 -4.5118
 7396SOL     OW33820   2.438   0.737  10.040  0.3895 -0.1668 -0.0157
 7396SOL    HW133821   2.369   0.798  10.066  0.1048 -0.6388  0.3383
 7396SOL    HW233822   2.441   0.683  10.119  0.0507 -0.0081  0.1058
 7397SOL     OW33823   0.399   1.102   6.465 -0.1787 -0.6220  0.2119
 7397SOL    HW133824   0.476   1.112   6.409 -0.5141 -1.3978 -0.3955
 7397SOL    HW233825   0.349   1.183   6.455 -2.2649 -1.9684 -0.3637
 7398SOL     OW33826   3.632   0.813   5.069  0.5158  0.6272 -0.0438
 7398SOL    HW133827   3.705   0.779   5.017 -0.9702  0.3581 -1.9568
 7398SOL    HW233828   3.648   0.764   5.149  2.1031 -0.3360 -0.9633
 7399SOL     OW33829   0.314   1.597   2.331  0.3856 -0.0142  0.0654
 7399SOL    HW133830   0.393   1.628   2.287  1.1059 -2.0211 -0.0648
 7399SOL    HW233831   0.350   1.530   2.388 -0.0173 -1.1248 -0.9857
 7400SOL     OW33832   3.097   0.313   2.384  0.2662  0.1425 -0.4880
 7400SOL    HW133833   3.014   0.272   2.359  0.3565 -0.2163 -0.2136
 7400SOL    HW233834   3.084   0.318   2.479  0.0063 -1.4885 -0.4303
 7401SOL     OW33835   1.738   2.769   0.410  0.1589 -0.0289 -0.5315
 7401SOL    HW133836   1.724   2.724   0.326 -0.9284 -1.5055  0.4467
 7401SOL    HW233837   1.659   2.750   0.461  1.9438 -2.4562  1.3347
 7402SOL     OW33838   4.677   0.803   4.241  0.0153  0.7509 -0.1432
 7402SOL    HW133839   4.616   0.874   4.222  0.2872  1.4853  1.7357
 7402SOL    HW233840   4.669   0.751   4.161  0.0841 -1.5959  1.3683
 7403SOL     OW33841   1.381   3.429   5.545  0.2471 -0.1485 -0.1472
 7403SOL    HW133842   1.463   3.469   5.516  0.9632  0.5589  2.8924
 7403SOL    HW233843   1.411   3.385   5.625 -0.3497 -0.3376 -0.0318
 7404SOL     OW33844   3.551   4.355   1.918  0.1842 -0.2725 -0.9026
 7404SOL    HW133845   3.570   4.278   1.971  1.0236 -0.3642 -1.3537
 7404SOL    HW233846   3.539   4.416   1.991  4.6563 -0.0877 -0.3517
 7405SOL     OW33847   0.297   4.726   6.074  0.7031 -0.2790 -0.1076
 7405SOL    HW133848   0.266   4.689   5.992 -2.8503 -2.3785  2.1731
 7405SOL    HW233849   0.344   4.658   6.123  1.0319 -0.5175 -0.7578
 7406SOL     OW33850   1.229   0.568  14.974  0.3469  0.1269  0.6438
 7406SOL    HW133851   1.235   0.473  14.972  0.1273  0.1997 -3.9517
 7406SOL    HW233852   1.177   0.585  15.052  1.0787 -1.6470  1.5070
 7407SOL     OW33853   1.829   3.086  10.076  0.7085 -0.3257 -0.2846
 7407SOL    HW133854   1.834   3.173  10.037  1.1975 -1.6809 -3.2627
 7407SOL    HW233855   1.875   3.039  10.007 -0.0096 -1.0377 -0.2696
 7408SOL     OW33856   1.727   2.591   8.990 -0.2808 -0.3823 -0.3823
 7408SOL    HW133857   1.733   2.686   8.994  1.7107 -0.3558 -3.2252
 7408SOL    HW233858   1.655   2.582   9.051 -1.9380  0.7780 -2.1628
 7409SOL     OW33859   0.089   1.447   2.694 -0.2750 -0.8849  0.4337
 7409SOL    HW133860   0.077   1.511   2.624 -0.8043 -1.6018 -0.1269
 7409SOL    HW233861   0.180   1.463   2.718 -0.3218  1.1200 -0.7164
 7410SOL     OW33862   3.288   3.170   7.456  0.7782  0.1581  0.8309
 7410SOL    HW133863   3.227   3.220   7.402  1.2688 -0.1620 -0.0194
 7410SOL    HW233864   3.319   3.230   7.523  3.1323  0.1862 -0.2838
 7411SOL     OW33865   3.276   1.512   3.017 -0.0401  0.1595  0.4460
 7411SOL    HW133866   3.212   1.515   2.945 -1.0620  0.9621  1.3801
 7411SOL    HW233867   3.218   1.504   3.092  0.2248  0.2411  0.6606
 7412SOL     OW33868   1.897   2.532   7.700 -0.1115  0.0805  0.0412
 7412SOL    HW133869   1.841   2.471   7.748 -0.5676 -0.1712 -0.8148
 7412SOL    HW233870   1.981   2.487   7.693 -0.2255 -0.1750  0.3240
 7413SOL     OW33871   0.819   2.718   9.962 -0.0859  0.0213 -0.5044
 7413SOL    HW133872   0.747   2.656   9.954  0.2599 -0.6035  1.2329
 7413SOL    HW233873   0.846   2.733   9.871 -0.3677 -2.0610 -0.9491
 7414SOL     OW33874   1.775   2.709   1.776  0.5116 -0.4676 -0.2839
 7414SOL    HW133875   1.775   2.762   1.696 -1.5287  0.4174  0.3017
 7414SOL    HW233876   1.688   2.669   1.777 -0.0872  0.8439  0.5343
 7415SOL     OW33877   3.355   0.101  15.005  0.1651 -0.1822  0.2601
 7415SOL    HW133878   3.318   0.028  14.956 -2.0517  1.5430 -0.6334
 7415SOL    HW233879   3.416   0.147  14.947 -1.4999  1.6728  0.0047
 7416SOL     OW33880   0.151   3.604   7.016 -0.1519 -0.2299  0.2357
 7416SOL    HW133881   0.063   3.599   7.055 -0.4593 -1.0244 -0.5608
 7416SOL    HW233882   0.167   3.698   7.012  0.2138 -0.3091 -0.1232
 7417SOL     OW33883   3.229   3.401   4.965 -0.3199  0.2529 -0.1222
 7417SOL    HW133884   3.201   3.444   5.046 -0.3766  2.4768 -1.3262
 7417SOL    HW233885   3.324   3.408   4.972 -0.3238 -2.7898  2.7467
 7418SOL     OW33886   2.569   0.652   7.253  0.5811 -0.0170  0.5018
 7418SOL    HW133887   2.647   0.703   7.235  1.4748 -1.3828  0.5452
 7418SOL    HW233888   2.502   0.707   7.212 -0.0793  0.8721  2.7936
 7419SOL     OW33889   2.195   3.561   6.141  0.1700 -0.6965  0.6175
 7419SOL    HW133890   2.181   3.467   6.153 -0.3793 -0.7163 -0.1483
 7419SOL    HW233891   2.228   3.593   6.225  0.7007 -0.0644  0.1673
 7420SOL     OW33892   2.786   1.988  16.975 -0.4060  0.8505  0.5540
 7420SOL    HW133893   2.699   1.950  16.992 -0.9391  1.4251 -0.8634
 7420SOL    HW233894   2.764   2.054  16.910  0.2489 -0.2066 -0.7458
 7421SOL     OW33895   4.095   4.098   1.464 -0.2885 -0.3294  0.8452
 7421SOL    HW133896   4.126   4.022   1.513 -1.2243 -1.6242 -0.5632
 7421SOL    HW233897   4.083   4.163   1.533  1.9495 -1.0277  1.8760
 7422SOL     OW33898   3.854   4.266   1.693  0.0231 -0.0534 -0.7607
 7422SOL    HW133899   3.935   4.227   1.724  0.0152  0.4863 -0.0705
 7422SOL    HW233900   3.850   4.348   1.741  1.4006 -0.1372 -0.5125
 7423SOL     OW33901   2.817   3.405   1.298 -0.0457  0.3102 -0.1863
 7423SOL    HW133902   2.727   3.436   1.302  0.4266  1.7604 -0.8769
 7423SOL    HW233903   2.865   3.483   1.271  1.3104 -0.9631 -1.4965
 7424SOL     OW33904   4.447   0.766   8.681  0.3623  0.7234  0.5232
 7424SOL    HW133905   4.453   0.685   8.631 -3.2022  0.6470  0.2386
 7424SOL    HW233906   4.373   0.734   8.731 -0.1669  1.4042  0.1824
 7425SOL     OW33907   1.330   2.387   4.787  0.4676 -0.2457  0.0949
 7425SOL    HW133908   1.407   2.346   4.747  0.3777  1.6815 -2.0631
 7425SOL    HW233909   1.351   2.404   4.879  0.0249 -0.4478  0.2294
 7426SOL     OW33910   1.933   3.807  14.820 -0.1892  0.0006 -0.1713
 7426SOL    HW133911   1.932   3.899  14.793 -1.6755  0.2093  0.5967
 7426SOL    HW233912   1.909   3.764  14.738  1.1739 -0.5593 -0.2781
 7427SOL     OW33913   3.775   4.193   6.872  0.2086  0.3132 -0.0547
 7427SOL    HW133914   3.772   4.204   6.777 -1.7886 -0.8749 -0.1412
 7427SOL    HW233915   3.776   4.284   6.902  0.8865  0.8699 -1.7946
 7428SOL     OW33916   0.224   2.148   5.836  0.0546  0.1777  0.1194
 7428SOL    HW133917   0.157   2.081   5.822 -0.9946  1.6095 -1.6277
 7428SOL    HW233918   0.291   2.096   5.881  0.3881  1.3723  1.0050
 7429SOL     OW33919   0.586   2.759   4.020  0.0564  0.4589  0.2418
 7429SOL    HW133920   0.650   2.805   3.965 -0.4672 -0.5657 -1.2455
 7429SOL    HW233921   0.507   2.812   4.017  0.6221  1.4001  1.9188
 7430SOL     OW33922   0.886   2.240   3.256  0.3568  0.9772  0.0432
 7430SOL    HW133923   0.821   2.282   3.313 -0.9260  0.1730 -0.8271
 7430SOL    HW233924   0.858   2.271   3.170  0.9818  0.9242 -0.1832
 7431SOL     OW33925   2.986   4.716  15.208  0.0090 -0.5812 -0.1382
 7431SOL    HW133926   2.927   0.041  15.163 -1.2858 -2.0573 -0.4308
 7431SOL    HW233927   2.948   4.639  15.166 -0.4489 -1.3812  1.7551
 7432SOL     OW33928   0.389   1.886   5.346  0.0095  0.4427 -0.4433
 7432SOL    HW133929   0.412   1.804   5.390  1.7403 -0.0555 -2.2385
 7432SOL    HW233930   0.415   1.942   5.419  1.7103 -0.1332 -0.6105
 7433SOL     OW33931   0.645   0.293  10.817  0.4786  0.0857  0.2637
 7433SOL    HW133932   0.725   0.281  10.766 -0.5521  1.1919 -1.6416
 7433SOL    HW233933   0.631   0.201  10.838  0.8142  0.3655  1.6816
 7434SOL     OW33934   0.310   1.360  16.681  0.5063 -0.0204 -0.1724
 7434SOL    HW133935   0.275   1.449  16.685 -2.3549 -1.0453 -2.7368
 7434SOL    HW233936   0.307   1.355  16.586 -1.3686 -1.3229 -0.0390
 7435SOL     OW33937   3.220   1.654   3.696  0.2431  0.2126 -0.5972
 7435SOL    HW133938   3.154   1.721   3.677 -1.2614 -1.0783  0.0887
 7435SOL    HW233939   3.249   1.676   3.784  0.8047  0.5210 -0.8537
 7436SOL     OW33940   1.039   3.739   6.365 -0.3856  0.0118 -0.3083
 7436SOL    HW133941   0.947   3.714   6.374  0.0480 -1.9032 -1.0121
 7436SOL    HW233942   1.089   3.678   6.420 -1.6487  0.2911  1.1504
 7437SOL     OW33943   3.800   2.733   9.500  0.2650  0.5578  0.1048
 7437SOL    HW133944   3.876   2.695   9.544 -1.3642 -1.2755  1.3685
 7437SOL    HW233945   3.753   2.759   9.580  0.0824  0.9787 -0.1398
 7438SOL     OW33946   4.141   1.030  15.691 -0.1325  0.5880  0.3133
 7438SOL    HW133947   4.209   0.975  15.653  0.8597  1.4680  0.8349
 7438SOL    HW233948   4.082   0.962  15.726  0.8909 -0.3497  0.1983
 7439SOL     OW33949   4.101   3.279   4.274  0.1542  0.6935  0.2465
 7439SOL    HW133950   4.072   3.331   4.349 -1.6280  0.3196 -0.1844
 7439SOL    HW233951   4.178   3.240   4.316  2.1337  0.6191 -3.5488
 7440SOL     OW33952   3.465   3.086   1.650 -0.6863 -0.2914  0.0406
 7440SOL    HW133953   3.447   3.158   1.589  2.5922  1.0418  0.6612
 7440SOL    HW233954   3.514   3.144   1.708 -0.8875 -0.1436  0.0603
 7441SOL     OW33955   0.422   2.020  12.288  0.0936  0.1385 -0.0166
 7441SOL    HW133956   0.384   2.108  12.281 -0.0745 -0.0297 -1.2305
 7441SOL    HW233957   0.432   2.018  12.383 -0.1374 -0.7528 -0.0104
 7442SOL     OW33958   1.261   2.465   1.617  0.4813  0.3390 -0.0523
 7442SOL    HW133959   1.184   2.516   1.644  1.0392  0.7536  0.7541
 7442SOL    HW233960   1.266   2.405   1.692  2.8117  3.0119  1.9526
 7443SOL     OW33961   1.835   0.621   7.838  0.3928  0.0692  0.0656
 7443SOL    HW133962   1.867   0.532   7.821 -2.2232 -0.7500 -0.6073
 7443SOL    HW233963   1.867   0.616   7.928  0.4149  1.8120  0.1479
 7444SOL     OW33964   3.239   3.390   9.363  0.2098  0.0165 -0.5213
 7444SOL    HW133965   3.285   3.391   9.447  2.6617  1.6539 -1.8840
 7444SOL    HW233966   3.240   3.295   9.348  1.6730  0.2173 -1.6325
 7445SOL     OW33967   4.547   2.157   7.294 -0.6625  0.2043  0.3721
 7445SOL    HW133968   4.606   2.133   7.365  0.9737 -2.1743 -1.7482
 7445SOL    HW233969   4.612   2.185   7.229 -1.3218  2.4089  0.6545
 7446SOL     OW33970   4.503   0.576  11.410  0.9638  0.4053 -0.0993
 7446SOL    HW133971   4.412   0.562  11.383  1.3878 -0.2034 -1.2179
 7446SOL    HW233972   4.516   0.499  11.466 -1.0702  1.2702  1.5750
 7447SOL     OW33973   3.304   1.083   3.660  0.3754  0.6150  0.0743
 7447SOL    HW133974   3.272   1.173   3.653 -0.8273  0.2314  0.6055
 7447SOL    HW233975   3.385   1.097   3.710  1.1572  0.0196 -1.0373
 7448SOL     OW33976   2.807   4.426  16.828 -0.3658  0.2161 -0.1731
 7448SOL    HW133977   2.765   4.405  16.911  1.4791 -1.7395  0.2659
 7448SOL    HW233978   2.757   4.377  16.763  0.3288 -1.4144  0.5415
 7449SOL     OW33979   2.113   3.250   3.380 -0.1173  0.7836  0.0750
 7449SOL    HW133980   2.141   3.331   3.337  1.6377  0.5154  0.7275
 7449SOL    HW233981   2.077   3.210   3.300 -1.0627 -1.6932  1.7446
 7450SOL     OW33982   2.823   0.448   7.160 -0.7286 -0.3097  0.1336
 7450SOL    HW133983   2.821   0.516   7.094 -1.3036 -0.9352 -0.5012
 7450SOL    HW233984   2.868   0.485   7.236  0.4439 -1.6965  0.1174
 7451SOL     OW33985   0.942   3.843   5.694 -0.0654  0.4339  0.3016
 7451SOL    HW133986   0.971   3.771   5.750 -0.0950  0.5307  0.4429
 7451SOL    HW233987   0.895   3.898   5.757  0.5423 -0.8906  1.9053
 7452SOL     OW33988   2.431   4.477   7.306 -0.7960  0.4625  0.2294
 7452SOL    HW133989   2.356   4.530   7.333 -0.0879  0.9695  1.1975
 7452SOL    HW233990   2.435   4.412   7.376  1.7661 -0.1198 -0.4560
 7453SOL     OW33991   3.450   4.669   5.167 -0.2275  0.6214 -0.0346
 7453SOL    HW133992   3.538   4.677   5.204  0.5752 -0.8465 -1.6504
 7453SOL    HW233993   3.408   0.020   5.175 -1.2138  0.2967 -1.8052
 7454SOL     OW33994   0.834   3.272  13.956  0.5973  0.5092  0.0402
 7454SOL    HW133995   0.814   3.196  13.900 -1.4988  1.8746 -1.1093
 7454SOL    HW233996   0.801   3.345  13.903  0.0920 -0.3935 -0.8991
 7455SOL     OW33997   3.517   1.883   3.134  0.3543 -0.3237 -0.4969
 7455SOL    HW133998   3.478   1.902   3.219 -1.9762  1.7515 -2.0224
 7455SOL    HW233999   3.590   1.943   3.144 -2.7277  3.2994  0.2681
 7456SOL     OW34000   0.899   0.095   2.190  0.0647  0.4423  0.1693
 7456SOL    HW134001   0.846   0.136   2.259  3.6382 -1.1616  3.8608
 7456SOL    HW234002   0.850   0.013   2.189 -0.6362  0.8277  3.8138
 7457SOL     OW34003   2.738   4.035   5.461 -0.2757 -0.2800 -0.0295
 7457SOL    HW134004   2.786   3.959   5.493 -0.4970 -0.7938 -0.9118
 7457SOL    HW234005   2.808   4.100   5.468  1.7755 -2.2507 -2.4161
 7458SOL     OW34006   2.750   0.896   9.302  0.1755 -0.2740  0.3432
 7458SOL    HW134007   2.761   0.858   9.389 -1.3809 -0.6991  0.3505
 7458SOL    HW234008   2.837   0.885   9.265 -0.2314  1.0334 -0.9976
 7459SOL     OW34009   0.616   1.503   6.636  0.2144  0.3443 -0.1433
 7459SOL    HW134010   0.681   1.487   6.568  2.2063  0.1295  1.7962
 7459SOL    HW234011   0.586   1.414   6.654  0.4741  0.3601  0.3545
 7460SOL     OW34012   2.915   2.208   8.064  0.3477 -0.0652  0.0909
 7460SOL    HW134013   2.912   2.154   8.143  0.6532  0.6536  0.5932
 7460SOL    HW234014   2.822   2.213   8.044  0.5857 -0.9282 -1.2450
 7461SOL     OW34015   4.641   0.314   5.285  0.4385  0.2225 -0.3877
 7461SOL    HW134016   4.633   0.409   5.287  0.1694  0.2053 -0.6431
 7461SOL    HW234017   4.573   0.294   5.221 -0.4725  0.0058  0.6487
 7462SOL     OW34018   1.977   3.227   2.728 -0.5526  0.1491 -0.2373
 7462SOL    HW134019   2.026   3.178   2.793  0.2719  2.6479  1.0373
 7462SOL    HW234020   1.896   3.179   2.744 -0.6436  0.0952 -0.8679
 7463SOL     OW34021   0.240   2.607   6.744  0.0882  0.2238 -0.4062
 7463SOL    HW134022   0.286   2.574   6.821  2.1462 -1.5031 -2.3435
 7463SOL    HW234023   0.185   2.682   6.765 -0.1054 -0.0892  0.2069
 7464SOL     OW34024   0.448   3.654   2.531 -0.1555  0.6199  0.1202
 7464SOL    HW134025   0.489   3.602   2.462  0.1698 -0.8058  1.3790
 7464SOL    HW234026   0.478   3.738   2.495  0.1332 -0.5663 -2.3882
 7465SOL     OW34027   3.506   4.465  17.539  0.5143 -0.0238 -0.5756
 7465SOL    HW134028   3.436   4.521  17.506 -2.7702 -1.6221  3.8190
 7465SOL    HW234029   3.579   4.518  17.505  0.1292 -0.8199 -2.6491
 7466SOL     OW34030   2.605   3.630   6.952  0.2121  0.2864 -0.2757
 7466SOL    HW134031   2.647   3.582   7.024  2.2773 -0.0920 -1.7394
 7466SOL    HW234032   2.676   3.677   6.909  0.6336  0.7739  0.9502
 7467SOL     OW34033   2.075   0.288   1.639  0.1128  0.4059 -0.7496
 7467SOL    HW134034   2.078   0.196   1.614 -0.2852  1.2336 -3.7465
 7467SOL    HW234035   2.056   0.278   1.733  0.1179 -0.7062 -0.8676
 7468SOL     OW34036   4.622   2.135   8.035 -0.5769 -0.0772  0.7843
 7468SOL    HW134037   4.564   2.110   7.963 -1.0512  1.0337  0.7779
 7468SOL    HW234038   4.682   2.184   7.979  0.4185 -1.5131  0.5714
 7469SOL     OW34039   1.370   4.682   6.859  0.2190  0.1425  0.1104
 7469SOL    HW134040   1.411   4.639   6.933  1.6500 -0.6004 -1.1207
 7469SOL    HW234041   1.290   4.631   6.872  1.0182 -1.3767 -1.0492
 7470SOL     OW34042   0.999   0.526  12.099  0.0839  0.4763  0.0049
 7470SOL    HW134043   0.941   0.459  12.064 -2.1744  1.6916  1.4499
 7470SOL    HW234044   1.060   0.531  12.025  1.0501 -0.7860  0.7282
 7471SOL     OW34045   2.070   4.319   7.572 -0.0098 -0.2732 -0.2861
 7471SOL    HW134046   2.015   4.358   7.503  0.0571 -1.0263 -0.7611
 7471SOL    HW234047   2.064   4.235   7.527  0.5920 -0.6841  0.4243
 7472SOL     OW34048   0.848   4.570   2.776 -0.8677  0.7657 -0.2889
 7472SOL    HW134049   0.889   4.508   2.836 -1.5915  1.0857  0.5488
 7472SOL    HW234050   0.893   4.560   2.693 -0.1042 -1.6937  0.4158
 7473SOL     OW34051   2.285   0.877   4.052 -0.1489 -0.7297 -0.1393
 7473SOL    HW134052   2.266   0.865   3.959 -2.8399  0.5487  0.2427
 7473SOL    HW234053   2.276   0.972   4.062  0.3906 -0.3324 -3.5939
 7474SOL     OW34054   1.260   4.399  16.385  0.4241 -0.1192 -0.2617
 7474SOL    HW134055   1.209   4.386  16.465  0.0803  0.9363 -0.3166
 7474SOL    HW234056   1.331   4.458  16.410 -1.1443  1.6666 -0.0965
 7475SOL     OW34057   1.044   3.329   2.576 -0.4164  0.5311 -0.0942
 7475SOL    HW134058   1.038   3.425   2.572 -1.1773  0.4097 -1.7362
 7475SOL    HW234059   0.956   3.297   2.597 -0.7219  2.2916  1.3678
 7476SOL     OW34060   1.010   4.008   4.993 -0.2410 -0.1591  0.0600
 7476SOL    HW134061   1.036   4.049   5.075  2.2782 -1.3084 -0.1864
 7476SOL    HW234062   1.081   4.052   4.946 -0.5436  0.7277  0.4320
 7477SOL     OW34063   1.645   2.952   6.073  0.1877 -0.2506  0.4286
 7477SOL    HW134064   1.725   2.994   6.041  0.3782 -0.5392  0.5246
 7477SOL    HW234065   1.690   2.886   6.126 -2.3372 -0.3971  2.4008
 7478SOL     OW34066   2.912   2.067   3.686  0.4913  0.6810 -0.3466
 7478SOL    HW134067   2.856   1.993   3.711  1.1029 -0.1532 -1.4459
 7478SOL    HW234068   2.850   2.135   3.714 -1.3130 -2.0862  2.3100
 7479SOL     OW34069   2.596   1.759   8.420 -0.4945 -0.0616 -0.7992
 7479SOL    HW134070   2.605   1.666   8.403 -1.4648 -0.3157  0.0513
 7479SOL    HW234071   2.592   1.795   8.332  0.8177  1.3188 -0.3024
 7480SOL     OW34072   2.177   1.603   0.235  0.2598 -0.5381  0.2620
 7480SOL    HW134073   2.225   1.565   0.162  0.3650  0.7061 -0.3247
 7480SOL    HW234074   2.112   1.534   0.246 -0.0759  0.1718  2.6984
 7481SOL     OW34075   0.398   1.183   3.711 -0.4104  0.5001  0.0289
 7481SOL    HW134076   0.480   1.212   3.752  0.2705 -0.6559 -0.5085
 7481SOL    HW234077   0.334   1.214   3.775  0.6582  0.0787  1.3107
 7482SOL     OW34078   3.096   4.149   3.383 -0.4171 -0.3757  0.3625
 7482SOL    HW134079   3.120   4.112   3.468 -1.3677  2.1625  1.7235
 7482SOL    HW234080   3.052   4.232   3.398 -0.7043 -0.1938 -1.5284
 7483SOL     OW34081   4.073   2.274   5.847 -0.2430 -0.2954  0.1619
 7483SOL    HW134082   4.134   2.313   5.910 -0.0279 -0.1726 -0.1212
 7483SOL    HW234083   4.128   2.240   5.777  0.0458  0.9699 -0.2293
 7484SOL     OW34084   4.332   0.002  16.878 -0.4338  0.0572 -0.2588
 7484SOL    HW134085   4.413   0.028  16.834 -0.0684 -0.0513  0.3524
 7484SOL    HW234086   4.302   4.676  16.811 -1.6618 -0.3535  0.6761
 7485SOL     OW34087   0.690   0.541  16.401 -0.0044  0.0692 -0.1055
 7485SOL    HW134088   0.747   0.507  16.332  0.2896  0.3220  0.0142
 7485SOL    HW234089   0.608   0.528  16.351 -0.4930 -0.7319  0.9106
 7486SOL     OW34090   3.607   3.673   2.130  0.0425  0.3345  0.4929
 7486SOL    HW134091   3.658   3.685   2.050  2.6372 -2.4975  1.7113
 7486SOL    HW234092   3.560   3.754   2.149  1.4017  1.2930 -0.2355
 7487SOL     OW34093   2.373   1.943   1.384  0.2963 -0.3068 -0.2793
 7487SOL    HW134094   2.436   1.896   1.439 -1.0470 -1.1421  0.5518
 7487SOL    HW234095   2.335   2.009   1.442  0.7110 -0.0619 -0.2867
 7488SOL     OW34096   0.215   2.004   7.146 -0.4387 -0.3320  0.5978
 7488SOL    HW134097   0.282   1.952   7.102 -0.5465  0.0355  0.0032
 7488SOL    HW234098   0.134   1.956   7.126 -1.3343  1.0295  0.9915
 7489SOL     OW34099   4.535   0.685   4.832 -0.4106  0.3784  0.0278
 7489SOL    HW134100   4.551   0.679   4.738 -0.2693  3.7693 -0.1697
 7489SOL    HW234101   4.575   0.770   4.852 -1.7327  0.7164  1.2536
 7490SOL     OW34102   1.655   4.569  10.103  0.0735 -0.1513 -0.0325
 7490SOL    HW134103   1.644   4.657  10.066  0.0662 -0.0121  0.3041
 7490SOL    HW234104   1.720   4.571  10.173  2.4255  2.7872 -2.2898
 7491SOL     OW34105   2.309   1.845   7.000 -0.3317 -0.2261 -0.3318
 7491SOL    HW134106   2.398   1.823   7.028  0.2082  2.5096  0.0426
 7491SOL    HW234107   2.274   1.854   7.089  0.0867 -0.8515 -0.0949
 7492SOL     OW34108   0.581   0.149  14.733 -0.4713  0.0252  0.3215
 7492SOL    HW134109   0.558   0.058  14.711 -0.1956  0.7156 -2.6854
 7492SOL    HW234110   0.634   0.171  14.657  0.9439  1.4971  1.7431
 7493SOL     OW34111   1.609   1.664  10.720  0.1543 -0.6376  0.2780
 7493SOL    HW134112   1.563   1.580  10.715 -0.6091 -0.0890 -1.9595
 7493SOL    HW234113   1.599   1.686  10.813  0.9406 -2.1818  0.7242
 7494SOL     OW34114   4.710   1.859  13.347 -0.2402  0.6401 -0.0405
 7494SOL    HW134115   4.616   1.850  13.363 -0.1667 -0.4510 -0.1866
 7494SOL    HW234116   0.013   1.785  13.393 -1.5376  0.0605  0.1199
 7495SOL     OW34117   2.229   2.123   7.730 -0.2583  0.1884  0.1825
 7495SOL    HW134118   2.200   2.207   7.765  0.4095  0.9690 -1.1332
 7495SOL    HW234119   2.163   2.058   7.753  0.4177  0.1541  2.0336
 7496SOL     OW34120   3.366   2.198   9.077  0.4002  0.4405 -0.2911
 7496SOL    HW134121   3.300   2.129   9.083  1.8386 -1.0200 -1.2612
 7496SOL    HW234122   3.311   2.275   9.065 -1.8815 -1.5043 -2.1283
 7497SOL     OW34123   1.514   1.672   4.186 -0.2140  0.3074 -0.0731
 7497SOL    HW134124   1.441   1.610   4.182  1.1985 -1.3895  0.2939
 7497SOL    HW234125   1.484   1.723   4.261 -2.9665 -1.2606 -0.1307
 7498SOL     OW34126   4.702   1.099   2.634 -0.0859 -0.1628 -0.0671
 7498SOL    HW134127   0.037   1.092   2.569 -1.4670 -2.2683 -1.3324
 7498SOL    HW234128   4.634   1.049   2.589  0.0507  2.0069 -2.6742
 7499SOL     OW34129   2.056   0.720   3.619  0.4607 -0.3070 -0.5479
 7499SOL    HW134130   2.110   0.783   3.571  0.0094 -0.1760 -0.8900
 7499SOL    HW234131   1.995   0.693   3.551  0.1888 -1.7278  0.2735
 7500SOL     OW34132   0.620   0.726  16.163  0.6324  0.0207 -0.1028
 7500SOL    HW134133   0.544   0.679  16.126  1.1373 -2.0747  1.5331
 7500SOL    HW234134   0.684   0.684  16.105 -1.0585  1.8534 -3.3222
 7501SOL     OW34135   3.083   0.226   3.951  0.0803  0.4411 -0.3513
 7501SOL    HW134136   3.094   0.299   4.011  0.1404 -1.2156  1.6392
 7501SOL    HW234137   3.137   0.155   3.983 -0.7849 -1.0464 -2.1394
 7502SOL     OW34138   2.427   1.503  16.734 -0.2812  0.1033 -0.5756
 7502SOL    HW134139   2.405   1.526  16.643  0.7923 -0.0238 -0.8672
 7502SOL    HW234140   2.394   1.580  16.780  0.9360  1.9018 -2.6692
 7503SOL     OW34141   3.012   1.364   7.869 -0.5313 -0.5928  0.4162
 7503SOL    HW134142   3.057   1.436   7.825 -2.1861 -0.4342 -1.0344
 7503SOL    HW234143   3.017   1.296   7.802  1.7427  2.4267 -2.4848
 7504SOL     OW34144   0.022   1.555   0.693  1.1596  0.1534  0.0252
 7504SOL    HW134145   4.716   1.514   0.768 -0.3814 -1.7512 -1.8916
 7504SOL    HW234146   4.698   1.532   0.622  2.0128 -3.8038  0.5861
 7505SOL     OW34147   4.359   4.682   5.805  0.0122 -0.8261  0.4059
 7505SOL    HW134148   4.334   4.602   5.851  0.0646 -0.3379  1.2758
 7505SOL    HW234149   4.403   0.004   5.866  0.1288  1.0462 -1.4438
 7506SOL     OW34150   0.443   0.797   4.569  0.9633  0.5978  0.0247
 7506SOL    HW134151   0.506   0.866   4.550  1.2265  0.4255  0.2760
 7506SOL    HW234152   0.481   0.745   4.639  0.5209  0.5036  0.1933
 7507SOL     OW34153   0.708   2.300   7.820  0.3977 -0.2207 -0.2043
 7507SOL    HW134154   0.799   2.329   7.811  0.4383 -0.5693 -0.9095
 7507SOL    HW234155   0.662   2.384   7.829  0.2901 -0.2393 -0.5782
 7508SOL     OW34156   0.243   3.643   9.789  0.1006  0.2441 -0.6858
 7508SOL    HW134157   0.159   3.608   9.759 -0.3652  1.2375 -0.5160
 7508SOL    HW234158   0.278   3.662   9.702 -2.3635 -0.2167 -1.7912
 7509SOL     OW34159   0.822   1.801   4.023  0.3769  0.3147 -0.0517
 7509SOL    HW134160   0.762   1.870   3.996  0.8167  0.5344 -0.4596
 7509SOL    HW234161   0.864   1.788   3.938  0.9983 -0.7115  0.4016
 7510SOL     OW34162   3.997   0.497   8.448 -0.4425  0.5209  0.5274
 7510SOL    HW134163   3.951   0.454   8.520  0.1654 -0.1282  0.5214
 7510SOL    HW234164   3.928   0.491   8.382 -0.2150 -0.3828  0.3684
 7511SOL     OW34165   1.030   1.152  12.490 -0.4757 -0.1095  0.4500
 7511SOL    HW134166   1.064   1.206  12.419 -1.7606  1.4987  1.0646
 7511SOL    HW234167   1.055   1.210  12.562 -3.0964 -0.8710  1.9994
 7512SOL     OW34168   0.333   1.740   7.579  0.1443 -0.7110  0.4465
 7512SOL    HW134169   0.377   1.696   7.652  1.9526  0.4082  0.0400
 7512SOL    HW234170   0.369   1.828   7.575  0.1605 -0.7538 -0.4719
 7513SOL     OW34171   3.126   0.443   4.078  0.1184  0.2001  0.1700
 7513SOL    HW134172   3.067   0.483   4.141 -1.8624 -1.2789 -0.7526
 7513SOL    HW234173   3.211   0.445   4.123  0.8657  0.6853 -1.2690
 7514SOL     OW34174   0.113   0.932  17.284 -0.4614  0.0418  0.1837
 7514SOL    HW134175   0.080   0.860  17.230  0.4441  0.6511 -1.1897
 7514SOL    HW234176   0.204   0.939  17.256 -0.7343  1.0248 -0.4776
 7515SOL     OW34177   2.586   1.182  14.558  0.1369 -0.1024 -0.4908
 7515SOL    HW134178   2.574   1.275  14.578 -2.3072 -0.2773 -1.2114
 7515SOL    HW234179   2.520   1.193  14.489 -0.0223  0.3134 -0.2753
 7516SOL     OW34180   1.410   0.580  12.601  0.2038  0.1665 -0.0714
 7516SOL    HW134181   1.484   0.527  12.633  1.3185  2.7402  1.6287
 7516SOL    HW234182   1.344   0.577  12.671 -1.3554  1.4433 -1.5037
 7517SOL     OW34183   1.948   0.854   2.442 -0.0723  0.0700  0.4462
 7517SOL    HW134184   1.987   0.937   2.467  1.0181 -0.4239  0.4123
 7517SOL    HW234185   1.855   0.866   2.456  0.2649  1.8204  1.0949
 7518SOL     OW34186   1.949   0.794   8.998  0.3526  0.0430  0.2704
 7518SOL    HW134187   1.989   0.741   8.929 -0.7055 -0.6758  0.2016
 7518SOL    HW234188   1.883   0.732   9.029  0.3845  0.5756  1.3951
 7519SOL     OW34189   0.659   1.648   8.445  0.1254  0.0797  0.0392
 7519SOL    HW134190   0.679   1.686   8.360 -1.0379 -2.9370 -1.5804
 7519SOL    HW234191   0.682   1.726   8.495 -1.1217  0.0764  0.6365
 7520SOL     OW34192   0.409   0.201   6.239 -0.1892 -0.0207 -0.0208
 7520SOL    HW134193   0.503   0.193   6.253 -0.0225  0.6599 -0.7837
 7520SOL    HW234194   0.399   0.124   6.183  0.7250 -0.4686  0.4286
 7521SOL     OW34195   1.887   2.524   2.874 -0.3415  0.4289  0.0901
 7521SOL    HW134196   1.853   2.570   2.798 -0.2364 -1.4218 -1.0722
 7521SOL    HW234197   1.976   2.558   2.884 -1.1203  2.6605 -0.5124
 7522SOL     OW34198   1.688   0.902   2.503 -0.0741 -0.0011  0.5721
 7522SOL    HW134199   1.637   0.883   2.424  0.5595  1.3572 -0.1615
 7522SOL    HW234200   1.631   0.860   2.567 -0.2905  0.8813  0.9557
 7523SOL     OW34201   4.443   3.598   6.397 -0.5505 -0.3793  0.1670
 7523SOL    HW134202   4.462   3.685   6.432  2.7624 -0.5980 -1.0613
 7523SOL    HW234203   4.360   3.580   6.440 -1.3913  1.3631 -0.7054
 7524SOL     OW34204   4.415   1.735   6.592  0.4312  0.3210  0.1482
 7524SOL    HW134205   4.510   1.730   6.592  0.4017 -0.1601  1.9407
 7524SOL    HW234206   4.400   1.727   6.686  1.2465  3.3679  0.5236
 7525SOL     OW34207   3.096   3.408   8.156  0.1794 -0.3171 -0.3809
 7525SOL    HW134208   3.071   3.494   8.123  0.0358 -0.1003  0.2945
 7525SOL    HW234209   3.021   3.351   8.144 -0.4133  0.1535  1.0662
 7526SOL     OW34210   2.766   0.044   4.829  0.2763 -0.5316 -0.9256
 7526SOL    HW134211   2.756   0.004   4.915 -3.1495  2.6760  0.1807
 7526SOL    HW234212   2.679   0.079   4.808  0.7881  0.0753 -2.0311
 7527SOL     OW34213   4.502   1.362  10.926 -0.4823 -0.1770  0.0729
 7527SOL    HW134214   4.476   1.292  10.867 -0.0277 -0.5920  0.3605
 7527SOL    HW234215   4.462   1.345  11.011 -0.8972  0.2229 -0.0427
 7528SOL     OW34216   1.932   2.433   9.643  0.2740  0.4232 -0.5338
 7528SOL    HW134217   1.910   2.510   9.590  2.9016  2.1534  0.8794
 7528SOL    HW234218   1.903   2.368   9.579  0.5622  1.0379 -1.2963
 7529SOL     OW34219   2.394   1.264   2.641  0.2326  0.3915  0.3269
 7529SOL    HW134220   2.413   1.345   2.687  1.1380 -0.4179  1.3592
 7529SOL    HW234221   2.402   1.299   2.552 -0.2973  0.4912  0.3174
 7530SOL     OW34222   3.138   0.811  11.438  0.3802  0.5577 -0.2720
 7530SOL    HW134223   3.166   0.897  11.471  2.8089  0.4608 -2.0312
 7530SOL    HW234224   3.044   0.815  11.455  0.5690  1.3403  0.5906
 7531SOL     OW34225   3.374   3.330   0.804  0.2492  0.0845  0.3049
 7531SOL    HW134226   3.367   3.339   0.899  1.9619 -4.6286  0.8985
 7531SOL    HW234227   3.300   3.274   0.782 -0.9307  1.7372  0.0228
 7532SOL     OW34228   4.644   1.719  13.867 -0.4169 -0.0797 -0.4885
 7532SOL    HW134229   4.676   1.649  13.810  1.1463 -0.7654  1.2297
 7532SOL    HW234230   4.728   1.742  13.906 -1.8415 -1.7488  3.5160
 7533SOL     OW34231   3.200   0.238  15.238  0.2515  0.3064  0.4034
 7533SOL    HW134232   3.274   0.282  15.195 -0.5617  0.5479 -0.7335
 7533SOL    HW234233   3.207   0.154  15.192 -0.8489  0.0874  0.6539
 7534SOL     OW34234   1.105   1.650   3.934  0.5264  0.1086 -0.1806
 7534SOL    HW134235   1.193   1.619   3.959  0.0616 -1.1659 -0.1122
 7534SOL    HW234236   1.121   1.742   3.956  2.1650 -0.0109 -0.8543
 7535SOL     OW34237   4.315   3.644   7.803  0.2608  0.3614  0.1419
 7535SOL    HW134238   4.222   3.648   7.781  0.5301  0.8590 -0.9236
 7535SOL    HW234239   4.319   3.564   7.854 -1.6335  1.1667  1.5750
 7536SOL     OW34240   3.000   3.053   3.409 -0.1790 -0.1019 -0.2163
 7536SOL    HW134241   3.069   3.119   3.398  0.1820 -0.6211 -1.1182
 7536SOL    HW234242   2.993   3.044   3.504 -1.5150  0.6164 -0.2496
 7537SOL     OW34243   1.153   4.151   5.209  0.0612 -0.2684 -0.1348
 7537SOL    HW134244   1.168   4.211   5.136 -1.3881 -0.8935 -0.9463
 7537SOL    HW234245   1.232   4.150   5.263  1.2465 -2.4674 -1.8981
 7538SOL     OW34246   2.854   2.263   9.688  0.3624 -0.5393  0.0026
 7538SOL    HW134247   2.825   2.306   9.768 -0.0886 -0.1617 -0.3627
 7538SOL    HW234248   2.772   2.238   9.645 -0.4887  3.2827 -0.6294
 7539SOL     OW34249   1.320   2.566  16.910 -0.2901 -0.3919  0.1673
 7539SOL    HW134250   1.349   2.479  16.883 -0.5895 -0.2751 -0.5282
 7539SOL    HW234251   1.270   2.588  16.831 -1.3047 -1.6388  0.4614
 7540SOL     OW34252   0.750   3.545   2.704  0.1163  0.2283 -0.0783
 7540SOL    HW134253   0.664   3.589   2.705  0.4448  0.8320  1.3109
 7540SOL    HW234254   0.733   3.468   2.758  2.0815 -0.6524 -0.7344
 7541SOL     OW34255   3.709   4.557   6.163  0.0694  0.7959 -1.0334
 7541SOL    HW134256   3.772   4.519   6.223 -1.3372  0.5090  0.2734
 7541SOL    HW234257   3.633   4.541   6.220  0.4127 -0.1202 -0.8308
 7542SOL     OW34258   2.576   1.325   8.115 -0.3072  0.1713 -0.1025
 7542SOL    HW134259   2.611   1.393   8.058 -0.7128  0.5832  0.1369
 7542SOL    HW234260   2.522   1.276   8.054 -0.7283  0.2969  0.1685
 7543SOL     OW34261   1.257   1.278   1.637  0.4246 -0.0571  0.2929
 7543SOL    HW134262   1.238   1.213   1.705  0.5109  0.5527  0.9110
 7543SOL    HW234263   1.201   1.351   1.665 -1.1578 -0.8132 -0.8945
 7544SOL     OW34264   2.042   3.153   5.752 -0.2072 -0.5907 -0.5538
 7544SOL    HW134265   2.049   3.172   5.658 -2.6745 -0.3466 -0.7015
 7544SOL    HW234266   2.131   3.168   5.782 -0.6972  0.9080  0.1442
 7545SOL     OW34267   3.893   2.443  13.990 -0.2514  0.8278 -0.6543
 7545SOL    HW134268   3.984   2.455  14.016 -0.9277  0.2237  1.9778
 7545SOL    HW234269   3.880   2.352  14.016  0.4678  0.2699 -2.2312
 7546SOL     OW34270   2.344   2.406  13.857 -0.4830 -0.5559 -0.1925
 7546SOL    HW134271   2.412   2.424  13.792 -1.7049 -2.3983 -1.9868
 7546SOL    HW234272   2.391   2.395  13.940  0.6815  1.1717 -0.6291
 7547SOL     OW34273   1.582   4.074   7.402  0.3765  0.4058  0.0140
 7547SOL    HW134274   1.672   4.066   7.435  0.1096 -0.0785  0.6183
 7547SOL    HW234275   1.593   4.009   7.332 -0.0061  0.6814 -0.2981
 7548SOL     OW34276   0.066   2.918   5.807 -0.0119 -0.4011 -0.0402
 7548SOL    HW134277   4.706   2.908   5.804  0.0507 -1.1775  0.7984
 7548SOL    HW234278   0.081   2.989   5.744 -2.6970 -1.6318 -2.0959
 7549SOL     OW34279   1.966   3.836   3.889 -0.0716 -0.1837 -0.4566
 7549SOL    HW134280   1.877   3.844   3.854 -0.2142  1.0169  0.1882
 7549SOL    HW234281   1.990   3.926   3.911 -0.8028 -0.1848  0.3380
 7550SOL     OW34282   3.497   2.294   7.247  0.3970  0.2900  0.5371
 7550SOL    HW134283   3.414   2.248   7.261  0.8267 -0.0128  2.1045
 7550SOL    HW234284   3.495   2.343   7.329  0.1543 -0.3178  0.9012
 7551SOL     OW34285   3.535   1.734  17.511  0.4490  0.4979 -0.1237
 7551SOL    HW134286   3.603   1.676  17.545 -1.6482 -0.5501  2.2362
 7551SOL    HW234287   3.591   1.779  17.447  0.7258  0.7631  0.3064
 7552SOL     OW34288   2.890   1.358   0.538  0.0533 -0.0999  0.0140
 7552SOL    HW134289   2.903   1.291   0.606  0.0748 -0.3636 -0.2499
 7552SOL    HW234290   2.971   1.409   0.546 -0.7286  0.9750  1.0395
 7553SOL     OW34291   1.627   3.273   1.604 -0.0011 -0.1569  0.9355
 7553SOL    HW134292   1.541   3.248   1.640 -0.9980  0.4433 -1.0341
 7553SOL    HW234293   1.673   3.282   1.688 -1.1403  2.3035  1.3115
 7554SOL     OW34294   2.864   3.593   5.446  0.1458 -0.2723  0.0859
 7554SOL    HW134295   2.951   3.557   5.426  0.9659  2.7712 -1.8048
 7554SOL    HW234296   2.824   3.627   5.366 -0.4189 -1.1016  0.0192
 7555SOL     OW34297   1.560   0.732   1.187 -0.1310 -0.2184  0.3470
 7555SOL    HW134298   1.651   0.723   1.159  0.2061  2.9602  0.4031
 7555SOL    HW234299   1.517   0.694   1.110 -0.3631 -2.5780  1.6502
 7556SOL     OW34300   3.345   1.312   4.351 -0.3952  0.2020  0.0217
 7556SOL    HW134301   3.406   1.363   4.404  0.0493 -1.2202  0.8974
 7556SOL    HW234302   3.270   1.371   4.344 -1.8571 -1.6206  0.2130
 7557SOL     OW34303   0.119   4.383  14.261  0.0774 -0.2152  0.2790
 7557SOL    HW134304   0.102   4.289  14.272 -0.8260 -0.1678 -0.7323
 7557SOL    HW234305   0.095   4.417  14.347 -2.1136 -3.2903  0.8900
 7558SOL     OW34306   0.367   1.679  10.377 -0.0946 -0.5167  0.0086
 7558SOL    HW134307   0.410   1.765  10.377 -0.9968 -0.0632 -2.2558
 7558SOL    HW234308   0.302   1.691  10.308  0.6106  1.4704 -0.3367
 7559SOL     OW34309   4.548   3.622   2.444  0.3724 -0.0063  0.6973
 7559SOL    HW134310   4.453   3.614   2.435  0.4671  2.5642 -2.4783
 7559SOL    HW234311   4.549   3.708   2.402 -0.7570 -0.6269 -0.5820
 7560SOL     OW34312   1.062   1.881   8.153  1.0220  0.4974  0.0687
 7560SOL    HW134313   1.001   1.928   8.096  1.0565 -0.3363 -0.6604
 7560SOL    HW234314   1.133   1.944   8.157  1.3440  0.1509 -0.2499
 7561SOL     OW34315   3.349   2.227   1.053 -0.2955  0.5368  0.4348
 7561SOL    HW134316   3.396   2.294   1.103  2.8785 -0.5100 -1.1212
 7561SOL    HW234317   3.274   2.273   1.018 -2.2307 -0.7624  2.8180
 7562SOL     OW34318   2.918   0.884   0.594  0.1572  0.3853  0.4078
 7562SOL    HW134319   2.911   0.920   0.506 -0.1956  2.1773  1.1792
 7562SOL    HW234320   2.903   0.791   0.574  0.3412  0.3266  0.5378
 7563SOL     OW34321   0.685   0.150  13.032  0.0549 -0.5440 -0.2023
 7563SOL    HW134322   0.749   0.184  13.095 -0.0514 -0.7416  0.0149
 7563SOL    HW234323   0.628   0.091  13.082  1.3184 -1.0687  0.6101
 7564SOL     OW34324   4.132   1.531   5.588  0.0471  0.5276 -0.2477
 7564SOL    HW134325   4.217   1.572   5.574 -0.1201  1.4561  1.4579
 7564SOL    HW234326   4.080   1.570   5.518  0.6512 -0.3607 -1.1970
 7565SOL     OW34327   3.314   4.079   0.347  0.3151  0.0624 -0.4805
 7565SOL    HW134328   3.350   4.044   0.428 -2.6676 -0.2986  0.7014
 7565SOL    HW234329   3.388   4.130   0.314  1.1958 -0.8856  0.0439
 7566SOL     OW34330   0.638   4.516   4.885  0.0055  0.2840 -0.4161
 7566SOL    HW134331   0.708   4.468   4.929  0.4544 -1.6807 -3.2892
 7566SOL    HW234332   0.574   4.509   4.956  0.8302  1.7192  0.4726
 7567SOL     OW34333   3.277   3.163  11.641  0.2618  0.0555 -0.0065
 7567SOL    HW134334   3.352   3.140  11.587  2.5289  0.9572  2.7738
 7567SOL    HW234335   3.232   3.227  11.585 -1.5261 -0.7764  0.4875
 7568SOL     OW34336   0.559   1.836   7.289 -0.0389 -0.2219  0.6969
 7568SOL    HW134337   0.564   1.749   7.329 -0.9347  0.9386  3.2986
 7568SOL    HW234338   0.541   1.803   7.201  0.4187  3.3158 -0.7191
 7569SOL     OW34339   3.344   1.758   7.514  0.7402  0.0239 -0.3076
 7569SOL    HW134340   3.401   1.822   7.471 -0.1388  0.6408 -0.5438
 7569SOL    HW234341   3.260   1.801   7.527  0.4088 -0.6701 -0.1962
 7570SOL     OW34342   0.966   1.669   8.809  0.4283  0.0584 -0.1214
 7570SOL    HW134343   0.876   1.636   8.802  0.9580 -1.1597 -1.4251
 7570SOL    HW234344   1.019   1.621   8.745 -1.0398  1.3400 -2.2829
 7571SOL     OW34345   1.627   0.743   4.339 -0.0210  0.1576  0.4456
 7571SOL    HW134346   1.719   0.730   4.360 -0.7363  0.1225  3.5609
 7571SOL    HW234347   1.593   0.733   4.428  0.4659 -1.5676  0.4416
 7572SOL     OW34348   3.706   1.061   1.197 -0.0898 -0.7230 -0.4787
 7572SOL    HW134349   3.618   1.063   1.159 -0.0340  2.2471 -0.4777
 7572SOL    HW234350   3.679   1.057   1.289  0.9683  1.2748 -0.0840
 7573SOL     OW34351   0.802   3.282  16.390  0.7465 -0.0735  0.0255
 7573SOL    HW134352   0.734   3.222  16.361 -0.6155  1.1366  0.6902
 7573SOL    HW234353   0.865   3.289  16.318 -0.2871  0.3296 -0.8302
 7574SOL     OW34354   1.797   1.906  15.664  0.2451 -0.7024 -0.2920
 7574SOL    HW134355   1.798   1.975  15.597  2.4947 -0.0971  0.3904
 7574SOL    HW234356   1.848   1.944  15.736 -2.9206  1.2119  0.9484
 7575SOL     OW34357   1.066   3.371  16.223 -0.1276 -0.1067  0.2696
 7575SOL    HW134358   1.155   3.399  16.243  0.0090  0.0432 -0.5172
 7575SOL    HW234359   1.023   3.451  16.192 -0.5783  0.9877  3.7357
 7576SOL     OW34360   3.475   1.040   5.133  1.0001  0.0516 -0.2329
 7576SOL    HW134361   3.550   0.984   5.152  2.3051  2.0033  0.3372
 7576SOL    HW234362   3.441   0.979   5.068 -0.7618  0.1351  0.5999
 7577SOL     OW34363   4.648   1.595   9.355 -0.2039  0.4428  0.3496
 7577SOL    HW134364   4.662   1.501   9.342 -1.5793  0.1514  0.8899
 7577SOL    HW234365   4.571   1.603   9.298 -0.6416 -4.6773  0.1794
 7578SOL     OW34366   0.932   2.207   6.284 -0.3515  0.1516 -0.4668
 7578SOL    HW134367   0.862   2.271   6.270  1.2614  1.7919 -1.0269
 7578SOL    HW234368   0.948   2.179   6.194  1.0019 -0.5328 -0.0271
 7579SOL     OW34369   2.121   2.142  13.660 -0.2468 -0.2419 -0.1034
 7579SOL    HW134370   2.109   2.235  13.678 -0.1834 -0.2372 -0.0825
 7579SOL    HW234371   2.101   2.112  13.749 -2.9376 -1.9410 -1.2996
 7580SOL     OW34372   1.912   3.021   5.072  0.0094  0.1408  0.4891
 7580SOL    HW134373   1.824   3.047   5.100  0.0471  0.5306  0.2487
 7580SOL    HW234374   1.961   3.050   5.149  1.6306  1.3586 -1.0126
 7581SOL     OW34375   2.434   4.216   6.063 -0.0219 -0.2153  0.0476
 7581SOL    HW134376   2.510   4.212   6.120 -0.9133  0.5783  1.2754
 7581SOL    HW234377   2.462   4.142   6.009  0.2793 -0.5341  0.6522
 7582SOL     OW34378   0.069   1.787  15.458  0.0305 -0.4530 -0.1374
 7582SOL    HW134379   0.035   1.832  15.535 -1.1509  0.1154 -0.9976
 7582SOL    HW234380   4.725   1.757  15.416 -1.1920 -0.2484  2.0209
 7583SOL     OW34381   2.517   3.722   5.285 -0.5065  0.1015 -0.5948
 7583SOL    HW134382   2.524   3.816   5.268 -2.1791  0.5095  0.9016
 7583SOL    HW234383   2.608   3.695   5.278 -0.2020  1.0788 -0.3973
 7584SOL     OW34384   4.608   3.414   3.621  0.2740  0.0384  0.2167
 7584SOL    HW134385   4.544   3.454   3.562 -0.6724 -1.0077  0.5543
 7584SOL    HW234386   4.596   3.459   3.704 -1.6715  0.1845 -0.1505
 7585SOL     OW34387   1.947   2.792   7.115  0.1030  0.2516 -0.7069
 7585SOL    HW134388   1.902   2.873   7.138  1.5165  1.0766 -0.8601
 7585SOL    HW234389   1.889   2.745   7.055  0.6393 -2.3326  0.8102
 7586SOL     OW34390   2.246   1.957  14.049 -0.6170 -0.3163 -0.3154
 7586SOL    HW134391   2.207   1.892  14.108  1.4500  0.0016  1.3967
 7586SOL    HW234392   2.326   1.973  14.100  0.8110  0.0319 -2.6532
 7587SOL     OW34393   1.346   2.498   8.728 -0.1620  0.1114  0.6449
 7587SOL    HW134394   1.322   2.408   8.750  1.2238 -0.4864 -0.2586
 7587SOL    HW234395   1.400   2.476   8.652 -2.1933  0.2387 -0.8383
 7588SOL     OW34396   3.510   3.525   4.998  0.3675 -0.0553  0.4262
 7588SOL    HW134397   3.569   3.467   5.046 -0.4760  0.6459  2.2943
 7588SOL    HW234398   3.573   3.572   4.943 -0.0185  0.0134  0.0410
 7589SOL     OW34399   2.461   2.939   4.749 -0.3770 -0.5287  0.6205
 7589SOL    HW134400   2.409   2.952   4.828 -0.2479 -3.7522  1.2162
 7589SOL    HW234401   2.487   3.029   4.727  0.8297 -1.2481 -0.8560
 7590SOL     OW34402   0.564   1.712   7.055  0.0989  0.0447 -0.5403
 7590SOL    HW134403   0.633   1.679   6.998 -1.3912  0.7990 -2.7898
 7590SOL    HW234404   0.498   1.643   7.048 -0.2560  0.1044  2.1385
 7591SOL     OW34405   1.896   3.116   4.647  0.0843  0.1380 -0.3787
 7591SOL    HW134406   1.970   3.089   4.701 -0.4422 -1.0508 -0.2407
 7591SOL    HW234407   1.937   3.118   4.560  0.5953 -0.9292 -0.1701
 7592SOL     OW34408   1.283   0.020   8.356 -1.1055 -0.1000 -0.3322
 7592SOL    HW134409   1.245   0.097   8.314  1.6184  0.3813 -1.8927
 7592SOL    HW234410   1.232   4.680   8.327  0.7990 -0.4232 -2.8401
 7593SOL     OW34411   0.368   0.376  12.183 -0.1629 -0.6495 -0.5055
 7593SOL    HW134412   0.389   0.448  12.243  1.2003 -2.3500  1.0133
 7593SOL    HW234413   0.294   0.418  12.139  2.3061  2.0557 -2.0496
 7594SOL     OW34414   4.701   2.586  17.606 -0.1390  0.0527  0.1802
 7594SOL    HW134415   4.721   2.650  17.537  0.9411  1.5060  1.8372
 7594SOL    HW234416   4.637   2.539  17.553 -1.5445  2.9275 -0.6388
 7595SOL     OW34417   2.293   2.962   3.673 -0.1335  0.3835  0.7823
 7595SOL    HW134418   2.293   2.882   3.725 -0.1833  0.8510  1.5117
 7595SOL    HW234419   2.257   2.936   3.588  2.3099 -1.2676  0.2517
 7596SOL     OW34420   0.586   3.973   3.680  0.3635  0.1026 -0.1665
 7596SOL    HW134421   0.660   4.033   3.676  0.4676 -0.1025 -1.3183
 7596SOL    HW234422   0.631   3.904   3.730  0.9161  1.2961  0.9636
 7597SOL     OW34423   0.981   1.442   1.979  0.0647 -0.3226  0.0333
 7597SOL    HW134424   0.904   1.491   2.009 -0.8727 -1.7302 -0.0485
 7597SOL    HW234425   1.057   1.497   1.995 -1.9551  2.2467  0.7371
 7598SOL     OW34426   4.384   0.826   5.686  0.0733  0.2965  0.0284
 7598SOL    HW134427   4.333   0.781   5.754  1.5611 -3.3781 -1.2958
 7598SOL    HW234428   4.357   0.917   5.696 -1.1473 -0.2473  1.9248
 7599SOL     OW34429   1.701   0.116  14.081  0.0227 -0.3855 -0.2342
 7599SOL    HW134430   1.616   0.161  14.080 -0.8872 -2.0728  0.4892
 7599SOL    HW234431   1.730   0.114  13.990  1.8198  1.0121  0.2988
 7600SOL     OW34432   0.940   1.215   1.697 -0.2247  0.4750 -0.4392
 7600SOL    HW134433   0.916   1.123   1.685 -2.1192  0.8685  0.3690
 7600SOL    HW234434   0.922   1.219   1.791 -0.4666  1.7867 -0.5433
 7601SOL     OW34435   2.177   1.570   3.331  0.9516 -0.6843  0.6666
 7601SOL    HW134436   2.138   1.597   3.414  1.5454  3.0460 -0.2560
 7601SOL    HW234437   2.150   1.478   3.330 -0.8904 -0.1298  1.4473
 7602SOL     OW34438   3.066   3.712   2.638 -0.8952  1.0279 -0.2119
 7602SOL    HW134439   3.047   3.733   2.729 -0.5219 -0.6208  0.2616
 7602SOL    HW234440   2.988   3.664   2.610 -0.9702  1.5147 -0.8252
 7603SOL     OW34441   2.819   3.421   9.162  0.1428 -0.2265  0.9449
 7603SOL    HW134442   2.837   3.332   9.131 -3.2607  0.0926 -1.9135
 7603SOL    HW234443   2.900   3.463   9.133  0.1210 -0.9194 -0.1227
 7604SOL     OW34444   4.321   1.227   0.365  0.5633 -0.1508  0.2096
 7604SOL    HW134445   4.412   1.241   0.389  0.5004  0.4282  0.1211
 7604SOL    HW234446   4.313   1.220   0.270 -3.2859  3.0770  0.2988
 7605SOL     OW34447   1.445   0.925   2.825 -0.3621 -0.2539 -0.7048
 7605SOL    HW134448   1.487   0.958   2.905  0.5438  0.6014 -1.5473
 7605SOL    HW234449   1.441   0.830   2.840  1.6227 -0.4641 -1.5147
 7606SOL     OW34450   0.696   1.695   3.572 -0.1365  0.6878  0.4476
 7606SOL    HW134451   0.710   1.602   3.594  0.3620  1.0276  1.5621
 7606SOL    HW234452   0.737   1.737   3.647  2.8935  0.3574 -1.0400
 7607SOL     OW34453   1.299   3.358   2.510  0.1609  0.3187 -0.5773
 7607SOL    HW134454   1.280   3.441   2.468 -2.3885  0.5160  0.9069
 7607SOL    HW234455   1.216   3.331   2.551  1.6935  0.4728  2.6412
 7608SOL     OW34456   2.033   2.984   4.832  0.3002 -0.1167 -0.0226
 7608SOL    HW134457   2.120   3.015   4.857  1.7341 -3.1065 -1.3320
 7608SOL    HW234458   1.992   2.982   4.919 -0.1964  0.7003 -0.2429
 7609SOL     OW34459   2.470   2.939   7.822 -0.0596 -0.1651 -0.2539
 7609SOL    HW134460   2.411   3.012   7.802  0.4951 -0.2416 -2.0790
 7609SOL    HW234461   2.397   2.883   7.847  1.5162 -1.0576  2.3392
 7610SOL     OW34462   4.669   1.301   3.426 -0.3335  0.2367  0.2225
 7610SOL    HW134463   4.710   1.261   3.503 -0.3845 -1.1879 -0.4884
 7610SOL    HW234464   4.723   1.254   3.363 -2.5193 -1.0234 -0.7052
 7611SOL     OW34465   0.541   3.098   1.072  0.2880  0.4732 -0.1882
 7611SOL    HW134466   0.519   3.005   1.066 -0.8883  0.6412  1.4347
 7611SOL    HW234467   0.491   3.140   1.002 -2.0514  0.5024  1.5198
 7612SOL     OW34468   3.488   0.180   5.971  0.4348 -0.1258 -0.6724
 7612SOL    HW134469   3.559   0.151   5.914  0.2881 -0.5361 -0.6484
 7612SOL    HW234470   3.472   0.271   5.945 -1.4449  0.2642  1.8464
 7613SOL     OW34471   0.802   2.498  13.871 -0.4980 -0.1995 -0.5104
 7613SOL    HW134472   0.839   2.572  13.920 -1.2041 -0.3876  0.3099
 7613SOL    HW234473   0.723   2.542  13.840  0.5709  1.1828 -1.2750
 7614SOL     OW34474   0.048   0.083   3.369 -0.2604  0.1037 -0.0027
 7614SOL    HW134475   0.139   0.083   3.399 -0.4214  1.4926  0.4436
 7614SOL    HW234476   0.053   0.166   3.323  0.0367 -0.9363 -1.8600
 7615SOL     OW34477   4.165   1.376   7.019  0.0463 -0.2990 -0.3369
 7615SOL    HW134478   4.131   1.424   7.094 -1.5266  0.3633 -1.4880
 7615SOL    HW234479   4.125   1.421   6.945 -0.8989  0.2036  0.4831
 7616SOL     OW34480   0.962   2.109   8.361  0.5007  0.2988  0.2552
 7616SOL    HW134481   1.043   2.067   8.331  0.1488  1.7053 -2.6077
 7616SOL    HW234482   0.992   2.197   8.383 -0.0717  1.1963 -2.6379
 7617SOL     OW34483   1.750   1.764  17.430  0.9708 -0.0137  0.4793
 7617SOL    HW134484   1.725   1.759  17.338 -1.6983  0.6955  1.1657
 7617SOL    HW234485   1.691   1.691  17.452 -0.3712  0.5517 -1.2245
 7618SOL     OW34486   4.376   0.795  11.780 -0.4355  0.2376  0.0815
 7618SOL    HW134487   4.373   0.792  11.684 -0.1743 -0.8630  0.1097
 7618SOL    HW234488   4.334   0.711  11.800  0.4897 -0.3900 -0.6502
 7619SOL     OW34489   0.658   2.132   5.063  0.0812  0.3987 -0.1226
 7619SOL    HW134490   0.735   2.079   5.086  0.0332 -0.4129 -1.8704
 7619SOL    HW234491   0.691   2.183   4.990  0.2666 -0.9383 -0.9802
 7620SOL     OW34492   3.647   4.473  10.448  0.3322  0.5166  0.2602
 7620SOL    HW134493   3.602   4.434  10.373  1.2079 -1.8432  0.9601
 7620SOL    HW234494   3.651   4.403  10.514 -3.3916 -0.2672 -0.3156
 7621SOL     OW34495   1.015   0.642   4.060 -0.6072 -0.5307  0.0033
 7621SOL    HW134496   1.005   0.667   3.968 -0.0637 -0.7480 -0.1131
 7621SOL    HW234497   0.931   0.597   4.071 -2.4056  2.3017 -2.0932
 7622SOL     OW34498   1.908   1.267  12.544  0.7334  0.6080 -0.1436
 7622SOL    HW134499   1.973   1.329  12.511  1.2189  0.2071  0.0595
 7622SOL    HW234500   1.896   1.228  12.457  0.8524 -2.2341  1.1136
 7623SOL     OW34501   4.081   4.682   6.698  0.2241  0.0667  0.5954
 7623SOL    HW134502   4.057   4.616   6.633 -1.8667 -2.3584  3.8853
 7623SOL    HW234503   4.035   0.019   6.655  1.3840  0.4153 -0.0549
 7624SOL     OW34504   1.428   4.441   1.629  0.1519 -0.2577  0.1070
 7624SOL    HW134505   1.364   4.426   1.699  0.2638  0.7235  0.4110
 7624SOL    HW234506   1.376   4.467   1.553  1.4199  2.9566  0.3541
 7625SOL     OW34507   3.088   0.694  10.077 -0.4005  0.0184 -0.5631
 7625SOL    HW134508   3.062   0.638  10.150 -1.1635  1.7249  0.4626
 7625SOL    HW234509   3.066   0.642  10.000 -0.8014  0.6815 -0.9023
 7626SOL     OW34510   0.077   0.761   6.312  0.0212  0.4508  0.4636
 7626SOL    HW134511   0.158   0.788   6.355  0.1448 -0.1938  0.6433
 7626SOL    HW234512   0.098   0.804   6.229  0.2437 -0.7511 -0.1054
 7627SOL     OW34513   3.745   3.299  12.316  0.8510  0.4207 -0.3961
 7627SOL    HW134514   3.813   3.293  12.248  0.1440  1.4401 -1.2040
 7627SOL    HW234515   3.779   3.231  12.374 -3.3202 -0.0666  1.4387
 7628SOL     OW34516   2.962   2.881   2.498  0.0225  0.0895 -0.2557
 7628SOL    HW134517   2.872   2.858   2.521  0.1588 -0.3367 -0.1423
 7628SOL    HW234518   2.967   2.872   2.402  1.4430  1.3987 -0.3050
 7629SOL     OW34519   4.143   1.214   6.476 -0.1469 -0.0436  0.3674
 7629SOL    HW134520   4.164   1.228   6.568  2.0159 -2.1689  0.1827
 7629SOL    HW234521   4.192   1.269   6.414  1.0900 -1.9273 -0.3337
 7630SOL     OW34522   2.384   2.440   7.669 -0.4957 -0.2332  0.8606
 7630SOL    HW134523   2.464   2.493   7.657 -1.1785  0.0886 -2.2028
 7630SOL    HW234524   2.423   2.357   7.642 -0.9130 -0.1696  0.0892
 7631SOL     OW34525   0.727   3.490  13.824 -0.0054  0.6414 -0.3501
 7631SOL    HW134526   0.663   3.530  13.766  0.0582 -0.4728 -1.1965
 7631SOL    HW234527   0.802   3.547  13.806 -0.7284  1.9488  0.7582
 7632SOL     OW34528   0.478   1.970  10.128 -0.1910 -0.3943  0.1079
 7632SOL    HW134529   0.394   1.959  10.083 -0.8498 -0.1299  1.2656
 7632SOL    HW234530   0.537   1.947  10.056 -0.1360 -0.8286  0.2897
 7633SOL     OW34531   3.459   3.869  10.517 -0.0861  0.4429 -0.1557
 7633SOL    HW134532   3.442   3.775  10.509  2.3781 -0.2791  3.2241
 7633SOL    HW234533   3.410   3.912  10.447  0.7136  1.2705 -0.2093
 7634SOL     OW34534   2.129   2.789   1.126 -0.1071 -0.2416 -0.0505
 7634SOL    HW134535   2.095   2.788   1.036 -1.2305  0.4156  0.3742
 7634SOL    HW234536   2.206   2.736   1.103 -0.1921  0.2023 -1.3686
 7635SOL     OW34537   1.625   0.493  14.394  0.4236  0.4544  1.0951
 7635SOL    HW134538   1.626   0.589  14.397  3.1885  0.5667 -2.6020
 7635SOL    HW234539   1.552   0.469  14.451 -0.6631  0.1085 -0.4371
 7636SOL     OW34540   1.383   0.854  17.621  0.3966  0.8351  0.1908
 7636SOL    HW134541   1.464   0.902  17.636  0.0789  0.6432  2.5433
 7636SOL    HW234542   1.401   0.791  17.690 -1.4665  0.1365  0.0277
 7637SOL     OW34543   4.697   2.013   1.255  0.0202 -0.0863  0.0879
 7637SOL    HW134544   4.642   1.995   1.331  1.6148 -0.8134  1.0603
 7637SOL    HW234545   4.629   1.984   1.194 -0.7863  2.0977 -0.0220
 7638SOL     OW34546   4.002   3.362  17.020  0.3838 -0.1462  0.1096
 7638SOL    HW134547   4.044   3.349  17.105  2.3452  1.3374 -0.6258
 7638SOL    HW234548   4.063   3.426  16.982  0.3692  1.4865  2.7883
 7639SOL     OW34549   4.604   0.306   3.463  0.5417  0.4049 -0.3357
 7639SOL    HW134550   4.554   0.234   3.425 -1.2247  0.8492  1.1510
 7639SOL    HW234551   4.545   0.377   3.440 -0.9446 -0.9896 -0.8349
 7640SOL     OW34552   2.078   3.106   7.006 -0.2327 -0.6082  0.0860
 7640SOL    HW134553   1.994   3.069   7.034 -1.2679  1.3576 -0.4485
 7640SOL    HW234554   2.125   3.115   7.088 -0.3085 -0.6498  0.1336
 7641SOL     OW34555   0.316   2.912   6.938  0.0204 -0.9189 -0.3571
 7641SOL    HW134556   0.235   2.881   6.897  0.7390  0.9066 -3.0921
 7641SOL    HW234557   0.294   2.966   7.014 -0.1944  2.7523 -3.0360
 7642SOL     OW34558   4.354   0.231   4.333  0.5761  0.2421 -0.0627
 7642SOL    HW134559   4.349   0.309   4.278 -1.3654 -0.4555 -0.8795
 7642SOL    HW234560   4.261   0.220   4.355  0.5577 -1.2938 -0.9250
 7643SOL     OW34561   2.696   1.734   3.531  0.1358 -0.2160  0.0965
 7643SOL    HW134562   2.780   1.690   3.546 -0.5138 -1.3035  0.5475
 7643SOL    HW234563   2.650   1.672   3.475 -0.4946  0.8241 -0.5476
 7644SOL     OW34564   1.265   4.723  10.247 -0.2317 -0.0969 -0.3269
 7644SOL    HW134565   1.284   4.704  10.155 -1.5655  1.5553 -0.9618
 7644SOL    HW234566   1.335   0.051  10.262  1.3731 -2.6312  2.8701
 7645SOL     OW34567   1.008   4.047  15.395 -0.0740 -0.2776 -0.6241
 7645SOL    HW134568   1.082   4.107  15.403  0.6170 -1.3273  0.8199
 7645SOL    HW234569   0.962   4.091  15.323 -0.0261  1.7779  0.6123
 7646SOL     OW34570   0.236   3.265   2.014 -0.0439 -0.4402 -0.7639
 7646SOL    HW134571   0.164   3.314   1.975 -1.2635 -2.1752 -0.7017
 7646SOL    HW234572   0.191   3.215   2.082  0.3752  1.1896  0.7035
 7647SOL     OW34573   2.133   2.646   6.460  0.3693 -0.6849 -0.5818
 7647SOL    HW134574   2.065   2.593   6.418  1.8214 -0.7308 -2.9037
 7647SOL    HW234575   2.124   2.610   6.548 -0.4473 -1.4589 -0.9774
 7648SOL     OW34576   1.037   1.041   2.006 -0.2544 -0.0343  0.0248
 7648SOL    HW134577   1.041   1.101   2.081  1.3236 -1.0406  0.7646
 7648SOL    HW234578   0.960   0.994   2.037  0.2380 -0.4497  0.6214
 7649SOL     OW34579   0.070   0.085   6.199  0.2672  0.9999  0.3183
 7649SOL    HW134580   0.150   0.055   6.156 -1.2247 -1.4118 -0.8105
 7649SOL    HW234581   0.109   0.108   6.283  3.7820  0.8078 -1.2417
 7650SOL     OW34582   4.016   3.568   5.337  0.6477 -0.3481 -0.4183
 7650SOL    HW134583   4.061   3.637   5.288  1.4227  1.2034  2.4390
 7650SOL    HW234584   4.044   3.590   5.426  1.3646 -0.6434 -0.5718
 7651SOL     OW34585   0.039   3.252   6.192 -0.2475  0.0312 -0.1938
 7651SOL    HW134586   0.108   3.318   6.190 -1.1262  0.9400 -0.5304
 7651SOL    HW234587   0.075   3.201   6.120  0.4257 -0.2170  0.3123
 7652SOL     OW34588   0.160   3.250  12.916 -0.3576 -0.0103 -0.3089
 7652SOL    HW134589   0.195   3.272  13.002  1.1893 -1.5406 -0.5584
 7652SOL    HW234590   0.110   3.169  12.920  1.8597 -1.3796 -0.4592
 7653SOL     OW34591   0.979   2.762   3.737  0.3287 -0.2200 -0.8992
 7653SOL    HW134592   0.917   2.689   3.736  0.2215 -0.1326  1.3953
 7653SOL    HW234593   0.922   2.838   3.750  0.1165 -0.4646 -0.4151
 7654SOL     OW34594   3.580   1.589   5.355  0.3587  0.0262 -0.6552
 7654SOL    HW134595   3.671   1.558   5.352  0.5343  0.4482  0.1142
 7654SOL    HW234596   3.593   1.679   5.325 -0.6129  0.5087  0.3585
 7655SOL     OW34597   3.853   2.358   4.782  0.4816 -0.4150 -0.3318
 7655SOL    HW134598   3.782   2.419   4.800  0.1131 -0.6723 -0.9152
 7655SOL    HW234599   3.901   2.402   4.712 -2.1921 -1.1226 -2.5849
 7656SOL     OW34600   4.451   0.929   5.152 -0.0966 -0.1080  0.6368
 7656SOL    HW134601   4.445   1.025   5.161  0.4254 -0.1568  1.5725
 7656SOL    HW234602   4.447   0.900   5.243 -0.6555 -0.4066  0.5171
 7657SOL     OW34603   1.927   3.042  17.551 -0.1175 -0.4457 -0.4720
 7657SOL    HW134604   1.937   3.053  17.456  0.1931  0.9353 -0.2771
 7657SOL    HW234605   2.007   3.003  17.586  0.0945  1.0871  0.7554
 7658SOL     OW34606   2.732   0.588  11.303 -0.2640 -0.5489  0.3457
 7658SOL    HW134607   2.746   0.643  11.226  0.1912 -2.1195 -0.6817
 7658SOL    HW234608   2.637   0.594  11.303 -0.2470 -0.0834  1.7018
 7659SOL     OW34609   2.056   0.804   8.427 -0.3037  0.4386 -0.2184
 7659SOL    HW134610   2.089   0.714   8.430 -0.7416  0.2764 -0.1518
 7659SOL    HW234611   1.971   0.788   8.385 -0.1198 -0.0443 -0.4067
 7660SOL     OW34612   4.214   1.992   3.583  0.0197 -0.1502 -0.0411
 7660SOL    HW134613   4.239   2.084   3.579  1.8163 -0.5882  1.2330
 7660SOL    HW234614   4.121   2.003   3.602  0.0992  0.2036  0.1325
 7661SOL     OW34615   2.593   4.632   9.039 -0.3706  0.6713  0.0910
 7661SOL    HW134616   2.623   4.663   8.953  1.4017  1.4192  0.9604
 7661SOL    HW234617   2.498   4.644   9.038 -0.2015  2.0869  0.3940
 7662SOL     OW34618   4.512   4.024   3.272 -0.2336 -0.7574  0.1861
 7662SOL    HW134619   4.506   4.116   3.245  0.8873 -0.5516  0.6055
 7662SOL    HW234620   4.519   4.043   3.366 -2.2060 -0.2252  0.2271
 7663SOL     OW34621   0.632   2.483   4.034  0.1307 -0.3445  0.2133
 7663SOL    HW134622   0.594   2.566   4.065 -2.1119 -1.1603 -0.3808
 7663SOL    HW234623   0.671   2.457   4.117  1.2438 -0.2231 -0.2703
 7664SOL     OW34624   0.111   2.356   6.006 -0.9260  0.0704 -0.8445
 7664SOL    HW134625   0.195   2.400   6.014 -1.9086  1.6455  0.9553
 7664SOL    HW234626   0.149   2.274   5.974  0.9184  1.5489 -2.3443
 7665SOL     OW34627   3.877   4.609   9.144 -0.2121  0.3271 -0.3420
 7665SOL    HW134628   3.804   4.549   9.155 -1.3377  1.2323 -2.8746
 7665SOL    HW234629   3.840   4.659   9.071  0.9150 -0.6121 -1.5513
 7666SOL     OW34630   2.351   2.192   2.717  0.1863 -0.0231  0.2227
 7666SOL    HW134631   2.296   2.270   2.706  0.6496  0.7727  3.5390
 7666SOL    HW234632   2.403   2.224   2.791 -0.7252  0.8459  0.4943
 7667SOL     OW34633   3.666   0.040   7.917  0.5970  0.3099 -0.0449
 7667SOL    HW134634   3.601   0.062   7.851  0.7968  2.0046  0.3196
 7667SOL    HW234635   3.720   0.119   7.916  0.4792  0.4233  2.8374
 7668SOL     OW34636   2.530   3.012   1.880  0.2403  0.5657  0.2318
 7668SOL    HW134637   2.617   3.031   1.915  0.8131 -1.0501 -0.3165
 7668SOL    HW234638   2.540   2.942   1.816  0.3428 -0.2312  1.1271
 7669SOL     OW34639   3.848   0.000   4.689 -0.0581 -0.0101 -0.4578
 7669SOL    HW134640   3.901   0.071   4.725 -0.1120 -1.0779  1.7381
 7669SOL    HW234641   3.786   4.725   4.761 -1.0071  0.0479 -1.2608
 7670SOL     OW34642   2.848   1.907   9.538 -0.1321 -0.4484  0.0634
 7670SOL    HW134643   2.783   1.973   9.516 -1.0388 -1.9523 -1.8285
 7670SOL    HW234644   2.917   1.941   9.481 -0.5742 -0.9383 -0.7680
 7671SOL     OW34645   2.019   3.444   2.581  0.1214  0.3550  0.0133
 7671SOL    HW134646   1.993   3.378   2.645  1.7450 -0.5750 -0.2859
 7671SOL    HW234647   2.084   3.395   2.530  1.2695  0.1286  1.6980
 7672SOL     OW34648   2.141   0.115  12.682 -0.3066  0.4269  0.7293
 7672SOL    HW134649   2.174   0.109  12.593 -0.6460 -0.5611  0.6694
 7672SOL    HW234650   2.089   0.195  12.689 -1.0461 -0.1058  1.4167
 7673SOL     OW34651   4.690   4.256   3.483 -0.0738 -0.4339 -0.2413
 7673SOL    HW134652   4.690   4.320   3.554 -1.0252  1.2711 -1.7695
 7673SOL    HW234653   4.607   4.277   3.439 -0.5340 -1.1983  0.2756
 7674SOL     OW34654   3.409   4.362   7.601 -0.0291 -0.0101 -0.4342
 7674SOL    HW134655   3.485   4.409   7.635 -0.5763  0.8606 -0.4024
 7674SOL    HW234656   3.396   4.298   7.671  1.4032 -0.6113 -0.7257
 7675SOL     OW34657   0.988   3.161   9.109  0.4741  0.0682  0.5528
 7675SOL    HW134658   0.944   3.221   9.170 -0.9976 -0.8480  0.4067
 7675SOL    HW234659   0.927   3.164   9.035 -0.6891  0.9732  1.5451
 7676SOL     OW34660   3.620   3.115   2.484  0.7720  0.1869  0.4685
 7676SOL    HW134661   3.552   3.063   2.527  0.2588  0.1008 -0.4610
 7676SOL    HW234662   3.569   3.193   2.460 -2.4128 -1.0812  3.1514
 7677SOL     OW34663   2.820   3.741   5.219  0.6090  0.1601 -0.1732
 7677SOL    HW134664   2.822   3.743   5.124 -0.2980 -1.3048 -0.2253
 7677SOL    HW234665   2.865   3.823   5.243  1.9636 -0.9223  1.0019
 7678SOL     OW34666   4.262   1.395   5.832  0.0813  0.6818  0.1604
 7678SOL    HW134667   4.281   1.455   5.760  1.4255 -1.7794 -1.5351
 7678SOL    HW234668   4.188   1.441   5.871  0.8161 -0.2256  2.6004
 7679SOL     OW34669   4.732   3.371   4.229  0.2836 -0.4852 -0.5883
 7679SOL    HW134670   0.046   3.368   4.311 -1.0818 -0.4358  0.2297
 7679SOL    HW234671   0.068   3.385   4.166 -1.1875  2.7403 -1.5762
 7680SOL     OW34672   2.966   2.545  12.483 -0.2361 -0.2099 -0.9165
 7680SOL    HW134673   2.964   2.499  12.567  0.1771  0.4544 -0.5407
 7680SOL    HW234674   2.964   2.469  12.425  0.3503  0.3353 -1.6529
 7681SOL     OW34675   0.705   1.004   9.031 -0.2953 -0.3815 -0.4273
 7681SOL    HW134676   0.787   0.984   9.077 -1.0138  0.0161  1.0376
 7681SOL    HW234677   0.651   1.031   9.105  0.0955 -0.0735 -0.2541
 7682SOL     OW34678   4.209   4.093   5.933  0.3011  0.4397 -0.6996
 7682SOL    HW134679   4.282   4.074   5.993  0.5413 -2.0565 -1.8023
 7682SOL    HW234680   4.167   4.008   5.941  0.3460  0.2676 -2.4651
 7683SOL     OW34681   3.559   2.721   2.313  0.0112 -0.7344  0.3840
 7683SOL    HW134682   3.505   2.704   2.236 -2.2705  1.8429  1.4096
 7683SOL    HW234683   3.574   2.628   2.330  2.1761 -0.5729 -0.6706
 7684SOL     OW34684   3.913   3.406   7.605 -0.2355 -0.1239 -0.2110
 7684SOL    HW134685   3.951   3.450   7.529  0.4757 -1.0779 -0.3969
 7684SOL    HW234686   3.870   3.325   7.577  0.5046 -0.0063 -1.6965
 7685SOL     OW34687   3.590   2.496   4.410 -0.4826  0.3802  0.5081
 7685SOL    HW134688   3.542   2.551   4.348  0.8555 -2.3671 -2.9510
 7685SOL    HW234689   3.520   2.441   4.445  0.4518 -0.0881  1.6473
 7686SOL     OW34690   3.751   0.545  10.742  0.3568 -0.3485 -0.0521
 7686SOL    HW134691   3.702   0.625  10.762 -0.1619 -0.0258 -2.5068
 7686SOL    HW234692   3.837   0.586  10.741 -0.3288  1.1034  1.1659
 7687SOL     OW34693   1.416   3.964   9.701 -0.7599 -0.3289 -0.2628
 7687SOL    HW134694   1.327   3.986   9.726 -1.1115 -1.2621 -0.6811
 7687SOL    HW234695   1.415   3.869   9.711 -0.5499 -0.2557  0.4616
 7688SOL     OW34696   2.990   3.399   5.602  0.1616  0.4417 -0.2711
 7688SOL    HW134697   2.999   3.348   5.683 -2.4132  0.7860  0.2207
 7688SOL    HW234698   2.896   3.415   5.604 -0.3120 -2.2768 -1.1382
 7689SOL     OW34699   4.385   3.566  15.466 -0.2313  0.2487 -0.3876
 7689SOL    HW134700   4.443   3.639  15.447  0.1957 -0.0723 -0.3196
 7689SOL    HW234701   4.380   3.567  15.562 -4.1435 -1.6022 -0.5531
 7690SOL     OW34702   1.829   0.672  15.932 -0.1318  0.3100  0.3124
 7690SOL    HW134703   1.830   0.588  15.978  1.4809  0.7183  0.9868
 7690SOL    HW234704   1.909   0.710  15.967 -0.4713  0.7476  0.6086
 7691SOL     OW34705   3.694   2.932  14.131 -0.0947 -0.3172  0.4191
 7691SOL    HW134706   3.762   2.956  14.193  1.3689 -2.2529 -0.4494
 7691SOL    HW234707   3.724   2.846  14.101  1.6418 -0.1331  1.6250
 7692SOL     OW34708   1.257   4.109   8.388  0.4653  0.2176  0.3733
 7692SOL    HW134709   1.289   4.181   8.443  0.3834 -0.4374  1.2760
 7692SOL    HW234710   1.280   4.030   8.438 -0.3933  1.0510  2.1052
 7693SOL     OW34711   0.586   4.680   3.225  0.2054  0.4542  0.7217
 7693SOL    HW134712   0.611   4.662   3.134 -1.9803  2.0337 -0.1757
 7693SOL    HW234713   0.495   4.651   3.223 -1.0098  4.3505 -0.1157
 7694SOL     OW34714   0.816   1.140   2.361  0.0055  0.4553 -0.1647
 7694SOL    HW134715   0.881   1.208   2.379  0.8548  0.0557 -1.7708
 7694SOL    HW234716   0.870   1.073   2.320 -2.9201 -0.8154 -1.8873
 7695SOL     OW34717   2.077   3.605   1.903 -0.3459 -0.0291 -0.0344
 7695SOL    HW134718   2.097   3.610   1.996  0.0668  0.2976 -0.1424
 7695SOL    HW234719   2.093   3.511   1.906  0.8837  0.2046  0.4436
 7696SOL     OW34720   1.689   4.085   0.971 -0.6068  0.3214 -0.3288
 7696SOL    HW134721   1.618   4.024   0.990 -0.0277  0.0785  1.0732
 7696SOL    HW234722   1.761   4.023   0.964  1.3172  2.6779 -1.6297
 7697SOL     OW34723   4.287   1.392   5.109  0.4741  0.0165  0.0644
 7697SOL    HW134724   4.191   1.388   5.104  0.3947 -0.9234  2.6200
 7697SOL    HW234725   4.318   1.383   5.019  2.0037  0.5144  0.5368
 7698SOL     OW34726   1.435   1.907   1.762 -0.7395 -0.1286 -0.4180
 7698SOL    HW134727   1.441   1.813   1.776  1.9657 -0.3241 -3.0211
 7698SOL    HW234728   1.341   1.919   1.775 -0.9429 -2.3769  0.2143
 7699SOL     OW34729   3.644   1.186   2.562  0.1924 -0.3972 -0.3824
 7699SOL    HW134730   3.715   1.251   2.559 -0.0369 -0.1399 -0.1520
 7699SOL    HW234731   3.693   1.108   2.589 -0.8509 -1.0079 -0.2709
 7700SOL     OW34732   3.024   4.388   3.148  0.0376 -0.0003 -0.5614
 7700SOL    HW134733   3.113   4.368   3.175  0.0574 -0.3815 -0.9146
 7700SOL    HW234734   2.984   4.303   3.127  1.7636 -0.7049 -0.9402
 7701SOL     OW34735   1.321   1.191  11.543  0.4071 -0.3873 -0.2799
 7701SOL    HW134736   1.360   1.244  11.474 -1.4923  3.9297  1.9800
 7701SOL    HW234737   1.316   1.106  11.500 -1.3433 -0.0385 -0.7747
 7702SOL     OW34738   1.579   3.007   8.640 -0.2261  0.2695  0.4483
 7702SOL    HW134739   1.581   2.914   8.663 -1.6790  0.5370  1.6808
 7702SOL    HW234740   1.644   3.050   8.694  0.1814  1.8869 -1.3339
 7703SOL     OW34741   1.889   0.270  12.714  0.6653 -0.0643  0.0504
 7703SOL    HW134742   1.886   0.248  12.807  0.0940  1.9706  0.4917
 7703SOL    HW234743   1.879   0.365  12.717 -1.8997 -0.3429  0.3221
 7704SOL     OW34744   3.267   3.166  10.216  0.5459  0.3598  0.1152
 7704SOL    HW134745   3.287   3.073  10.230 -0.9516  0.0751  0.3574
 7704SOL    HW234746   3.352   3.195  10.184  0.4647 -0.2419 -0.6600
 7705SOL     OW34747   3.584   1.989   5.934  0.6462 -0.5809  0.2221
 7705SOL    HW134748   3.612   2.076   5.906  1.4085 -1.4580 -1.7003
 7705SOL    HW234749   3.496   2.009   5.968  0.9579  0.8320  0.2014
 7706SOL     OW34750   1.830   3.346   7.722  0.0313 -0.3488 -0.5585
 7706SOL    HW134751   1.798   3.304   7.643 -3.0263  0.5737  0.1759
 7706SOL    HW234752   1.770   3.316   7.790  0.1816 -0.0945 -0.3108
 7707SOL     OW34753   4.116   0.791   8.810 -0.4574  0.1921 -0.1454
 7707SOL    HW134754   4.087   0.880   8.829 -2.0615 -0.3349 -0.1029
 7707SOL    HW234755   4.032   0.746   8.823 -0.6913  0.5208 -0.5131
 7708SOL     OW34756   1.724   3.998   8.604 -0.5486  0.2018  0.4733
 7708SOL    HW134757   1.811   3.959   8.605 -1.2949 -1.5062 -0.5030
 7708SOL    HW234758   1.720   4.050   8.523  0.0967  0.3900  0.5596
 7709SOL     OW34759   0.149   3.836   3.485 -0.1371  0.1034 -0.1475
 7709SOL    HW134760   0.094   3.890   3.542 -1.0914 -3.3024  2.2169
 7709SOL    HW234761   0.176   3.895   3.416  0.4356 -1.2691 -1.0860
 7710SOL     OW34762   4.171   3.905   8.757 -0.0091  0.4448 -0.4776
 7710SOL    HW134763   4.077   3.917   8.747 -0.2785 -0.2221  1.3427
 7710SOL    HW234764   4.181   3.914   8.852 -1.7374  3.1870 -0.5468
 7711SOL     OW34765   3.705   0.101  13.657 -0.0667 -0.7166  0.0840
 7711SOL    HW134766   3.624   0.121  13.704 -0.3705 -0.8795 -0.3676
 7711SOL    HW234767   3.672   0.099  13.567 -0.9680  1.1999  0.3622
 7712SOL     OW34768   3.421   2.588   6.407  0.1947 -0.1583 -0.0677
 7712SOL    HW134769   3.442   2.631   6.325 -0.5836 -0.4427 -0.4202
 7712SOL    HW234770   3.508   2.552   6.425 -0.6907 -2.6232 -0.6710
 7713SOL     OW34771   2.370   1.987   6.232  0.0142 -0.1363  0.5562
 7713SOL    HW134772   2.305   2.000   6.300 -1.7607 -0.8986 -0.9922
 7713SOL    HW234773   2.448   1.976   6.287 -0.8363 -2.3572  1.3068
 7714SOL     OW34774   1.706   2.049   2.965 -0.0314  0.3955  0.0176
 7714SOL    HW134775   1.719   2.121   3.027  1.9799 -0.3523  0.4545
 7714SOL    HW234776   1.733   1.978   3.023 -0.1219  0.7939  0.5546
 7715SOL     OW34777   2.937   4.735   5.469 -0.6662  0.5208  0.7529
 7715SOL    HW134778   2.993   4.690   5.534  1.2017  0.3105 -1.0015
 7715SOL    HW234779   2.861   0.023   5.522 -0.1282  1.6222  1.0193
 7716SOL     OW34780   0.472   4.373   3.882  0.0534 -0.3246  0.2143
 7716SOL    HW134781   0.386   4.412   3.895  0.3132 -0.4566  2.3335
 7716SOL    HW234782   0.493   4.399   3.792 -0.7805  0.6620  0.3030
 7717SOL     OW34783   4.690   3.762   7.779  0.3525  0.7291 -0.2178
 7717SOL    HW134784   4.685   3.681   7.830 -1.2664  0.0958 -1.3871
 7717SOL    HW234785   4.633   3.743   7.704  0.2043 -0.0159  0.0844
 7718SOL     OW34786   3.518   3.097   6.234  0.4299  0.1175  0.3154
 7718SOL    HW134787   3.551   3.045   6.161  0.4558 -0.4565  0.7377
 7718SOL    HW234788   3.558   3.041   6.301 -1.0271 -2.1323 -0.6889
 7719SOL     OW34789   1.849   0.570   2.150  0.0293  0.4594  0.3737
 7719SOL    HW134790   1.894   0.558   2.233  2.4693  2.6855 -0.6196
 7719SOL    HW234791   1.924   0.607   2.103  0.3404 -0.4101  0.1999
 7720SOL     OW34792   4.130   3.023   3.966 -0.0958 -0.1900 -0.3331
 7720SOL    HW134793   4.050   3.017   4.019  0.2264  1.5386  0.3529
 7720SOL    HW234794   4.093   3.049   3.881  0.4766  1.5535 -0.0571
 7721SOL     OW34795   0.353   4.554  10.673 -0.0650 -0.1935 -0.4924
 7721SOL    HW134796   0.405   4.609  10.615 -0.6473  2.5345  1.5776
 7721SOL    HW234797   0.267   4.593  10.682  0.3743  0.1527  2.2240
 7722SOL     OW34798   0.521   4.067  11.289  0.5278  0.1269 -0.0588
 7722SOL    HW134799   0.537   3.990  11.234 -0.4552 -0.9165  1.1263
 7722SOL    HW234800   0.530   4.134  11.221  0.3143  0.3287  0.1131
 7723SOL     OW34801   0.308   0.785  16.947 -0.6762 -0.4240 -0.4318
 7723SOL    HW134802   0.371   0.715  16.929  0.7911  1.0348 -0.9994
 7723SOL    HW234803   0.259   0.782  16.866 -1.7784  1.3476  0.1578
 7724SOL     OW34804   3.483   1.779   7.829  0.2476  0.4169 -0.4114
 7724SOL    HW134805   3.418   1.760   7.897  1.1429 -2.7201 -0.3884
 7724SOL    HW234806   3.472   1.872   7.813  2.7133  0.7042 -0.5327
 7725SOL     OW34807   2.649   4.586  17.101 -0.3946 -0.9266 -0.4614
 7725SOL    HW134808   2.590   4.634  17.159  2.1042  1.2761  0.2530
 7725SOL    HW234809   2.612   4.604  17.014 -0.2931 -2.9341 -0.9414
 7726SOL     OW34810   3.507   2.002   2.397  0.1804 -0.3856 -0.6521
 7726SOL    HW134811   3.585   1.999   2.453 -1.5381 -0.1419  1.7319
 7726SOL    HW234812   3.518   2.080   2.343  3.6912  0.6060  1.4302
 7727SOL     OW34813   1.213   0.522   4.362 -0.0244  0.0010  0.3488
 7727SOL    HW134814   1.141   0.477   4.407  0.2117  0.2311  0.9627
 7727SOL    HW234815   1.260   0.450   4.321 -2.2445  0.2922 -2.7372
 7728SOL     OW34816   2.717   2.376  12.958  0.3408 -0.5687  0.1541
 7728SOL    HW134817   2.626   2.355  12.937  0.1535  2.5599 -2.2467
 7728SOL    HW234818   2.741   2.354  13.048 -0.3770 -1.6942  0.0711
 7729SOL     OW34819   2.785   2.095   8.574 -0.3210 -0.4555  0.2156
 7729SOL    HW134820   2.827   2.139   8.648  1.1536  0.6490 -1.2850
 7729SOL    HW234821   2.835   2.014   8.565  2.3326  1.1067  0.9164
 7730SOL     OW34822   0.010   3.417   4.523 -0.0617 -0.3494  0.0555
 7730SOL    HW134823   0.015   3.512   4.524  0.5792 -0.3476 -1.9954
 7730SOL    HW234824   0.096   3.391   4.556 -0.0375 -0.0154  0.2496
 7731SOL     OW34825   2.848   3.275   8.224 -0.0525 -0.4169 -0.4878
 7731SOL    HW134826   2.806   3.196   8.190 -0.2497 -0.4119 -0.2594
 7731SOL    HW234827   2.865   3.263   8.317 -1.3074  1.3687 -0.0152
 7732SOL     OW34828   1.208   4.126   2.492 -0.1461 -0.0641  0.3596
 7732SOL    HW134829   1.125   4.084   2.471 -0.0393 -0.2735  0.3496
 7732SOL    HW234830   1.234   4.165   2.409  0.9855  1.3380  1.3678
 7733SOL     OW34831   4.533   2.902  12.560 -0.2181  0.1340  0.2305
 7733SOL    HW134832   4.570   2.980  12.519  1.7134  0.1210  1.9441
 7733SOL    HW234833   4.458   2.947  12.601 -0.7561  0.3121 -0.9334
 7734SOL     OW34834   4.687   3.230  14.446 -0.0009 -0.2168 -0.3751
 7734SOL    HW134835   4.681   3.222  14.541  0.8526  0.2542 -0.2791
 7734SOL    HW234836   4.700   3.325  14.445 -0.3119 -0.1807 -0.8654
 7735SOL     OW34837   4.487   3.154   3.380 -0.0985 -0.4309  0.4004
 7735SOL    HW134838   4.577   3.123   3.370 -0.3582 -1.6540  1.8844
 7735SOL    HW234839   4.502   3.217   3.450 -0.2828  3.2028 -2.8418
 7736SOL     OW34840   3.147   0.429   1.773  0.3407 -0.1169 -0.1327
 7736SOL    HW134841   3.061   0.470   1.777  1.1452  1.4821  0.6598
 7736SOL    HW234842   3.122   0.337   1.760  0.0401  0.2289 -1.9031
 7737SOL     OW34843   2.600   4.085  11.025  0.2540  0.4256  0.5498
 7737SOL    HW134844   2.629   4.176  11.019  2.0412 -0.0400  1.9374
 7737SOL    HW234845   2.510   4.083  10.993 -0.0209 -2.0179  1.4736
 7738SOL     OW34846   4.384   2.308   4.919 -0.2685  0.0798 -0.5161
 7738SOL    HW134847   4.402   2.382   4.976  1.7371  0.2077 -1.3050
 7738SOL    HW234848   4.289   2.314   4.906  0.0095  0.1530 -2.6042
 7739SOL     OW34849   3.245   3.261  17.512 -0.0538  0.6633  1.3281
 7739SOL    HW134850   3.314   3.285  17.573 -0.7027  2.0708  1.5035
 7739SOL    HW234851   3.295   3.261  17.430  1.4686 -3.7281  2.2683
 7740SOL     OW34852   4.027   0.490   5.879 -0.4743  0.2972 -0.3700
 7740SOL    HW134853   4.052   0.410   5.834 -1.2232  1.5501 -3.0129
 7740SOL    HW234854   3.996   0.453   5.962 -2.7090  1.1562 -0.8106
 7741SOL     OW34855   3.182   3.750   8.046 -0.5426 -0.5002  0.3136
 7741SOL    HW134856   3.210   3.662   8.073  4.3640  1.5180  1.8369
 7741SOL    HW234857   3.149   3.797   8.123 -1.8560 -0.2445 -0.4143
 7742SOL     OW34858   1.182   1.040   7.254  0.3671 -0.6226 -0.1536
 7742SOL    HW134859   1.198   0.947   7.239  1.3304 -0.0900 -2.3742
 7742SOL    HW234860   1.086   1.035   7.259  0.2834 -0.6724 -1.9047
 7743SOL     OW34861   4.722   3.823   5.226 -0.1693  0.4149 -0.3010
 7743SOL    HW134862   4.709   3.818   5.131 -1.4416 -0.3208 -0.0828
 7743SOL    HW234863   4.671   3.901   5.246 -1.8608 -1.0645  1.1197
 7744SOL     OW34864   1.916   0.722   3.233  0.1721  0.1847 -0.1901
 7744SOL    HW134865   1.905   0.678   3.149  0.8730 -1.6157  0.6521
 7744SOL    HW234866   1.931   0.651   3.296  1.9000  0.9284  0.2219
 7745SOL     OW34867   2.435   0.999   2.379 -0.5767  0.2039 -0.5902
 7745SOL    HW134868   2.479   1.077   2.412 -1.3309 -0.0128  0.9244
 7745SOL    HW234869   2.413   1.026   2.289 -1.3019  0.1082 -0.4474
 7746SOL     OW34870   3.799   2.951   1.560  0.1726 -0.1493  0.4203
 7746SOL    HW134871   3.755   3.034   1.544 -2.3898 -2.0536 -2.2023
 7746SOL    HW234872   3.876   2.978   1.610  0.2603  0.2535  0.0609
 7747SOL     OW34873   2.852   3.369   6.487 -0.2868 -0.3981  0.3155
 7747SOL    HW134874   2.843   3.448   6.434 -0.3776  0.0610  1.0150
 7747SOL    HW234875   2.863   3.401   6.576 -2.6773  0.2878  0.3642
 7748SOL     OW34876   0.395   4.139   9.652 -0.2194  0.1560  0.3755
 7748SOL    HW134877   0.340   4.100   9.720 -0.2799 -0.1958  0.1202
 7748SOL    HW234878   0.353   4.100   9.576  3.5787 -2.9603 -0.1177
 7749SOL     OW34879   4.547   2.366   6.465 -0.1189  0.5287 -0.6743
 7749SOL    HW134880   4.611   2.302   6.498 -1.2785 -1.1109 -1.5785
 7749SOL    HW234881   4.602   2.434   6.426  2.7437 -2.6753 -2.2443
 7750SOL     OW34882   4.539   3.393   3.940  0.7094  0.1217  0.4052
 7750SOL    HW134883   4.573   3.397   4.030  1.7389  0.1476  0.0133
 7750SOL    HW234884   4.499   3.478   3.924  1.6137  0.6408  0.9198
 7751SOL     OW34885   1.742   2.214   5.515  0.2382  0.3069  0.2338
 7751SOL    HW134886   1.813   2.150   5.518  1.2259  1.3151 -1.8468
 7751SOL    HW234887   1.734   2.220   5.420  0.0223  2.0032  0.3600
 7752SOL     OW34888   3.863   4.387   1.047  0.6145 -0.2145  0.5398
 7752SOL    HW134889   3.807   4.316   1.079  1.0317 -0.9644 -0.4178
 7752SOL    HW234890   3.798   4.438   0.998  0.7607  0.1603  0.7280
 7753SOL     OW34891   2.600   0.674   3.295 -0.2545 -0.3237  0.1613
 7753SOL    HW134892   2.566   0.710   3.213 -0.0286  0.2444  0.3220
 7753SOL    HW234893   2.563   0.585   3.295 -2.9247  0.7861  0.3126
 7754SOL     OW34894   1.165   2.817   1.423  0.0102  0.2087  0.4221
 7754SOL    HW134895   1.097   2.759   1.457  0.8728 -0.0944  1.6688
 7754SOL    HW234896   1.223   2.750   1.386 -3.2594 -1.7430 -1.1624
 7755SOL     OW34897   4.028   2.927   6.576 -0.0124  0.1996  0.1250
 7755SOL    HW134898   4.034   2.834   6.554  1.0510  0.4943 -0.8803
 7755SOL    HW234899   4.101   2.956   6.521  0.6845 -1.8730 -0.0512
 7756SOL     OW34900   0.986   3.989  10.456  0.8151  0.2925  0.1815
 7756SOL    HW134901   0.941   3.915  10.414  1.7297  0.6998 -1.5013
 7756SOL    HW234902   1.069   3.946  10.476 -0.9301 -3.7753 -1.2424
 7757SOL     OW34903   1.034   1.243   8.512  0.4551  0.4907 -0.4914
 7757SOL    HW134904   0.972   1.171   8.519  1.1554 -0.0580  0.0793
 7757SOL    HW234905   1.010   1.282   8.428  0.4700 -2.6406 -1.9312
 7758SOL     OW34906   2.585   4.526   7.753 -0.1188  0.4140 -0.0391
 7758SOL    HW134907   2.548   4.610   7.780 -1.5808  0.2955 -1.6660
 7758SOL    HW234908   2.502   4.485   7.728  0.0060  0.5391 -0.6707
 7759SOL     OW34909   3.861   4.461  12.093  0.3153  0.5617  0.1215
 7759SOL    HW134910   3.897   4.498  12.174  0.1634  0.9431  0.0115
 7759SOL    HW234911   3.853   4.531  12.029  1.9595  0.4586 -0.1743
 7760SOL     OW34912   4.610   1.158   6.132  0.3005 -0.0929  0.4482
 7760SOL    HW134913   4.640   1.114   6.053 -1.2169  0.9306 -0.7022
 7760SOL    HW234914   4.543   1.213   6.093  0.8875  0.5312  0.3042
 7761SOL     OW34915   4.317   0.030   9.780  0.2445 -0.3193 -0.2703
 7761SOL    HW134916   4.252   4.714   9.732 -1.3808  1.0029  0.5008
 7761SOL    HW234917   4.337   0.099   9.715  3.6481 -1.1932 -0.1575
 7762SOL     OW34918   3.065   4.717   3.584 -0.4993  0.1857 -0.4198
 7762SOL    HW134919   3.104   4.693   3.668 -0.3990 -0.0003 -0.5191
 7762SOL    HW234920   3.009   0.054   3.611 -1.5224 -0.5544 -0.5119
 7763SOL     OW34921   2.945   0.936  17.673  0.6495 -0.0949 -1.1337
 7763SOL    HW134922   3.000   0.941   0.010 -0.8554  0.2454 -0.0975
 7763SOL    HW234923   2.949   1.029  17.653 -0.2511 -0.9723 -5.2637
 7764SOL     OW34924   3.668   4.346   5.202  0.0990 -0.3124  0.0267
 7764SOL    HW134925   3.682   4.407   5.274  1.5480 -0.0561 -0.4630
 7764SOL    HW234926   3.729   4.274   5.218 -2.8262 -3.0070 -0.9727
 7765SOL     OW34927   4.090   2.344   6.965  0.0626  0.0105  0.0505
 7765SOL    HW134928   4.162   2.318   6.906  1.1433 -0.9760  1.8068
 7765SOL    HW234929   4.147   2.384   7.031  1.0276  1.0530 -1.4117
 7766SOL     OW34930   2.608   1.740   4.273 -0.2312 -0.2238  0.6483
 7766SOL    HW134931   2.631   1.648   4.286  0.3058 -0.0786  0.7188
 7766SOL    HW234932   2.527   1.733   4.223  1.0893  2.3056 -1.8980
 7767SOL     OW34933   0.233   1.746   5.940  0.4752  0.3885 -1.1411
 7767SOL    HW134934   0.174   1.799   5.994  0.6485 -0.3886 -0.1797
 7767SOL    HW234935   0.268   1.674   5.992 -1.9863 -0.6150 -0.8683
 7768SOL     OW34936   4.052   4.144   7.837  0.3177  0.3105 -0.0772
 7768SOL    HW134937   4.045   4.055   7.873 -0.5211  0.6431  0.6023
 7768SOL    HW234938   4.013   4.135   7.751 -0.6374 -0.9397  0.4915
 7769SOL     OW34939   2.613   2.126   4.982  0.0783  0.4635 -0.1930
 7769SOL    HW134940   2.697   2.091   4.952 -1.3077 -2.2568 -0.8805
 7769SOL    HW234941   2.581   2.055   5.038  2.2514  1.4911  2.3387
 7770SOL     OW34942   2.971   2.800  12.230  0.0948  0.5890 -0.2018
 7770SOL    HW134943   2.923   2.730  12.186 -1.1511  2.0481 -1.2008
 7770SOL    HW234944   2.909   2.870  12.207 -0.4375  0.3673  0.5508
 7771SOL     OW34945   1.452   0.701  17.387 -0.0428  0.7685  0.2251
 7771SOL    HW134946   1.386   0.733  17.449 -1.5658 -1.1714 -0.4039
 7771SOL    HW234947   1.496   0.635  17.441 -0.4634  0.7225  0.5060
 7772SOL     OW34948   3.271   3.001  15.438  0.0201 -0.1267 -0.3285
 7772SOL    HW134949   3.208   2.976  15.370 -0.0942  0.6642 -0.5121
 7772SOL    HW234950   3.248   2.933  15.502 -0.9680 -0.1600 -0.7200
 7773SOL     OW34951   0.654   0.606  11.273 -0.3659 -0.4209  0.2787
 7773SOL    HW134952   0.662   0.512  11.284 -1.6512 -0.6055 -0.2579
 7773SOL    HW234953   0.564   0.624  11.243 -0.7395 -0.1218  1.5744
 7774SOL     OW34954   2.422   1.307   7.452 -0.0381 -0.0874  0.0856
 7774SOL    HW134955   2.351   1.257   7.492  2.0145 -2.5222  0.6668
 7774SOL    HW234956   2.459   1.235   7.401  0.9790  2.5472 -2.8837
 7775SOL     OW34957   1.339   1.690   7.518  0.1607 -0.3981  0.0810
 7775SOL    HW134958   1.244   1.705   7.516  0.6884  2.7903 -1.3988
 7775SOL    HW234959   1.337   1.597   7.498 -0.6067  0.1140 -2.1414
 7776SOL     OW34960   4.007   1.442   5.947  0.3380  0.1428  0.1668
 7776SOL    HW134961   3.976   1.524   5.909  1.5033  1.5214  2.1766
 7776SOL    HW234962   3.930   1.389   5.924  2.0346 -3.1489  1.9835
 7777SOL     OW34963   4.462   3.749   7.191 -0.3309 -0.8749  0.5674
 7777SOL    HW134964   4.499   3.679   7.136 -2.2229  0.0208 -1.8247
 7777SOL    HW234965   4.537   3.748   7.251 -0.2010  1.2399  0.4193
 7778SOL     OW34966   0.316   3.175   7.503 -0.1503  0.1794  0.5170
 7778SOL    HW134967   0.314   3.181   7.598 -0.7961 -0.4429  0.5431
 7778SOL    HW234968   0.244   3.228   7.471 -1.3006 -1.1768  0.8729
 7779SOL     OW34969   3.047   4.589   0.506 -0.4332 -0.0846 -0.6149
 7779SOL    HW134970   3.083   4.669   0.468 -0.1282  0.4267  0.7589
 7779SOL    HW234971   3.073   4.596   0.598  1.2383 -0.9241 -1.0133
 7780SOL     OW34972   2.803   0.955  16.680 -0.1202 -0.1483 -0.3975
 7780SOL    HW134973   2.859   0.958  16.603  2.6376  0.6024  1.6622
 7780SOL    HW234974   2.717   0.994  16.662 -0.8166 -1.4133  0.1035
 7781SOL     OW34975   1.539   1.645   9.288  0.8956 -0.2120 -0.2008
 7781SOL    HW134976   1.485   1.645   9.367  1.3574  3.1050  0.1142
 7781SOL    HW234977   1.561   1.738   9.284  0.7158 -0.1651 -0.1067
 7782SOL     OW34978   4.450   4.017   4.833  0.1529 -0.0884 -0.5812
 7782SOL    HW134979   4.411   4.065   4.760 -1.2105 -0.7252 -0.2822
 7782SOL    HW234980   4.540   3.995   4.810  1.1990  2.2758  1.2307
 7783SOL     OW34981   4.331   0.524   2.787 -0.0920  0.0397  0.3090
 7783SOL    HW134982   4.296   0.595   2.841 -0.3239 -1.4369  2.1208
 7783SOL    HW234983   4.419   0.552   2.761  0.5409 -2.8530 -0.6755
 7784SOL     OW34984   2.237   1.658   5.683 -0.6935 -0.9919  0.4733
 7784SOL    HW134985   2.221   1.585   5.743 -1.8045 -1.5216 -0.4657
 7784SOL    HW234986   2.273   1.729   5.737 -0.7301 -1.1541  0.7096
 7785SOL     OW34987   1.946   1.865   1.324  0.3321 -0.1718  0.3638
 7785SOL    HW134988   1.977   1.890   1.237  2.4399 -1.3378  0.7852
 7785SOL    HW234989   1.982   1.777   1.319 -0.3288 -0.2652 -2.8759
 7786SOL     OW34990   4.255   4.230   1.237  0.0318  0.4134  0.4541
 7786SOL    HW134991   4.221   4.210   1.150  1.0893  0.3953  0.0467
 7786SOL    HW234992   4.200   4.171   1.288 -0.0460  0.4118  0.3679
 7787SOL     OW34993   1.376   1.465   5.510 -0.0084 -0.0720  0.5733
 7787SOL    HW134994   1.330   1.514   5.442 -0.2551 -1.5818 -0.3440
 7787SOL    HW234995   1.332   1.381   5.524 -2.2069  0.6804 -1.9009
 7788SOL     OW34996   1.004   2.922   2.223  0.6129  0.0723  0.4099
 7788SOL    HW134997   1.021   2.926   2.317  0.8579 -0.5510  0.3906
 7788SOL    HW234998   1.089   2.901   2.183 -1.0552 -0.3762 -2.9042
 7789SOL     OW34999   2.212   3.329   6.420  0.0290 -0.0148 -0.0766
 7789SOL    HW135000   2.292   3.277   6.416 -0.7146 -1.3931  2.7087
 7789SOL    HW235001   2.169   3.315   6.504  0.0660  0.4202  0.0135
 7790SOL     OW35002   4.292   0.162   6.571  0.2981 -0.3490 -0.5491
 7790SOL    HW135003   4.343   0.149   6.491 -1.4329 -0.8563 -1.5673
 7790SOL    HW235004   4.209   0.134   6.533 -1.0086  2.7941  0.0503
 7791SOL     OW35005   2.537   3.117  12.569  0.1506 -0.2496 -0.5433
 7791SOL    HW135006   2.569   3.027  12.573 -2.3071 -1.0776  0.9708
 7791SOL    HW235007   2.446   3.087  12.565  0.1485 -0.0751 -1.6281
 7792SOL     OW35008   0.027   3.979  10.115 -0.8260  0.4724 -0.3423
 7792SOL    HW135009   0.013   3.884  10.116  2.0269  0.0662 -0.2335
 7792SOL    HW235010   4.677   4.018  10.099 -1.9273 -1.8398 -0.0658
 7793SOL     OW35011   3.087   0.248   1.264 -0.0454  0.1251  0.0581
 7793SOL    HW135012   3.149   0.183   1.297 -1.1470 -1.1487 -0.3875
 7793SOL    HW235013   3.080   0.223   1.172  1.5245  0.6785 -0.2241
 7794SOL     OW35014   3.538   0.982   6.609 -0.0516  0.0350  0.6723
 7794SOL    HW135015   3.592   1.038   6.552  2.4149 -2.7391  0.2872
 7794SOL    HW235016   3.453   0.987   6.566 -0.0084  0.3373  0.6220
 7795SOL     OW35017   3.096   0.659  12.368  0.2043  0.0971  0.4259
 7795SOL    HW135018   3.102   0.727  12.435  0.3402  1.4230 -0.9346
 7795SOL    HW235019   3.010   0.627  12.396 -0.8624 -0.1654 -3.2638
 7796SOL     OW35020   2.793   4.113   3.328 -0.3595  0.5387 -0.1717
 7796SOL    HW135021   2.797   4.205   3.354 -0.4191  0.2170  0.9533
 7796SOL    HW235022   2.700   4.090   3.338 -0.8002  1.7889 -1.3025
 7797SOL     OW35023   4.132   0.286   5.586 -0.4034 -0.5664 -0.2073
 7797SOL    HW135024   4.216   0.243   5.570  0.1139  1.5853 -3.3637
 7797SOL    HW235025   4.140   0.381   5.572  3.3552 -1.1571 -2.2090
 7798SOL     OW35026   2.643   2.208   8.063  0.9481 -0.3614  0.1418
 7798SOL    HW135027   2.625   2.148   8.136  1.2331 -0.7915 -0.1345
 7798SOL    HW235028   2.569   2.267   8.061  0.7998 -0.5169  1.0216
 7799SOL     OW35029   3.534   1.996  12.382 -0.4706  0.0723 -0.2409
 7799SOL    HW135030   3.530   1.900  12.377 -0.7933  0.0770 -0.0432
 7799SOL    HW235031   3.457   2.000  12.437 -0.1366  0.4462  0.1982
 7800SOL     OW35032   3.123   3.611   5.319 -0.1468 -0.5231 -0.4279
 7800SOL    HW135033   3.150   3.696   5.282  0.9110 -1.0515 -0.8539
 7800SOL    HW235034   3.205   3.563   5.323  1.5439  2.2950 -1.1297
 7801SOL     OW35035   3.373   0.224   0.400 -0.9345 -0.5870  0.0525
 7801SOL    HW135036   3.374   0.316   0.426  3.7673 -1.1141  1.8923
 7801SOL    HW235037   3.354   0.226   0.307  0.8155 -2.2299 -0.3439
 7802SOL     OW35038   2.179   3.550   4.627 -0.1826 -0.2953 -0.0873
 7802SOL    HW135039   2.201   3.457   4.629 -2.7730 -0.9535 -2.0988
 7802SOL    HW235040   2.099   3.539   4.576 -0.7540  0.6983  0.5968
 7803SOL     OW35041   4.451   1.758   7.369  0.2332  0.0689 -0.2016
 7803SOL    HW135042   4.537   1.719   7.353 -0.7018 -0.9015 -2.7279
 7803SOL    HW235043   4.393   1.685   7.387  1.2133 -0.3552  1.2852
 7804SOL     OW35044   3.700   1.444  15.581  0.2449  0.6793  0.4665
 7804SOL    HW135045   3.766   1.503  15.546  0.7654 -0.2484 -0.0924
 7804SOL    HW235046   3.735   1.359  15.556 -1.4649  0.7184 -2.1333
 7805SOL     OW35047   1.688   4.482  13.865  0.2521  0.1852  0.3735
 7805SOL    HW135048   1.667   4.394  13.834  0.6805  0.1343  0.2220
 7805SOL    HW235049   1.725   4.469  13.952  0.1662  1.7385  0.6383
 7806SOL     OW35050   0.237   4.168   4.804  0.4942  0.1798  0.1359
 7806SOL    HW135051   0.222   4.217   4.885 -0.0901 -0.3981  0.3837
 7806SOL    HW235052   0.225   4.231   4.733 -1.3804 -1.4739 -1.0293
 7807SOL     OW35053   3.775   3.186   4.454 -0.5133  0.0242 -0.3332
 7807SOL    HW135054   3.782   3.276   4.423  1.1515 -0.5121 -1.5349
 7807SOL    HW235055   3.747   3.136   4.377 -1.7884 -2.2003  1.5626
 7808SOL     OW35056   2.986   1.766   0.427 -0.5425 -0.2388  0.0526
 7808SOL    HW135057   2.937   1.695   0.468 -0.1414  0.1336  1.1784
 7808SOL    HW235058   2.915   1.813   0.383  0.4910  1.6074  0.3894
 7809SOL     OW35059   1.700   3.158   7.547  0.7522 -0.2353  0.0250
 7809SOL    HW135060   1.650   3.191   7.472  0.4650 -0.3258  0.1786
 7809SOL    HW235061   1.642   3.086   7.570  1.1222 -0.2774  0.8247
 7810SOL     OW35062   4.130   1.645   2.102 -0.5555 -0.1029  0.7225
 7810SOL    HW135063   4.134   1.703   2.026 -0.5569 -0.7490  0.2273
 7810SOL    HW235064   4.219   1.669   2.126  0.1254  0.2692 -2.1895
 7811SOL     OW35065   0.004   1.125   7.798 -0.3717  0.5034 -0.0045
 7811SOL    HW135066   0.012   1.064   7.871 -0.6918  0.5570  0.0750
 7811SOL    HW235067   0.097   1.143   7.783 -0.2303 -1.1439 -1.1736
 7812SOL     OW35068   0.382   1.013  13.202  0.2563 -0.3654 -0.1097
 7812SOL    HW135069   0.340   1.090  13.164 -0.2601 -0.8774 -0.5673
 7812SOL    HW235070   0.368   0.951  13.131  1.1836 -0.0826 -0.5363
 7813SOL     OW35071   2.428   3.565   8.096 -0.2065  0.0450 -0.0630
 7813SOL    HW135072   2.435   3.658   8.120  0.3866  0.7032 -2.8368
 7813SOL    HW235073   2.357   3.564   8.032 -0.1066  0.8478 -0.1864
 7814SOL     OW35074   4.416   4.385  12.159  0.4983 -0.1931  0.1375
 7814SOL    HW135075   4.454   4.424  12.238  1.0873  1.0358 -0.7591
 7814SOL    HW235076   4.323   4.409  12.167  1.2715  2.8888 -0.0188
 7815SOL     OW35077   0.133   4.696   2.531 -0.6193  0.1773  0.4941
 7815SOL    HW135078   0.069   4.632   2.564 -1.2557  0.5317 -0.0450
 7815SOL    HW235079   0.095   0.045   2.555  1.2569  0.9524  0.7070
 7816SOL     OW35080   2.353   3.232   1.787  0.1097  0.2648  0.0984
 7816SOL    HW135081   2.428   3.244   1.730 -1.8059  0.1204 -2.4747
 7816SOL    HW235082   2.370   3.157   1.844  1.5144 -0.2064 -0.9482
 7817SOL     OW35083   4.648   0.100  11.672 -0.0608 -0.1961  0.0308
 7817SOL    HW135084   4.676   0.012  11.700 -0.9383 -1.6726 -3.7387
 7817SOL    HW235085   4.572   0.072  11.621  0.4952 -1.4086 -0.1382
 7818SOL     OW35086   3.739   1.182  10.011 -0.3933 -0.1379  0.2920
 7818SOL    HW135087   3.711   1.269   9.981  0.3644 -0.1369 -0.4240
 7818SOL    HW235088   3.825   1.187  10.053  0.6415  1.1230 -2.0104
 7819SOL     OW35089   1.037   0.743   4.351 -0.5733 -0.0550  0.4090
 7819SOL    HW135090   1.081   0.664   4.384 -0.7556  0.7590  2.6467
 7819SOL    HW235091   1.011   0.702   4.269  0.3192  0.4927 -0.1452
 7820SOL     OW35092   2.065   4.306  11.438  0.2457 -0.3269  0.0047
 7820SOL    HW135093   2.039   4.383  11.489  0.8212 -0.1553  0.0410
 7820SOL    HW235094   2.146   4.341  11.400  0.3007  0.0950  0.5164
 7821SOL     OW35095   0.879   3.446   5.522 -0.4329  0.5186  0.5953
 7821SOL    HW135096   0.877   3.368   5.576 -0.1144 -0.5284 -0.8994
 7821SOL    HW235097   0.973   3.459   5.536 -0.5796  2.0531  0.2151
 7822SOL     OW35098   0.823   4.260  17.568  0.6130  0.3069  0.1332
 7822SOL    HW135099   0.857   4.294  17.650  0.6423  0.6036 -0.0001
 7822SOL    HW235100   0.737   4.300  17.558  1.0118  1.3603  0.8816
 7823SOL     OW35101   3.280   0.173   9.208 -0.8983  0.3616 -0.3308
 7823SOL    HW135102   3.296   0.197   9.299 -0.2165 -0.7577 -0.1587
 7823SOL    HW235103   3.355   0.213   9.164  0.3283  0.5381  1.9320
 7824SOL     OW35104   0.642   0.317   9.075  0.1434  0.2354  0.0414
 7824SOL    HW135105   0.553   0.325   9.039 -1.0275  1.0219  3.1411
 7824SOL    HW235106   0.674   0.407   9.068 -0.0601  0.3630  0.8180
 7825SOL     OW35107   2.523   0.772  17.430 -0.8052 -0.4704  0.7566
 7825SOL    HW135108   2.493   0.836  17.366  1.9137  0.3135  0.2509
 7825SOL    HW235109   2.464   0.700  17.410 -1.1797 -0.3716  1.4877
 7826SOL     OW35110   0.233   3.017   7.164 -0.3693  0.4834 -0.3254
 7826SOL    HW135111   0.221   3.111   7.152 -0.7886  0.7043  1.8842
 7826SOL    HW235112   0.153   2.989   7.210 -0.6926 -0.6003 -1.5329
 7827SOL     OW35113   3.220   2.102   5.788  0.1094 -0.5884  0.8834
 7827SOL    HW135114   3.199   2.010   5.769 -0.2852 -0.1205 -1.0018
 7827SOL    HW235115   3.153   2.139   5.730  2.5040 -0.2505 -1.7149
 7828SOL     OW35116   2.625   2.594   8.450  0.1796 -0.2296  0.5135
 7828SOL    HW135117   2.586   2.507   8.461 -2.1870  0.6726 -0.9468
 7828SOL    HW235118   2.586   2.615   8.366 -1.0943 -0.5440  1.0215
 7829SOL     OW35119   2.132   1.397   9.119  0.0333  0.8304  0.2237
 7829SOL    HW135120   2.041   1.375   9.141  0.4786 -0.2498  0.9934
 7829SOL    HW235121   2.128   1.379   9.025 -0.3937  0.1755  0.3691
 7830SOL     OW35122   2.575   3.379   1.028 -0.1010 -0.5167  0.0324
 7830SOL    HW135123   2.638   3.312   1.053 -1.6153 -2.0380 -0.2478
 7830SOL    HW235124   2.597   3.378   0.935  0.6151  0.5063  0.1929
 7831SOL     OW35125   3.491   0.495  12.464 -0.4609  0.0903  0.4361
 7831SOL    HW135126   3.450   0.546  12.394  0.0612  1.2548  0.9743
 7831SOL    HW235127   3.557   0.554  12.500 -0.9795  0.9078  0.0516
 7832SOL     OW35128   4.158   3.091   9.477 -0.1118 -0.2963 -0.1758
 7832SOL    HW135129   4.067   3.097   9.506  0.5841  2.7413  1.3047
 7832SOL    HW235130   4.160   3.028   9.404  1.4247  0.3012 -0.6619
 7833SOL     OW35131   4.060   4.411  10.075  0.0688  0.1498 -0.0129
 7833SOL    HW135132   3.982   4.459  10.103 -1.0085 -1.4295 -0.3151
 7833SOL    HW235133   4.035   4.319  10.069 -0.9151  0.5051 -1.4231
 7834SOL     OW35134   1.200   1.057   1.800 -0.1763 -0.4242  0.6716
 7834SOL    HW135135   1.145   1.081   1.875 -0.9184  1.3562 -0.4510
 7834SOL    HW235136   1.166   0.968   1.794  1.9291 -1.4140  3.1605
 7835SOL     OW35137   3.110   1.312   9.839  0.0295 -0.3178  0.1704
 7835SOL    HW135138   3.177   1.283   9.777 -0.9157 -0.1864 -0.9094
 7835SOL    HW235139   3.101   1.406   9.828 -2.7413 -0.7183 -0.9769
 7836SOL     OW35140   0.066   1.386   0.284 -0.3903  0.5698 -0.6828
 7836SOL    HW135141   0.100   1.437   0.358 -1.2405  0.9209 -0.5292
 7836SOL    HW235142   0.076   1.450   0.213 -2.0514  0.8696 -0.6430
 7837SOL     OW35143   3.156   0.562  11.161 -0.3695 -0.3369 -0.1497
 7837SOL    HW135144   3.079   0.528  11.205 -2.4913  1.7596 -2.2506
 7837SOL    HW235145   3.223   0.505  11.199  0.6575  0.7369 -0.3587
 7838SOL     OW35146   4.058   4.113   8.284 -0.2611 -0.4424 -0.0786
 7838SOL    HW135147   4.101   4.141   8.203 -1.9072 -1.2434 -1.2234
 7838SOL    HW235148   4.120   4.153   8.344 -2.0588  0.5980  1.1036
 7839SOL     OW35149   3.996   2.171   2.709 -0.0314  0.5822  0.0812
 7839SOL    HW135150   3.963   2.222   2.783 -1.5622 -0.3150  0.0042
 7839SOL    HW235151   3.923   2.117   2.679  2.9369 -2.3346 -1.8091
 7840SOL     OW35152   1.633   1.065  15.409  0.4714  0.4218 -0.6991
 7840SOL    HW135153   1.707   1.010  15.435 -0.4449 -0.8587 -0.8323
 7840SOL    HW235154   1.682   1.121  15.348 -0.7142  1.1305 -0.9987
 7841SOL     OW35155   2.556   3.353   6.641  0.1182  0.4402 -0.0173
 7841SOL    HW135156   2.584   3.261   6.647 -1.1751 -0.0448 -1.3724
 7841SOL    HW235157   2.586   3.390   6.723  0.3231  0.8774 -0.2904
 7842SOL     OW35158   0.473   4.252  10.106  0.7926 -0.6044 -0.3388
 7842SOL    HW135159   0.391   4.225  10.064  0.6745  1.7301 -1.6348
 7842SOL    HW235160   0.464   4.348  10.102  0.5419 -0.5345  1.9772
 7843SOL     OW35161   3.368   1.067   2.113 -0.5512  0.0071 -0.1731
 7843SOL    HW135162   3.364   0.998   2.179 -0.5940 -0.8558 -1.0814
 7843SOL    HW235163   3.332   1.018   2.038  1.8179  0.6791 -1.7570
 7844SOL     OW35164   2.045   0.935   9.212  0.1343 -0.1174 -0.0158
 7844SOL    HW135165   2.008   0.909   9.128 -0.6135  3.2344 -0.6967
 7844SOL    HW235166   2.105   1.001   9.177  0.5623 -0.3388  0.2908
 7845SOL     OW35167   2.691   0.141  16.825  0.3260 -0.4120 -0.3759
 7845SOL    HW135168   2.636   0.209  16.784  1.2690 -0.0691 -1.0879
 7845SOL    HW235169   2.655   0.144  16.913 -2.7560  0.3798 -1.6444
 7846SOL     OW35170   3.142   3.521  10.509  0.4383 -0.2929  0.4606
 7846SOL    HW135171   3.064   3.504  10.561 -0.8397  0.7435 -1.0833
 7846SOL    HW235172   3.128   3.481  10.423  0.7115  1.1381 -0.2594
 7847SOL     OW35173   0.889   0.214   7.298  0.0289 -0.7008  0.6524
 7847SOL    HW135174   0.910   0.191   7.389  0.2521  1.6308  1.1957
 7847SOL    HW235175   0.798   0.233   7.321 -0.2837  0.1576 -1.2905
 7848SOL     OW35176   0.365   2.150  14.539  0.0438  0.0794  0.6359
 7848SOL    HW135177   0.353   2.175  14.631  1.3010 -1.1656  1.1441
 7848SOL    HW235178   0.312   2.070  14.547  0.1515  0.1526  2.0929
 7849SOL     OW35179   3.363   2.370   4.066 -0.2116  0.7942 -0.4317
 7849SOL    HW135180   3.415   2.313   4.123 -3.1381  0.3457  1.8503
 7849SOL    HW235181   3.276   2.330   4.074  0.8841 -1.5492 -0.2707
 7850SOL     OW35182   2.683   2.670  10.993  0.0202  0.3091 -0.4333
 7850SOL    HW135183   2.727   2.755  10.991  1.5899 -0.4734  0.0885
 7850SOL    HW235184   2.662   2.662  11.086  0.6650 -1.9760 -0.4877
 7851SOL     OW35185   0.817   2.850   9.350 -0.8171  0.2562  0.7368
 7851SOL    HW135186   0.842   2.931   9.305 -0.3999 -0.8406 -0.9948
 7851SOL    HW235187   0.857   2.852   9.437 -1.5899 -2.5502  1.1504
 7852SOL     OW35188   2.046   4.012  11.862  0.0633  0.6160  0.1365
 7852SOL    HW135189   2.092   4.095  11.853  0.4766  0.3904  0.1590
 7852SOL    HW235190   1.983   4.019  11.790 -0.8289 -0.9448  0.7665
 7853SOL     OW35191   0.694   1.300  16.859  0.5325 -0.1713 -0.0190
 7853SOL    HW135192   0.711   1.206  16.854  1.4124  0.0261 -0.8064
 7853SOL    HW235193   0.750   1.313  16.935 -2.3886 -1.6796  2.3737
 7854SOL     OW35194   0.629   3.988   9.949 -0.3396 -0.6418 -0.3225
 7854SOL    HW135195   0.542   3.960   9.921 -1.1791  0.1152  1.5064
 7854SOL    HW235196   0.675   3.905   9.941  0.4604 -0.2590  0.2952
 7855SOL     OW35197   3.313   0.434   6.897  0.5301 -0.3206  0.3250
 7855SOL    HW135198   3.234   0.488   6.889 -0.1778 -1.5111 -0.8324
 7855SOL    HW235199   3.274   0.349   6.875  0.1885  0.0263 -0.4433
 7856SOL     OW35200   1.160   4.208   4.604  0.4576  0.0626 -0.0624
 7856SOL    HW135201   1.153   4.265   4.528  0.5115  1.7739  1.2081
 7856SOL    HW235202   1.081   4.154   4.597  1.8913 -2.1009  0.2646
 7857SOL     OW35203   0.808   2.854   7.227  0.1389 -0.2247 -0.6044
 7857SOL    HW135204   0.843   2.931   7.183 -0.7914 -0.1188 -1.1707
 7857SOL    HW235205   0.837   2.789   7.163 -0.2849 -0.5491 -0.4678
 7858SOL     OW35206   2.240   2.389  13.305  0.0603  0.1846 -0.6581
 7858SOL    HW135207   2.201   2.304  13.324  0.4749  0.1199 -0.0816
 7858SOL    HW235208   2.250   2.385  13.210 -1.9598  0.3244 -0.8601
 7859SOL     OW35209   1.837   4.010  13.835  0.2772 -0.3875  0.2898
 7859SOL    HW135210   1.758   3.993  13.886  0.8204 -1.8565  0.6443
 7859SOL    HW235211   1.825   4.102  13.813 -0.2973 -0.4855  0.1918
 7860SOL     OW35212   0.711   0.308   0.372 -0.6558 -0.6042  0.0877
 7860SOL    HW135213   0.678   0.363   0.444 -1.1369  0.8875 -1.2712
 7860SOL    HW235214   0.782   0.274   0.426 -0.3991 -0.3438 -0.0889
 7861SOL     OW35215   1.401   2.880   3.605 -0.2002  0.3603 -0.2557
 7861SOL    HW135216   1.402   2.872   3.700  1.5813 -2.0615 -0.4582
 7861SOL    HW235217   1.331   2.942   3.588 -1.2230 -0.9130 -0.6561
 7862SOL     OW35218   4.299   4.268   5.483 -0.6211 -0.8403  0.2501
 7862SOL    HW135219   4.268   4.294   5.570 -0.0927 -1.1888  0.5395
 7862SOL    HW235220   4.316   4.176   5.502 -1.5856 -1.0634  0.0704
 7863SOL     OW35221   3.591   0.442   4.879  0.3273  0.1777 -0.8325
 7863SOL    HW135222   3.630   0.401   4.955  0.7314  1.2784 -0.4397
 7863SOL    HW235223   3.676   0.474   4.848  0.5177  2.1573  1.7040
 7864SOL     OW35224   0.821   0.662   4.600 -0.0734  0.2660 -0.1821
 7864SOL    HW135225   0.895   0.607   4.576 -1.0993 -1.4408  0.6228
 7864SOL    HW235226   0.853   0.752   4.589 -0.0318  0.2110 -0.5018
 7865SOL     OW35227   2.562   2.591   4.387  0.1834 -0.1884 -0.8517
 7865SOL    HW135228   2.468   2.593   4.368 -0.2252 -2.2830  0.8677
 7865SOL    HW235229   2.552   2.621   4.478 -2.7448  1.3286 -1.6548
 7866SOL     OW35230   0.254   0.237   7.623 -0.3454 -0.0183  0.3751
 7866SOL    HW135231   0.315   0.168   7.596 -0.6169  0.5168 -1.5766
 7866SOL    HW235232   0.173   0.215   7.579  0.0467  1.2384 -0.9870
 7867SOL     OW35233   4.054   1.169   8.678 -0.1061  0.2778  0.2751
 7867SOL    HW135234   4.052   1.142   8.769  1.5438  0.1472  0.2701
 7867SOL    HW235235   4.123   1.107   8.654  1.0484  1.5479  0.2498
 7868SOL     OW35236   1.234   1.418   8.308 -0.6493  0.0673  0.9361
 7868SOL    HW135237   1.160   1.362   8.283 -0.3486  0.2842 -0.4496
 7868SOL    HW235238   1.183   1.489   8.346 -2.7824 -0.8491 -0.2085
 7869SOL     OW35239   3.317   0.450  13.350 -0.9883  0.7753  0.3334
 7869SOL    HW135240   3.231   0.440  13.391 -0.3254 -0.9149  1.3539
 7869SOL    HW235241   3.359   0.482  13.430 -1.5291  0.4947  0.7296
 7870SOL     OW35242   3.030   1.432  17.614  0.4275 -0.3868  0.3003
 7870SOL    HW135243   3.020   1.407  17.522  0.1199 -0.5862  0.3890
 7870SOL    HW235244   3.047   1.526  17.608 -0.9816 -0.2601 -2.0344
 7871SOL     OW35245   2.298   1.934   3.394 -0.3233 -0.0163  0.0551
 7871SOL    HW135246   2.382   1.955   3.435 -0.6531 -0.6973  1.1007
 7871SOL    HW235247   2.262   1.882   3.466  1.0943 -2.0183 -0.6884
 7872SOL     OW35248   3.164   1.871   2.170  0.1653  0.1572 -0.6655
 7872SOL    HW135249   3.166   1.797   2.231  1.5107 -1.2178 -2.3730
 7872SOL    HW235250   3.174   1.827   2.086  0.4989  1.1047 -1.1250
 7873SOL     OW35251   1.794   0.197   4.019  0.1914 -0.5882 -0.2817
 7873SOL    HW135252   1.788   0.220   4.112 -0.4146 -0.3663 -0.3776
 7873SOL    HW235253   1.724   0.136   4.000 -2.0358  2.4445 -1.8360
 7874SOL     OW35254   3.111   1.052   3.381  0.4825 -0.6570 -0.5042
 7874SOL    HW135255   3.151   1.052   3.294  2.9871  1.6257  0.6685
 7874SOL    HW235256   3.023   1.022   3.357 -0.1603 -0.7083  1.9039
 7875SOL     OW35257   4.085   3.318   4.587  0.4564 -0.1704  0.1412
 7875SOL    HW135258   4.152   3.332   4.654 -1.4560 -0.0506  2.0592
 7875SOL    HW235259   4.108   3.395   4.536 -1.4807 -0.1268 -0.6579
 7876SOL     OW35260   1.207   0.738   6.768 -0.1471 -0.0444  0.2794
 7876SOL    HW135261   1.169   0.826   6.769 -0.1026 -0.0218 -0.0398
 7876SOL    HW235262   1.165   0.698   6.844  0.0578  0.2699  0.5569
 7877SOL     OW35263   1.918   2.388  13.409  0.2131 -0.2262  0.0620
 7877SOL    HW135264   1.915   2.311  13.466  1.9950  0.5067  1.1147
 7877SOL    HW235265   2.012   2.405  13.415  0.7840 -3.3591 -0.1171
 7878SOL     OW35266   2.901   3.517   6.722  0.1465  0.3967 -0.2440
 7878SOL    HW135267   2.857   3.594   6.759  1.3219 -0.0253  2.0217
 7878SOL    HW235268   2.964   3.553   6.659 -1.2152 -0.5681 -2.1677
 7879SOL     OW35269   0.756   3.984   6.768 -0.5002 -0.3028 -0.1190
 7879SOL    HW135270   0.827   3.919   6.769 -0.2414 -0.0619 -2.2860
 7879SOL    HW235271   0.692   3.913   6.776 -1.2743  0.4763  0.6545
 7880SOL     OW35272   4.181   2.760  12.672  0.3592 -0.4671 -0.1120
 7880SOL    HW135273   4.160   2.673  12.706 -1.8985  0.4257  0.7636
 7880SOL    HW235274   4.261   2.777  12.723 -0.5263 -0.9133  1.4347
 7881SOL     OW35275   0.705   3.340   8.076 -0.0122 -0.1355  0.1666
 7881SOL    HW135276   0.795   3.337   8.107 -0.7060  2.5322  2.4569
 7881SOL    HW235277   0.698   3.421   8.024 -1.4308  0.1629  0.8144
 7882SOL     OW35278   0.382   2.841  12.760 -0.0401 -0.4947  0.2907
 7882SOL    HW135279   0.380   2.752  12.724  2.7716 -0.2072 -0.5688
 7882SOL    HW235280   0.461   2.882  12.725 -0.1440 -0.6677 -0.1539
 7883SOL     OW35281   3.692   2.314  10.734  0.2409 -0.3251 -0.4209
 7883SOL    HW135282   3.650   2.384  10.684 -0.4354 -0.4468 -0.0172
 7883SOL    HW235283   3.701   2.335  10.827 -3.5797  0.8789 -0.3383
 7884SOL     OW35284   1.156   2.716   6.497 -0.2236 -0.0125  0.4416
 7884SOL    HW135285   1.170   2.714   6.592  0.6046 -0.7362  0.3052
 7884SOL    HW235286   1.247   2.708   6.466 -0.5087  1.1860 -0.7041
 7885SOL     OW35287   2.469   3.414  15.087 -0.5867  0.8707  0.2083
 7885SOL    HW135288   2.412   3.479  15.045  1.9346  2.5408 -0.6289
 7885SOL    HW235289   2.520   3.473  15.142  0.2775 -0.6587  1.0470
 7886SOL     OW35290   0.639   2.915   8.891 -0.2826  0.3765 -0.4051
 7886SOL    HW135291   0.617   2.856   8.964 -0.3512  0.3161 -0.4754
 7886SOL    HW235292   0.638   2.853   8.818 -0.9440  1.3114 -1.1822
 7887SOL     OW35293   1.996   4.184   5.603 -0.0666  0.1750 -0.5422
 7887SOL    HW135294   1.984   4.151   5.514 -0.4548  0.4181 -0.5797
 7887SOL    HW235295   2.079   4.142   5.626 -0.5254 -0.2765  0.2899
 7888SOL     OW35296   1.748   4.348   6.343  0.0655  0.3865  0.0293
 7888SOL    HW135297   1.784   4.259   6.343 -0.6584  0.0793  2.1736
 7888SOL    HW235298   1.693   4.346   6.265  0.8069 -0.4504 -0.4707
 7889SOL     OW35299   3.478   2.458   2.294 -0.6144  0.2031 -0.0495
 7889SOL    HW135300   3.498   2.367   2.316  2.6936  1.2666  1.2922
 7889SOL    HW235301   3.523   2.466   2.210 -1.8378 -0.2097 -0.7445
 7890SOL     OW35302   2.078   4.644   5.553  0.7513  0.2119 -0.5421
 7890SOL    HW135303   1.983   4.657   5.557  0.5091 -1.5418 -0.7397
 7890SOL    HW235304   2.086   4.585   5.628  0.3299  0.7633 -0.0552
 7891SOL     OW35305   1.067   2.157   6.718 -0.0186 -0.3847 -0.3193
 7891SOL    HW135306   1.109   2.156   6.632  1.4148 -2.7112  0.3922
 7891SOL    HW235307   0.973   2.163   6.702 -0.1356 -1.0127  0.0993
 7892SOL     OW35308   2.420   1.838   6.589  0.0844  0.2615 -0.5842
 7892SOL    HW135309   2.340   1.871   6.547 -1.4464 -0.2781  1.9396
 7892SOL    HW235310   2.428   1.886   6.671  0.3109  1.6859 -1.4381
 7893SOL     OW35311   3.296   3.255   3.613  1.1851  0.5593  0.3782
 7893SOL    HW135312   3.359   3.215   3.553  0.7359  1.5774 -0.7754
 7893SOL    HW235313   3.356   3.308   3.665  1.6423 -0.4159  0.8387
 7894SOL     OW35314   4.211   0.711   5.863 -0.0255 -0.3633 -0.4371
 7894SOL    HW135315   4.136   0.654   5.847 -0.0746  0.0800 -1.7683
 7894SOL    HW235316   4.190   0.749   5.948 -0.7138  0.5299 -1.0107
 7895SOL     OW35317   1.957   0.198   7.011 -0.4917  0.1737 -0.0651
 7895SOL    HW135318   1.953   0.269   7.076 -0.4366  1.3336 -1.3288
 7895SOL    HW235319   1.991   0.253   6.940 -1.5683  2.0256  0.8556
 7896SOL     OW35320   2.614   4.307   1.297  0.0485 -0.4921 -0.4149
 7896SOL    HW135321   2.705   4.334   1.282 -0.7841  2.0168 -0.7552
 7896SOL    HW235322   2.567   4.390   1.303  0.2010 -0.4299 -0.0622
 7897SOL     OW35323   0.577   1.100   0.689  0.0882 -0.1828  0.2395
 7897SOL    HW135324   0.554   1.103   0.596 -0.8063  1.0794  0.5075
 7897SOL    HW235325   0.587   1.005   0.700 -1.2322 -0.1093  2.2221
 7898SOL     OW35326   2.188   3.975   1.264  0.1280 -0.2891 -0.8247
 7898SOL    HW135327   2.275   3.938   1.248 -0.0678 -0.7513 -0.8179
 7898SOL    HW235328   2.180   3.958   1.358 -0.1853  0.4681 -0.7184
 7899SOL     OW35329   3.082   0.542  10.327 -0.9426  0.4408 -0.4686
 7899SOL    HW135330   3.129   0.620  10.357 -0.5559 -0.6499  1.7226
 7899SOL    HW235331   3.003   0.549  10.380  0.5156 -1.0751  1.9016
 7900SOL     OW35332   2.500   0.860   4.206 -0.4552  0.6741  0.4369
 7900SOL    HW135333   2.453   0.789   4.161 -0.3969  1.8273 -1.4199
 7900SOL    HW235334   2.420   0.882   4.254 -0.8989  0.0435 -0.0120
 7901SOL     OW35335   3.814   2.508   5.422  0.4542 -0.0812 -0.5481
 7901SOL    HW135336   3.793   2.539   5.334  1.1347 -0.1054 -0.7137
 7901SOL    HW235337   3.760   2.431   5.440 -3.1558  2.7946  1.1126
 7902SOL     OW35338   3.763   3.500   3.614  0.1995  0.1770  0.6497
 7902SOL    HW135339   3.845   3.459   3.587  0.2713 -0.8695  2.4444
 7902SOL    HW235340   3.734   3.449   3.690 -1.3374  1.5091  0.9674
 7903SOL     OW35341   4.615   2.924   1.607 -0.2254  0.3585  0.0748
 7903SOL    HW135342   4.669   2.988   1.654 -0.3037  0.3985  0.1100
 7903SOL    HW235343   4.642   2.838   1.641 -0.3117 -0.1553 -1.1635
 7904SOL     OW35344   1.882   3.778   2.968  0.5122 -0.0397  0.0606
 7904SOL    HW135345   1.969   3.743   2.987  0.5020 -0.2315 -0.2524
 7904SOL    HW235346   1.841   3.695   2.992 -0.2036  0.5595  0.8949
 7905SOL     OW35347   0.197   1.816   1.767  0.3299 -0.2748 -0.4180
 7905SOL    HW135348   0.112   1.829   1.809  0.9601 -1.6406  1.2942
 7905SOL    HW235349   0.224   1.901   1.734  0.8997  0.0311  0.8332
 7906SOL     OW35350   4.686   1.863   7.762 -0.9535 -1.0194  0.0956
 7906SOL    HW135351   0.038   1.891   7.786 -1.8011  1.0919  0.7681
 7906SOL    HW235352   4.695   1.772   7.792 -1.9733 -0.5915  1.7413
 7907SOL     OW35353   1.568   0.023   7.522  0.2767  0.5871  0.3260
 7907SOL    HW135354   1.610   4.686   7.475 -1.3855  0.5271 -1.0585
 7907SOL    HW235355   1.632   0.093   7.505 -2.2404  2.1660 -2.5743
 7908SOL     OW35356   1.774   3.106   4.127  0.1147 -0.0115 -0.1340
 7908SOL    HW135357   1.843   3.050   4.163 -1.0196  0.2859  2.4333
 7908SOL    HW235358   1.768   3.190   4.172 -1.6223 -0.8844  1.2644
 7909SOL     OW35359   3.411   4.402   5.847  0.3755 -0.4048  0.3939
 7909SOL    HW135360   3.338   4.347   5.875 -1.4072  1.7298 -0.0757
 7909SOL    HW235361   3.473   4.336   5.818  2.6302  2.6329 -1.7630
 7910SOL     OW35362   2.216   2.589  10.174 -0.1109  0.4440 -0.5263
 7910SOL    HW135363   2.282   2.577  10.243  0.5874  0.3999 -1.2002
 7910SOL    HW235364   2.245   2.532  10.103  0.1324 -0.1452  0.0507
 7911SOL     OW35365   4.625   3.030   5.260  0.5802 -0.3315  0.5866
 7911SOL    HW135366   4.634   2.937   5.278  0.6371 -0.5722 -0.6279
 7911SOL    HW235367   4.553   3.052   5.318 -0.8484 -0.4322 -1.1677
 7912SOL     OW35368   0.324   2.552  12.371 -0.5235  0.2634  0.1367
 7912SOL    HW135369   0.264   2.562  12.445 -3.3743 -1.1374 -1.9877
 7912SOL    HW235370   0.267   2.583  12.301  2.1858  2.1912 -1.2129
 7913SOL     OW35371   0.664   0.396   6.156 -0.4291 -0.1643 -0.0500
 7913SOL    HW135372   0.605   0.459   6.197 -0.2023  0.0008  0.0227
 7913SOL    HW235373   0.745   0.416   6.203  0.0037 -0.6425 -0.5886
 7914SOL     OW35374   2.566   1.940   7.466 -0.4727  0.0531  0.4068
 7914SOL    HW135375   2.475   1.968   7.459 -0.3847 -0.2932 -2.0138
 7914SOL    HW235376   2.575   1.956   7.560  0.6278 -1.5065  0.5621
 7915SOL     OW35377   2.250   0.012   2.977  0.3208  0.4424 -0.2041
 7915SOL    HW135378   2.274   4.662   3.010 -0.8601  0.0109 -0.4854
 7915SOL    HW235379   2.273   0.061   3.056 -0.9319  0.5202  0.1139
 7916SOL     OW35380   3.441   3.359   7.632  0.0404  0.4677 -0.1039
 7916SOL    HW135381   3.444   3.285   7.692 -2.7309 -0.1384 -0.6926
 7916SOL    HW235382   3.517   3.407   7.665 -0.0753  0.7328 -0.2227
 7917SOL     OW35383   4.208   0.239   4.618 -0.0694 -0.1673  0.0024
 7917SOL    HW135384   4.166   0.228   4.533 -0.5508  2.0529 -0.0594
 7917SOL    HW235385   4.142   0.199   4.674  0.6852  0.3496  1.2737
 7918SOL     OW35386   3.993   0.170   4.024  0.0254  0.0091 -0.5717
 7918SOL    HW135387   4.080   0.202   4.048 -0.4690 -0.8971  2.4215
 7918SOL    HW235388   3.998   0.075   4.040  1.2336 -0.0211 -1.1213
 7919SOL     OW35389   4.552   2.890   2.077 -0.2875 -0.1972  0.3225
 7919SOL    HW135390   4.468   2.847   2.087  0.5935 -2.4226 -1.9619
 7919SOL    HW235391   4.600   2.878   2.159 -1.0362  0.1291  0.8070
 7920SOL     OW35392   3.925   3.928  12.417 -0.9129 -0.5879  0.0018
 7920SOL    HW135393   3.850   3.870  12.404  0.7428 -3.2784  2.2660
 7920SOL    HW235394   3.888   3.999  12.365 -0.5263  0.0626  0.6217
 7921SOL     OW35395   3.832   1.982   4.429  0.2111  0.2691 -0.2614
 7921SOL    HW135396   3.870   1.927   4.361  1.8696  2.0895 -0.8180
 7921SOL    HW235397   3.894   2.055   4.428  0.8722 -0.2810  0.8834
 7922SOL     OW35398   1.982   3.763   5.370  0.1788 -0.3500 -0.2444
 7922SOL    HW135399   2.053   3.740   5.310 -1.3804 -1.6093 -1.5728
 7922SOL    HW235400   2.020   3.837   5.418 -0.5990  0.5844 -1.0626
 7923SOL     OW35401   1.519   2.320   1.657 -0.5419  0.1573 -0.0089
 7923SOL    HW135402   1.579   2.246   1.649  0.4159  0.7849  1.3489
 7923SOL    HW235403   1.447   2.289   1.603 -0.6650  2.8163 -1.3769
 7924SOL     OW35404   3.647   1.897   4.001 -0.3074  0.0546 -0.4592
 7924SOL    HW135405   3.636   1.972   3.942 -1.5118  0.1537 -0.1237
 7924SOL    HW235406   3.636   1.819   3.947 -0.2224 -0.0434 -0.3341
 7925SOL     OW35407   4.324   0.340  17.181  0.0409 -0.0656 -0.1718
 7925SOL    HW135408   4.266   0.275  17.141  0.4075 -2.5480  3.3727
 7925SOL    HW235409   4.281   0.349  17.265 -1.9981  0.5474 -1.2936
 7926SOL     OW35410   4.009   1.292   3.849  0.0721  0.3004  0.2811
 7926SOL    HW135411   4.014   1.320   3.941 -0.8065  0.6383  0.2154
 7926SOL    HW235412   4.098   1.262   3.830 -0.5835  0.1473 -2.5283
 7927SOL     OW35413   2.191   0.859   2.170 -0.3277  0.0553  0.3604
 7927SOL    HW135414   2.233   0.943   2.186  2.7039 -1.2841 -0.6106
 7927SOL    HW235415   2.185   0.823   2.258  1.4128 -0.5654  0.2187
 7928SOL     OW35416   3.290   3.192   4.647 -0.2893  0.0095  0.2776
 7928SOL    HW135417   3.380   3.219   4.630 -0.3152 -1.6669 -2.5002
 7928SOL    HW235418   3.250   3.255   4.587  1.3885  0.9420  0.1250
 7929SOL     OW35419   3.150   0.053   0.341  0.7379  0.7543  0.1360
 7929SOL    HW135420   3.187   0.069   0.254 -0.8731 -2.4710 -1.1539
 7929SOL    HW235421   3.193   0.120   0.395  0.1910  0.9594  0.3124
 7930SOL     OW35422   3.973   0.397   1.050 -0.0503  0.4843  0.5816
 7930SOL    HW135423   3.969   0.493   1.045 -0.1088  0.4502 -0.1353
 7930SOL    HW235424   3.931   0.381   1.134  2.2797  1.1044  1.8704
 7931SOL     OW35425   3.069   3.655   9.698 -0.0180  0.4217  0.0211
 7931SOL    HW135426   3.101   3.702   9.775 -0.3164  0.6406  0.0108
 7931SOL    HW235427   3.155   3.620   9.675 -0.7752  0.0572 -2.3218
 7932SOL     OW35428   1.481   4.626   5.544  0.2170 -0.0787  0.1484
 7932SOL    HW135429   1.476   4.716   5.577  0.8978 -0.0899  0.3002
 7932SOL    HW235430   1.441   4.574   5.614 -2.1544  1.0756 -0.3461
 7933SOL     OW35431   1.190   2.076   5.181 -0.6807 -0.1904 -0.1666
 7933SOL    HW135432   1.144   2.155   5.209 -1.6075 -1.0128  0.6494
 7933SOL    HW235433   1.207   2.033   5.265  3.5625  1.5020 -0.1713
 7934SOL     OW35434   3.387   3.008   9.139 -0.1082  0.1940  0.1071
 7934SOL    HW135435   3.446   3.040   9.207  0.7031  0.6141 -0.7994
 7934SOL    HW235436   3.444   2.939   9.104 -0.2622 -1.5381  3.3052
 7935SOL     OW35437   2.196   0.376   3.508 -0.2582 -0.1225  0.1414
 7935SOL    HW135438   2.129   0.380   3.576 -0.0369  0.8501  0.3002
 7935SOL    HW235439   2.267   0.325   3.546  0.2774 -0.3344 -1.1538
 7936SOL     OW35440   3.499   3.068  14.417  0.5108 -0.5703 -0.1024
 7936SOL    HW135441   3.419   3.094  14.372 -1.0056 -0.6353  2.5507
 7936SOL    HW235442   3.556   3.144  14.406  0.7355 -0.8196 -0.6575
 7937SOL     OW35443   0.929   3.315   0.075 -0.3559 -0.1576  0.4964
 7937SOL    HW135444   0.850   3.352   0.114 -0.9517  0.2482 -1.0907
 7937SOL    HW235445   0.998   3.341   0.135  0.4855  0.4245 -0.7240
 7938SOL     OW35446   2.338   1.070   7.911 -0.1467  0.0590  0.1321
 7938SOL    HW135447   2.407   1.133   7.889 -0.2585  0.2147  0.2324
 7938SOL    HW235448   2.272   1.127   7.950  2.0358  1.4267  1.8256
 7939SOL     OW35449   3.651   0.761   8.446 -0.7063  0.3072  0.3886
 7939SOL    HW135450   3.712   0.834   8.453 -0.7264  0.2789  0.8808
 7939SOL    HW235451   3.685   0.715   8.370 -1.4326  0.1529  0.1592
 7940SOL     OW35452   0.413   0.544   1.462 -0.5227 -0.0894 -0.1400
 7940SOL    HW135453   0.350   0.497   1.408 -0.2715  1.5239 -1.8512
 7940SOL    HW235454   0.386   0.632   1.433 -0.5296 -0.2897 -0.7506
 7941SOL     OW35455   3.208   2.692   2.466 -0.0255 -0.4110 -0.1717
 7941SOL    HW135456   3.195   2.600   2.443  1.1714 -0.2151 -1.6420
 7941SOL    HW235457   3.228   2.727   2.379 -1.3270 -0.0361 -0.3298
 7942SOL     OW35458   2.337   0.094   8.009  0.0846  0.4377 -0.1174
 7942SOL    HW135459   2.350   0.010   7.965  0.0435 -0.7591  2.1498
 7942SOL    HW235460   2.425   0.124   8.033  0.5919  1.4419 -3.2706
 7943SOL     OW35461   3.820   2.705   5.605  0.6033  0.8856  0.0247
 7943SOL    HW135462   3.855   2.770   5.543  0.0687  1.4191  0.2856
 7943SOL    HW235463   3.814   2.626   5.551 -1.7049  1.0478  0.0236
 7944SOL     OW35464   2.315   4.267   8.383  0.1116  1.1094  0.0060
 7944SOL    HW135465   2.324   4.292   8.475  0.0921 -0.0334  0.3198
 7944SOL    HW235466   2.219   4.266   8.377  0.0440 -1.3667  1.7109
 7945SOL     OW35467   3.380   0.916   8.865  0.2180  0.2484 -0.5180
 7945SOL    HW135468   3.474   0.902   8.876  0.4753  0.2178 -2.8822
 7945SOL    HW235469   3.378   0.898   8.771  0.8221  0.9075 -0.6567
 7946SOL     OW35470   0.757   3.994   8.684 -0.6896 -0.2030  0.3516
 7946SOL    HW135471   0.793   3.987   8.772 -1.7937 -1.3252  0.7129
 7946SOL    HW235472   0.680   4.050   8.692  0.6578  1.6283  0.3785
 7947SOL     OW35473   2.243   1.860   7.255  0.1047 -0.4188 -0.3581
 7947SOL    HW135474   2.267   1.930   7.316 -2.4873  0.0531  0.1015
 7947SOL    HW235475   2.148   1.874   7.259 -0.0360 -0.7421 -2.3592
 7948SOL     OW35476   0.347   1.487   2.806  0.3588  0.1863  0.0841
 7948SOL    HW135477   0.392   1.502   2.890  0.4489 -2.0421  0.4307
 7948SOL    HW235478   0.339   1.392   2.814 -0.6417  0.3025  0.4654
 7949SOL     OW35479   2.844   0.190  15.113  0.1152  0.0960  0.3246
 7949SOL    HW135480   2.858   0.211  15.206 -0.5400  1.6996  0.0644
 7949SOL    HW235481   2.882   0.265  15.068 -0.8876  1.0337  1.0452
 7950SOL     OW35482   0.558   1.784  11.069 -0.7157  0.1722 -0.3480
 7950SOL    HW135483   0.538   1.817  10.981 -0.4120 -2.0518 -1.2517
 7950SOL    HW235484   0.625   1.849  11.090  0.2416 -0.5210 -1.2374
 7951SOL     OW35485   0.991   1.830   6.356  0.1514  0.4132 -0.0925
 7951SOL    HW135486   0.907   1.808   6.316 -0.1537  1.0868  0.1760
 7951SOL    HW235487   1.041   1.870   6.284 -0.9227  0.9071 -0.5629
 7952SOL     OW35488   2.035   0.953  16.659  0.3025  0.3384 -0.3334
 7952SOL    HW135489   2.097   1.017  16.625  0.1557 -1.1338 -3.3854
 7952SOL    HW235490   1.949   0.991  16.643  0.3443  0.7217  0.3397
 7953SOL     OW35491   4.458   4.583   3.012 -0.3988  0.2562 -0.6275
 7953SOL    HW135492   4.492   4.519   2.949  2.5939  1.3482 -0.0909
 7953SOL    HW235493   4.472   4.662   2.960  1.1179  0.9943  0.9069
 7954SOL     OW35494   1.572   3.956   5.031 -0.1475 -0.0059 -0.1304
 7954SOL    HW135495   1.620   3.887   5.078  0.0195  0.8731  0.9908
 7954SOL    HW235496   1.494   3.948   5.085  0.3741 -0.9739  0.4911
 7955SOL     OW35497   0.882   3.670   2.301 -0.9194 -0.1967  0.1737
 7955SOL    HW135498   0.866   3.578   2.283  2.0721 -1.0043  1.7951
 7955SOL    HW235499   0.921   3.672   2.388  0.3780 -0.3053 -0.4058
 7956SOL     OW35500   1.906   2.236   9.848 -0.6965 -0.2204 -0.1005
 7956SOL    HW135501   1.903   2.326   9.816 -0.9650 -0.0265  0.4759
 7956SOL    HW235502   1.929   2.262   9.937  1.3293  3.2976 -1.6354
 7957SOL     OW35503   1.364   0.406  10.292 -0.3138 -0.5352 -0.6052
 7957SOL    HW135504   1.403   0.489  10.264  0.8553 -1.6037 -2.1536
 7957SOL    HW235505   1.270   0.424  10.288 -0.2910 -0.4347 -0.6988
 7958SOL     OW35506   3.063   2.990   6.607 -0.5151  0.1064  0.7115
 7958SOL    HW135507   3.009   3.048   6.552  1.5682  1.0200 -0.3887
 7958SOL    HW235508   3.084   2.926   6.539  2.5197 -0.2080  1.9749
 7959SOL     OW35509   1.244   0.814  12.447 -0.5203 -0.4361  0.8823
 7959SOL    HW135510   1.245   0.742  12.384  1.4044 -0.1073  0.5378
 7959SOL    HW235511   1.306   0.877  12.411 -2.3692  1.2574  0.6431
 7960SOL     OW35512   4.215   1.065  17.063  0.1722 -0.1843  0.0982
 7960SOL    HW135513   4.154   1.092  17.131 -2.3467 -3.5788 -0.7788
 7960SOL    HW235514   4.298   1.060  17.110  0.2604  0.1880 -0.0219
 7961SOL     OW35515   4.424   1.669  15.813  0.4628  0.5669 -1.3065
 7961SOL    HW135516   4.369   1.667  15.892  3.6587 -0.5045  0.9263
 7961SOL    HW235517   4.508   1.644  15.853 -0.6964  1.8791  1.9649
 7962SOL     OW35518   0.750   1.499   4.974  0.5283 -0.0230 -0.4321
 7962SOL    HW135519   0.679   1.483   4.911  0.8483  1.9746 -1.2935
 7962SOL    HW235520   0.747   1.594   4.985  1.2891  0.2127 -2.2521
 7963SOL     OW35521   1.176   0.561   9.567  0.5606  0.1873 -0.3904
 7963SOL    HW135522   1.235   0.538   9.496 -1.1545  0.9241 -2.0685
 7963SOL    HW235523   1.132   0.634   9.522 -0.0520  0.0959  0.0564
 7964SOL     OW35524   4.172   4.046   1.038 -0.2600  0.4103 -0.3849
 7964SOL    HW135525   4.083   4.015   1.056  0.4174 -1.6922 -0.6667
 7964SOL    HW235526   4.205   4.006   0.958  2.8377  1.0755  0.5644
 7965SOL     OW35527   2.852   0.794   8.291  0.3102  0.8814  0.3632
 7965SOL    HW135528   2.850   0.839   8.375 -2.2949  0.6678  0.4389
 7965SOL    HW235529   2.791   0.849   8.241 -0.5798 -0.9069 -0.5072
 7966SOL     OW35530   3.451   2.780  16.550  0.1497  0.3937 -0.0964
 7966SOL    HW135531   3.397   2.858  16.545  0.0729  0.3781  0.5408
 7966SOL    HW235532   3.480   2.770  16.459 -0.4500  0.1368 -0.2585
 7967SOL     OW35533   4.264   0.860   7.290  0.1126  0.6600 -0.3667
 7967SOL    HW135534   4.176   0.825   7.299  1.2628 -1.9153  0.7676
 7967SOL    HW235535   4.302   0.851   7.377  1.8613 -0.0968 -1.2009
 7968SOL     OW35536   3.707   2.830   2.516  0.1990  0.4298 -0.3651
 7968SOL    HW135537   3.642   2.805   2.450  0.1833 -0.2832 -0.0764
 7968SOL    HW235538   3.659   2.788   2.588 -0.7147  0.2495 -1.0836
 7969SOL     OW35539   0.650   0.415  10.008 -0.5331  0.1792 -0.3273
 7969SOL    HW135540   0.667   0.440  10.099  0.3496  0.6592 -0.6240
 7969SOL    HW235541   0.601   0.333  10.016  1.5815 -1.1635 -1.3647
 7970SOL     OW35542   1.800   3.845   5.574  0.2577  0.0833 -0.7730
 7970SOL    HW135543   1.843   3.841   5.659 -1.7140 -0.1496  0.2058
 7970SOL    HW235544   1.870   3.813   5.517 -0.4385 -1.7011 -0.6195
 7971SOL     OW35545   2.061   1.301  13.666 -0.3582 -0.3641 -0.4266
 7971SOL    HW135546   2.146   1.294  13.623 -0.8759 -3.0888 -1.0650
 7971SOL    HW235547   2.063   1.208  13.689 -2.5583 -0.0243  1.1664
 7972SOL     OW35548   2.741   0.868   4.340 -0.0850  0.6068  0.5918
 7972SOL    HW135549   2.648   0.848   4.329 -0.1175  1.4934 -0.7792
 7972SOL    HW235550   2.779   0.825   4.263 -0.5398  1.3752 -0.0649
 7973SOL     OW35551   3.468   3.761   4.566  0.2786 -0.1306  0.5609
 7973SOL    HW135552   3.380   3.763   4.603  0.6083 -0.7807  1.3913
 7973SOL    HW235553   3.475   3.665   4.565  3.1375  0.0938 -1.0175
 7974SOL     OW35554   0.866   1.487   5.944 -0.4057 -0.0674  0.0650
 7974SOL    HW135555   0.855   1.579   5.966  0.1934  0.5314 -2.0780
 7974SOL    HW235556   0.920   1.507   5.867  1.3446  0.6540  1.4702
 7975SOL     OW35557   1.288   3.519  11.665 -0.2400  0.2806  0.1302
 7975SOL    HW135558   1.257   3.457  11.731 -1.2056  1.8438  1.1394
 7975SOL    HW235559   1.378   3.544  11.687  0.6165 -0.8179 -2.0674
 7976SOL     OW35560   0.427   1.844   2.757  0.3816  0.3858 -0.4200
 7976SOL    HW135561   0.478   1.924   2.745  1.4137 -0.0326  1.1596
 7976SOL    HW235562   0.341   1.883   2.770  0.2503  0.2336 -0.8375
 7977SOL     OW35563   4.309   2.322   3.704  0.0402 -0.2773  0.3947
 7977SOL    HW135564   4.365   2.247   3.684 -0.3270 -0.9150  1.7481
 7977SOL    HW235565   4.253   2.308   3.628 -1.8902  1.1919  1.5638
 7978SOL     OW35566   0.916   2.193   0.451  0.6334 -0.1625 -0.3256
 7978SOL    HW135567   0.938   2.119   0.395  0.7416 -0.5793  0.2688
 7978SOL    HW235568   0.945   2.173   0.540 -0.4494 -1.1525 -0.1995
 7979SOL     OW35569   1.614   1.684  10.991 -0.3881 -0.2832 -0.4310
 7979SOL    HW135570   1.585   1.636  11.069  0.9941  1.2004  0.9960
 7979SOL    HW235571   1.649   1.763  11.031  1.2595 -1.9433  1.3725
 7980SOL     OW35572   1.643   0.250  11.628  0.5299 -0.0507 -0.1457
 7980SOL    HW135573   1.701   0.287  11.561 -0.4707 -0.0480 -1.0037
 7980SOL    HW235574   1.591   0.328  11.648 -0.6789 -0.8699 -0.1228
 7981SOL     OW35575   2.864   3.056   3.671 -0.3023 -0.1621  0.2925
 7981SOL    HW135576   2.784   3.019   3.708 -0.2929 -0.4983 -0.0180
 7981SOL    HW235577   2.828   3.144   3.659  0.2171  0.2912  2.0872
 7982SOL     OW35578   3.061   2.373   9.505  0.2100 -0.4395  0.0827
 7982SOL    HW135579   2.980   2.379   9.555 -0.3748  1.2412 -1.1057
 7982SOL    HW235580   3.122   2.370   9.579 -0.4378  0.1263  0.6348
 7983SOL     OW35581   3.766   2.952   5.191 -0.0845  0.3275  0.2033
 7983SOL    HW135582   3.760   3.009   5.268 -3.0167  0.6767 -0.2840
 7983SOL    HW235583   3.856   2.920   5.186  0.2511  1.7697 -2.6182
 7984SOL     OW35584   4.272   4.601   9.120  0.0210  0.2069 -0.8057
 7984SOL    HW135585   4.217   4.523   9.119 -0.9272  0.8529 -0.0976
 7984SOL    HW235586   4.263   4.627   9.029 -0.0513 -1.2638 -1.2187
 7985SOL     OW35587   1.944   4.511   4.078  0.3463 -0.6942 -0.5780
 7985SOL    HW135588   2.025   4.475   4.112  0.3778 -2.1672 -2.2338
 7985SOL    HW235589   1.897   4.525   4.160  0.2516 -2.8388 -0.2765
 7986SOL     OW35590   0.435   1.976  12.550  0.3241 -0.3999  0.1442
 7986SOL    HW135591   0.521   1.969  12.592  0.7043  0.0889 -0.5543
 7986SOL    HW235592   0.390   1.897  12.580  0.6936 -0.1152  1.4753
 7987SOL     OW35593   0.749   3.668   5.314 -0.3883  0.2857 -0.5698
 7987SOL    HW135594   0.801   3.739   5.350 -0.8068  0.1593  0.2724
 7987SOL    HW235595   0.743   3.608   5.389  2.8603  0.3163 -0.2810
 7988SOL     OW35596   4.576   3.327   7.683  0.2013 -0.3857  0.4215
 7988SOL    HW135597   4.491   3.286   7.697 -1.4616  2.7459 -0.6167
 7988SOL    HW235598   4.572   3.379   7.603  0.3984  0.2385  0.8094
 7989SOL     OW35599   2.054   0.893   6.731 -0.9476  0.1478 -0.2399
 7989SOL    HW135600   2.071   0.981   6.697  3.0570 -0.6518 -0.3835
 7989SOL    HW235601   2.111   0.904   6.807  2.1282 -1.0111 -2.3535
 7990SOL     OW35602   1.627   4.551   7.948 -0.8278 -0.2697 -0.0877
 7990SOL    HW135603   1.661   4.524   7.863  1.1353  0.6082  0.4022
 7990SOL    HW235604   1.536   4.574   7.929 -1.2910 -1.5393  0.6167
 7991SOL     OW35605   0.709   2.067   6.924 -0.4062 -0.0212  0.5364
 7991SOL    HW135606   0.623   2.094   6.893 -0.2054 -0.4755 -0.3997
 7991SOL    HW235607   0.754   2.151   6.915  1.9600 -1.1207  2.1340
 7992SOL     OW35608   3.439   3.185   7.838 -0.2024  0.4127 -0.1331
 7992SOL    HW135609   3.360   3.205   7.889 -1.3105 -3.0327 -0.5064
 7992SOL    HW235610   3.506   3.216   7.898  2.4479 -0.4563 -2.6395
 7993SOL     OW35611   1.222   4.495   2.210 -0.2750 -0.0771  0.5976
 7993SOL    HW135612   1.304   4.530   2.175  1.6038 -1.6936  3.4284
 7993SOL    HW235613   1.257   4.416   2.251  0.9517  0.5412  0.7436
 7994SOL     OW35614   1.584   0.996   4.821 -0.4777  0.5438  0.1413
 7994SOL    HW135615   1.602   0.945   4.900 -1.4118 -0.2764 -0.1858
 7994SOL    HW235616   1.510   1.042   4.860 -1.1899 -0.3118 -0.2239
 7995SOL     OW35617   3.487   3.914  17.037 -0.1008  0.0410 -0.3114
 7995SOL    HW135618   3.463   3.962  17.117  0.2530 -0.9377  0.3802
 7995SOL    HW235619   3.570   3.876  17.067 -0.5345 -0.8144 -0.2223
 7996SOL     OW35620   0.869   1.545   9.127  0.2267 -0.1615 -0.7307
 7996SOL    HW135621   0.847   1.628   9.084 -2.8139 -0.8075 -0.4499
 7996SOL    HW235622   0.963   1.553   9.113  0.3455 -1.3416 -0.6267
 7997SOL     OW35623   3.927   4.248   8.570  0.4901 -0.3497  0.0560
 7997SOL    HW135624   3.967   4.234   8.484  0.9924 -0.6085  0.3381
 7997SOL    HW235625   3.949   4.341   8.582  0.3286 -0.4587  1.1941
 7998SOL     OW35626   0.772   1.876   2.097  0.3306  0.2684 -0.2644
 7998SOL    HW135627   0.824   1.931   2.155 -0.7013  0.2371  0.7034
 7998SOL    HW235628   0.688   1.883   2.144 -0.0426 -0.4302 -0.8245
 7999SOL     OW35629   1.550   2.186   8.195  0.8115 -0.3731 -0.3043
 7999SOL    HW135630   1.606   2.109   8.198  0.0246 -0.9509 -0.3930
 7999SOL    HW235631   1.517   2.192   8.285 -0.2990  2.1618 -0.8653
 8000SOL     OW35632   2.418   1.163   6.353  0.5059  0.0431  0.0553
 8000SOL    HW135633   2.323   1.154   6.357  0.6950 -1.9214  0.1036
 8000SOL    HW235634   2.441   1.071   6.364 -0.7537 -0.5679 -2.5587
 8001SOL     OW35635   0.567   1.672   8.100 -0.2137 -0.8810  0.9712
 8001SOL    HW135636   0.653   1.702   8.130 -0.0659 -0.3988  0.0715
 8001SOL    HW235637   0.601   1.585   8.081  1.8196  0.4262 -1.3571
 8002SOL     OW35638   1.711   1.615   4.728  0.0687 -0.0259  0.3314
 8002SOL    HW135639   1.705   1.710   4.721  1.0024  0.0884  1.1047
 8002SOL    HW235640   1.799   1.600   4.694  0.0158  0.2182  0.0836
 8003SOL     OW35641   1.952   1.084  13.799  0.5063 -0.4695 -0.0845
 8003SOL    HW135642   1.989   1.072  13.886  2.2088  0.6430 -0.6691
 8003SOL    HW235643   1.924   0.993  13.791 -1.9494  0.4068 -1.5355
 8004SOL     OW35644   2.900   0.091   2.904 -0.6549 -0.7987  0.4562
 8004SOL    HW135645   2.901   0.028   2.976  0.4367  1.3329  2.3200
 8004SOL    HW235646   2.932   0.038   2.832  0.1577  0.3041 -0.0062
 8005SOL     OW35647   4.055   0.160   8.841  0.0821  0.1868  0.4328
 8005SOL    HW135648   4.001   0.107   8.782  0.3629  1.3707 -0.8853
 8005SOL    HW235649   4.131   0.101   8.846 -0.9614 -1.2989 -1.1065
 8006SOL     OW35650   0.793   2.589   8.280  0.5438 -0.5999  0.7751
 8006SOL    HW135651   0.735   2.582   8.204 -0.5905  1.4779  1.4644
 8006SOL    HW235652   0.869   2.533   8.264  1.0115  0.4328 -0.5253
 8007SOL     OW35653   0.476   3.890  14.222 -0.1209  0.1167 -0.4705
 8007SOL    HW135654   0.503   3.803  14.249 -3.7513 -0.6606  0.6242
 8007SOL    HW235655   0.533   3.949  14.273  1.3870 -0.9109 -0.9606
 8008SOL     OW35656   2.520   2.768  11.763 -0.1362 -0.1524  0.4382
 8008SOL    HW135657   2.447   2.767  11.825  1.0556 -2.1628  1.7942
 8008SOL    HW235658   2.526   2.864  11.767 -1.6969  0.0198 -1.7997
 8009SOL     OW35659   1.091   4.449  12.691  0.4207  0.5759 -0.1728
 8009SOL    HW135660   1.064   4.510  12.759  0.7196 -0.4356  0.8624
 8009SOL    HW235661   1.052   4.483  12.610  1.0288  0.7717 -0.3826
 8010SOL     OW35662   1.990   1.908  11.218 -0.6389  0.0753 -0.4473
 8010SOL    HW135663   1.969   1.818  11.245  2.3418 -0.9251 -1.4991
 8010SOL    HW235664   2.084   1.915  11.235 -0.7690  0.0505  0.2971
 8011SOL     OW35665   1.772   1.961   5.005 -0.2100  0.1660 -0.6061
 8011SOL    HW135666   1.839   1.938   5.069  0.5179 -0.0832 -1.4476
 8011SOL    HW235667   1.821   2.019   4.947 -1.6123  1.1057 -0.8435
 8012SOL     OW35668   4.022   2.731  16.189  0.7482 -0.2354 -0.0072
 8012SOL    HW135669   4.048   2.823  16.199 -2.1135  0.7046 -1.3330
 8012SOL    HW235670   4.097   2.689  16.231  2.4103  2.0801 -0.6388
 8013SOL     OW35671   3.857   1.494   8.608 -0.2216  0.6592 -0.1326
 8013SOL    HW135672   3.765   1.467   8.615  0.1963 -0.3775  1.4540
 8013SOL    HW235673   3.878   1.514   8.699  2.0386 -1.2212 -0.2521
 8014SOL     OW35674   3.685   1.935   7.626 -0.3451 -0.5978 -0.1458
 8014SOL    HW135675   3.607   1.935   7.570 -0.3351 -1.6427 -0.1570
 8014SOL    HW235676   3.650   1.960   7.712 -2.9417  0.5935 -1.5437
 8015SOL     OW35677   1.112   4.103  14.213 -0.0138 -0.3910  0.2008
 8015SOL    HW135678   1.115   4.180  14.269  2.9821 -0.2300 -0.2085
 8015SOL    HW235679   1.131   4.147  14.130  1.6279 -3.7547 -1.2009
 8016SOL     OW35680   3.003   1.183   2.908  0.2553 -0.0299  0.3325
 8016SOL    HW135681   3.040   1.194   2.821 -0.0465 -0.1360  0.1894
 8016SOL    HW235682   2.966   1.268   2.931  1.2253  0.1884  1.0539
 8017SOL     OW35683   3.339   4.538   6.092  0.0380  0.2731  0.5095
 8017SOL    HW135684   3.418   4.556   6.041 -0.3088 -3.4907 -1.3694
 8017SOL    HW235685   3.287   4.510   6.017 -0.6265  0.0394  1.0437
 8018SOL     OW35686   3.926   4.001   4.240 -0.3644  0.2981  0.3276
 8018SOL    HW135687   3.831   4.011   4.245 -0.3851  0.5679 -0.4744
 8018SOL    HW235688   3.950   4.092   4.255 -1.4449  0.5963  0.2511
 8019SOL     OW35689   2.933   0.210  15.375  0.2204  0.0608  0.3007
 8019SOL    HW135690   2.960   0.202  15.467  0.3705  2.4197  0.4729
 8019SOL    HW235691   3.016   0.226  15.331 -0.0405 -3.0882 -1.3235
 8020SOL     OW35692   3.168   4.710   9.085  0.0273  0.0749 -0.1415
 8020SOL    HW135693   3.207   0.033   9.150  0.0036 -0.5295  0.4151
 8020SOL    HW235694   3.118   0.036   9.032  2.2136  1.6129 -0.4510
 8021SOL     OW35695   3.413   4.416   1.681 -0.1724 -0.3996 -0.0700
 8021SOL    HW135696   3.477   4.403   1.751  1.4578  0.1454 -1.4437
 8021SOL    HW235697   3.456   4.451   1.603  1.0640  1.1566  1.2938
 8022SOL     OW35698   2.870   3.220   8.717  0.1004 -0.0929 -1.4614
 8022SOL    HW135699   2.939   3.272   8.677  1.1233 -0.0468  0.3723
 8022SOL    HW235700   2.919   3.139   8.732  0.7771  0.4656 -0.6652
 8023SOL     OW35701   1.392   1.697   6.369  0.5659 -0.4973  0.0570
 8023SOL    HW135702   1.440   1.627   6.413  0.4071 -1.4441 -1.2853
 8023SOL    HW235703   1.371   1.755   6.443 -0.4824 -1.0859  0.2255
 8024SOL     OW35704   1.388   2.211   5.374 -0.7306 -0.9776 -0.3652
 8024SOL    HW135705   1.347   2.133   5.410  0.2114 -2.1085 -1.7384
 8024SOL    HW235706   1.472   2.175   5.345  1.0708  2.7338  0.3210
 8025SOL     OW35707   3.013   2.014   7.348 -0.2273 -0.1973 -0.0416
 8025SOL    HW135708   3.007   2.028   7.254  0.6702  0.3316 -0.0210
 8025SOL    HW235709   3.039   1.922   7.354 -1.4971 -0.4528  1.4357
 8026SOL     OW35710   2.389   1.168  14.389 -0.2271  0.1483  0.5623
 8026SOL    HW135711   2.329   1.095  14.392  0.8060 -0.7162  0.1514
 8026SOL    HW235712   2.328   1.242  14.396  0.0167  0.4650 -0.7508
 8027SOL     OW35713   3.256   0.083  14.583 -0.6203 -0.3147  0.0213
 8027SOL    HW135714   3.173   0.090  14.536 -1.1552 -2.8582  0.5973
 8027SOL    HW235715   3.292   4.735  14.555  0.5630  0.8013 -1.7844
 8028SOL     OW35716   4.271   3.208  12.408  0.1708 -0.0463 -0.6311
 8028SOL    HW135717   4.367   3.201  12.414  0.1039  0.7042  1.5529
 8028SOL    HW235718   4.258   3.302  12.396 -1.0707  0.0084  1.1225
 8029SOL     OW35719   2.783   4.411  10.809 -0.3107  0.1445 -0.6755
 8029SOL    HW135720   2.815   4.449  10.727  0.8670 -0.3601 -0.4548
 8029SOL    HW235721   2.801   4.319  10.789 -3.4416 -0.5295 -0.3141
 8030SOL     OW35722   0.473   2.856   9.792 -0.0838  0.2396  0.0050
 8030SOL    HW135723   0.513   2.917   9.730  2.4069  0.9573  2.3662
 8030SOL    HW235724   0.483   2.908   9.871  1.4983  0.7312 -0.5379
 8031SOL     OW35725   3.883   2.833  14.815  0.1586 -0.7856 -0.1026
 8031SOL    HW135726   3.914   2.843  14.905 -1.9857  2.1357  0.2681
 8031SOL    HW235727   3.822   2.762  14.834 -0.1910 -0.9782 -1.9563
 8032SOL     OW35728   2.143   0.887  15.552 -0.1820  0.6954  0.2415
 8032SOL    HW135729   2.088   0.826  15.601 -2.6307  0.8363 -2.3346
 8032SOL    HW235730   2.223   0.835  15.543 -0.3563 -0.0605  2.9330
 8033SOL     OW35731   3.974   3.601   6.260  0.0242  0.2458  0.5519
 8033SOL    HW135732   3.969   3.695   6.276 -3.1581 -0.0324  1.1305
 8033SOL    HW235733   4.029   3.594   6.182  0.2239 -1.4990  0.8495
 8034SOL     OW35734   2.359   0.077  13.694  0.3445 -0.3131 -0.3795
 8034SOL    HW135735   2.376   0.124  13.776 -1.9946 -1.5554  0.8435
 8034SOL    HW235736   2.345   4.723  13.725 -1.4715 -0.3795 -1.3980
 8035SOL     OW35737   1.787   3.879   8.138 -0.5797  0.3150  0.1430
 8035SOL    HW135738   1.705   3.844   8.174  1.6609 -1.9092  3.1462
 8035SOL    HW235739   1.765   3.871   8.046  0.1676 -0.1819  0.0061
 8036SOL     OW35740   0.812   2.991   4.590 -0.7320  0.4753  0.2222
 8036SOL    HW135741   0.865   3.056   4.636 -0.4280  0.4499 -0.0834
 8036SOL    HW235742   0.848   2.908   4.624  1.1901  1.3364  0.3230
 8037SOL     OW35743   1.716   2.865   8.946  0.2553 -0.0324 -1.0678
 8037SOL    HW135744   1.792   2.893   8.997 -1.5289  0.9542  1.0344
 8037SOL    HW235745   1.644   2.927   8.958 -0.6307 -1.1954 -0.3510
 8038SOL     OW35746   0.626   2.129  14.483 -0.1333 -0.3916  0.5259
 8038SOL    HW135747   0.663   2.191  14.546 -0.2961  1.0583 -0.8181
 8038SOL    HW235748   0.532   2.146  14.488 -0.1092 -0.2718  0.5714
 8039SOL     OW35749   4.071   0.211   4.388  0.6345 -0.0108  0.1176
 8039SOL    HW135750   4.019   0.135   4.363  0.2859  0.7087 -1.3555
 8039SOL    HW235751   4.037   0.277   4.327  1.5366 -1.6975 -2.1987
 8040SOL     OW35752   3.115   3.945   1.176 -0.2227  0.1893 -0.5592
 8040SOL    HW135753   3.022   3.928   1.187 -0.0895  0.2544  0.7115
 8040SOL    HW235754   3.125   3.989   1.092 -0.2834  1.4674  0.1118
 8041SOL     OW35755   3.841   0.205   1.845 -0.0914  0.5038 -0.0025
 8041SOL    HW135756   3.903   0.275   1.825  0.6834  0.1618  1.1423
 8041SOL    HW235757   3.808   0.179   1.760  1.1630 -0.2788 -0.2527
 8042SOL     OW35758   4.517   3.660   7.581 -0.4250  0.3647  0.0507
 8042SOL    HW135759   4.499   3.582   7.530 -1.0461  0.4755  0.1036
 8042SOL    HW235760   4.444   3.669   7.642 -2.1977 -2.6931 -1.6519
 8043SOL     OW35761   3.302   3.847   4.379  0.0652  0.1896 -0.7488
 8043SOL    HW135762   3.374   3.839   4.441  0.9686  0.9847 -1.7022
 8043SOL    HW235763   3.269   3.936   4.394  0.5358  0.1429  0.5441
 8044SOL     OW35764   1.841   1.057  11.447 -0.3860  0.3693 -0.4338
 8044SOL    HW135765   1.859   1.070  11.354  1.0254 -1.1399 -0.3704
 8044SOL    HW235766   1.925   1.025  11.480 -0.6752  0.6916  0.6088
 8045SOL     OW35767   3.877   1.491  10.373 -0.0037  0.0409  0.1727
 8045SOL    HW135768   3.834   1.570  10.340 -0.4298 -0.4882 -0.5293
 8045SOL    HW235769   3.969   1.514  10.359  0.6066 -2.5737 -0.0598
 8046SOL     OW35770   2.188   4.037  13.529 -0.5124  0.3953  0.5946
 8046SOL    HW135771   2.127   4.111  13.519 -0.4589  0.1920 -1.1507
 8046SOL    HW235772   2.141   3.977  13.588  0.9552 -1.6950 -0.3889
 8047SOL     OW35773   4.728   2.367   8.201  0.1602 -0.8167  0.0993
 8047SOL    HW135774   4.666   2.319   8.146 -1.2134  0.7166  0.3283
 8047SOL    HW235775   0.039   2.302   8.254 -0.5969 -1.8740 -0.5295
 8048SOL     OW35776   1.975   2.499   3.185 -0.1478 -0.0641 -0.2996
 8048SOL    HW135777   1.927   2.470   3.263  0.9753 -0.9603  0.0619
 8048SOL    HW235778   1.929   2.582   3.174 -0.1598  0.0377  0.5669
 8049SOL     OW35779   1.228   3.994   4.223  0.4859 -0.1864  0.3809
 8049SOL    HW135780   1.305   4.023   4.174  1.3572 -1.6155  0.8980
 8049SOL    HW235781   1.250   3.908   4.257  0.4140 -0.0712  0.7209
 8050SOL     OW35782   2.740   3.545   4.749 -0.4149 -0.4118  0.1395
 8050SOL    HW135783   2.656   3.508   4.724  0.3705 -1.9344 -0.2603
 8050SOL    HW235784   2.748   3.490   4.828  0.0322  0.8971  1.0092
 8051SOL     OW35785   0.044   0.308   9.555 -0.5319 -0.1048  0.3191
 8051SOL    HW135786   0.005   0.360   9.485 -0.5853  0.3476  0.6930
 8051SOL    HW235787   4.706   0.291   9.615 -1.4392 -0.9065 -1.0101
 8052SOL     OW35788   4.366   3.039   7.523 -0.1200 -0.5263 -0.3114
 8052SOL    HW135789   4.341   3.130   7.542 -1.2166 -0.6922 -1.0080
 8052SOL    HW235790   4.287   2.999   7.559 -0.8221  1.4595  0.3384
 8053SOL     OW35791   1.805   3.646   8.865  0.1234  0.2641  0.5905
 8053SOL    HW135792   1.838   3.659   8.954  1.0237 -0.3035  0.3389
 8053SOL    HW235793   1.855   3.569   8.839 -0.7192 -0.5980  1.5037
 8054SOL     OW35794   4.392   2.574   9.652  0.1983 -0.2750  0.2023
 8054SOL    HW135795   4.483   2.570   9.684  0.3672 -1.8041 -0.4468
 8054SOL    HW235796   4.408   2.643   9.587 -1.3920  0.5271  0.6613
 8055SOL     OW35797   1.559   0.222   9.261 -0.4510 -0.2566 -0.7198
 8055SOL    HW135798   1.545   0.296   9.321 -1.1850  0.9617 -2.3782
 8055SOL    HW235799   1.654   0.217   9.257 -0.5189 -2.0039  0.0358
 8056SOL     OW35800   1.163   3.633   5.522 -0.5663  0.0747 -0.3339
 8056SOL    HW135801   1.240   3.576   5.513 -0.5338  0.1503 -0.5334
 8056SOL    HW235802   1.167   3.644   5.617 -2.2147  0.2210 -0.2935
 8057SOL     OW35803   3.554   3.069  17.433 -0.3727 -0.1147  0.0443
 8057SOL    HW135804   3.499   3.134  17.389  0.5144  0.9981  0.5792
 8057SOL    HW235805   3.571   3.007  17.362  0.0845 -0.5717  0.5479
 8058SOL     OW35806   2.323   2.535   6.800  0.0833  0.1639  0.3203
 8058SOL    HW135807   2.365   2.500   6.879 -2.6849 -0.0326  1.7050
 8058SOL    HW235808   2.258   2.589   6.845 -3.5853 -2.0336 -2.3144
 8059SOL     OW35809   1.854   3.145   2.204  0.3129  0.0332 -0.3147
 8059SOL    HW135810   1.931   3.116   2.253  1.5902 -0.4819 -2.6280
 8059SOL    HW235811   1.886   3.165   2.116  2.1300 -0.5037  0.2251
 8060SOL     OW35812   0.071   3.709  11.019  0.0503 -0.0847 -0.1293
 8060SOL    HW135813   0.016   3.781  11.049 -0.6015 -0.2933 -0.8462
 8060SOL    HW235814   0.131   3.698  11.093 -2.3565 -1.4001  1.6426
 8061SOL     OW35815   3.739   1.310   4.723 -0.2580 -0.1758 -0.4762
 8061SOL    HW135816   3.752   1.333   4.631  0.5719  2.8910  0.3802
 8061SOL    HW235817   3.673   1.243   4.704 -1.6850  0.2542  2.9226
 8062SOL     OW35818   4.306   0.727   3.435  0.1383  0.1681  0.2060
 8062SOL    HW135819   4.346   0.784   3.369 -0.1512  0.1574  0.0219
 8062SOL    HW235820   4.222   0.700   3.398 -0.2415  1.9733 -0.2436
 8063SOL     OW35821   3.451   2.293   7.695 -0.5329  0.0757  0.1154
 8063SOL    HW135822   3.395   2.243   7.635 -2.2149  0.6522  1.2224
 8063SOL    HW235823   3.522   2.314   7.634 -0.5367  2.1399  0.8240
 8064SOL     OW35824   1.010   3.807   8.469 -0.2829 -0.0277 -0.6320
 8064SOL    HW135825   1.061   3.756   8.405  2.4096 -0.8271  2.1618
 8064SOL    HW235826   1.055   3.791   8.552 -0.7672  4.1372  0.4466
 8065SOL     OW35827   0.774   1.314   7.660 -0.2385 -0.2875  0.1705
 8065SOL    HW135828   0.738   1.284   7.577  0.1265 -0.5642  0.1124
 8065SOL    HW235829   0.697   1.299   7.714 -0.4546 -2.4727 -0.7708
 8066SOL     OW35830   2.913   2.709   6.956  0.2783 -0.0426  0.2833
 8066SOL    HW135831   2.888   2.800   6.941 -0.3097  0.2080  2.7210
 8066SOL    HW235832   3.000   2.720   6.918  0.2946  1.2183  0.6823
 8067SOL     OW35833   2.428   0.696   5.344  0.4840 -0.0634  0.5082
 8067SOL    HW135834   2.500   0.759   5.341  1.0070 -0.5969  2.0931
 8067SOL    HW235835   2.376   0.737   5.275  0.8824 -0.8228 -0.2570
 8068SOL     OW35836   1.001   2.627   4.488  0.2164 -0.0631 -0.0456
 8068SOL    HW135837   1.032   2.544   4.525  0.5456 -0.3979 -1.0444
 8068SOL    HW235838   0.969   2.662   4.570 -0.1248  0.8903 -0.5895
 8069SOL     OW35839   1.730   4.607   7.367  0.0641 -1.4720  0.4785
 8069SOL    HW135840   1.787   4.654   7.306 -1.5768  0.7678  0.6795
 8069SOL    HW235841   1.794   4.565   7.424 -0.4133  2.0206  3.5834
 8070SOL     OW35842   2.151   3.668   2.470 -0.3827  0.5009 -0.4662
 8070SOL    HW135843   2.114   3.589   2.511  0.2583  0.0824 -0.6862
 8070SOL    HW235844   2.114   3.729   2.533 -0.0489  0.6279 -0.3924
 8071SOL     OW35845   0.790   3.282   9.579  0.5503 -0.4136  0.4375
 8071SOL    HW135846   0.721   3.344   9.602 -0.7126 -1.5081 -0.3624
 8071SOL    HW235847   0.855   3.328   9.632 -0.1360 -0.8433  1.6502
 8072SOL     OW35848   2.394   2.805   8.149  0.0315 -0.1692  0.8196
 8072SOL    HW135849   2.386   2.879   8.209 -0.1546  0.0553  0.5159
 8072SOL    HW235850   2.454   2.746   8.194 -0.4166 -2.0257 -1.0088
 8073SOL     OW35851   2.705   0.952   8.115 -0.0823 -0.4024  0.0789
 8073SOL    HW135852   2.712   1.040   8.152 -1.7783 -0.2075 -0.0961
 8073SOL    HW235853   2.722   0.970   8.023 -3.4612 -0.4386 -0.5268
 8074SOL     OW35854   1.232   0.070   2.861  0.0084  0.5365 -0.2127
 8074SOL    HW135855   1.189   0.117   2.790 -1.9684  0.1891  0.7765
 8074SOL    HW235856   1.157   0.058   2.918  0.0999  3.0800  0.4352
 8075SOL     OW35857   4.450   0.234  10.561  0.1255  0.8393  0.3561
 8075SOL    HW135858   4.361   0.232  10.598 -0.3104  0.5212 -0.7082
 8075SOL    HW235859   4.461   0.145  10.530 -2.2353  0.4750  0.5028
 8076SOL     OW35860   4.265   4.055   4.298 -0.0565 -1.0072  0.7703
 8076SOL    HW135861   4.291   4.112   4.225  0.4472  0.2565  1.9345
 8076SOL    HW235862   4.282   3.966   4.268  3.3820  0.2103 -0.9339
 8077SOL     OW35863   4.329   3.341   9.528  0.1041  0.0409 -0.1294
 8077SOL    HW135864   4.290   3.259   9.497 -0.3902  0.3834 -0.4204
 8077SOL    HW235865   4.368   3.323   9.613 -1.2891  0.0219  0.5031
 8078SOL     OW35866   2.894   3.937   8.905 -0.7553 -0.0473 -0.0889
 8078SOL    HW135867   2.953   3.896   8.968  2.4914  1.8988 -1.8534
 8078SOL    HW235868   2.952   4.007   8.873 -0.1967 -1.0407 -1.2464
 8079SOL     OW35869   2.582   0.531  13.685  0.0668 -0.3359 -0.4813
 8079SOL    HW135870   2.541   0.469  13.745 -0.5386  0.4950 -0.0244
 8079SOL    HW235871   2.676   0.515  13.694  0.1727  1.1757  1.0789
 8080SOL     OW35872   2.359   1.304   4.004  0.4652  0.6224 -0.6604
 8080SOL    HW135873   2.295   1.246   3.965 -0.3160  0.9770  0.0860
 8080SOL    HW235874   2.422   1.239   4.037 -1.7870 -0.9063  0.6023
 8081SOL     OW35875   0.929   0.951  12.745  0.0913  0.2286 -0.3971
 8081SOL    HW135876   0.944   0.907  12.829 -2.3262  1.3183  0.6083
 8081SOL    HW235877   0.936   1.041  12.776 -2.8023  0.0351  0.8293
 8082SOL     OW35878   1.845   4.195   2.173  0.2599 -0.2825 -0.4087
 8082SOL    HW135879   1.923   4.171   2.123  1.6140  3.0797  0.1169
 8082SOL    HW235880   1.827   4.106   2.203  1.3454 -0.4185 -0.1613
 8083SOL     OW35881   0.573   0.159   3.944  0.1914  0.0408  0.4322
 8083SOL    HW135882   0.553   0.221   4.015  0.2344 -0.2786  0.7266
 8083SOL    HW235883   0.588   0.082   3.999 -0.6404 -2.5015 -2.9151
 8084SOL     OW35884   0.584   4.328   9.613 -0.3408  0.2323 -0.0303
 8084SOL    HW135885   0.561   4.364   9.528  1.3804  1.1883 -0.0852
 8084SOL    HW235886   0.513   4.264   9.623 -1.2386  1.4851  1.5139
 8085SOL     OW35887   1.420   4.491   5.776 -0.2414  0.5824  0.5946
 8085SOL    HW135888   1.329   4.494   5.804 -0.5915 -3.4575 -0.2296
 8085SOL    HW235889   1.450   4.406   5.807  1.6942 -0.1542 -3.1758
 8086SOL     OW35890   4.096   3.001  16.203 -0.6639  0.4810 -0.0883
 8086SOL    HW135891   4.179   3.043  16.183 -2.0756  1.6057 -3.5562
 8086SOL    HW235892   4.036   3.073  16.185 -0.4189  0.7345  0.1181
 8087SOL     OW35893   2.059   3.545  10.710 -0.0464  0.2313  0.5644
 8087SOL    HW135894   1.978   3.498  10.690  0.6630 -0.7396 -0.0042
 8087SOL    HW235895   2.060   3.598  10.630  0.7645 -0.6429  0.0100
 8088SOL     OW35896   0.397   0.019   0.142 -0.0280  0.6757  0.3993
 8088SOL    HW135897   0.306   0.040   0.163 -0.6638 -2.6846  0.9279
 8088SOL    HW235898   0.403   0.066   0.059 -1.5783  1.4902  0.7553
 8089SOL     OW35899   3.565   0.381   3.439  0.0409  0.5017 -0.5531
 8089SOL    HW135900   3.472   0.374   3.419 -0.1491  0.4127  0.3553
 8089SOL    HW235901   3.579   0.293   3.474 -1.1954  1.1103  1.5147
 8090SOL     OW35902   1.932   0.511   3.432  0.3846 -0.1210  0.5445
 8090SOL    HW135903   1.961   0.466   3.512  0.2131 -1.1622  0.0153
 8090SOL    HW235904   1.839   0.507   3.452 -0.0857  0.3007 -1.6585
 8091SOL     OW35905   3.181   0.065   7.136  0.3872 -0.3072  0.4225
 8091SOL    HW135906   3.123   0.132   7.100 -0.3289 -3.2455 -3.9115
 8091SOL    HW235907   3.270   0.093   7.115  0.4279 -1.6915 -1.2576
 8092SOL     OW35908   0.645   4.104   2.277  0.3887 -0.1360  0.2652
 8092SOL    HW135909   0.560   4.129   2.240  0.6091 -0.5876 -0.5400
 8092SOL    HW235910   0.631   4.019   2.319  1.2013  0.0964  1.0073
 8093SOL     OW35911   3.817   3.169   1.855 -0.1325  0.0953 -0.3639
 8093SOL    HW135912   3.816   3.100   1.922 -1.2662 -0.9294 -1.4330
 8093SOL    HW235913   3.862   3.135   1.778  2.0386  2.5238 -0.1587
 8094SOL     OW35914   4.435   1.739   4.664 -0.2668  0.1594  0.5714
 8094SOL    HW135915   4.400   1.652   4.682  0.9424 -0.0843  1.7613
 8094SOL    HW235916   4.362   1.773   4.614 -1.6712 -1.8281  1.2690
 8095SOL     OW35917   3.578   3.554   6.587 -0.0052 -0.4531 -0.5736
 8095SOL    HW135918   3.484   3.544   6.603  0.1861 -1.0912  0.1411
 8095SOL    HW235919   3.601   3.642   6.619  0.9014 -1.7012  2.2292
 8096SOL     OW35920   3.821   3.693   5.881 -0.1878  0.1153  0.5098
 8096SOL    HW135921   3.732   3.730   5.881 -0.2866 -0.1212  0.3333
 8096SOL    HW235922   3.820   3.655   5.968  1.3694  0.0604  0.4951
 8097SOL     OW35923   1.903   1.395   6.737 -0.3317 -0.3182 -0.2899
 8097SOL    HW135924   1.869   1.327   6.679  2.0713 -3.3908  1.8811
 8097SOL    HW235925   1.823   1.439   6.767  0.2526  1.2413 -1.0479
 8098SOL     OW35926   3.961   2.679   2.927 -0.5152 -0.4063 -0.0284
 8098SOL    HW135927   3.939   2.771   2.913 -0.2467 -0.4525 -0.7289
 8098SOL    HW235928   4.053   2.673   2.903 -0.3234 -1.0623  0.8682
 8099SOL     OW35929   4.253   2.827  12.384  0.0452 -0.1203  0.0730
 8099SOL    HW135930   4.227   2.735  12.375  4.7424 -1.5676  1.2388
 8099SOL    HW235931   4.248   2.825  12.480  0.6782  2.9021  0.1576
 8100SOL     OW35932   0.773   4.458   8.534  0.8683  0.0017  0.1941
 8100SOL    HW135933   0.845   4.417   8.486  1.0616 -1.2897  1.6014
 8100SOL    HW235934   0.820   4.513   8.596 -0.5761  0.5023  0.8484
 8101SOL     OW35935   0.340   2.896   4.034 -0.0513  0.2201  0.4665
 8101SOL    HW135936   0.260   2.914   3.986  0.0321 -1.5097 -0.2979
 8101SOL    HW235937   0.303   2.919   4.119  0.4719 -1.2045  1.0740
 8102SOL     OW35938   1.514   3.656  10.039 -0.4373  0.1044  0.1938
 8102SOL    HW135939   1.502   3.641  10.132 -2.3835 -2.5545 -0.4812
 8102SOL    HW235940   1.447   3.723  10.028  0.1176  0.7125  0.5324
 8103SOL     OW35941   0.425   4.291   5.805 -0.2946  0.1591 -0.0774
 8103SOL    HW135942   0.479   4.316   5.730 -0.9364 -0.9816 -0.9180
 8103SOL    HW235943   0.382   4.374   5.825  1.0242  0.7404  0.3496
 8104SOL     OW35944   3.066   2.957   0.447  0.3555  0.6300 -0.3887
 8104SOL    HW135945   3.142   3.011   0.424 -0.6074  1.7820 -0.8881
 8104SOL    HW235946   3.007   3.032   0.454 -0.0363  0.3575 -0.7533
 8105SOL     OW35947   2.261   2.288   1.798 -0.2031  0.5296  0.9084
 8105SOL    HW135948   2.279   2.371   1.842  0.4910  0.9843 -0.2290
 8105SOL    HW235949   2.215   2.237   1.865 -0.3222  1.8077  1.8073
 8106SOL     OW35950   3.600   0.836  17.331  0.6219 -0.0608 -0.0761
 8106SOL    HW135951   3.622   0.757  17.382 -1.6480  0.6064  1.9548
 8106SOL    HW235952   3.569   0.793  17.251 -0.8823  1.1582 -0.1426
 8107SOL     OW35953   3.704   4.169   9.551 -0.0770 -0.4369  0.6237
 8107SOL    HW135954   3.645   4.136   9.484 -0.5766  0.8312  0.4285
 8107SOL    HW235955   3.786   4.143   9.509 -1.0843 -1.5703 -0.6017
 8108SOL     OW35956   0.082   4.270  10.621 -0.2980  0.1126 -0.1803
 8108SOL    HW135957   0.090   4.246  10.713  1.3153 -0.8801 -0.5787
 8108SOL    HW235958   0.148   4.214  10.580 -0.5277  0.3730 -0.9175
 8109SOL     OW35959   3.906   0.328  10.940  0.6200  0.3289 -0.7661
 8109SOL    HW135960   3.838   0.395  10.929 -0.6059 -0.9809 -1.2493
 8109SOL    HW235961   3.923   0.305  10.849  0.8517 -1.0184 -0.3825
 8110SOL     OW35962   3.016   2.332   5.055 -0.2455 -0.1836  0.0277
 8110SOL    HW135963   3.019   2.427   5.065  1.1157 -0.4054  1.7830
 8110SOL    HW235964   3.107   2.313   5.032 -0.3194 -0.6289  0.1038
 8111SOL     OW35965   0.020   3.975   8.223  0.1936 -0.3173 -0.0256
 8111SOL    HW135966   0.065   4.027   8.156 -0.0041 -1.3358 -0.9399
 8111SOL    HW235967   4.689   3.929   8.172  0.6575  0.8067 -1.6274
 8112SOL     OW35968   1.013   0.995   2.525  0.1981  0.5239  0.4109
 8112SOL    HW135969   0.983   0.906   2.540  1.4535  0.1523  0.7348
 8112SOL    HW235970   1.052   1.007   2.612  1.7429 -2.4043  0.1197
 8113SOL     OW35971   3.131   0.389   6.536  0.9677 -0.6464 -0.2848
 8113SOL    HW135972   3.076   0.387   6.457  0.2537  0.8787  0.1714
 8113SOL    HW235973   3.218   0.403   6.496 -0.3722  1.1997 -2.5906
 8114SOL     OW35974   2.130   2.960   6.775  0.6732 -0.4709  0.2382
 8114SOL    HW135975   2.213   2.980   6.732  0.9837  2.2204  2.0386
 8114SOL    HW235976   2.131   3.016   6.853  1.4889  0.6341 -0.5672
 8115SOL     OW35977   3.058   1.872  11.002  0.0890 -0.3762 -0.4057
 8115SOL    HW135978   3.088   1.803  11.061  0.6256 -1.0908 -1.5182
 8115SOL    HW235979   3.033   1.819  10.926 -2.4769 -2.1285  1.6526
 8116SOL     OW35980   1.160   1.629   9.124 -0.4848 -0.1390 -0.1824
 8116SOL    HW135981   1.174   1.537   9.145  1.1127  0.1208 -0.1256
 8116SOL    HW235982   1.249   1.666   9.120 -1.1429  1.3163 -1.4640
 8117SOL     OW35983   0.733   3.148   6.368 -0.0495  0.3469 -0.2893
 8117SOL    HW135984   0.697   3.079   6.314  1.3570  0.3522 -1.2258
 8117SOL    HW235985   0.731   3.216   6.301  0.1671  0.8740  0.2323
 8118SOL     OW35986   2.818   3.583  17.193 -0.2987  0.5248  0.0539
 8118SOL    HW135987   2.799   3.493  17.167 -1.0715  0.4967  0.7125
 8118SOL    HW235988   2.817   3.576  17.289  1.5501 -0.1782  0.0040
 8119SOL     OW35989   3.913   1.558   8.884 -0.4732 -0.2385 -0.4637
 8119SOL    HW135990   3.901   1.653   8.886  0.0862 -0.1981  1.0469
 8119SOL    HW235991   3.853   1.529   8.952  1.4162 -0.5870  1.0646
 8120SOL     OW35992   1.383   2.854   6.917  0.3092  0.2433  0.0791
 8120SOL    HW135993   1.299   2.814   6.895  0.1937  1.3518 -1.5280
 8120SOL    HW235994   1.414   2.798   6.988  2.0639  1.0196 -0.0725
 8121SOL     OW35995   2.623   2.734   9.443 -0.1476 -0.6485  0.0492
 8121SOL    HW135996   2.644   2.660   9.386  2.1806 -2.5810  3.4012
 8121SOL    HW235997   2.710   2.767   9.466 -0.5371  0.1925  0.2991
 8122SOL     OW35998   4.113   2.026   8.181  0.1915 -0.2436 -0.3422
 8122SOL    HW135999   4.031   2.038   8.229 -0.3817 -0.3746 -1.2912
 8122SOL    HW236000   4.091   2.101   8.125 -1.0495 -2.0254 -2.2336
 8123SOL     OW36001   2.115   2.856  17.572  0.0096 -0.0237  0.3213
 8123SOL    HW136002   2.199   2.818  17.597 -0.5983 -0.0431  2.2842
 8123SOL    HW236003   2.111   2.831  17.479 -1.9524  4.4886 -0.8268
 8124SOL     OW36004   1.349   3.657   3.452 -0.5250  0.1143  0.6939
 8124SOL    HW136005   1.332   3.572   3.411  2.4142  0.0676 -0.3703
 8124SOL    HW236006   1.324   3.713   3.379  0.4037  0.4306  0.6282
 8125SOL     OW36007   1.325   0.349   6.157  0.6730 -0.1438 -0.4528
 8125SOL    HW136008   1.399   0.388   6.110  1.6814 -0.1750  1.1101
 8125SOL    HW236009   1.288   0.287   6.093 -1.7978  0.0440  0.7834
 8126SOL     OW36010   4.592   1.870   5.278 -0.1119  0.0879  0.4591
 8126SOL    HW136011   4.684   1.849   5.259 -0.8593 -1.5947 -1.2756
 8126SOL    HW236012   4.559   1.925   5.207 -1.2368 -2.5289 -1.0324
 8127SOL     OW36013   0.374   0.494   6.922 -0.1547  0.0858 -0.5523
 8127SOL    HW136014   0.330   0.413   6.948  3.0647 -0.9635  1.5522
 8127SOL    HW236015   0.442   0.500   6.989 -0.9945 -1.1285  0.4021
 8128SOL     OW36016   0.139   3.444   3.067  0.0664  0.9083  0.0032
 8128SOL    HW136017   0.176   3.477   2.985  1.2708  2.2269  1.0619
 8128SOL    HW236018   0.046   3.435   3.049  0.6806 -0.5010 -2.5547
 8129SOL     OW36019   3.618   1.272   3.786  0.4117 -0.0489 -0.4246
 8129SOL    HW136020   3.665   1.319   3.717 -0.1825  1.4346  0.1826
 8129SOL    HW236021   3.533   1.317   3.786  1.0987  1.2472 -0.9953
 8130SOL     OW36022   4.044   1.447   7.754  0.1208 -0.0065  0.3365
 8130SOL    HW136023   4.070   1.512   7.688 -1.0170 -1.6379 -1.7030
 8130SOL    HW236024   4.008   1.510   7.817 -4.0957 -0.5752 -1.4977
 8131SOL     OW36025   3.100   1.381   5.668 -0.0099 -0.1399 -0.3558
 8131SOL    HW136026   3.121   1.458   5.721 -2.0223  0.6964 -0.7493
 8131SOL    HW236027   3.158   1.388   5.593  1.1451  1.1776  0.6508
 8132SOL     OW36028   3.632   4.147  12.867 -0.5182  0.0445  0.3711
 8132SOL    HW136029   3.542   4.126  12.890 -0.5709  1.5586  1.5409
 8132SOL    HW236030   3.669   4.078  12.923  0.1163 -0.9867 -1.3114
 8133SOL     OW36031   2.632   0.883   1.639  0.2793 -0.1862 -0.6477
 8133SOL    HW136032   2.580   0.865   1.561 -1.0774  1.6974 -0.1896
 8133SOL    HW236033   2.713   0.912   1.597  0.3897  1.4243  0.6571
 8134SOL     OW36034   3.953   2.250  10.647  0.1463 -0.1645  0.2361
 8134SOL    HW136035   3.942   2.155  10.644  1.3964 -0.3851  2.7207
 8134SOL    HW236036   3.877   2.276  10.698 -0.0543  0.4973 -0.4040
 8135SOL     OW36037   0.309   4.422   8.596 -0.1715  0.1299 -0.0468
 8135SOL    HW136038   0.339   4.461   8.679 -1.0206 -0.5241  0.5697
 8135SOL    HW236039   0.374   4.461   8.537 -0.9324 -1.0991 -1.6653
 8136SOL     OW36040   0.119   4.496  15.578  0.3785 -0.3825 -0.0777
 8136SOL    HW136041   0.093   4.466  15.490  0.3781  0.2903 -0.3057
 8136SOL    HW236042   0.037   4.524  15.617  1.7901  1.6004  1.4417
 8137SOL     OW36043   2.910   2.038   8.313 -0.1543 -0.4571  0.2923
 8137SOL    HW136044   2.922   1.944   8.307  1.6296 -0.3793  2.3854
 8137SOL    HW236045   2.844   2.032   8.382 -0.6473 -0.2473 -0.1597
 8138SOL     OW36046   0.441   2.815   7.778 -0.1454  0.3692 -0.0160
 8138SOL    HW136047   0.394   2.806   7.696 -0.6567 -3.4771  0.7073
 8138SOL    HW236048   0.386   2.870   7.834 -0.5781 -1.7443  1.6567
 8139SOL     OW36049   1.851   1.139  15.252  0.8416  1.1297  0.1180
 8139SOL    HW136050   1.837   1.059  15.202 -1.3590  2.9182 -2.0787
 8139SOL    HW236051   1.930   1.182  15.219  1.1760 -1.2514 -2.1221
 8140SOL     OW36052   1.579   4.113   4.313  0.1949 -0.4353 -0.0460
 8140SOL    HW136053   1.522   4.070   4.377 -2.0729  0.2204 -1.6242
 8140SOL    HW236054   1.537   4.199   4.308  1.9712  0.4885  1.0697
 8141SOL     OW36055   1.019   2.087   7.284  0.1626 -0.2248  0.5143
 8141SOL    HW136056   0.973   2.168   7.264 -0.6767 -0.8203  0.0207
 8141SOL    HW236057   0.952   2.025   7.256  0.1815 -0.0939  0.1703
 8142SOL     OW36058   1.682   2.599   4.728  0.0717  0.0724 -0.1088
 8142SOL    HW136059   1.758   2.549   4.757  0.3650  0.4441 -0.2523
 8142SOL    HW236060   1.645   2.531   4.672  1.1227  0.9132 -1.8135
 8143SOL     OW36061   1.287   3.598   0.384  0.0130  0.0081 -0.0488
 8143SOL    HW136062   1.372   3.592   0.340 -0.8782 -3.0173 -1.3307
 8143SOL    HW236063   1.276   3.519   0.437  2.3989 -0.7193 -0.6231
 8144SOL     OW36064   4.706   0.877   3.898  0.4382  0.8505  0.3532
 8144SOL    HW136065   4.645   0.874   3.972 -0.1195 -1.8859 -0.2202
 8144SOL    HW236066   0.006   0.966   3.900  1.9263  0.2163  2.3102
 8145SOL     OW36067   3.235   4.362  11.470  0.3138  0.3643  0.5254
 8145SOL    HW136068   3.139   4.371  11.469  0.1592 -1.5221 -0.7399
 8145SOL    HW236069   3.248   4.303  11.396 -1.0574 -0.7740  1.1914
 8146SOL     OW36070   3.086   1.057   1.533  0.0310  0.2698 -0.1469
 8146SOL    HW136071   3.027   1.097   1.597  2.5876  0.4585  2.0997
 8146SOL    HW236072   3.083   0.967   1.565  1.4886  0.5112  0.6802
 8147SOL     OW36073   4.354   3.050   8.675  0.1944 -0.4110 -0.4206
 8147SOL    HW136074   4.340   2.981   8.610  3.0894 -1.6174  0.2040
 8147SOL    HW236075   4.449   3.046   8.684  0.2720 -2.1397 -1.9178
 8148SOL     OW36076   3.280   4.500   1.056  0.1904 -0.3329  0.3191
 8148SOL    HW136077   3.348   4.552   1.013 -0.8984  0.4692 -0.4017
 8148SOL    HW236078   3.283   4.531   1.146 -0.7056 -1.5113  0.7621
 8149SOL     OW36079   1.216   2.668  10.532  0.2328 -0.6188 -0.5091
 8149SOL    HW136080   1.167   2.735  10.485  1.8935  1.1000  0.1716
 8149SOL    HW236081   1.310   2.690  10.530  0.4670 -1.3464  1.8563
 8150SOL     OW36082   0.517   2.022   2.468 -0.3126 -0.2502  0.0240
 8150SOL    HW136083   0.578   2.017   2.541 -0.7652 -1.7452  0.3021
 8150SOL    HW236084   0.490   2.113   2.481  0.1817 -0.2046  0.7020
 8151SOL     OW36085   2.525   2.560   7.926 -0.1601 -0.0279  0.3394
 8151SOL    HW136086   2.443   2.607   7.914 -0.8226 -1.0030  1.0609
 8151SOL    HW236087   2.515   2.494   7.857 -0.6972  0.7594 -0.3354
 8152SOL     OW36088   3.969   2.151   5.279 -0.1848  0.4156 -0.3039
 8152SOL    HW136089   4.052   2.103   5.283 -0.6104 -0.0971  2.4631
 8152SOL    HW236090   3.993   2.215   5.212 -0.7193  0.7122 -0.2094
 8153SOL     OW36091   2.472   2.584   4.831 -0.3396  0.1068  0.1345
 8153SOL    HW136092   2.543   2.632   4.787 -1.9473 -0.1111 -2.7209
 8153SOL    HW236093   2.443   2.649   4.895  0.2600 -0.0409  0.5611
 8154SOL     OW36094   0.964   3.407   7.242 -0.1893 -0.2068 -0.1805
 8154SOL    HW136095   0.940   3.445   7.327  0.9525  1.3106 -0.5283
 8154SOL    HW236096   0.909   3.460   7.184  1.6985 -1.4015 -3.0717
 8155SOL     OW36097   3.008   3.828   2.928 -0.1586  0.3622 -0.4551
 8155SOL    HW136098   2.941   3.871   2.982  1.4653  0.8123  1.1790
 8155SOL    HW236099   3.062   3.786   2.994 -1.2641  0.2613  0.3784
 8156SOL     OW36100   3.739   3.218   1.500 -0.4651 -1.1631  0.1469
 8156SOL    HW136101   3.704   3.296   1.542  0.7013 -0.4705 -0.1593
 8156SOL    HW236102   3.701   3.231   1.413  0.8317  0.6792 -0.1385
 8157SOL     OW36103   4.727   0.990   4.892  0.3875 -0.8151 -0.1525
 8157SOL    HW136104   0.048   0.924   4.932  0.8871 -0.2243  0.1041
 8157SOL    HW236105   0.044   1.025   4.820  0.0148 -1.1460 -0.5861
 8158SOL     OW36106   0.985   3.041   0.074 -0.3014  1.1746 -0.2729
 8158SOL    HW136107   0.958   3.133   0.071  1.7017  1.8152  1.4729
 8158SOL    HW236108   1.036   3.037  17.736 -1.0926  2.0705 -0.8252
 8159SOL     OW36109   4.373   2.265   3.246  0.2703  0.2769  0.0456
 8159SOL    HW136110   4.446   2.295   3.300  0.3678  0.9461 -0.4593
 8159SOL    HW236111   4.377   2.334   3.180 -1.7756  0.9774  0.6484
 8160SOL     OW36112   0.378   2.922   2.951 -0.3442  0.3411  0.3011
 8160SOL    HW136113   0.384   2.850   3.014  1.5924 -1.9625 -2.5083
 8160SOL    HW236114   0.284   2.938   2.954 -0.6030 -1.3354  0.8105
 8161SOL     OW36115   1.711   3.487   1.985 -0.0951 -0.0692  0.5385
 8161SOL    HW136116   1.766   3.562   1.962  0.9051 -0.8101  0.4530
 8161SOL    HW236117   1.625   3.528   1.985 -0.1901 -0.2614 -1.7029
 8162SOL     OW36118   0.114   2.663   0.291  0.0217  0.7705 -0.2376
 8162SOL    HW136119   0.057   2.705   0.226 -1.2894 -1.1033 -0.2707
 8162SOL    HW236120   0.120   2.580   0.245 -0.1799  0.4617  0.2938
 8163SOL     OW36121   1.562   3.568   5.369  0.5542 -0.3238  0.7538
 8163SOL    HW136122   1.545   3.595   5.279 -0.9243 -2.2620  0.4622
 8163SOL    HW236123   1.611   3.641   5.409 -1.0694  1.4094 -0.4557
 8164SOL     OW36124   0.943   3.144  16.075  0.3250  0.2219  0.2345
 8164SOL    HW136125   1.013   3.192  16.118  2.0625 -2.7935  0.7281
 8164SOL    HW236126   0.949   3.168  15.982 -1.2145  0.7270  0.2522
 8165SOL     OW36127   2.756   3.479   5.044  0.2015 -0.4614 -0.1273
 8165SOL    HW136128   2.702   3.459   5.121  0.2914  2.3174  0.6282
 8165SOL    HW236129   2.840   3.462   5.085  0.6172 -0.1064 -0.8222
 8166SOL     OW36130   0.597   3.608   7.476 -1.0106  1.0415  0.2099
 8166SOL    HW136131   0.596   3.514   7.458  0.0057  0.9535  0.6123
 8166SOL    HW236132   0.614   3.606   7.570 -0.5863  1.0947  0.1372
 8167SOL     OW36133   2.010   0.485  14.775  0.1401  0.7682  0.0017
 8167SOL    HW136134   1.988   0.392  14.771  1.2477  0.4824  0.5901
 8167SOL    HW236135   2.048   0.492  14.687  1.3717 -2.2633  0.2686
 8168SOL     OW36136   4.435   3.752   9.670  0.6478  0.8733 -0.8084
 8168SOL    HW136137   4.447   3.674   9.614 -0.6561  2.3541 -3.1632
 8168SOL    HW236138   4.452   3.820   9.605  0.9117  2.0108  0.4849
 8169SOL     OW36139   3.281   0.499   4.298 -0.4638  0.3831 -0.0714
 8169SOL    HW136140   3.239   0.562   4.356  2.0278  2.2677 -0.3277
 8169SOL    HW236141   3.340   0.559   4.252 -0.6252 -1.6506 -2.9128
 8170SOL     OW36142   1.866   3.058   7.159 -0.1011 -0.2778  0.4563
 8170SOL    HW136143   1.898   3.118   7.226 -0.4993 -0.1003  0.4913
 8170SOL    HW236144   1.790   3.100   7.117  1.6867  0.8110 -1.6887
 8171SOL     OW36145   1.379   1.211   1.967 -0.6462  0.2778  0.0066
 8171SOL    HW136146   1.324   1.169   1.901 -0.5949  0.4067 -0.1182
 8171SOL    HW236147   1.375   1.141   2.032 -2.8427 -1.7213 -2.2658
 8172SOL     OW36148   2.102   1.604   2.702 -0.0884  0.3310  0.0897
 8172SOL    HW136149   2.047   1.571   2.773 -2.0078  0.2173 -1.4343
 8172SOL    HW236150   2.173   1.657   2.738  0.1272 -0.3662  0.6967
 8173SOL     OW36151   2.099   2.651   4.952  0.0292 -0.2539  0.7591
 8173SOL    HW136152   2.177   2.671   5.004 -0.6575  0.4208  1.5418
 8173SOL    HW236153   2.082   2.728   4.898 -1.0562 -0.8596  0.2350
 8174SOL     OW36154   3.580   1.965   4.261 -0.1645  0.0385 -0.6190
 8174SOL    HW136155   3.593   1.919   4.178 -2.2385 -0.7949 -0.4970
 8174SOL    HW236156   3.664   1.948   4.302 -0.2136  1.0298 -0.1087
 8175SOL     OW36157   4.678   1.590  10.239 -0.7453  0.4429  0.1921
 8175SOL    HW136158   4.623   1.515  10.260  0.5340  0.0397  2.1702
 8175SOL    HW236159   4.694   1.629  10.325  0.7646 -0.3746  0.2931
 8176SOL     OW36160   2.697   0.447   1.500 -0.1943  0.4669  0.0703
 8176SOL    HW136161   2.718   0.364   1.456 -0.7533  1.5696 -2.2983
 8176SOL    HW236162   2.622   0.423   1.555 -0.7367  1.1763 -0.3503
 8177SOL     OW36163   2.821   2.502   6.439 -0.6525  0.0042  0.1281
 8177SOL    HW136164   2.897   2.511   6.497 -0.3301  2.1921 -0.6266
 8177SOL    HW236165   2.859   2.504   6.351 -1.6317 -0.0248 -0.2878
 8178SOL     OW36166   2.671   2.810  17.575  0.0761  0.3176 -0.6216
 8178SOL    HW136167   2.587   2.837  17.538 -0.7378  0.0594  1.0553
 8178SOL    HW236168   2.734   2.878  17.551  2.0658 -0.6231  1.9538
 8179SOL     OW36169   2.622   2.621   5.702 -0.3724  0.0311 -0.3015
 8179SOL    HW136170   2.556   2.557   5.675 -1.0385  1.1862 -1.3955
 8179SOL    HW236171   2.687   2.620   5.631  0.7011  0.0049  0.6827
 8180SOL     OW36172   1.185   0.995   6.827 -0.3702 -0.6145  0.3645
 8180SOL    HW136173   1.254   0.999   6.893 -0.3583 -1.6891  0.4193
 8180SOL    HW236174   1.169   1.087   6.810 -2.3483 -1.3222 -1.5955
 8181SOL     OW36175   3.057   3.676   3.407  0.2661  0.6005 -0.1197
 8181SOL    HW136176   3.055   3.770   3.427 -3.3642  0.5557 -0.3431
 8181SOL    HW236177   3.050   3.671   3.312 -0.4670  1.5994 -0.1148
 8182SOL     OW36178   0.801   1.475   7.258  0.3158 -0.0301  0.0471
 8182SOL    HW136179   0.877   1.515   7.300 -0.0898  1.3699 -0.5595
 8182SOL    HW236180   0.837   1.473   7.169  0.7288 -2.2014  0.2559
 8183SOL     OW36181   0.352   0.170  17.663 -0.2587 -0.3801 -0.3616
 8183SOL    HW136182   0.276   0.117  17.642 -0.0802 -1.5926  1.9540
 8183SOL    HW236183   0.311   0.251  17.632 -1.9649 -1.1922 -0.1769
 8184SOL     OW36184   1.594   3.752   5.791 -0.5709  0.0547  0.1092
 8184SOL    HW136185   1.605   3.836   5.835  0.8909  0.7325 -1.5375
 8184SOL    HW236186   1.556   3.781   5.708  0.7195 -0.5691 -0.7066
 8185SOL     OW36187   2.067   2.512  16.371 -0.0833  0.2417  0.1892
 8185SOL    HW136188   2.066   2.446  16.440 -0.8632 -0.3352 -0.3735
 8185SOL    HW236189   1.995   2.568  16.399 -0.9404  0.3084 -2.0925
 8186SOL     OW36190   1.294   0.723   7.773 -0.3584 -0.2120  0.0002
 8186SOL    HW136191   1.389   0.737   7.778 -0.5403  1.2726 -0.5023
 8186SOL    HW236192   1.295   0.635   7.735 -0.6275 -0.1462 -0.1588
 8187SOL     OW36193   1.903   1.013   4.495  0.2123 -0.9517 -0.0320
 8187SOL    HW136194   1.880   0.929   4.457 -1.7224 -0.6124  0.3953
 8187SOL    HW236195   1.820   1.041   4.534  0.9623 -0.8434  1.4801
 8188SOL     OW36196   2.213   1.398  14.405  0.0969 -0.5470 -0.0681
 8188SOL    HW136197   2.128   1.419  14.443  0.9332 -0.2312  1.6305
 8188SOL    HW236198   2.246   1.481  14.373 -0.1576  0.3289  1.9595
 8189SOL     OW36199   1.364   2.646   0.194  0.0411  0.0420  0.0040
 8189SOL    HW136200   1.299   2.674   0.129  1.4495  3.6606  0.1502
 8189SOL    HW236201   1.381   2.733   0.231 -2.3926  0.5674 -0.0666
 8190SOL     OW36202   2.791   4.352   3.470  0.4340  0.2429  0.6597
 8190SOL    HW136203   2.827   4.337   3.558  0.3302 -1.3693  0.4313
 8190SOL    HW236204   2.699   4.333   3.488  0.3232 -0.7877 -0.9585
 8191SOL     OW36205   2.631   0.497   9.813  0.0214 -0.0271 -0.8641
 8191SOL    HW136206   2.654   0.404   9.817 -1.1616 -0.3531 -1.6923
 8191SOL    HW236207   2.568   0.479   9.744  2.4806 -1.1561 -2.7947
 8192SOL     OW36208   0.016   3.010   7.301  0.0884 -0.3332 -0.4314
 8192SOL    HW136209   0.012   3.007   7.396  0.9856 -0.5863 -0.4026
 8192SOL    HW236210   4.662   2.992   7.274 -0.0585  1.5347 -1.2271
 8193SOL     OW36211   2.068   4.270  13.506 -0.0528  0.3501 -0.5620
 8193SOL    HW136212   2.087   4.345  13.563  1.5755  0.5333 -1.3564
 8193SOL    HW236213   2.065   4.315  13.422  0.1422  1.9986  0.3217
 8194SOL     OW36214   1.140   3.908   7.785  0.1142 -0.5497 -0.1363
 8194SOL    HW136215   1.148   3.830   7.731 -2.6123 -1.9603  1.4804
 8194SOL    HW236216   1.136   3.982   7.724  2.7987 -0.8477 -0.6645
 8195SOL     OW36217   3.504   1.684   8.646 -0.3046 -0.2362 -0.6944
 8195SOL    HW136218   3.572   1.750   8.660 -1.4188  0.9172 -0.6558
 8195SOL    HW236219   3.426   1.722   8.688  2.3690  2.8667  1.4635
 8196SOL     OW36220   4.459   2.785   6.027  0.0093  0.0579  0.4010
 8196SOL    HW136221   4.546   2.761   6.059 -0.5558 -0.9623  1.1823
 8196SOL    HW236222   4.420   2.831   6.101 -0.0850  1.8780 -0.7739
 8197SOL     OW36223   0.025   2.289   7.067  0.4161 -0.3836  0.3370
 8197SOL    HW136224   4.729   2.376   7.047  2.5551  1.0827  3.2796
 8197SOL    HW236225   0.115   2.297   7.099 -0.0524 -0.9790  1.8187
 8198SOL     OW36226   4.140   2.947   7.730  0.1673  0.4761  0.2040
 8198SOL    HW136227   4.226   2.913   7.757  0.6719 -0.4029 -2.4525
 8198SOL    HW236228   4.119   2.998   7.808  2.3841 -0.4309  1.4136
 8199SOL     OW36229   1.727   3.272  17.407 -0.2387  0.5079 -0.6808
 8199SOL    HW136230   1.786   3.288  17.333 -0.6095 -0.8222 -1.2536
 8199SOL    HW236231   1.753   3.337  17.473 -0.4140  0.3732 -0.4794
 8200SOL     OW36232   3.912   3.779   9.661  0.0662  0.4347  0.5838
 8200SOL    HW136233   3.855   3.712   9.700  0.8914 -0.9136 -0.5413
 8200SOL    HW236234   3.969   3.729   9.603 -0.7882 -0.4313  0.4931
 8201SOL     OW36235   1.005   0.376   9.126  0.3495 -0.0571 -0.7222
 8201SOL    HW136236   1.017   0.377   9.031  1.3303 -1.4854 -0.6274
 8201SOL    HW236237   0.920   0.417   9.140  1.5771  2.0816  0.4492
 8202SOL     OW36238   4.218   4.679  14.757 -0.0953  0.3548 -0.2127
 8202SOL    HW136239   4.132   4.637  14.749 -0.4561  1.0088  0.1416
 8202SOL    HW236240   4.210   4.727  14.840 -1.9998  1.2869 -0.9238
 8203SOL     OW36241   0.956   0.540  13.353 -0.7183  0.1734 -0.3088
 8203SOL    HW136242   0.866   0.549  13.322 -0.6476  0.3372 -0.4656
 8203SOL    HW236243   0.949   0.615  13.412  0.1102 -0.3410  0.4460
 8204SOL     OW36244   0.396   0.595   4.169  0.0232  0.1001 -0.1585
 8204SOL    HW136245   0.451   0.670   4.149  0.7929 -0.6616 -0.8582
 8204SOL    HW236246   0.325   0.605   4.105 -0.2754 -0.7660  0.0332
 8205SOL     OW36247   1.106   2.753   3.465 -0.0947 -0.1251  0.3888
 8205SOL    HW136248   1.169   2.822   3.446 -1.6886  1.0160 -0.7193
 8205SOL    HW236249   1.087   2.764   3.558  0.1350 -1.5397  0.5993
 8206SOL     OW36250   3.664   0.561   0.426 -0.5331 -0.4687  0.2902
 8206SOL    HW136251   3.719   0.579   0.503 -0.5359 -2.8069  0.8276
 8206SOL    HW236252   3.704   0.610   0.354  0.0629 -0.1283  0.8529
 8207SOL     OW36253   1.826   2.961   0.592 -0.3040  0.1507  0.0158
 8207SOL    HW136254   1.800   2.909   0.668  3.4093 -1.6013  0.1133
 8207SOL    HW236255   1.812   2.890   0.529  0.8360  1.9122 -2.2195
 8208SOL     OW36256   2.641   4.430  14.108 -0.4525 -0.7486 -0.0612
 8208SOL    HW136257   2.655   4.383  14.190 -0.3401  0.3927  0.5718
 8208SOL    HW236258   2.624   4.353  14.053 -0.5111 -0.0880 -0.9517
 8209SOL     OW36259   2.428   1.798   5.841 -0.2919 -0.3505  0.6799
 8209SOL    HW136260   2.377   1.857   5.896 -2.2145 -2.1385  0.8227
 8209SOL    HW236261   2.450   1.729   5.904 -0.0503  0.5449  1.5634
 8210SOL     OW36262   0.373   1.363   2.467 -0.4348 -0.0679 -0.9388
 8210SOL    HW136263   0.360   1.279   2.509  3.3687 -1.1120 -1.8089
 8210SOL    HW236264   0.426   1.349   2.388  1.9792  1.8771  0.3000
 8211SOL     OW36265   4.595   0.692   0.695  0.0534 -0.1587  0.1040
 8211SOL    HW136266   4.569   0.626   0.631  0.0990 -2.4311  2.4454
 8211SOL    HW236267   4.578   0.762   0.632  1.1065 -0.0565 -0.0659
 8212SOL     OW36268   1.506   2.185   8.449 -0.3336  0.1080  0.6141
 8212SOL    HW136269   1.509   2.275   8.480  2.1591  0.8592 -1.8038
 8212SOL    HW236270   1.523   2.129   8.525 -2.9981  0.7420  1.6952
 8213SOL     OW36271   1.330   3.900  14.229 -0.5852  0.1455 -0.3418
 8213SOL    HW136272   1.261   3.967  14.234  1.0093  1.5923  2.4480
 8213SOL    HW236273   1.411   3.951  14.234 -1.1686  1.1450 -1.0933
 8214SOL     OW36274   1.679   1.780   8.445  0.1583  0.1316  0.1180
 8214SOL    HW136275   1.722   1.841   8.506  0.4981  1.1700 -1.1683
 8214SOL    HW236276   1.710   1.692   8.465 -1.1394 -0.7057 -1.6396
 8215SOL     OW36277   0.087   2.442  12.462 -0.2293 -0.4010  0.6357
 8215SOL    HW136278   0.062   2.447  12.370  1.1129 -1.8699  0.1914
 8215SOL    HW236279   0.058   2.525  12.498 -1.3433  0.1314 -1.4944
 8216SOL     OW36280   3.287   1.042   4.405 -0.3055 -0.1226 -0.0541
 8216SOL    HW136281   3.192   1.048   4.412 -0.2881 -1.3793  1.0799
 8216SOL    HW236282   3.315   1.132   4.387  2.1669 -0.8317  0.3435
 8217SOL     OW36283   3.064   0.228  10.623 -0.7244 -0.0488  0.1090
 8217SOL    HW136284   3.106   0.147  10.594  0.9957  0.7350  0.3957
 8217SOL    HW236285   3.127   0.297  10.600 -2.3699  1.7392  0.9374
 8218SOL     OW36286   4.513   1.714   5.941  0.2785  0.0943 -0.0341
 8218SOL    HW136287   4.512   1.723   6.036 -0.7314 -1.5850  0.0983
 8218SOL    HW236288   4.536   1.622   5.927  0.8772  0.2528 -0.1068
 8219SOL     OW36289   1.959   0.570   8.092 -0.3346  0.6052  0.8111
 8219SOL    HW136290   1.995   0.481   8.098 -2.0467 -0.0082  2.0333
 8219SOL    HW236291   2.038   0.622   8.079  0.5210 -0.7193  0.7143
 8220SOL     OW36292   3.608   1.438   8.650  0.1752  0.6883  0.0215
 8220SOL    HW136293   3.545   1.377   8.615  2.6387 -2.0067  0.2856
 8220SOL    HW236294   3.546   1.503   8.684 -0.7524  0.5109 -1.3407
 8221SOL     OW36295   2.949   4.700   9.369 -0.3170 -0.9284  0.1924
 8221SOL    HW136296   2.888   4.626   9.373  2.2900 -3.0972 -0.5621
 8221SOL    HW236297   2.905   0.016   9.302  2.6821 -0.0590 -1.0885
 8222SOL     OW36298   3.952   3.028   3.332 -0.3813 -0.2874 -0.2384
 8222SOL    HW136299   3.955   3.124   3.324 -0.2703 -0.0507  2.7524
 8222SOL    HW236300   4.032   3.012   3.382  0.0467 -1.6207 -1.3677
 8223SOL     OW36301   2.287   4.492  11.394 -0.2290 -0.2500 -0.1098
 8223SOL    HW136302   2.268   4.531  11.480  0.0362 -3.4030  1.4095
 8223SOL    HW236303   2.325   4.571  11.356 -0.2430  1.1924  2.8249
 8224SOL     OW36304   2.739   3.608   3.585 -0.6181 -0.0248  0.2780
 8224SOL    HW136305   2.738   3.699   3.615 -2.2769  1.3405 -3.8869
 8224SOL    HW236306   2.650   3.593   3.554  0.0580 -2.5250 -0.4888
 8225SOL     OW36307   3.308   1.482  17.652 -0.4886  0.1121  0.3042
 8225SOL    HW136308   3.223   1.460  17.616  0.1831 -0.1607 -1.1015
 8225SOL    HW236309   3.366   1.457  17.580  0.1963 -0.3283  0.9965
 8226SOL     OW36310   3.727   0.745   2.898 -0.0129  0.6628 -0.0399
 8226SOL    HW136311   3.722   0.803   2.822  0.0641  0.6164 -0.0810
 8226SOL    HW236312   3.649   0.692   2.880  0.2184  0.4444 -0.4143
 8227SOL     OW36313   0.098   0.433   7.127 -0.2288  0.0191 -0.0028
 8227SOL    HW136314   0.114   0.339   7.133 -0.4767  0.0015  0.4196
 8227SOL    HW236315   0.115   0.464   7.216 -0.1665 -1.3543  0.4674
 8228SOL     OW36316   2.054   3.977   8.885  0.5303  0.3733 -0.0420
 8228SOL    HW136317   2.115   3.981   8.959 -1.3571  0.8098  1.5080
 8228SOL    HW236318   1.974   3.943   8.925  0.6686  0.6824  0.4971
 8229SOL     OW36319   1.282   3.706  10.712  0.1587  0.2232  0.0454
 8229SOL    HW136320   1.363   3.716  10.662  0.1961 -2.7542 -0.5238
 8229SOL    HW236321   1.323   3.706  10.798 -2.1419 -0.3965  1.1422
 8230SOL     OW36322   0.857   3.664   0.279 -0.5099 -0.4947  0.0085
 8230SOL    HW136323   0.896   3.751   0.275  0.5401 -0.8511  2.2802
 8230SOL    HW236324   0.906   3.620   0.349  1.5217  1.1161 -0.4322
 8231SOL     OW36325   2.223   0.740   6.456 -0.4934  0.1002  0.9327
 8231SOL    HW136326   2.250   0.687   6.531  1.8518 -1.7122 -1.1655
 8231SOL    HW236327   2.131   0.715   6.462 -0.6840  1.3606  3.0776
 8232SOL     OW36328   0.117   2.382   2.781  0.2643  0.1357  0.1664
 8232SOL    HW136329   0.134   2.470   2.748 -1.7924  0.3103 -0.3826
 8232SOL    HW236330   0.082   2.408   2.867 -0.3104 -2.3136  0.6758
 8233SOL     OW36331   4.118   4.404  16.321  0.4426 -0.0912 -0.2140
 8233SOL    HW136332   4.048   4.435  16.264 -0.9875 -0.4809  1.3455
 8233SOL    HW236333   4.151   4.489  16.351  1.2442  0.5084 -2.7301
 8234SOL     OW36334   1.788   1.672   2.806  0.0270  0.1500  0.6013
 8234SOL    HW136335   1.828   1.663   2.892  2.3603 -1.0909 -0.6317
 8234SOL    HW236336   1.841   1.745   2.775 -1.2196  0.6123 -0.4831
 8235SOL     OW36337   2.232   0.882   3.091 -0.0785 -0.5966  0.4646
 8235SOL    HW136338   2.170   0.879   3.018  1.3502 -2.3932 -0.6568
 8235SOL    HW236339   2.172   0.908   3.161  0.4089  0.2787  0.5560
 8236SOL     OW36340   4.308   0.461   1.201  0.5587  0.3616 -0.5334
 8236SOL    HW136341   4.254   0.434   1.126 -1.2053  0.6028  0.6617
 8236SOL    HW236342   4.240   0.463   1.269  1.6049  2.5341  0.4457
 8237SOL     OW36343   4.104   0.889   3.674 -0.6823 -0.0240  0.0160
 8237SOL    HW136344   4.071   0.818   3.619 -0.4122  0.2267 -0.4738
 8237SOL    HW236345   4.197   0.869   3.670 -1.0157 -1.4803 -0.3268
 8238SOL     OW36346   1.476   1.763   6.971  0.1317  0.2374 -0.3255
 8238SOL    HW136347   1.407   1.811   7.016  0.7050  0.5681  0.2114
 8238SOL    HW236348   1.436   1.679   6.949  0.3412 -0.0134  0.2294
 8239SOL     OW36349   0.388   1.999   8.327  0.1369  0.2530 -0.3335
 8239SOL    HW136350   0.383   1.962   8.415  0.9935 -0.2347 -0.4857
 8239SOL    HW236351   0.367   1.923   8.274  2.4071  1.1073 -2.4708
 8240SOL     OW36352   3.519   1.653  16.671 -0.2471 -1.0202  0.6161
 8240SOL    HW136353   3.593   1.704  16.637 -0.7962  1.1730  2.6960
 8240SOL    HW236354   3.562   1.613  16.747  0.4778  0.8110  1.1841
 8241SOL     OW36355   3.884   3.072  10.986 -0.0021 -0.1836 -0.2081
 8241SOL    HW136356   3.800   3.099  11.022  1.5479  2.5510  1.3351
 8241SOL    HW236357   3.908   2.993  11.035  1.8854  0.0261 -0.7772
 8242SOL     OW36358   0.140   2.909  12.671 -0.1410 -0.0820 -0.4097
 8242SOL    HW136359   0.100   2.952  12.747 -0.6009  0.2959 -0.8658
 8242SOL    HW236360   0.228   2.888  12.703 -0.0053 -0.9057 -1.3270
 8243SOL     OW36361   4.669   3.002   8.349  0.2397 -0.0872 -0.6599
 8243SOL    HW136362   4.649   3.058   8.275 -0.8697 -0.1323 -0.4017
 8243SOL    HW236363   4.623   2.921   8.325  0.8214 -0.7838  0.5502
 8244SOL     OW36364   2.123   0.410   3.238  0.6535  0.1402  0.1161
 8244SOL    HW136365   2.180   0.392   3.313  1.5842  4.0447  0.3333
 8244SOL    HW236366   2.052   0.449   3.289 -0.5623  0.8652 -2.1341
 8245SOL     OW36367   2.781   2.363  13.233  0.3638 -0.7423 -0.6242
 8245SOL    HW136368   2.848   2.416  13.275 -0.7701  0.1748  0.0219
 8245SOL    HW236369   2.735   2.323  13.307  0.5931 -2.0305 -1.1789
 8246SOL     OW36370   1.660   2.421   6.216  0.9754  0.0489  0.1413
 8246SOL    HW136371   1.631   2.501   6.173 -1.5568  0.0336  1.8143
 8246SOL    HW236372   1.585   2.395   6.271 -0.3075 -0.1442 -1.7095
 8247SOL     OW36373   1.809   3.880   2.487  0.1379 -0.4793  0.1013
 8247SOL    HW136374   1.737   3.818   2.501  0.8826 -1.2635  0.4153
 8247SOL    HW236375   1.827   3.882   2.393  0.5355 -0.3243  0.1804
 8248SOL     OW36376   1.620   4.042   2.821  0.0278  0.3519 -0.1662
 8248SOL    HW136377   1.530   4.072   2.822  0.2361  0.9265  0.9433
 8248SOL    HW236378   1.602   3.973   2.758 -2.4121 -1.6157  2.7105
 8249SOL     OW36379   2.071   1.384   8.428 -0.5169 -0.1104 -0.3625
 8249SOL    HW136380   2.115   1.325   8.488 -1.3012 -0.4015 -0.0807
 8249SOL    HW236381   2.013   1.319   8.388 -0.9960  0.1296 -0.0629
 8250SOL     OW36382   3.856   0.258   7.943  0.1137  0.1871 -0.6730
 8250SOL    HW136383   3.885   0.235   7.854  1.0889  0.2948 -0.3821
 8250SOL    HW236384   3.916   0.194   7.980 -0.6854  0.9864  1.9648
 8251SOL     OW36385   2.121   2.368   7.678 -0.2865  0.1193 -0.6868
 8251SOL    HW136386   2.209   2.401   7.658 -0.1725  0.7542  0.8772
 8251SOL    HW236387   2.095   2.308   7.608  3.7442  2.8090 -4.4852
 8252SOL     OW36388   4.298   0.416   5.760  0.0043 -0.7035 -0.4691
 8252SOL    HW136389   4.382   0.444   5.724 -0.7983  0.8009 -1.1795
 8252SOL    HW236390   4.239   0.476   5.713 -2.3455 -2.2966  0.4473
 8253SOL     OW36391   4.622   4.356   3.962  0.1486  0.4634  0.3023
 8253SOL    HW136392   4.679   4.279   3.965 -1.2887 -0.6305 -0.6555
 8253SOL    HW236393   4.604   4.377   4.054  1.2046  0.1919  0.5750
 8254SOL     OW36394   1.287   4.358   5.088 -0.3791  0.2232  0.0939
 8254SOL    HW136395   1.369   4.345   5.040 -1.5193 -1.2405 -1.4242
 8254SOL    HW236396   1.322   4.331   5.173  1.0439 -0.3387 -0.6556
 8255SOL     OW36397   3.396   2.068   4.805  0.1277  0.2364  0.0181
 8255SOL    HW136398   3.482   2.080   4.766 -0.8028 -0.5324 -2.2789
 8255SOL    HW236399   3.425   1.999   4.865 -0.6107 -0.5764 -0.5428
 8256SOL     OW36400   4.616   4.386   4.235 -0.3194 -0.5795 -0.2634
 8256SOL    HW136401   4.602   4.359   4.326 -0.7495  1.2982  0.2318
 8256SOL    HW236402   4.607   4.481   4.245  3.0326 -0.2784 -0.3051
 8257SOL     OW36403   3.147   4.190   8.286  0.0145  0.4887 -0.2945
 8257SOL    HW136404   3.105   4.269   8.321 -1.5864  0.6662 -2.6060
 8257SOL    HW236405   3.239   4.211   8.301 -0.0146  1.1343 -0.9987
 8258SOL     OW36406   1.922   3.911   4.558 -0.3615 -0.0210 -0.0680
 8258SOL    HW136407   1.883   3.827   4.537 -1.1098  0.1036  0.8436
 8258SOL    HW236408   1.979   3.888   4.631 -0.0193 -0.0386 -0.3351
 8259SOL     OW36409   2.308   1.674   5.346  0.0435  0.3677 -0.7322
 8259SOL    HW136410   2.273   1.585   5.355 -0.6395  0.7238  0.1201
 8259SOL    HW236411   2.232   1.708   5.393  0.0241  0.2565 -0.6815
 8260SOL     OW36412   4.409   1.419   4.452  0.1187 -0.8917  0.1144
 8260SOL    HW136413   4.319   1.411   4.482  0.0480 -1.1000 -0.1503
 8260SOL    HW236414   4.407   1.500   4.402 -2.9047 -0.3723  1.0772
 8261SOL     OW36415   0.638   0.365   5.326  0.3180  0.0726 -0.4029
 8261SOL    HW136416   0.549   0.362   5.289 -0.1852  1.3483  0.7342
 8261SOL    HW236417   0.687   0.358   5.244  1.2770  0.2994  0.1601
 8262SOL     OW36418   0.651   3.369  11.434  0.0885  0.0792  0.0481
 8262SOL    HW136419   0.618   3.405  11.517  1.1627  2.5250 -0.5822
 8262SOL    HW236420   0.656   3.278  11.464  0.1328  0.7893  2.2608
 8263SOL     OW36421   0.763   3.413  16.613 -0.2471  0.2858  0.1562
 8263SOL    HW136422   0.771   3.366  16.530 -0.1682 -1.2082  1.0050
 8263SOL    HW236423   0.853   3.398  16.642  0.3083 -0.8485 -2.1711
 8264SOL     OW36424   4.531   0.182   5.849 -0.2652  0.3943  0.2193
 8264SOL    HW136425   4.548   0.265   5.893  0.5855 -0.5611  1.6958
 8264SOL    HW236426   4.475   0.217   5.780  1.5410 -1.1838 -2.0428
 8265SOL     OW36427   0.053   1.744   7.496  0.1990 -0.3876  0.2542
 8265SOL    HW136428   0.035   1.709   7.584 -1.1179  0.9515  0.5163
 8265SOL    HW236429   0.135   1.787   7.522 -0.2501  0.4507  0.2670
 8266SOL     OW36430   0.466   1.632   7.821 -0.0043  0.2808  0.7405
 8266SOL    HW136431   0.483   1.627   7.915 -0.0812  0.0840  0.7432
 8266SOL    HW236432   0.541   1.685   7.795  1.4577 -1.4399  1.5233
 8267SOL     OW36433   3.840   4.341  15.036 -0.4330  0.2741  0.3589
 8267SOL    HW136434   3.822   4.249  15.059  0.0417 -0.4686 -2.2472
 8267SOL    HW236435   3.916   4.358  15.091 -0.1291  1.4035 -0.4254
 8268SOL     OW36436   4.014   3.783   9.364 -0.5138 -0.4294  0.2275
 8268SOL    HW136437   4.003   3.742   9.279 -0.2667  1.7331 -0.8369
 8268SOL    HW236438   3.995   3.711   9.425 -0.2974 -0.9976 -0.3732
 8269SOL     OW36439   1.775   2.136  17.600 -0.4469  0.0997  0.3224
 8269SOL    HW136440   1.756   2.205  17.665  0.4014  1.2644 -0.6589
 8269SOL    HW236441   1.868   2.126  17.619 -0.3650  2.7406  1.3985
 8270SOL     OW36442   3.575   0.844  10.996  0.1591  0.3063  0.1349
 8270SOL    HW136443   3.575   0.931  11.036 -2.9782 -0.0660  0.9745
 8270SOL    HW236444   3.574   0.871  10.904  1.2353  1.6767  0.5337
 8271SOL     OW36445   1.107   4.141   3.386  0.3524  0.1921  0.2652
 8271SOL    HW136446   1.136   4.083   3.456 -1.2051 -0.5842  0.2721
 8271SOL    HW236447   1.038   4.180   3.440 -1.0921 -2.9801  0.7396
 8272SOL     OW36448   4.593   0.229   0.168 -0.0154 -0.1389 -1.0098
 8272SOL    HW136449   4.502   0.222   0.140  0.0628 -1.9533 -0.8290
 8272SOL    HW236450   4.587   0.173   0.246  1.1248  0.1268 -0.7358
 8273SOL     OW36451   1.447   3.439   4.649 -0.7192 -0.0578 -0.1131
 8273SOL    HW136452   1.424   3.529   4.672 -1.5021 -0.4082  0.4880
 8273SOL    HW236453   1.542   3.435   4.649 -0.7988 -2.1047 -1.2341
 8274SOL     OW36454   2.458   1.457   1.848  0.1196  0.2730 -0.1054
 8274SOL    HW136455   2.422   1.435   1.762  0.4322  0.6672 -0.3373
 8274SOL    HW236456   2.533   1.514   1.831 -1.1343  1.5862 -1.1728
 8275SOL     OW36457   2.643   4.678   7.141 -0.1319 -0.0229 -0.6289
 8275SOL    HW136458   2.696   0.021   7.154  0.2784  0.1848 -3.4824
 8275SOL    HW236459   2.563   4.721   7.172  0.2445 -1.1571  1.9182
 8276SOL     OW36460   0.294   1.154  16.863 -0.4281  0.4280 -0.0784
 8276SOL    HW136461   0.292   1.227  16.801 -0.2378 -0.4634 -1.1266
 8276SOL    HW236462   0.222   1.097  16.834 -0.3632  0.0379  0.5430
 8277SOL     OW36463   0.570   3.837   1.644 -0.4574  0.0141  0.2221
 8277SOL    HW136464   0.494   3.781   1.627 -1.4201 -0.0280  4.6718
 8277SOL    HW236465   0.607   3.791   1.719  2.1595  1.7780  0.0040
 8278SOL     OW36466   1.342   4.477  10.885  0.0368 -0.1135 -0.5986
 8278SOL    HW136467   1.248   4.476  10.869 -0.2408 -1.7276  1.0815
 8278SOL    HW236468   1.369   4.489  10.794  1.1027  2.3276  0.0294
 8279SOL     OW36469   0.140   0.547   5.556  0.0895 -0.4961 -0.6280
 8279SOL    HW136470   0.131   0.503   5.640 -1.2949  2.0126  0.5411
 8279SOL    HW236471   0.197   0.615   5.590  1.5899 -2.1546  0.1592
 8280SOL     OW36472   3.754   4.349   8.249 -0.5832 -0.2980 -0.0631
 8280SOL    HW136473   3.796   4.291   8.186  1.0029  0.5836  0.1906
 8280SOL    HW236474   3.707   4.400   8.183  0.7618  1.9312  0.7481
 8281SOL     OW36475   3.036   1.664   4.004 -0.3005  0.1519 -0.4304
 8281SOL    HW136476   3.126   1.679   3.975  0.1467  0.5884  1.1728
 8281SOL    HW236477   3.035   1.733   4.071 -0.2864  0.2658 -0.5482
 8282SOL     OW36478   2.565   4.649   4.559  0.1342 -0.4706  0.6993
 8282SOL    HW136479   2.614   4.589   4.502  0.6068  0.9931 -0.4326
 8282SOL    HW236480   2.642   4.674   4.609  0.5513 -0.9068  0.2810
 8283SOL     OW36481   3.628   2.307   5.416 -0.2504  0.4164  0.6868
 8283SOL    HW136482   3.552   2.279   5.366  0.3485 -0.7804  0.4365
 8283SOL    HW236483   3.638   2.229   5.470  1.5699  1.9316  2.5500
 8284SOL     OW36484   1.852   2.574   5.403 -0.5449 -0.3873 -0.1743
 8284SOL    HW136485   1.856   2.547   5.311  1.7443 -1.4522  0.2494
 8284SOL    HW236486   1.928   2.526   5.436  1.2623  1.8091 -1.1274
 8285SOL     OW36487   2.977   3.601   4.616  0.1884 -0.7096 -0.5728
 8285SOL    HW136488   2.992   3.525   4.672  0.7294 -0.2487 -0.0933
 8285SOL    HW236489   2.887   3.617   4.647  0.4246 -1.9322  0.7727
 8286SOL     OW36490   2.825   1.518   7.631 -0.1952  0.7130 -0.9227
 8286SOL    HW136491   2.735   1.487   7.619 -0.1918  1.1715 -2.0922
 8286SOL    HW236492   2.869   1.434   7.647 -0.5696  0.6913 -0.0087
 8287SOL     OW36493   3.669   0.052  11.753  0.1280  0.3699  0.2990
 8287SOL    HW136494   3.575   0.032  11.762  0.4437 -1.0857  0.3939
 8287SOL    HW236495   3.663   0.147  11.752 -2.0598  0.2226 -1.6382
 8288SOL     OW36496   1.318   2.547   3.599 -0.3331 -0.0409  0.8822
 8288SOL    HW136497   1.282   2.568   3.685 -1.0573 -1.9019  1.0320
 8288SOL    HW236498   1.400   2.597   3.594 -0.6143  0.0665 -2.1839
 8289SOL     OW36499   2.165   3.206   4.248  0.1057 -0.2178 -0.2072
 8289SOL    HW136500   2.109   3.201   4.171 -0.8653  1.0058  0.4188
 8289SOL    HW236501   2.235   3.148   4.219 -1.2218 -1.8130 -0.2119
 8290SOL     OW36502   2.964   0.073   4.262  1.0450  0.0797 -0.0130
 8290SOL    HW136503   3.013   4.735   4.298  0.1505 -1.6193 -2.3450
 8290SOL    HW236504   2.902   0.023   4.210  0.1297  0.5311  0.6364
 8291SOL     OW36505   2.487   4.672  14.152  0.0206 -0.7500 -0.8616
 8291SOL    HW136506   2.514   4.584  14.126  0.7914 -0.6900 -0.2749
 8291SOL    HW236507   2.489   4.660  14.247 -0.8645  0.7450 -0.6465
 8292SOL     OW36508   3.535   4.365  10.211  0.2189 -0.7704  0.7636
 8292SOL    HW136509   3.445   4.359  10.180  0.0134  2.1987  0.7272
 8292SOL    HW236510   3.580   4.367  10.127 -0.7470  1.8987  0.2807
 8293SOL     OW36511   0.525   0.966   2.199  0.1908  0.4550 -0.1662
 8293SOL    HW136512   0.604   0.980   2.148  0.7187  0.9028  0.7613
 8293SOL    HW236513   0.561   0.923   2.277 -2.7992 -1.9807 -0.1015
 8294SOL     OW36514   3.018   2.484  12.115  0.4078  0.0114 -0.4188
 8294SOL    HW136515   3.017   2.479  12.020  1.2213  3.0313 -0.5916
 8294SOL    HW236516   3.100   2.438  12.137 -0.5163 -1.8151 -0.8579
 8295SOL     OW36517   2.376   2.716   6.055  0.3729  0.1034 -0.0521
 8295SOL    HW136518   2.462   2.731   6.015  0.7163 -1.9271 -0.0790
 8295SOL    HW236519   2.415   2.726   6.142  0.9100 -3.5598  0.1426
 8296SOL     OW36520   4.403   1.958  14.395 -0.9011  0.1798 -0.2574
 8296SOL    HW136521   4.332   1.955  14.459 -0.1801 -0.5449  0.4996
 8296SOL    HW236522   4.382   1.893  14.328 -0.9187  2.5432 -2.5511
 8297SOL     OW36523   1.308   2.929   8.345  0.6492  0.3208  0.1923
 8297SOL    HW136524   1.356   2.866   8.291  1.1045  0.8069  0.0309
 8297SOL    HW236525   1.335   2.909   8.435 -0.7579  0.3668  0.6274
 8298SOL     OW36526   3.817   0.671   4.051  0.1885  0.0938 -0.2106
 8298SOL    HW136527   3.737   0.633   4.013  0.4099 -0.4539 -0.1290
 8298SOL    HW236528   3.830   0.748   3.995  1.5724 -1.1088 -1.5240
 8299SOL     OW36529   2.170   3.376  14.265 -0.1989  0.6513  0.0638
 8299SOL    HW136530   2.214   3.379  14.180 -0.6722  1.5394 -0.1477
 8299SOL    HW236531   2.087   3.416  14.239  0.1413  0.4517 -1.3611
 8300SOL     OW36532   1.403   3.498   9.417  0.3568 -0.7987 -0.1515
 8300SOL    HW136533   1.358   3.457   9.491 -1.0122 -0.7331 -0.9485
 8300SOL    HW236534   1.474   3.540   9.465 -0.8406  0.9702  0.0618
 8301SOL     OW36535   1.989   0.294   6.535  0.3007  0.8548 -0.2722
 8301SOL    HW136536   2.012   0.303   6.442  0.9791 -0.1722 -0.1972
 8301SOL    HW236537   1.973   0.200   6.541 -2.2671  1.2607 -0.6835
 8302SOL     OW36538   0.146   3.683   2.865  0.0156  0.5359  0.0331
 8302SOL    HW136539   0.200   3.747   2.818  0.0045 -0.2010 -0.9821
 8302SOL    HW236540   0.146   3.610   2.804  0.8027 -0.2768  1.0122
 8303SOL     OW36541   4.245   1.610  15.601 -0.7679 -0.0446 -0.1720
 8303SOL    HW136542   4.243   1.538  15.665  3.5442 -0.2439 -0.2614
 8303SOL    HW236543   4.306   1.672  15.640  0.0580 -0.4947 -0.7767
 8304SOL     OW36544   4.065   2.682   7.281 -0.1425 -0.1228 -0.0554
 8304SOL    HW136545   4.043   2.711   7.370 -0.7307 -1.7056  0.3310
 8304SOL    HW236546   4.057   2.587   7.290 -2.5159  0.1037  0.3048
 8305SOL     OW36547   3.038   2.071   9.696 -0.2776  0.3290  0.2046
 8305SOL    HW136548   2.980   2.146   9.693 -1.5297 -0.7009 -1.7823
 8305SOL    HW236549   2.977   2.002   9.721  1.8762 -0.6399  2.8136
 8306SOL     OW36550   4.417   1.383   0.672  0.0440 -0.1404 -0.1058
 8306SOL    HW136551   4.458   1.455   0.624  0.2002 -1.3486 -1.7798
 8306SOL    HW236552   4.494   1.336   0.705 -0.4221 -1.1114 -0.3881
 8307SOL     OW36553   2.333   0.916  15.180  0.1974  0.4114  0.3659
 8307SOL    HW136554   2.344   0.921  15.085 -0.7837 -0.4334  0.2081
 8307SOL    HW236555   2.319   1.007  15.207  0.4087  0.6595 -0.3719
 8308SOL     OW36556   4.690   4.623   7.253  0.2092  0.2144  0.5434
 8308SOL    HW136557   4.701   4.548   7.312 -0.7089 -0.3666 -0.0243
 8308SOL    HW236558   4.637   4.590   7.180  0.4148  0.5427  0.2447
 8309SOL     OW36559   4.231   2.046   7.921 -0.7146  0.2056  0.3155
 8309SOL    HW136560   4.326   2.043   7.932 -0.8293 -0.7850  1.0109
 8309SOL    HW236561   4.207   1.953   7.921 -0.7939  0.2256 -0.5428
 8310SOL     OW36562   1.254   2.678   8.201  0.6294  0.0839 -0.7109
 8310SOL    HW136563   1.246   2.613   8.131 -0.7207 -0.4790 -0.0316
 8310SOL    HW236564   1.325   2.731   8.163 -1.2060  1.2050 -2.5550
 8311SOL     OW36565   1.153   2.541   8.430  0.2615  0.2519 -0.0258
 8311SOL    HW136566   1.107   2.506   8.353 -0.8693 -0.8634  1.1678
 8311SOL    HW236567   1.217   2.593   8.381  1.3330 -1.0937 -0.0589
 8312SOL     OW36568   0.942   0.673   2.071  0.2840 -0.0406  0.2174
 8312SOL    HW136569   0.880   0.606   2.099  1.7779 -1.9616 -1.0871
 8312SOL    HW236570   0.982   0.628   1.996  3.6505  2.2772  0.5975
 8313SOL     OW36571   3.712   0.630   6.465  0.3853  0.0945 -0.5356
 8313SOL    HW136572   3.733   0.616   6.557  0.3375 -3.8155 -1.1038
 8313SOL    HW236573   3.688   0.540   6.442  1.7518 -0.5911  0.7390
 8314SOL     OW36574   2.838   1.266   5.411 -0.1816  0.0101 -0.0647
 8314SOL    HW136575   2.871   1.336   5.355 -1.9986 -0.5909 -1.8992
 8314SOL    HW236576   2.772   1.311   5.465  0.2673 -0.5987  0.9835
 8315SOL     OW36577   1.353   1.975   9.394  0.2904  0.1718 -0.1099
 8315SOL    HW136578   1.342   2.060   9.437 -0.7650 -0.1207  0.1857
 8315SOL    HW236579   1.280   1.923   9.427  0.7413 -0.8272 -0.6752
 8316SOL     OW36580   4.530   1.084  14.571  0.0913  0.2401  0.1134
 8316SOL    HW136581   4.530   1.068  14.666  2.8224  2.2406  0.4490
 8316SOL    HW236582   4.441   1.052  14.558  0.6948 -1.9234  1.2469
 8317SOL     OW36583   1.404   0.008  16.801 -0.1624  0.2607  0.5473
 8317SOL    HW136584   1.367   0.085  16.758  1.1496  1.0082  0.7414
 8317SOL    HW236585   1.342   4.680  16.766  0.2106 -0.1863  0.6998
 8318SOL     OW36586   4.202   3.003  13.593 -0.0571 -0.0359 -0.0650
 8318SOL    HW136587   4.289   2.976  13.563  0.8390  1.2422  1.3693
 8318SOL    HW236588   4.155   2.927  13.558  0.9909  0.1451 -1.8210
 8319SOL     OW36589   1.984   3.505   4.420 -0.6049 -0.1288 -0.4711
 8319SOL    HW136590   1.930   3.583   4.432  0.3875  0.6851 -1.3546
 8319SOL    HW236591   2.059   3.527   4.365  1.6708  0.6332  2.9610
 8320SOL     OW36592   1.723   2.294   9.289  0.6167 -0.2537 -0.1294
 8320SOL    HW136593   1.786   2.357   9.253  0.7407 -0.1474  0.2810
 8320SOL    HW236594   1.666   2.277   9.213  1.5234  0.0691 -0.8797
 8321SOL     OW36595   0.078   2.813   6.240 -0.0840  0.0460 -0.3894
 8321SOL    HW136596   0.172   2.824   6.254 -0.4878  1.7156  0.9863
 8321SOL    HW236597   0.041   2.901   6.244  1.2000  0.5552  0.1933
 8322SOL     OW36598   3.802   4.428   2.057 -0.2641 -0.3633 -0.3004
 8322SOL    HW136599   3.888   4.407   2.018 -0.1724 -1.7184  0.6229
 8322SOL    HW236600   3.779   4.510   2.014  3.2672  0.8651  0.1712
 8323SOL     OW36601   1.008   1.871   4.594  0.9380 -0.3989  0.3997
 8323SOL    HW136602   0.957   1.807   4.644 -0.4945  0.8572  0.5354
 8323SOL    HW236603   0.988   1.952   4.641  2.2149  0.0360  0.1846
 8324SOL     OW36604   4.474   0.083   6.778 -0.2737 -0.8302  0.2097
 8324SOL    HW136605   4.451   4.734   6.816  2.2682 -1.9185 -0.6897
 8324SOL    HW236606   4.408   0.094   6.708 -0.2243 -0.1883  0.2644
 8325SOL     OW36607   4.098   4.535   3.411 -0.6499  0.7573  0.1936
 8325SOL    HW136608   4.003   4.535   3.411 -0.6423  2.4014  1.6757
 8325SOL    HW236609   4.104   4.450   3.367 -0.4387  0.1984  1.3046
 8326SOL     OW36610   2.350   3.703   6.317 -0.2510  0.2504 -0.2008
 8326SOL    HW136611   2.303   3.760   6.378 -0.9637  0.0894 -0.5979
 8326SOL    HW236612   2.396   3.643   6.375 -1.5418  0.5591  1.1509
 8327SOL     OW36613   3.148   4.607   5.612 -0.2259 -0.7579 -0.4059
 8327SOL    HW136614   3.225   4.663   5.616 -1.5203  1.1912 -2.5439
 8327SOL    HW236615   3.098   4.631   5.690  2.1257 -1.3412  1.2914
 8328SOL     OW36616   4.634   2.332   4.283  0.1838  0.2972  0.4300
 8328SOL    HW136617   4.703   2.294   4.229  0.1018 -0.0254  0.5507
 8328SOL    HW236618   4.596   2.250   4.315 -0.7511 -0.0681 -1.6019
 8329SOL     OW36619   1.719   3.758   4.736 -1.0085  0.2128 -0.5726
 8329SOL    HW136620   1.631   3.797   4.735 -0.6521  0.9840 -1.1469
 8329SOL    HW236621   1.734   3.749   4.642 -2.2191 -2.4973 -0.5074
 8330SOL     OW36622   3.666   2.649   6.150 -0.2770  0.6594  0.1804
 8330SOL    HW136623   3.687   2.575   6.094 -2.4750 -0.5682  0.9686
 8330SOL    HW236624   3.753   2.682   6.173 -0.0419  1.5758 -2.0907
 8331SOL     OW36625   3.111   2.410   2.167  0.1309  0.4045  0.1557
 8331SOL    HW136626   3.029   2.368   2.193 -0.7128  1.2076 -1.2285
 8331SOL    HW236627   3.128   2.387   2.075 -1.1172 -1.0855  0.2984
 8332SOL     OW36628   0.403   0.276   1.828  0.3867 -0.1223  0.3939
 8332SOL    HW136629   0.389   0.240   1.740 -1.2288 -2.2619  1.5244
 8332SOL    HW236630   0.363   0.362   1.815 -1.7501 -1.1422  0.2348
 8333SOL     OW36631   4.487   0.858   0.505 -0.0388  0.0534  0.4374
 8333SOL    HW136632   4.528   0.944   0.495  1.8894 -1.0818 -1.4687
 8333SOL    HW236633   4.432   0.846   0.428 -1.1288  0.7694  1.1076
 8334SOL     OW36634   1.155   1.940   4.946 -0.2295  0.0949 -0.0028
 8334SOL    HW136635   1.241   1.916   4.912  0.1350  1.2155  0.1530
 8334SOL    HW236636   1.184   1.974   5.031 -2.1287  0.9128  0.3288
 8335SOL     OW36637   2.474   1.110   7.250  0.5391  0.4328  0.4170
 8335SOL    HW136638   2.525   1.041   7.292  0.7265  1.0608  1.2091
 8335SOL    HW236639   2.504   1.092   7.160 -0.8172  0.4747 -0.0378
 8336SOL     OW36640   0.238   4.061   9.435 -0.1193  0.0724 -0.3169
 8336SOL    HW136641   0.297   4.039   9.362 -3.4886 -1.6888 -2.5200
 8336SOL    HW236642   0.173   3.991   9.441 -0.7457  0.5050 -1.9614
 8337SOL     OW36643   4.684   4.478   3.723 -0.1558 -0.4207 -0.7878
 8337SOL    HW136644   4.646   4.432   3.797  2.4750 -0.3710  0.5995
 8337SOL    HW236645   4.648   4.566   3.727  1.5694  0.2552  0.0294
 8338SOL     OW36646   3.206   3.778   4.706 -0.1391  0.0062  0.4012
 8338SOL    HW136647   3.129   3.819   4.746  0.2457  0.0105  1.1485
 8338SOL    HW236648   3.166   3.699   4.669  0.5175  0.2317 -0.7707
 8339SOL     OW36649   2.363   2.851   5.524 -0.0828  0.5737  0.3952
 8339SOL    HW136650   2.450   2.889   5.537 -0.0866  0.0950  1.8465
 8339SOL    HW236651   2.346   2.826   5.615 -1.6166  0.3216  0.0344
 8340SOL     OW36652   4.080   4.012   9.765  0.2054  0.0619  0.1926
 8340SOL    HW136653   3.995   3.990   9.727  1.3438 -1.7874 -1.3377
 8340SOL    HW236654   4.052   4.084   9.821 -0.3690  1.0187 -1.3305
 8341SOL     OW36655   2.208   2.059   4.974 -0.0683  0.3425  0.3536
 8341SOL    HW136656   2.118   2.048   5.005  0.2012  0.9837  1.3717
 8341SOL    HW236657   2.252   2.041   5.058 -1.9407  3.3664  1.9878
 8342SOL     OW36658   4.678   0.203   5.549  0.2998  0.2869  0.5523
 8342SOL    HW136659   4.723   0.244   5.475  0.2397 -1.5015 -0.4851
 8342SOL    HW236660   4.717   0.251   5.622 -2.3980  0.9965  1.4979
 8343SOL     OW36661   2.979   1.133   1.774  0.2304 -0.2946 -0.0681
 8343SOL    HW136662   2.957   1.222   1.802  0.1344 -0.2437 -0.2998
 8343SOL    HW236663   2.930   1.073   1.830 -1.5356  0.1205 -1.1627
 8344SOL     OW36664   0.883   4.500  15.393  0.6693  0.0801  0.0776
 8344SOL    HW136665   0.852   4.409  15.391  1.6306 -0.2840  1.3154
 8344SOL    HW236666   0.876   4.509  15.298  0.8777  0.4102  0.0945
 8345SOL     OW36667   2.576   1.806   2.383  0.0220  0.3539  0.2771
 8345SOL    HW136668   2.581   1.732   2.322  0.0915  0.3115  0.3346
 8345SOL    HW236669   2.668   1.823   2.404  0.4250 -0.9551 -0.4066
 8346SOL     OW36670   0.775   0.217   5.501 -0.0334 -0.0346  0.7552
 8346SOL    HW136671   0.744   0.272   5.429  0.9036 -0.8283 -0.2665
 8346SOL    HW236672   0.703   0.231   5.562  0.3373  2.6343  0.5786
 8347SOL     OW36673   0.090   4.303   8.510 -0.1127 -0.7696 -0.0138
 8347SOL    HW136674   0.172   4.335   8.547 -1.5544 -0.3107  2.8171
 8347SOL    HW236675   0.115   4.212   8.495  2.6610 -0.0890  0.4918
 8348SOL     OW36676   4.403   2.364   2.695  0.6111  0.0357 -0.1585
 8348SOL    HW136677   4.347   2.315   2.635 -0.6320  1.0902  0.1519
 8348SOL    HW236678   4.481   2.308   2.703 -0.4113 -1.3499  0.0558
 8349SOL     OW36679   4.300   2.953   6.504  0.2522 -0.1513 -0.4427
 8349SOL    HW136680   4.319   2.997   6.421 -1.7083  2.3389  0.4289
 8349SOL    HW236681   4.331   3.017   6.567 -3.8407  1.2474  0.1822
 8350SOL     OW36682   2.830   2.557   4.445 -0.1677 -0.1260 -0.4276
 8350SOL    HW136683   2.739   2.558   4.412 -0.1648  1.6823 -0.3789
 8350SOL    HW236684   2.834   2.650   4.465 -0.0677  0.5370 -3.5037
 8351SOL     OW36685   0.012   0.858  17.520  0.2250 -0.0230 -0.2672
 8351SOL    HW136686   0.063   0.881  17.443 -1.2290 -1.3200 -1.6024
 8351SOL    HW236687   4.662   0.882  17.485 -0.9107 -1.7834  1.2975
 8352SOL     OW36688   3.999   0.063   8.034  0.7397 -0.1795  0.7640
 8352SOL    HW136689   4.055   0.048   7.957  0.1056 -3.3727  0.9136
 8352SOL    HW236690   3.969   4.709   8.053 -0.5559 -0.3969 -2.2681
 8353SOL     OW36691   3.480   3.432   3.774  0.3473  0.3591  0.0087
 8353SOL    HW136692   3.568   3.410   3.805  0.6303 -0.6567 -1.4992
 8353SOL    HW236693   3.480   3.516   3.729  1.9102  0.9120  1.0626
 8354SOL     OW36694   1.876   4.084  13.550  0.0077  0.2023 -0.1795
 8354SOL    HW136695   1.924   4.167  13.550  2.1172 -1.0174 -1.2969
 8354SOL    HW236696   1.907   4.041  13.630 -0.6859  0.7405  0.3759
 8355SOL     OW36697   2.497   2.905   6.953  0.2975  0.3649  0.2201
 8355SOL    HW136698   2.507   2.877   7.044 -0.8445  0.2617  0.3194
 8355SOL    HW236699   2.528   2.995   6.953  2.0555 -0.2327 -0.8710
 8356SOL     OW36700   1.620   4.291   7.570 -0.1163 -0.3957 -0.6851
 8356SOL    HW136701   1.560   4.282   7.644 -1.9889 -0.8402 -2.2360
 8356SOL    HW236702   1.592   4.217   7.516 -0.3695 -1.1133  0.4281
 8357SOL     OW36703   1.862   2.404  15.387 -0.2766 -0.2851  0.4312
 8357SOL    HW136704   1.799   2.477  15.381  0.6602  0.6134  1.6197
 8357SOL    HW236705   1.929   2.438  15.446  0.5356  1.9085 -1.7409
 8358SOL     OW36706   0.230   3.920  13.492  0.6052 -0.4008  0.1637
 8358SOL    HW136707   0.135   3.909  13.503  0.8060 -3.3764 -0.8861
 8358SOL    HW236708   0.264   3.844  13.540  2.2809 -1.0101 -1.9624
 8359SOL     OW36709   2.196   0.709   9.892  0.2152 -0.5577  0.2697
 8359SOL    HW136710   2.231   0.737   9.807 -0.9560 -0.0462 -0.0417
 8359SOL    HW236711   2.255   0.636   9.912 -0.9324 -1.5156  0.2058
 8360SOL     OW36712   4.148   0.941   6.407  0.1064 -0.2380  0.0540
 8360SOL    HW136713   4.152   1.037   6.416  0.8558 -0.1135 -1.5676
 8360SOL    HW236714   4.062   0.924   6.444 -1.6931  1.3867 -3.3434
 8361SOL     OW36715   0.305   4.466   7.327 -0.5181 -0.1850  0.1672
 8361SOL    HW136716   0.282   4.479   7.419  1.7885  2.0741  0.4224
 8361SOL    HW236717   0.242   4.528   7.293 -1.8174 -1.1143  0.8708
 8362SOL     OW36718   3.381   0.965   7.123  0.4835 -0.7346 -0.8277
 8362SOL    HW136719   3.447   1.034   7.125 -1.8167  1.3714  2.1611
 8362SOL    HW236720   3.401   0.930   7.036  0.2873 -2.5603 -0.1286
 8363SOL     OW36721   1.084   2.013   9.699  0.0058 -0.1593 -0.0112
 8363SOL    HW136722   1.016   2.080   9.689  0.6329  0.4169 -0.3730
 8363SOL    HW236723   1.162   2.064   9.719  0.0835  1.1048 -3.4225
 8364SOL     OW36724   1.764   1.687   4.045  0.2543  0.0087  0.2361
 8364SOL    HW136725   1.777   1.593   4.051 -0.5135 -0.1324 -0.3040
 8364SOL    HW236726   1.695   1.692   4.111  1.4720 -2.0753  1.6854
 8365SOL     OW36727   2.972   1.666  13.228 -0.0766  0.4238 -0.4757
 8365SOL    HW136728   2.885   1.689  13.197 -0.8459 -1.7613  0.0551
 8365SOL    HW236729   3.028   1.701  13.158  1.3255  3.2070  2.0171
 8366SOL     OW36730   0.200   4.079  11.099  0.1780  0.9449 -0.1621
 8366SOL    HW136731   0.250   4.005  11.065 -0.3651  1.0064 -1.1032
 8366SOL    HW236732   0.147   4.033  11.164 -1.8383  1.1120 -1.6750
 8367SOL     OW36733   0.679   3.059   9.718  0.0486 -0.3852 -0.0769
 8367SOL    HW136734   0.669   3.118   9.643  0.1360 -0.9985 -0.5723
 8367SOL    HW236735   0.688   3.125   9.787 -0.9643 -1.6667  1.2804
 8368SOL     OW36736   2.112   0.008   9.151  0.0540 -0.0228 -0.4008
 8368SOL    HW136737   2.113   0.017   9.247 -2.6217 -1.7540 -0.2124
 8368SOL    HW236738   2.202   4.727   9.123  0.0090  1.1465 -1.2407
 8369SOL     OW36739   1.375   4.097   1.694 -0.3506  0.2885 -0.4339
 8369SOL    HW136740   1.463   4.126   1.719 -1.0987  2.8349 -0.7786
 8369SOL    HW236741   1.388   4.097   1.600 -2.4396 -0.1328 -0.7327
 8370SOL     OW36742   0.225   4.538   3.602  0.7922 -0.3304 -0.5060
 8370SOL    HW136743   0.162   4.533   3.674 -0.1235  0.9281 -1.2193
 8370SOL    HW236744   0.195   4.468   3.544 -1.0257 -1.2203  1.4795
 8371SOL     OW36745   2.561   2.874   7.571 -0.0369 -0.1096 -1.1121
 8371SOL    HW136746   2.543   2.781   7.589 -1.6555  0.1814 -1.1769
 8371SOL    HW236747   2.542   2.906   7.659  0.7835  0.4655 -1.1510
 8372SOL     OW36748   4.113   3.287   6.219 -0.4713 -0.8599 -0.6444
 8372SOL    HW136749   4.137   3.377   6.199 -2.5542 -0.7961 -2.9266
 8372SOL    HW236750   4.046   3.302   6.285 -0.0462 -1.9209  0.0400
 8373SOL     OW36751   3.082   4.666   6.877  0.4139  0.8692 -0.2071
 8373SOL    HW136752   3.143   4.691   6.946  1.4295 -0.2084 -0.7112
 8373SOL    HW236753   3.007   4.634   6.927 -0.9123  1.3866 -1.8610
 8374SOL     OW36754   2.082   0.952   5.524 -0.1498 -0.0144  0.0703
 8374SOL    HW136755   2.067   1.022   5.587 -0.3724 -0.5915  0.6581
 8374SOL    HW236756   2.149   0.898   5.566  1.4823 -0.7033 -3.3855
 8375SOL     OW36757   2.703   0.623  10.038 -0.0179  0.4036 -0.0700
 8375SOL    HW136758   2.676   0.582   9.956 -3.2918 -0.4043  1.4085
 8375SOL    HW236759   2.654   0.705  10.044 -1.6781 -0.5610 -0.4340
 8376SOL     OW36760   0.672   0.880   2.423  0.4423 -0.1824  0.1910
 8376SOL    HW136761   0.732   0.848   2.491  1.6592  0.0777 -0.7615
 8376SOL    HW236762   0.695   0.972   2.415 -1.4853  0.3250  0.3953
 8377SOL     OW36763   0.308   0.217   6.927  0.1790  0.6104 -0.1031
 8377SOL    HW136764   0.291   0.151   6.995  0.0952  3.1554  2.3753
 8377SOL    HW236765   0.346   0.156   6.864  3.0354  2.9761 -0.7031
 8378SOL     OW36766   0.126   4.220   1.654  0.1504 -0.1131  0.1358
 8378SOL    HW136767   0.199   4.160   1.639  1.3172  0.7653  2.1630
 8378SOL    HW236768   0.083   4.209   1.570 -1.7357  0.8665  0.9768
 8379SOL     OW36769   0.034   4.718   1.158 -0.5097 -0.4247  0.7146
 8379SOL    HW136770   0.002   0.071   1.177 -0.9189 -0.7199  1.4077
 8379SOL    HW236771   0.122   4.723   1.121 -0.6448  0.6821  0.5370
 8380SOL     OW36772   2.876   1.783  17.320  0.2299 -0.1166 -0.5551
 8380SOL    HW136773   2.879   1.777  17.415  1.0319  0.9551 -0.5052
 8380SOL    HW236774   2.808   1.850  17.307 -1.3849 -1.7648 -0.4951
 8381SOL     OW36775   2.103   1.734   2.250 -0.0043  0.6743 -0.0744
 8381SOL    HW136776   2.091   1.756   2.342  0.3963  0.5704  0.0031
 8381SOL    HW236777   2.041   1.794   2.209  0.9710  1.7755  0.0506
 8382SOL     OW36778   3.532   2.463   7.436 -0.8221  0.2328  0.7083
 8382SOL    HW136779   3.625   2.482   7.422 -0.2312 -3.2605 -0.3194
 8382SOL    HW236780   3.498   2.547   7.466 -0.7748  0.7642 -0.7526
 8383SOL     OW36781   3.615   4.468  16.077  0.3734  0.1012  0.0476
 8383SOL    HW136782   3.576   4.485  15.992 -1.8950 -0.3192  1.0179
 8383SOL    HW236783   3.545   4.431  16.131 -1.6181  1.8684 -1.3488
 8384SOL     OW36784   2.627   3.873   3.378  0.0388  0.3459  0.1112
 8384SOL    HW136785   2.640   3.787   3.417  1.3034 -0.6142 -2.3836
 8384SOL    HW236786   2.543   3.861   3.335  0.1808  0.1730 -0.1183
 8385SOL     OW36787   0.271   2.879   2.196  0.6173  0.5324 -0.1434
 8385SOL    HW136788   0.357   2.914   2.173  0.4916  1.4032  0.6973
 8385SOL    HW236789   0.228   2.904   2.114  0.8193  0.6107 -0.2245
 8386SOL     OW36790   4.567   1.642   9.826  0.0510 -0.3760 -0.0799
 8386SOL    HW136791   4.583   1.561   9.777  1.8419  0.2997 -0.6471
 8386SOL    HW236792   4.548   1.601   9.910  0.1836 -2.3824 -1.0174
 8387SOL     OW36793   1.360   1.204  14.371  0.1784  0.4033  0.3127
 8387SOL    HW136794   1.349   1.115  14.336  2.4411  0.3418 -0.3163
 8387SOL    HW236795   1.402   1.252  14.299  0.4092 -1.4553 -0.8097
 8388SOL     OW36796   4.343   1.638  11.742  0.9387 -0.7430 -0.0474
 8388SOL    HW136797   4.280   1.609  11.676  0.2005  2.4237 -0.7567
 8388SOL    HW236798   4.296   1.703  11.795  1.1741  1.6907 -2.8148
 8389SOL     OW36799   3.536   0.124   0.982 -0.0159  0.3037 -0.0076
 8389SOL    HW136800   3.492   0.178   1.048 -1.0099  0.3642 -0.7341
 8389SOL    HW236801   3.553   0.191   0.916  1.4336 -0.2528 -0.2109
 8390SOL     OW36802   3.992   0.999   0.859 -0.3638  0.0894  0.4676
 8390SOL    HW136803   3.946   0.991   0.775  0.4306  1.2755 -0.0791
 8390SOL    HW236804   3.937   0.969   0.931  1.7258  0.9822  2.4199
 8391SOL     OW36805   0.529   0.968  12.644 -0.0566 -0.3157  0.3162
 8391SOL    HW136806   0.453   0.960  12.587  0.4463  1.3217 -0.5756
 8391SOL    HW236807   0.537   1.063  12.655  0.0496 -0.3516  0.5476
 8392SOL     OW36808   0.107   0.111  11.071 -0.2148  0.0800  0.3077
 8392SOL    HW136809   0.167   0.123  10.997 -0.9127 -3.7754 -0.8718
 8392SOL    HW236810   0.071   0.200  11.080  2.9614  1.4449 -0.3499
 8393SOL     OW36811   1.511   1.199   9.109 -0.1651  0.2809 -0.4087
 8393SOL    HW136812   1.584   1.183   9.169 -1.9273  3.0340  2.4565
 8393SOL    HW236813   1.460   1.121   9.131 -0.0113  0.7507  1.5870
 8394SOL     OW36814   4.311   2.385   5.943 -0.2504  0.2838  0.3149
 8394SOL    HW136815   4.368   2.409   5.870 -1.3801 -0.1625 -0.7192
 8394SOL    HW236816   4.363   2.318   5.988 -1.2244 -0.7928 -0.1585
 8395SOL     OW36817   1.278   3.421   7.604 -0.1538 -0.1560  0.3596
 8395SOL    HW136818   1.338   3.449   7.534  0.1629  0.8271  1.0389
 8395SOL    HW236819   1.259   3.331   7.576 -0.4044 -0.3431  1.1492
 8396SOL     OW36820   0.794   4.247  15.436  0.0011 -0.0348  0.5076
 8396SOL    HW136821   0.714   4.194  15.440 -0.1161  0.1153  0.1635
 8396SOL    HW236822   0.831   4.250  15.524 -1.7232 -0.4793  1.2464
 8397SOL     OW36823   2.211   1.902  14.816 -0.0722  0.0849 -0.1231
 8397SOL    HW136824   2.202   1.964  14.744 -1.7942 -2.4821 -2.1118
 8397SOL    HW236825   2.266   1.835  14.775  0.9155  1.1666 -0.5350
 8398SOL     OW36826   2.571   3.452   8.500  0.4416 -0.3459  0.6521
 8398SOL    HW136827   2.595   3.439   8.592 -1.4638 -0.9851  1.0569
 8398SOL    HW236828   2.593   3.544   8.485  0.5711 -0.6983 -1.2502
 8399SOL     OW36829   1.043   4.574   2.577 -0.0219 -0.1620 -0.2014
 8399SOL    HW136830   1.068   4.628   2.502 -1.6720  1.1520  0.1928
 8399SOL    HW236831   0.988   4.502   2.544 -0.7885  0.5206 -0.4233
 8400SOL     OW36832   4.652   3.030   8.702  0.3276 -0.1879 -0.1598
 8400SOL    HW136833   4.713   3.064   8.636  0.5563 -1.8779 -0.8203
 8400SOL    HW236834   4.678   3.084   8.776  0.6979 -0.9271  0.2504
 8401SOL     OW36835   0.085   2.706   3.732  0.0576  0.2375  0.6426
 8401SOL    HW136836   0.177   2.694   3.755  0.0825  1.9237  1.3810
 8401SOL    HW236837   0.090   2.653   3.652  1.1154  1.9154 -0.3868
 8402SOL     OW36838   2.623   1.086   6.994  0.0503 -0.2786 -0.0326
 8402SOL    HW136839   2.603   1.160   6.937  0.9386  1.4466  1.8986
 8402SOL    HW236840   2.711   1.102   7.026  0.0373  0.3251 -0.3021
 8403SOL     OW36841   4.723   3.181   5.057 -1.0162 -0.3264 -0.2977
 8403SOL    HW136842   4.682   3.117   5.116  2.2706 -1.3439  0.8698
 8403SOL    HW236843   4.680   3.260   5.088  0.8004  0.5118  0.0642
 8404SOL     OW36844   3.613   2.823   3.156 -0.4715 -0.6213  0.0116
 8404SOL    HW136845   3.605   2.797   3.064 -1.2993 -1.3713  0.2943
 8404SOL    HW236846   3.629   2.917   3.160 -0.0490 -0.6803 -0.2294
 8405SOL     OW36847   4.336   2.032   7.216 -0.1133 -0.0595 -0.3395
 8405SOL    HW136848   4.298   1.968   7.277 -1.7031  1.5686  0.3745
 8405SOL    HW236849   4.406   2.080   7.261 -0.2697 -2.1422  2.1279
 8406SOL     OW36850   2.444   0.581  15.896 -0.4762  0.3515 -0.0210
 8406SOL    HW136851   2.396   0.572  15.978 -0.4829  1.7526  0.1272
 8406SOL    HW236852   2.499   0.659  15.897  0.6008 -0.4325  1.3399
 8407SOL     OW36853   1.395   1.775  16.266  0.3282 -0.6433 -0.3138
 8407SOL    HW136854   1.408   1.870  16.263  1.4621 -0.8297 -1.2300
 8407SOL    HW236855   1.319   1.771  16.323 -0.1839 -0.9782 -1.0241
 8408SOL     OW36856   2.096   4.050   8.643  0.3347 -0.1841 -0.0831
 8408SOL    HW136857   2.072   4.030   8.734 -0.1064 -2.9216 -0.7853
 8408SOL    HW236858   2.191   4.039   8.643  0.3083 -0.4525  0.3759
 8409SOL     OW36859   0.984   1.951   8.866 -0.3703 -0.1512 -0.0938
 8409SOL    HW136860   1.025   1.865   8.876  0.7299  0.2985 -0.8748
 8409SOL    HW236861   0.995   1.982   8.956  1.3766  2.6383 -1.2931
 8410SOL     OW36862   0.915   3.426   5.874 -1.2646 -0.2678  0.2615
 8410SOL    HW136863   0.983   3.360   5.888 -0.7202  0.9864  3.4077
 8410SOL    HW236864   0.845   3.374   5.834 -1.9768  1.9475 -1.4124
 8411SOL     OW36865   3.187   0.591   2.372  0.0074 -0.4500 -0.6317
 8411SOL    HW136866   3.175   0.626   2.460 -0.1199 -1.2013 -0.3477
 8411SOL    HW236867   3.194   0.498   2.394 -2.3700 -0.3722  0.5518
 8412SOL     OW36868   1.247   3.513  17.460  0.2762 -0.5337 -0.7137
 8412SOL    HW136869   1.251   3.605  17.485  1.2402 -0.7425 -0.1048
 8412SOL    HW236870   1.320   3.497  17.401 -0.2238 -1.1822 -1.1594
 8413SOL     OW36871   3.973   0.205   8.517  0.0924 -0.0643  0.0580
 8413SOL    HW136872   3.931   0.181   8.435  0.7941 -0.5591 -0.1610
 8413SOL    HW236873   3.913   0.177   8.586  1.3919 -2.6097  0.1910
 8414SOL     OW36874   0.785   2.777  13.952 -0.1852 -0.4854 -0.0476
 8414SOL    HW136875   0.706   2.830  13.960  1.2290  1.8341 -1.5636
 8414SOL    HW236876   0.798   2.783  13.857 -0.3660 -0.4954 -0.0731
 8415SOL     OW36877   1.107   1.694   8.359  0.5623  0.5174  0.2077
 8415SOL    HW136878   1.190   1.703   8.406  0.0010  1.1540  1.0709
 8415SOL    HW236879   1.102   1.767   8.298  2.3949 -1.0687 -1.8465
 8416SOL     OW36880   3.278   0.041  15.422 -0.4056 -0.2261  0.7887
 8416SOL    HW136881   3.247   0.127  15.393  1.2362 -0.7181 -2.4312
 8416SOL    HW236882   3.204   0.019  15.478  0.2380 -0.7511  1.4420
 8417SOL     OW36883   4.627   1.043   5.541  0.1389 -0.0582  0.2504
 8417SOL    HW136884   4.564   0.979   5.508  0.2908  1.2097 -2.4708
 8417SOL    HW236885   4.693   0.986   5.580 -0.6659 -1.4116 -0.3804
 8418SOL     OW36886   2.514   1.969  16.941 -0.3328  0.0723  0.7882
 8418SOL    HW136887   2.470   1.885  16.928  3.1715 -1.4405 -1.4749
 8418SOL    HW236888   2.440   2.025  16.963 -2.6621 -2.5621 -0.2067
 8419SOL     OW36889   3.365   4.313   3.511  0.7666  0.3463  0.2956
 8419SOL    HW136890   3.330   4.360   3.586 -0.4360  0.2730 -0.2202
 8419SOL    HW236891   3.310   4.344   3.439  1.3088 -1.7562 -1.0344
 8420SOL     OW36892   0.645   2.187  16.455  0.0264 -0.1737 -0.1700
 8420SOL    HW136893   0.735   2.214  16.435 -0.9436  2.8067 -0.5443
 8420SOL    HW236894   0.593   2.267  16.465 -2.1036 -1.3100 -2.2386
 8421SOL     OW36895   2.362   3.725  15.548 -0.2859 -0.0580 -0.0395
 8421SOL    HW136896   2.351   3.644  15.497 -0.4193 -0.0738  0.0133
 8421SOL    HW236897   2.446   3.760  15.519 -1.2768  0.2958 -2.5661
 8422SOL     OW36898   1.495   1.984   5.871  0.5667 -0.1279  0.2841
 8422SOL    HW136899   1.506   2.073   5.902  2.4459 -0.1096 -0.4648
 8422SOL    HW236900   1.512   1.934   5.950  0.8868 -2.0354 -0.9784
 8423SOL     OW36901   2.799   4.028   7.759  0.1887  0.1942 -0.1667
 8423SOL    HW136902   2.719   4.075   7.781  0.1593  0.2759 -0.4463
 8423SOL    HW236903   2.839   4.083   7.691  1.3360 -2.7007 -1.8608
 8424SOL     OW36904   1.253   4.588   9.647  0.6379 -0.0164  0.5032
 8424SOL    HW136905   1.194   4.647   9.599 -0.2575 -1.3349 -0.0307
 8424SOL    HW236906   1.341   4.594   9.610  1.2791 -0.8907  1.8705
 8425SOL     OW36907   1.786   0.548   2.559  0.0050 -0.1033 -0.0558
 8425SOL    HW136908   1.717   0.521   2.499  0.7326  2.7298 -2.1376
 8425SOL    HW236909   1.747   0.508   2.637 -0.1007  0.4803  0.1966
 8426SOL     OW36910   2.356   3.438   9.133  0.4749 -0.4349  0.4284
 8426SOL    HW136911   2.441   3.480   9.124  0.7301 -1.3268 -1.2685
 8426SOL    HW236912   2.343   3.457   9.226  2.3380  1.2324  0.3373
 8427SOL     OW36913   1.570   1.778   7.391  0.1108  0.1397  0.5574
 8427SOL    HW136914   1.513   1.710   7.429  0.9604 -0.8000  0.1558
 8427SOL    HW236915   1.515   1.803   7.317 -0.1686  1.3444  1.1797
 8428SOL     OW36916   1.627   0.571  17.199  0.2498 -0.2987  0.0752
 8428SOL    HW136917   1.560   0.626  17.242 -1.1813 -0.7282 -1.5941
 8428SOL    HW236918   1.668   0.623  17.130 -2.0261 -1.1906 -1.9326
 8429SOL     OW36919   2.954   4.153   5.114 -0.3850 -0.4712 -0.2196
 8429SOL    HW136920   3.014   4.110   5.053 -2.3291 -1.1113 -1.6357
 8429SOL    HW236921   3.002   4.148   5.197 -0.2534  0.4237 -0.2444
 8430SOL     OW36922   1.487   1.324  11.352  0.1782  0.2358  0.4391
 8430SOL    HW136923   1.489   1.253  11.288  1.6674  1.2261 -0.6239
 8430SOL    HW236924   1.504   1.396  11.292 -0.8287  0.2418  0.1589
 8431SOL     OW36925   3.577   1.529   4.226  0.1405  0.1102 -0.4413
 8431SOL    HW136926   3.491   1.566   4.208  0.2094 -0.1786 -1.3338
 8431SOL    HW236927   3.592   1.569   4.312  2.9068 -0.5253 -0.6510
 8432SOL     OW36928   3.889   0.548   0.622 -0.1523  0.4179 -0.1933
 8432SOL    HW136929   3.940   0.478   0.582 -2.3372 -1.9599  1.1191
 8432SOL    HW236930   3.938   0.629   0.606 -0.8484  0.5638 -1.5228
 8433SOL     OW36931   0.489   4.100   4.009 -0.1313  0.3420 -0.9287
 8433SOL    HW136932   0.525   4.185   3.985  2.7408 -0.2030  1.4994
 8433SOL    HW236933   0.430   4.068   3.941 -0.5556  2.3401 -1.4888
 8434SOL     OW36934   1.591   2.090   7.696  0.3727 -0.7807  0.0004
 8434SOL    HW136935   1.521   2.035   7.661  0.6631 -1.5400  0.6222
 8434SOL    HW236936   1.571   2.101   7.789  0.7814  0.4354 -0.0603
 8435SOL     OW36937   2.229   1.060   3.519  0.0531  0.0946  0.2448
 8435SOL    HW136938   2.234   1.078   3.425  3.3586 -0.0868  0.3866
 8435SOL    HW236939   2.308   1.008   3.532  1.3839  1.9245 -0.4530
 8436SOL     OW36940   4.272   2.412   7.179  0.9534  0.1172  0.5800
 8436SOL    HW136941   4.306   2.481   7.121 -0.4616  0.3451  0.0264
 8436SOL    HW236942   4.319   2.336   7.144  0.5707  1.4106 -2.7804
 8437SOL     OW36943   4.137   0.097  14.985 -0.0042 -1.0677 -0.1622
 8437SOL    HW136944   4.141   0.191  15.001  1.9075 -1.3020  0.7894
 8437SOL    HW236945   4.043   0.085  14.976 -0.1408 -0.3786  0.3274
 8438SOL     OW36946   2.554   1.520  10.980 -0.6196 -0.4386  0.2267
 8438SOL    HW136947   2.498   1.592  10.950  0.9055  0.7742  0.2596
 8438SOL    HW236948   2.627   1.568  11.020 -0.5217 -0.4147  0.0216
 8439SOL     OW36949   2.168   4.204   7.051 -0.1255  0.0436 -0.0048
 8439SOL    HW136950   2.184   4.197   6.957  0.2875  2.5961 -0.1149
 8439SOL    HW236951   2.246   4.251   7.081 -0.7019 -0.4012  2.1701
 8440SOL     OW36952   2.849   4.419   6.712  0.2234 -0.4365  0.1376
 8440SOL    HW136953   2.870   4.369   6.633 -0.7381 -0.7281  0.0675
 8440SOL    HW236954   2.828   4.505   6.675  0.8521 -0.4343 -0.2040
 8441SOL     OW36955   0.431   4.530   9.378 -0.1810  0.3449 -0.1702
 8441SOL    HW136956   0.432   4.614   9.332 -0.4058 -0.1863 -1.1494
 8441SOL    HW236957   0.422   4.567   9.466  1.8666 -0.5000  0.3852
 8442SOL     OW36958   3.561   0.335   5.252 -0.0299  0.2118 -0.3815
 8442SOL    HW136959   3.509   0.260   5.223  3.1094 -1.5346 -1.4409
 8442SOL    HW236960   3.630   0.335   5.186  1.4930 -1.4946  1.2279
 8443SOL     OW36961   3.097   1.904  16.965  0.2104  0.2818  0.2603
 8443SOL    HW136962   3.128   1.891  17.055 -0.0966 -1.3879  0.1239
 8443SOL    HW236963   3.018   1.953  16.989  0.2483  0.1492  0.6588
 8444SOL     OW36964   4.559   2.498  12.893 -0.5190  0.2096 -0.2455
 8444SOL    HW136965   4.647   2.536  12.887 -0.7268  0.6518 -0.4683
 8444SOL    HW236966   4.582   2.406  12.877  0.8094  0.6039 -0.5736
 8445SOL     OW36967   2.191   3.739  17.061  0.4748 -0.2932 -0.1036
 8445SOL    HW136968   2.236   3.819  17.086  0.9470 -0.2702 -1.0304
 8445SOL    HW236969   2.134   3.751  16.984 -0.2266  1.5189  0.7008
 8446SOL     OW36970   2.314   0.278   8.888  0.3877  0.0801  0.1560
 8446SOL    HW136971   2.248   0.345   8.909 -0.8308 -1.4121  1.0678
 8446SOL    HW236972   2.304   0.269   8.794  3.4041 -1.0099 -0.0410
 8447SOL     OW36973   1.336   0.464   9.352 -0.0817 -0.1632  0.4789
 8447SOL    HW136974   1.271   0.400   9.322  0.8972 -2.0162  2.2426
 8447SOL    HW236975   1.338   0.515   9.271  0.1039 -0.5199  0.2569
 8448SOL     OW36976   4.577   1.646   2.387 -0.2894 -0.3444  0.5706
 8448SOL    HW136977   4.589   1.556   2.419 -0.0824  0.0094  1.4823
 8448SOL    HW236978   4.670   1.669   2.392 -1.2355  3.3574  1.0283
 8449SOL     OW36979   2.629   4.631   3.903  0.1125 -0.0475  0.3363
 8449SOL    HW136980   2.570   4.556   3.914  0.3720 -0.0935  1.3453
 8449SOL    HW236981   2.588   4.697   3.959 -2.2206 -0.4471 -0.8846
 8450SOL     OW36982   1.220   1.692  15.777 -0.0507 -0.2680 -0.5633
 8450SOL    HW136983   1.124   1.702  15.772 -0.0714  1.0842  3.0326
 8450SOL    HW236984   1.253   1.758  15.717 -1.4451  2.1581  1.3334
 8451SOL     OW36985   0.788   3.558  11.289 -0.3402 -0.3200 -0.7827
 8451SOL    HW136986   0.762   3.526  11.203 -0.4328 -1.2156 -0.4266
 8451SOL    HW236987   0.754   3.480  11.333 -0.8648  0.1967 -0.2806
 8452SOL     OW36988   0.027   3.720   7.258 -0.1273 -0.3031 -0.4877
 8452SOL    HW136989   0.021   3.811   7.228 -3.7757 -0.1883  0.5428
 8452SOL    HW236990   0.119   3.702   7.277 -0.6194 -0.1765  1.9691
 8453SOL     OW36991   4.146   4.532   7.107 -0.4786  0.1349  0.3293
 8453SOL    HW136992   4.210   4.603   7.104 -0.4900  0.0837 -1.0300
 8453SOL    HW236993   4.087   4.562   7.038 -1.4435 -3.0881 -0.2743
 8454SOL     OW36994   2.051   4.727   4.348  0.8164 -0.9937 -0.0525
 8454SOL    HW136995   2.074   4.638   4.376  1.3806 -0.7590  0.2301
 8454SOL    HW236996   2.009   0.020   4.430  1.1031 -0.9395  0.0748
 8455SOL     OW36997   1.283   4.497   8.067 -0.1998  0.4056  0.8140
 8455SOL    HW136998   1.268   4.412   8.108 -2.9469  0.7632  0.5335
 8455SOL    HW236999   1.213   4.543   8.114  0.1784 -0.3776  2.1448
 8456SOL     OW37000   0.444   4.452  12.109 -0.3483 -0.1122 -0.2128
 8456SOL    HW137001   0.475   4.538  12.080  1.3378 -0.5796  0.1909
 8456SOL    HW237002   0.525   4.426  12.153  0.1509  1.3023 -0.2962
 8457SOL     OW37003   2.864   0.232   2.320  0.0200  0.2199  0.1228
 8457SOL    HW137004   2.781   0.225   2.367 -0.6038  0.4835 -0.9208
 8457SOL    HW237005   2.842   0.202   2.232  1.3607  0.3408 -0.2552
 8458SOL     OW37006   1.656   0.443  14.085  0.1666  0.0271 -0.0011
 8458SOL    HW137007   1.596   0.434  14.159 -1.2457  1.5754 -0.9480
 8458SOL    HW237008   1.597   0.428  14.011 -0.4329  1.8305  0.1109
 8459SOL     OW37009   3.402   2.797  11.747 -0.2981 -0.1540 -0.0400
 8459SOL    HW137010   3.463   2.749  11.691  0.6655 -0.8972  1.6722
 8459SOL    HW237011   3.390   2.734  11.818 -2.1817 -0.3829 -0.5472
 8460SOL     OW37012   3.553   0.800   1.108 -0.2324 -0.1970  0.3270
 8460SOL    HW137013   3.530   0.886   1.142 -0.1307  0.1908 -0.5989
 8460SOL    HW237014   3.575   0.756   1.191  2.3696  0.8735  0.2032
 8461SOL     OW37015   4.237   4.508  16.690  0.0961  0.2291  0.5846
 8461SOL    HW137016   4.263   4.566  16.619  1.6906  0.1361  1.0887
 8461SOL    HW237017   4.214   4.429  16.641 -0.7645  0.2611  0.9263
 8462SOL     OW37018   1.507   2.629   1.844  1.2081  0.0439 -0.1549
 8462SOL    HW137019   1.439   2.694   1.864  1.1050 -0.0205 -0.2984
 8462SOL    HW237020   1.450   2.553   1.853  2.4088 -0.8730 -0.4136
 8463SOL     OW37021   2.349   3.178   9.076 -0.6630  0.1817  0.0109
 8463SOL    HW137022   2.419   3.130   9.031  0.7147  0.2677  2.0748
 8463SOL    HW237023   2.393   3.260   9.097  1.2964 -1.2696  1.6278
 8464SOL     OW37024   2.189   3.602   7.415  0.4898  0.3105 -0.0067
 8464SOL    HW137025   2.244   3.678   7.433 -1.3740  1.1113  2.3938
 8464SOL    HW237026   2.128   3.653   7.363 -0.7136 -1.3197 -0.2035
 8465SOL     OW37027   0.508   1.829   4.532 -0.5312 -0.0922 -0.2549
 8465SOL    HW137028   0.526   1.822   4.626 -3.2736  1.8040  0.3929
 8465SOL    HW237029   0.583   1.785   4.491  0.2969  0.8579  0.2241
 8466SOL     OW37030   0.615   4.186   3.416  0.2219  0.3817  0.2125
 8466SOL    HW137031   0.578   4.106   3.379 -1.5726  1.2979  0.0497
 8466SOL    HW237032   0.655   4.166   3.501 -0.1094  0.5538  0.4084
 8467SOL     OW37033   3.810   0.886   1.015 -0.3514 -0.2256  0.8131
 8467SOL    HW137034   3.807   0.969   1.063 -0.2664  1.1383 -1.5295
 8467SOL    HW237035   3.718   0.861   1.025 -0.3322 -0.7770 -0.4140
 8468SOL     OW37036   4.509   0.169   2.170 -0.4363 -0.0025  0.2870
 8468SOL    HW137037   4.530   0.245   2.225  1.1092 -1.3980  1.6216
 8468SOL    HW237038   4.454   0.212   2.104  0.2023  1.2261  0.5601
 8469SOL     OW37039   3.939   2.600   6.832 -0.8951 -0.3600  0.1403
 8469SOL    HW137040   3.943   2.507   6.855  0.4447 -0.5592 -0.9065
 8469SOL    HW237041   3.968   2.588   6.741 -1.9720  0.1210 -0.2655
 8470SOL     OW37042   4.258   1.426  15.815  0.2310 -0.6530  0.0059
 8470SOL    HW137043   4.275   1.505  15.867  1.8569 -0.6410 -0.5383
 8470SOL    HW237044   4.191   1.392  15.874 -0.9208  1.0049 -0.3239
 8471SOL     OW37045   0.503   2.551   6.647  0.0615  0.5474 -0.3145
 8471SOL    HW137046   0.415   2.582   6.671 -0.1238 -1.0351  1.0270
 8471SOL    HW237047   0.483   2.478   6.589  0.8297  0.4558 -0.4559
 8472SOL     OW37048   2.292   1.964   2.375  0.1066 -0.1713 -0.1105
 8472SOL    HW137049   2.325   1.875   2.363 -0.6456 -0.3689 -0.6655
 8472SOL    HW237050   2.198   1.955   2.384  0.1623 -0.9045 -0.2464
 8473SOL     OW37051   0.604   1.026  16.126 -0.6831 -0.5987  0.1610
 8473SOL    HW137052   0.514   1.005  16.149 -1.1627  0.6349 -0.5435
 8473SOL    HW237053   0.634   0.936  16.116 -0.2478 -0.4609  0.2151
 8474SOL     OW37054   1.794   2.062  11.629 -0.0487 -0.0194 -0.1901
 8474SOL    HW137055   1.848   2.136  11.656  0.5484  0.0113 -1.4996
 8474SOL    HW237056   1.772   2.031  11.717  2.0976 -1.2450 -0.0646
 8475SOL     OW37057   3.806   3.184   9.964  0.0610 -0.4302 -0.2120
 8475SOL    HW137058   3.823   3.253  10.027  0.4051  0.3776 -1.1791
 8475SOL    HW237059   3.896   3.159   9.947 -0.7029 -0.9121 -3.6006
 8476SOL     OW37060   2.795   0.938  13.157 -0.3570 -0.5911 -0.0329
 8476SOL    HW137061   2.758   0.947  13.069 -0.2567  1.7744  0.1659
 8476SOL    HW237062   2.713   0.939  13.206 -1.5593  0.9381 -2.0646
 8477SOL     OW37063   4.088   0.570   5.177  0.1617 -0.3645  0.4083
 8477SOL    HW137064   4.151   0.513   5.133 -1.2137  0.6995 -2.9195
 8477SOL    HW237065   4.140   0.650   5.185 -1.0492  0.4835 -0.2839
 8478SOL     OW37066   0.281   0.222   2.929 -0.3045 -0.3776 -0.1711
 8478SOL    HW137067   0.212   0.157   2.942 -1.1651  0.0056 -2.7829
 8478SOL    HW237068   0.318   0.182   2.850  2.1318  1.0854  0.2168
 8479SOL     OW37069   1.088   1.307   9.745  0.1380 -0.1817 -0.0844
 8479SOL    HW137070   1.054   1.360   9.816 -0.0125  1.5247 -1.4308
 8479SOL    HW237071   1.006   1.279   9.705  0.7675  1.3319 -2.4262
 8480SOL     OW37072   3.442   2.692   2.598  0.1525 -0.0892 -0.0272
 8480SOL    HW137073   3.429   2.782   2.627 -0.2355 -0.0771 -0.2354
 8480SOL    HW237074   3.366   2.680   2.540  0.1801  0.4659 -0.1769
 8481SOL     OW37075   3.358   0.021   2.505  0.9788 -0.1449  0.3336
 8481SOL    HW137076   3.264   0.038   2.510  0.9191 -0.3771 -0.0026
 8481SOL    HW237077   3.359   4.714   2.590  0.1090 -0.5417  0.1436
 8482SOL     OW37078   1.450   1.131   5.743  0.0461  0.1452  0.0422
 8482SOL    HW137079   1.371   1.123   5.798  0.0120 -0.7666 -0.1402
 8482SOL    HW237080   1.467   1.225   5.733 -0.2771  0.1718 -0.2809
 8483SOL     OW37081   1.147   0.178   4.282  0.5722  0.1085  0.4759
 8483SOL    HW137082   1.157   0.158   4.375 -0.2977  1.4508  0.8488
 8483SOL    HW237083   1.222   0.225   4.247  1.1248 -0.2558  1.1751
 8484SOL     OW37084   1.289   4.240   2.256  0.2629 -0.3500  1.0740
 8484SOL    HW137085   1.380   4.269   2.259 -0.3605  1.7545 -0.3231
 8484SOL    HW237086   1.305   4.150   2.227  2.5097 -0.1101  1.5873
 8485SOL     OW37087   3.230   4.286   7.380 -0.0677  0.0180  0.4521
 8485SOL    HW137088   3.252   4.371   7.420 -0.9248  0.6687 -0.4659
 8485SOL    HW237089   3.309   4.239   7.406 -0.7920 -0.8091  1.1620
 8486SOL     OW37090   1.411   1.426   8.110  0.0449 -0.2352 -0.5284
 8486SOL    HW137091   1.363   1.449   8.190  1.5476 -1.8377  0.8436
 8486SOL    HW237092   1.404   1.330   8.111  0.5576 -0.2772 -1.5912
 8487SOL     OW37093   0.783   0.001  11.258  0.2547  0.2698  0.0036
 8487SOL    HW137094   0.785   0.078  11.201  0.7017  0.0483 -0.2818
 8487SOL    HW237095   0.829   4.668  11.209 -2.2727 -1.7275  0.4558
 8488SOL     OW37096   0.517   2.438   4.510  0.5110 -0.1105 -0.0722
 8488SOL    HW137097   0.560   2.523   4.503  0.2134 -0.0745 -1.6915
 8488SOL    HW237098   0.579   2.389   4.562  0.6913 -0.5551 -0.7023
 8489SOL     OW37099   3.481   3.984   5.290 -0.1963  0.6700  0.0642
 8489SOL    HW137100   3.528   3.942   5.362  1.8502  0.3110 -1.4888
 8489SOL    HW237101   3.536   3.958   5.216 -0.0398 -2.8087  1.4256
 8490SOL     OW37102   1.658   2.240   4.971 -0.2625 -0.2785 -0.1234
 8490SOL    HW137103   1.673   2.184   5.047  0.0047  0.3928  0.3184
 8490SOL    HW237104   1.566   2.262   4.987 -0.3144  0.2820 -1.1823
 8491SOL     OW37105   1.934   1.925   6.066 -0.1083 -0.0725 -0.2389
 8491SOL    HW137106   1.925   1.861   6.136  3.1123  0.6845  0.8435
 8491SOL    HW237107   1.881   1.897   5.991 -1.4250  2.5901 -0.2975
 8492SOL     OW37108   2.651   3.168   3.409  0.1677 -0.1495  0.4935
 8492SOL    HW137109   2.561   3.198   3.416  0.4559  0.3795  2.1168
 8492SOL    HW237110   2.696   3.219   3.476  0.0207  1.5111 -0.6746
 8493SOL     OW37111   4.279   1.217   7.309 -0.1712  0.1627 -0.3461
 8493SOL    HW137112   4.240   1.193   7.225  0.7986  0.3435 -0.8458
 8493SOL    HW237113   4.371   1.205   7.285 -0.0098  1.2729 -0.3110
 8494SOL     OW37114   0.347   2.405   7.629 -0.4300 -0.5146 -0.6206
 8494SOL    HW137115   0.325   2.359   7.710 -1.2378  0.7291 -0.1345
 8494SOL    HW237116   0.308   2.489   7.652 -1.0312 -1.7629  2.9581
 8495SOL     OW37117   3.216   3.162   2.335  0.4262 -0.0223  0.6340
 8495SOL    HW137118   3.258   3.127   2.256 -0.3648  2.6697 -0.9923
 8495SOL    HW237119   3.141   3.210   2.300  0.6463  0.4955  0.8576
 8496SOL     OW37120   1.558   0.951   7.993  0.3513 -0.2600  0.4702
 8496SOL    HW137121   1.505   1.016   7.947 -0.1311  0.1209  1.5435
 8496SOL    HW237122   1.558   0.893   7.918 -2.7168  2.6055 -1.7421
 8497SOL     OW37123   0.492   0.535   9.322  0.6960 -0.0423  0.0557
 8497SOL    HW137124   0.524   0.626   9.325  1.4620 -0.3441  0.7880
 8497SOL    HW237125   0.570   0.481   9.322  1.2994  0.8098 -1.6665
 8498SOL     OW37126   0.218   0.117   9.083  0.7014  0.4542 -0.1456
 8498SOL    HW137127   0.148   0.061   9.050  1.7836  0.9349 -3.3318
 8498SOL    HW237128   0.202   0.112   9.177 -0.6652 -0.3096 -0.4179
 8499SOL     OW37129   3.745   0.278   8.811  0.1757 -0.3091  0.1685
 8499SOL    HW137130   3.760   0.348   8.748 -1.2376 -0.0479  0.1054
 8499SOL    HW237131   3.709   0.210   8.754  1.4808  0.0061 -1.0304
 8500SOL     OW37132   3.906   2.609   1.712  0.1401  0.0417  0.1988
 8500SOL    HW137133   3.898   2.524   1.668  0.4131  0.0715  0.0900
 8500SOL    HW237134   4.002   2.615   1.716  0.1136  1.2656 -0.8721
 8501SOL     OW37135   2.502   2.660   9.886 -0.2929 -0.1450  0.0104
 8501SOL    HW137136   2.565   2.614   9.830  0.3032 -0.5135  0.9830
 8501SOL    HW237137   2.441   2.590   9.907 -1.9595  0.5249 -2.5839
 8502SOL     OW37138   3.398   1.565  11.236  0.1517  0.0104  0.0038
 8502SOL    HW137139   3.393   1.503  11.163 -0.1986 -0.7959  0.7081
 8502SOL    HW237140   3.345   1.641  11.210  0.0189  0.6823  2.2221
 8503SOL     OW37141   3.973   1.517  15.502 -0.1541  0.1156  0.5107
 8503SOL    HW137142   4.002   1.428  15.523 -0.2282 -0.2258 -0.8397
 8503SOL    HW237143   4.036   1.566  15.554  2.2601 -0.5245 -1.8409
 8504SOL     OW37144   3.154   0.257  14.766  0.2506  0.3061 -0.2307
 8504SOL    HW137145   3.182   0.193  14.701  0.4753  1.8677 -1.6510
 8504SOL    HW237146   3.096   0.203  14.820 -0.8988  1.5385 -0.2583
 8505SOL     OW37147   0.583   3.628  14.299 -0.0535  0.3997 -0.2856
 8505SOL    HW137148   0.643   3.570  14.252 -0.3383 -0.0303 -0.1146
 8505SOL    HW237149   0.622   3.620  14.386 -1.2747  2.0588  0.4215
 8506SOL     OW37150   4.148   0.201   6.902 -0.2434  0.1173  0.2205
 8506SOL    HW137151   4.072   0.259   6.904 -0.7025 -0.4683 -0.0794
 8506SOL    HW237152   4.117   0.145   6.831 -0.4719  0.5922 -0.0466
 8507SOL     OW37153   0.321   0.229   8.861 -0.0855  0.3530 -0.7376
 8507SOL    HW137154   0.275   0.213   8.943  2.3840 -1.8653  0.1848
 8507SOL    HW237155   0.338   0.136   8.843  0.9864  0.4886 -0.3892
 8508SOL     OW37156   3.781   4.611   0.771  0.3041  0.2176 -0.4323
 8508SOL    HW137157   3.870   4.634   0.797 -1.1666  1.9681  3.0242
 8508SOL    HW237158   3.770   4.659   0.688 -2.3702  2.5749  1.2723
 8509SOL     OW37159   3.959   2.687  10.544  0.0349 -0.5881  0.1148
 8509SOL    HW137160   4.005   2.663  10.625  1.3284  3.3153  0.5262
 8509SOL    HW237161   3.908   2.762  10.574  0.9430 -0.5681  1.6544
 8510SOL     OW37162   3.217   1.924   4.635  0.1196 -0.4515 -0.4289
 8510SOL    HW137163   3.157   1.992   4.606  0.6640 -0.4035 -1.4335
 8510SOL    HW237164   3.291   1.980   4.661 -0.7481 -0.0344  1.1835
 8511SOL     OW37165   3.321   4.328   3.178 -0.4409  0.3845  0.6070
 8511SOL    HW137166   3.290   4.271   3.107  1.4836  2.6590 -2.0821
 8511SOL    HW237167   3.394   4.374   3.137  0.5003 -2.5703 -1.0676
 8512SOL     OW37168   2.767   1.105   1.361  0.3395  0.3666 -0.1098
 8512SOL    HW137169   2.777   1.024   1.410 -2.2716  0.1447  0.0757
 8512SOL    HW237170   2.671   1.108   1.357  0.5316  2.1254 -3.7676
 8513SOL     OW37171   1.479   0.859  17.065 -0.5707  0.0449  0.2638
 8513SOL    HW137172   1.557   0.811  17.036 -0.1543  0.7216  0.2582
 8513SOL    HW237173   1.462   0.912  16.987  0.1608  0.5172  0.4277
 8514SOL     OW37174   4.233   1.208  15.325 -0.0407 -0.0021 -0.4960
 8514SOL    HW137175   4.226   1.302  15.305  0.2247 -0.3076 -1.9617
 8514SOL    HW237176   4.311   1.188  15.377 -0.8457  0.8639  1.0725
 8515SOL     OW37177   3.438   1.549   0.124  0.2937 -0.0516  0.1173
 8515SOL    HW137178   3.403   1.516   0.041 -0.1375 -0.0393  0.2919
 8515SOL    HW237179   3.401   1.638   0.128 -0.6705 -0.4207 -0.5887
 8516SOL     OW37180   3.164   0.802   1.086 -0.4239  0.1058  0.1848
 8516SOL    HW137181   3.205   0.789   1.171  0.5471  1.6329 -0.0456
 8516SOL    HW237182   3.087   0.854   1.110 -1.1063 -0.9915  0.3707
 8517SOL     OW37183   4.524   3.549   3.202  0.0612  0.1312 -0.0608
 8517SOL    HW137184   4.533   3.645   3.203 -3.2607  0.4003  1.7389
 8517SOL    HW237185   4.545   3.524   3.112  2.4042 -0.8771  0.7752
 8518SOL     OW37186   1.526   1.673   2.888 -0.0730 -0.8823 -0.3651
 8518SOL    HW137187   1.521   1.741   2.956  1.1355 -1.1554 -0.0069
 8518SOL    HW237188   1.605   1.697   2.840 -0.5898 -0.3716 -0.9572
 8519SOL     OW37189   2.788   1.828   0.229 -0.5086 -0.2499 -0.2845
 8519SOL    HW137190   2.698   1.797   0.215 -0.4503 -1.1587  1.3613
 8519SOL    HW237191   2.790   1.899   0.164  0.5480 -0.5555 -0.5846
 8520SOL     OW37192   0.018   3.591  16.196  0.3772  0.4599  0.2252
 8520SOL    HW137193   0.020   3.505  16.237 -2.0230  0.9582  1.3977
 8520SOL    HW237194   0.098   3.626  16.234  0.3116 -0.9478  1.6548
 8521SOL     OW37195   0.808   2.984   3.726  0.7586 -0.2101  0.0437
 8521SOL    HW137196   0.815   2.985   3.631 -1.0675 -0.7961 -0.1064
 8521SOL    HW237197   0.720   3.017   3.744  0.7338  0.8340 -2.0355
 8522SOL     OW37198   2.453   3.248   2.065 -0.3258 -0.2663 -0.2622
 8522SOL    HW137199   2.484   3.184   2.002 -0.9319 -0.1264 -0.7044
 8522SOL    HW237200   2.474   3.212   2.152 -1.2010  0.5938  0.3056
 8523SOL     OW37201   1.024   4.154   0.348  0.1664  0.1171  0.3824
 8523SOL    HW137202   1.054   4.164   0.257 -1.2653  1.4498  0.0554
 8523SOL    HW237203   1.006   4.247   0.362  0.5540 -0.2268  3.0142
 8524SOL     OW37204   1.213   1.700   0.913 -0.1057  0.1186 -0.1850
 8524SOL    HW137205   1.187   1.787   0.943  1.4652  0.9488 -1.2196
 8524SOL    HW237206   1.134   1.675   0.867 -0.2467 -0.0097  0.1262
 8525SOL     OW37207   2.162   0.720   4.596 -0.1529 -0.5116  0.0052
 8525SOL    HW137208   2.231   0.661   4.627 -0.5782 -1.5133 -0.9573
 8525SOL    HW237209   2.158   0.789   4.662 -1.4407 -1.1856  0.6411
 8526SOL     OW37210   0.978   1.470  12.314 -0.1234  0.5027  0.4763
 8526SOL    HW137211   1.029   1.531  12.260 -0.0758  0.3358  0.3312
 8526SOL    HW237212   1.033   1.392  12.324  0.6563  0.8636 -0.9925
 8527SOL     OW37213   1.986   4.116   3.984 -0.2088 -0.3012  0.1751
 8527SOL    HW137214   1.935   4.151   4.058 -0.5983 -0.2788 -0.1037
 8527SOL    HW237215   1.936   4.152   3.911  2.8586  0.5170 -1.5133
 8528SOL     OW37216   1.241   3.914   8.214  0.3423 -0.2103 -0.4496
 8528SOL    HW137217   1.254   3.976   8.285  1.0539 -1.7675  0.7846
 8528SOL    HW237218   1.147   3.915   8.195  0.4589  0.2778 -0.9966
 8529SOL     OW37219   1.398   0.271   4.658  0.3645  0.0986  0.1633
 8529SOL    HW137220   1.408   0.356   4.615  1.3023 -0.2540 -0.3196
 8529SOL    HW237221   1.356   0.292   4.741 -3.3316 -1.1056 -1.3965
 8530SOL     OW37222   3.520   4.216   6.316  0.2023 -0.4053 -0.0527
 8530SOL    HW137223   3.514   4.312   6.316 -2.0901 -0.5117 -2.6796
 8530SOL    HW237224   3.441   4.203   6.263 -0.4550 -0.2112  0.8808
 8531SOL     OW37225   0.738   0.151  17.222 -0.1896  0.2179 -0.0542
 8531SOL    HW137226   0.793   0.227  17.204  1.8366 -0.9706  0.9993
 8531SOL    HW237227   0.687   0.151  17.141 -0.5126 -1.3558  0.1379
 8532SOL     OW37228   2.927   0.389  11.311 -0.7818 -0.3215  0.7180
 8532SOL    HW137229   2.969   0.435  11.383 -0.3039  0.9131 -0.3421
 8532SOL    HW237230   2.843   0.436  11.305 -0.8880 -0.7739 -1.4021
 8533SOL     OW37231   3.909   1.419  13.970 -0.4737  0.2932  0.1162
 8533SOL    HW137232   3.939   1.372  14.048  0.0113 -1.5313 -1.1683
 8533SOL    HW237233   3.920   1.511  13.994  2.6803 -0.0326 -0.1586
 8534SOL     OW37234   2.404   3.010   8.319 -0.4256 -0.5800 -0.0865
 8534SOL    HW137235   2.453   3.001   8.400  2.9392  0.1874 -2.0494
 8534SOL    HW237236   2.337   3.075   8.340  0.6272  0.8491 -1.1664
 8535SOL     OW37237   1.124   2.165   8.713  0.0244 -0.0886 -0.1969
 8535SOL    HW137238   1.099   2.083   8.755  1.9457 -0.7516 -0.3347
 8535SOL    HW237239   1.037   2.188   8.680  0.6971  1.5365 -0.8401
 8536SOL     OW37240   2.186   0.151  12.412  0.5227  0.3440  0.3980
 8536SOL    HW137241   2.215   0.230  12.365 -1.7719  0.7371 -0.3257
 8536SOL    HW237242   2.095   0.177  12.405  0.7662  1.4688  1.3757
 8537SOL     OW37243   3.409   1.996   1.651  0.3259 -0.5088 -0.1830
 8537SOL    HW137244   3.371   1.921   1.604  0.9998  0.7043 -2.6671
 8537SOL    HW237245   3.437   1.944   1.727  0.0127 -1.1734 -0.5175
 8538SOL     OW37246   3.422   0.631   4.041  0.6952 -0.2188 -0.5215
 8538SOL    HW137247   3.478   0.677   3.978  0.7269 -2.5701 -2.1852
 8538SOL    HW237248   3.420   0.550   3.990 -0.9898 -0.4795 -0.0455
 8539SOL     OW37249   3.255   1.634   6.437  0.5047 -0.2574 -0.4747
 8539SOL    HW137250   3.224   1.543   6.446  0.4806 -0.1420  0.5356
 8539SOL    HW237251   3.258   1.666   6.527 -2.2203  1.2015 -0.8930
 8540SOL     OW37252   2.858   3.746   9.199 -0.3675 -0.0042  0.5182
 8540SOL    HW137253   2.827   3.823   9.246  1.8092  2.4568 -2.0257
 8540SOL    HW237254   2.910   3.700   9.265  0.3260 -0.6619 -0.4905
 8541SOL     OW37255   3.940   0.544   2.038 -0.1036  0.0059  0.5447
 8541SOL    HW137256   3.898   0.626   2.010 -0.8471 -0.0447  1.5216
 8541SOL    HW237257   3.955   0.515   1.948  1.0620 -0.6950  0.9658
 8542SOL     OW37258   1.069   2.958  14.934  0.4200 -0.0439  0.0856
 8542SOL    HW137259   1.150   2.908  14.945  1.3764  1.6439  0.8614
 8542SOL    HW237260   1.114   3.043  14.928  1.0244 -0.1517  2.7776
 8543SOL     OW37261   0.172   1.948   2.879 -0.0226  0.5500 -0.5718
 8543SOL    HW137262   0.092   1.910   2.840  0.9564 -1.0641 -1.0308
 8543SOL    HW237263   0.210   1.867   2.913 -0.3193  1.1467  1.1785
 8544SOL     OW37264   0.950   0.986  16.875  0.7391  0.2407 -0.1305
 8544SOL    HW137265   0.873   0.985  16.818  0.5473  0.7176  0.1116
 8544SOL    HW237266   0.933   0.900  16.914  0.3924  0.1282 -0.5287
 8545SOL     OW37267   2.145   1.165  10.058 -0.1651  0.5963  0.6691
 8545SOL    HW137268   2.183   1.242  10.099  1.1612  0.2786  0.0262
 8545SOL    HW237269   2.067   1.200  10.013  0.9380  0.2824 -1.4824
 8546SOL     OW37270   0.008   1.296   5.747 -0.3649  0.4573 -0.1120
 8546SOL    HW137271   0.089   1.265   5.788 -1.3298  0.1098  1.5425
 8546SOL    HW237272   0.038   1.305   5.657 -1.0534  1.8984 -0.1907
 8547SOL     OW37273   0.320   3.807   2.717 -0.4173  0.1305  0.0975
 8547SOL    HW137274   0.375   3.730   2.702 -0.2973  0.0500  0.9491
 8547SOL    HW237275   0.332   3.859   2.638  2.2887 -1.4414 -0.5202
 8548SOL     OW37276   3.604   3.587   8.901  0.3804 -0.1028 -0.6100
 8548SOL    HW137277   3.673   3.652   8.885 -0.5439  1.4216  1.5685
 8548SOL    HW237278   3.600   3.535   8.821 -0.9230 -1.0171  0.0647
 8549SOL     OW37279   0.755   4.679   5.355  0.0244  0.1627  0.8378
 8549SOL    HW137280   0.828   4.722   5.401 -0.7442  1.7486  0.5780
 8549SOL    HW237281   0.755   0.006   5.283 -1.4755 -1.1310 -0.2739
 8550SOL     OW37282   1.474   2.861   3.900  0.2959  0.4352  0.8208
 8550SOL    HW137283   1.535   2.924   3.861  0.0929 -0.9545 -1.6984
 8550SOL    HW237284   1.501   2.866   3.992 -1.4781  3.5963  1.1682
 8551SOL     OW37285   4.048   3.615  15.717 -0.7080  0.1900  0.5339
 8551SOL    HW137286   3.957   3.601  15.745 -0.4928 -1.8350  0.1673
 8551SOL    HW237287   4.096   3.545  15.760 -0.1583 -0.3285 -0.9394
 8552SOL     OW37288   0.685   2.087   1.358 -0.4353 -0.5048  0.1001
 8552SOL    HW137289   0.592   2.076   1.339 -0.6941 -0.2274  1.2088
 8552SOL    HW237290   0.697   2.174   1.319 -1.6306 -1.1677 -1.7133
 8553SOL     OW37291   2.730   1.644  10.566  0.2127 -0.0301 -0.3144
 8553SOL    HW137292   2.770   1.558  10.582 -0.7070 -0.2876  0.6078
 8553SOL    HW237293   2.720   1.687  10.650 -1.0525 -1.1508  0.1201
 8554SOL     OW37294   3.531   1.470  17.184  0.1099  0.2356  0.4372
 8554SOL    HW137295   3.492   1.383  17.182  0.5462  0.0998 -2.9441
 8554SOL    HW237296   3.623   1.450  17.199  0.8665  2.4518 -1.3021
 8555SOL     OW37297   4.003   3.238  16.163  0.1345  0.4043 -0.2981
 8555SOL    HW137298   4.014   3.284  16.080  1.1406  0.1059 -0.3242
 8555SOL    HW237299   3.929   3.288  16.199 -1.1145 -2.8618  1.7115
 8556SOL     OW37300   1.132   3.700   6.101  0.4709 -0.3288  0.4323
 8556SOL    HW137301   1.110   3.711   6.193  0.7475  0.5141  0.3914
 8556SOL    HW237302   1.046   3.685   6.061  0.9137 -0.0223 -0.6417
 8557SOL     OW37303   2.941   2.164   5.274 -0.2321 -0.0577  0.0259
 8557SOL    HW137304   2.977   2.217   5.346  1.3029  0.5622 -1.2057
 8557SOL    HW237305   2.954   2.221   5.199  0.5391 -0.1920  0.0566
 8558SOL     OW37306   4.475   1.046   4.895  0.5403  0.2537  0.6190
 8558SOL    HW137307   4.569   1.038   4.877 -0.2380  1.1203 -3.7291
 8558SOL    HW237308   4.464   1.009   4.982 -0.5520  1.0365  0.8189
 8559SOL     OW37309   3.775   4.182   6.589 -0.0828 -0.1515 -0.0109
 8559SOL    HW137310   3.770   4.089   6.609 -2.7760  0.0338  0.0976
 8559SOL    HW237311   3.786   4.180   6.494 -3.9913  0.8008 -0.4718
 8560SOL     OW37312   2.415   4.476   4.343  0.3348  0.2469  0.7845
 8560SOL    HW137313   2.498   4.443   4.306  0.2326 -1.2508  1.8539
 8560SOL    HW237314   2.417   4.448   4.435  1.9601  0.4534  0.8249
 8561SOL     OW37315   0.257   1.214   6.725 -0.4301 -0.0241 -0.0710
 8561SOL    HW137316   0.227   1.220   6.816 -0.7333 -0.0001 -0.1759
 8561SOL    HW237317   0.203   1.284   6.689  0.9463  0.6773 -0.8100
 8562SOL     OW37318   1.675   2.894   4.346  0.2046 -0.7486  1.6448
 8562SOL    HW137319   1.678   2.801   4.367  0.3198 -1.5743 -2.1510
 8562SOL    HW237320   1.770   2.904   4.335 -0.5960  1.0566 -3.6368
 8563SOL     OW37321   1.278   1.137   8.578  0.4565 -0.2810 -0.4847
 8563SOL    HW137322   1.206   1.178   8.530 -0.3497 -0.7556  0.3199
 8563SOL    HW237323   1.250   1.046   8.566 -1.4181 -0.0833  2.4852
 8564SOL     OW37324   2.210   2.052  14.573 -0.2111 -0.0934  0.2077
 8564SOL    HW137325   2.147   2.018  14.510  0.8267  1.5074 -1.7041
 8564SOL    HW237326   2.272   2.090  14.511 -0.3084 -0.9735 -0.4273
 8565SOL     OW37327   2.916   0.528   1.120 -0.1769  0.3917 -0.3537
 8565SOL    HW137328   2.850   0.487   1.064  1.5157  0.3099 -2.2892
 8565SOL    HW237329   2.994   0.481   1.092  0.8618  1.7038  0.3526
 8566SOL     OW37330   2.798   4.594   7.596 -0.5097 -0.5108  0.0859
 8566SOL    HW137331   2.772   4.686   7.582 -0.8639 -0.5976  0.1658
 8566SOL    HW237332   2.734   4.567   7.661 -1.0680 -0.7583 -0.5631
 8567SOL     OW37333   0.389   2.690   7.534 -0.1214 -0.1884  0.0295
 8567SOL    HW137334   0.473   2.647   7.552  0.3834  0.1009 -1.7233
 8567SOL    HW237335   0.410   2.746   7.460  4.2509 -1.5121  0.2736
 8568SOL     OW37336   0.437   4.431   9.875 -0.1378 -1.1964  0.0201
 8568SOL    HW137337   0.398   4.343   9.872 -2.0827 -0.3290 -0.0088
 8568SOL    HW237338   0.381   4.476   9.938  1.5865 -2.0470  2.1607
 8569SOL     OW37339   2.037   1.009   8.674 -0.0848 -0.0149 -0.8385
 8569SOL    HW137340   2.043   0.979   8.583 -1.9171  1.5406 -1.4481
 8569SOL    HW237341   2.111   1.070   8.670 -0.5714  0.7162  1.6378
 8570SOL     OW37342   0.716   0.687  17.013  0.1737 -0.1823 -0.0852
 8570SOL    HW137343   0.629   0.671  16.976 -0.8523  2.5441  1.1317
 8570SOL    HW237344   0.773   0.674  16.938  1.7651  1.3707  0.8467
 8571SOL     OW37345   0.052   3.680   4.557  0.3102 -0.1642  0.2928
 8571SOL    HW137346   0.008   3.764   4.544  0.0734 -0.2673  0.4296
 8571SOL    HW237347   0.107   3.685   4.479  0.4497 -2.0476  0.2727
 8572SOL     OW37348   3.806   3.416  16.293 -0.5278 -0.4660 -0.5279
 8572SOL    HW137349   3.734   3.400  16.232 -1.4974 -1.4084  0.8715
 8572SOL    HW237350   3.839   3.494  16.248 -1.6301 -0.0354 -0.5744
 8573SOL     OW37351   1.272   0.925   0.506  0.7517  0.0345  0.5744
 8573SOL    HW137352   1.324   0.869   0.449 -0.2900 -2.4022  1.9908
 8573SOL    HW237353   1.192   0.924   0.454  0.3027 -1.2392  1.2742
 8574SOL     OW37354   3.842   1.062  13.957 -0.4248  0.1113  0.4185
 8574SOL    HW137355   3.809   1.012  13.882 -0.4391 -0.5270  0.8528
 8574SOL    HW237356   3.920   1.105  13.923  0.1119 -1.0839  0.1405
 8575SOL     OW37357   0.059   3.655   4.083 -0.2513 -0.5009  0.2957
 8575SOL    HW137358   0.071   3.710   4.006  2.3500  0.1163  1.1605
 8575SOL    HW237359   4.699   3.653   4.093 -0.5935 -0.2502 -2.8840
 8576SOL     OW37360   1.836   4.347   3.186 -0.0429 -0.7550  0.5096
 8576SOL    HW137361   1.794   4.431   3.205  0.4935 -0.1416 -1.0161
 8576SOL    HW237362   1.777   4.295   3.132 -0.2861 -2.1822  2.1728
 8577SOL     OW37363   3.402   4.036   7.268  0.2288  0.3813  0.0360
 8577SOL    HW137364   3.329   3.976   7.252  0.5495  0.6396 -2.3951
 8577SOL    HW237365   3.459   3.986   7.326  0.0793  2.4431  1.9862
 8578SOL     OW37366   4.108   1.104   3.363 -0.1735 -0.3529 -0.6505
 8578SOL    HW137367   4.062   1.021   3.353 -0.6580 -0.1090 -0.4568
 8578SOL    HW237368   4.078   1.132   3.449  1.7947  0.7636 -0.3284
 8579SOL     OW37369   3.606   4.471   3.009  0.7720 -0.1124  0.4010
 8579SOL    HW137370   3.580   4.522   3.086 -0.2841  2.4845 -1.6902
 8579SOL    HW237371   3.699   4.488   2.992  1.1033 -0.5992  1.6973
 8580SOL     OW37372   3.747   1.691  11.352  0.0766  0.2536 -0.2493
 8580SOL    HW137373   3.763   1.740  11.272 -1.5603 -1.4920 -1.6313
 8580SOL    HW237374   3.754   1.599  11.326 -0.7348  0.4472 -1.1476
 8581SOL     OW37375   0.947   2.313   9.382 -0.2324 -0.3790  0.7879
 8581SOL    HW137376   1.006   2.343   9.451  1.8299  0.8931 -1.4870
 8581SOL    HW237377   0.865   2.356   9.406  0.0978  0.6430  0.0919
 8582SOL     OW37378   4.529   4.647   2.278 -0.4708  0.2134  0.0627
 8582SOL    HW137379   4.523   4.716   2.212 -0.5482 -0.1569 -0.3145
 8582SOL    HW237380   4.623   4.631   2.264  0.0009  0.3270  3.0488
 8583SOL     OW37381   0.992   1.630   8.077  0.4743  0.0792  0.4252
 8583SOL    HW137382   1.015   1.587   8.159 -0.3616 -0.8872  0.1631
 8583SOL    HW237383   1.024   1.718   8.095  0.7009 -0.5725  3.1728
 8584SOL     OW37384   1.622   3.262   3.177 -0.3758 -0.6192  0.0645
 8584SOL    HW137385   1.589   3.346   3.145  1.1061  0.1527  0.5579
 8584SOL    HW237386   1.555   3.241   3.242 -0.7183 -0.4207 -0.2231
 8585SOL     OW37387   3.075   2.475   2.988  0.4901  0.9900  0.4681
 8585SOL    HW137388   3.104   2.476   3.079 -0.6104 -1.1895  0.8277
 8585SOL    HW237389   3.054   2.566   2.968 -1.1240  0.4220 -0.4093
 8586SOL     OW37390   0.822   0.894   2.169  0.2036 -0.7894 -0.6187
 8586SOL    HW137391   0.798   0.839   2.244 -1.9933  1.6985  0.5395
 8586SOL    HW237392   0.862   0.828   2.112  0.1519 -1.2061 -0.1718
 8587SOL     OW37393   3.912   0.369  13.958 -0.2900 -0.2419 -0.1891
 8587SOL    HW137394   3.839   0.401  13.905 -0.4974 -0.1405  0.1597
 8587SOL    HW237395   3.982   0.421  13.919 -2.0209  0.2599 -2.6322
 8588SOL     OW37396   0.721   3.604   6.607 -0.0783  0.0618  0.0261
 8588SOL    HW137397   0.719   3.552   6.687  1.5822 -0.0317  0.0098
 8588SOL    HW237398   0.643   3.660   6.610 -0.4228 -0.3439 -1.4295
 8589SOL     OW37399   3.263   1.753  17.431 -0.4094 -0.2139 -0.5196
 8589SOL    HW137400   3.338   1.744  17.489 -1.4252 -3.5749  0.3070
 8589SOL    HW237401   3.279   1.675  17.379  2.1663  0.9264 -1.4335
 8590SOL     OW37402   3.080   4.731  11.907 -0.1891 -0.1499  0.2989
 8590SOL    HW137403   3.009   4.707  11.847 -1.0919 -3.2343  2.6186
 8590SOL    HW237404   3.068   4.671  11.981  1.9129 -2.6613 -1.3967
 8591SOL     OW37405   4.178   0.742   4.360 -0.4527 -0.3809 -0.0455
 8591SOL    HW137406   4.159   0.785   4.443 -0.6613  0.1256 -0.3487
 8591SOL    HW237407   4.092   0.702   4.346 -1.1643  1.3576 -0.6269
 8592SOL     OW37408   2.242   3.555  15.084 -0.5379 -0.4506  0.2206
 8592SOL    HW137409   2.213   3.492  15.018 -0.5182  1.6753 -1.8403
 8592SOL    HW237410   2.233   3.636  15.033 -1.1770 -0.7267 -0.1086
 8593SOL     OW37411   4.188   0.823   5.165  0.2841  0.8758  0.0186
 8593SOL    HW137412   4.273   0.845   5.125  0.4621  1.3833  0.6775
 8593SOL    HW237413   4.130   0.833   5.089 -1.9380 -3.2708  1.1505
 8594SOL     OW37414   2.063   3.991   6.702 -1.0558 -0.4207  0.2996
 8594SOL    HW137415   2.011   3.940   6.764 -0.6117 -0.6486  0.4846
 8594SOL    HW237416   2.084   3.921   6.640  1.7767 -0.0538  0.8491
 8595SOL     OW37417   1.638   3.637   9.642  0.1349  0.3967  0.5207
 8595SOL    HW137418   1.694   3.604   9.571  1.1689 -0.6151  1.8171
 8595SOL    HW237419   1.691   3.708   9.678 -0.3939  1.1367 -0.1380
 8596SOL     OW37420   0.071   4.621   2.255 -0.2838  0.6667 -0.0381
 8596SOL    HW137421   0.116   4.704   2.236 -0.1661  0.3091 -1.3169
 8596SOL    HW237422   0.105   4.602   2.343 -2.6121  0.0232  0.7274
 8597SOL     OW37423   0.213   3.256   9.079 -0.2448  0.0171  0.3450
 8597SOL    HW137424   0.206   3.199   9.155  1.8370  0.3624  0.8057
 8597SOL    HW237425   0.285   3.221   9.027 -0.0509  0.7665  0.1130
 8598SOL     OW37426   3.828   3.980   8.318 -0.1220 -0.1039  0.1492
 8598SOL    HW137427   3.907   4.024   8.287 -1.8452  1.4415 -2.0343
 8598SOL    HW237428   3.788   4.047   8.373  1.4299  1.3730 -0.5261
 8599SOL     OW37429   3.226   1.150   8.047  0.7659 -0.2113 -0.0527
 8599SOL    HW137430   3.299   1.212   8.046 -0.0801  0.7765 -1.5624
 8599SOL    HW237431   3.203   1.153   7.954  3.5284  0.2928 -0.7250
 8600SOL     OW37432   1.536   1.844   2.014  0.3596  0.3963  0.4036
 8600SOL    HW137433   1.521   1.906   1.943  1.9579  0.7547  0.3654
 8600SOL    HW237434   1.555   1.899   2.090  0.1978 -0.8638  1.3682
 8601SOL     OW37435   3.471   2.502   3.857  0.1116 -0.3009  0.2278
 8601SOL    HW137436   3.412   2.447   3.909  0.7841 -0.3401  0.9344
 8601SOL    HW237437   3.420   2.582   3.868  0.2508  0.1468 -2.3221
 8602SOL     OW37438   1.741   1.117   5.472 -0.5350  0.2444 -0.1821
 8602SOL    HW137439   1.725   1.210   5.489  2.0261  0.5794  0.3842
 8602SOL    HW237440   1.794   1.099   5.550  0.9065  2.1074 -0.7306
 8603SOL     OW37441   2.473   2.525  15.834  0.5441 -0.3271  0.1644
 8603SOL    HW137442   2.397   2.535  15.776  2.4873 -0.4050 -2.4107
 8603SOL    HW237443   2.438   2.560  15.915  1.9949 -0.6347  0.9325
 8604SOL     OW37444   3.936   0.137  13.812  0.1553 -0.1411  0.6187
 8604SOL    HW137445   3.855   0.156  13.765  0.1657 -0.0792  0.6260
 8604SOL    HW237446   3.951   0.216  13.864 -0.9617 -0.7543  1.8742
 8605SOL     OW37447   3.658   1.700   1.456  0.1093  0.4725  0.2932
 8605SOL    HW137448   3.664   1.786   1.415  3.6936  0.5416  0.9980
 8605SOL    HW237449   3.663   1.633   1.388  1.8494  0.9287 -0.0056
 8606SOL     OW37450   1.951   4.046  12.804 -0.2246  0.1395  0.3954
 8606SOL    HW137451   1.987   4.133  12.822 -0.1946  0.2258 -0.1025
 8606SOL    HW237452   1.962   4.028  12.711 -1.4327  3.0152 -0.3105
 8607SOL     OW37453   3.210   2.116  10.981  0.4740  0.4968  0.3008
 8607SOL    HW137454   3.161   2.181  11.031  1.7068  1.3720  0.3524
 8607SOL    HW237455   3.152   2.040  10.995  0.9861 -0.2182 -1.4228
 8608SOL     OW37456   0.977   1.221  12.773  0.2044 -0.1318 -0.0769
 8608SOL    HW137457   1.049   1.265  12.819 -0.3262  1.9732 -1.2274
 8608SOL    HW237458   0.917   1.204  12.845  0.3286 -0.0979  0.0359
 8609SOL     OW37459   1.429   3.225   0.036  0.0599  0.1471  0.2083
 8609SOL    HW137460   1.468   3.213  17.691  0.5921  0.3947  0.4153
 8609SOL    HW237461   1.345   3.260   0.007  0.9609  0.3026 -2.2817
 8610SOL     OW37462   0.497   1.655   2.600  0.5112 -0.3774  0.2297
 8610SOL    HW137463   0.450   1.573   2.617 -1.1969  0.9122  1.7474
 8610SOL    HW237464   0.456   1.720   2.657 -0.2893 -1.5731  1.0291
 8611SOL     OW37465   1.830   2.330  13.675 -0.1818 -0.1474 -0.3524
 8611SOL    HW137466   1.895   2.349  13.743  1.6248 -2.0440 -1.5529
 8611SOL    HW237467   1.762   2.395  13.691 -1.2736 -1.9313  2.2156
 8612SOL     OW37468   1.573   3.622   3.858  0.0214  0.6545 -0.5082
 8612SOL    HW137469   1.495   3.581   3.819 -0.3078  2.2804 -1.5386
 8612SOL    HW237470   1.555   3.715   3.869 -0.3932  0.5658 -0.4292
 8613SOL     OW37471   0.088   4.528   6.277 -0.3166 -0.5312 -0.0482
 8613SOL    HW137472   0.180   4.556   6.286 -0.2587 -0.8939  0.4654
 8613SOL    HW237473   0.054   4.595   6.218  2.1734  1.3546  0.6388
 8614SOL     OW37474   4.146   3.023  12.229 -0.5006  0.3043 -0.5126
 8614SOL    HW137475   4.178   2.940  12.265 -2.8330 -1.0318 -1.5252
 8614SOL    HW237476   4.173   3.089  12.293 -0.5049 -0.4890  0.3120
 8615SOL     OW37477   3.714   2.450  11.330 -0.4972  0.5858 -0.4708
 8615SOL    HW137478   3.782   2.491  11.384  0.8085 -1.1623 -0.7724
 8615SOL    HW237479   3.631   2.476  11.369 -0.8121 -1.4784  0.2515
 8616SOL     OW37480   2.709   2.971   9.195 -0.3836 -0.3582 -0.2669
 8616SOL    HW137481   2.673   2.989   9.282 -0.6523 -2.3545  0.0428
 8616SOL    HW237482   2.633   2.962   9.138 -0.2580 -2.0001 -0.1808
 8617SOL     OW37483   1.406   2.711   4.468  0.4209 -0.1701  0.4038
 8617SOL    HW137484   1.453   2.675   4.393 -1.9541  0.1800 -1.2588
 8617SOL    HW237485   1.327   2.720   4.414  0.4594  2.9671  0.8524
 8618SOL     OW37486   3.448   0.400   5.799 -0.7925 -0.5255  0.0800
 8618SOL    HW137487   3.357   0.392   5.828 -1.0396 -0.4702 -0.6852
 8618SOL    HW237488   3.440   0.379   5.706 -2.5618  0.6550 -0.0417
 8619SOL     OW37489   2.574   1.376  10.710  0.1620  0.0277  0.2896
 8619SOL    HW137490   2.487   1.353  10.743 -0.7116  1.6316 -0.9621
 8619SOL    HW237491   2.592   1.446  10.773 -1.2493 -0.4120  1.1949
 8620SOL     OW37492   1.221   4.234   8.132  0.0959 -0.3100  0.1443
 8620SOL    HW137493   1.219   4.221   8.227  0.5753  2.8231  0.5817
 8620SOL    HW237494   1.126   4.236   8.119  0.0087  1.4263  1.0286
 8621SOL     OW37495   0.147   0.998   4.603 -0.1610 -0.4354 -0.1004
 8621SOL    HW137496   0.150   0.911   4.563  1.1574  0.1807 -1.3230
 8621SOL    HW237497   0.227   0.994   4.656 -0.5329 -1.8700  0.3376
 8622SOL     OW37498   2.735   1.959   5.386  0.4490 -1.1752 -0.6366
 8622SOL    HW137499   2.662   2.013   5.358 -0.7757 -1.4719  2.0008
 8622SOL    HW237500   2.811   2.012   5.363 -0.4139  0.9955  1.5069
 8623SOL     OW37501   2.086   2.637   4.547  0.2265  0.1310 -0.5591
 8623SOL    HW137502   2.147   2.707   4.525 -1.2493  1.2616 -1.0190
 8623SOL    HW237503   2.141   2.577   4.598  0.3692  1.6986  1.1080
 8624SOL     OW37504   2.793   4.663   4.124  0.3365  0.0247 -0.0710
 8624SOL    HW137505   2.755   4.659   4.037 -0.7910 -0.3352  0.4282
 8624SOL    HW237506   2.724   4.616   4.172 -0.3783 -0.2511 -1.3872
 8625SOL     OW37507   1.370   0.096   9.397  0.9375 -0.2261  0.4125
 8625SOL    HW137508   1.294   0.119   9.344  0.0087 -2.8718  0.6081
 8625SOL    HW237509   1.431   0.146   9.343  0.9265 -0.1092  0.5084
 8626SOL     OW37510   3.735   1.421   2.095 -0.5272  0.6635  0.0002
 8626SOL    HW137511   3.663   1.365   2.064  2.0910 -1.9154 -1.4243
 8626SOL    HW237512   3.770   1.442   2.009  2.1681 -0.1270  0.9066
 8627SOL     OW37513   0.769   0.379  17.010 -0.0099 -0.8480  0.4920
 8627SOL    HW137514   0.754   0.469  17.039  0.4474 -0.8029  0.5839
 8627SOL    HW237515   0.860   0.362  17.035  0.2614  0.1875  0.1892
 8628SOL     OW37516   1.525   3.668  16.185  0.0803 -0.2638  0.6684
 8628SOL    HW137517   1.582   3.697  16.257  0.4908 -0.9440  0.6190
 8628SOL    HW237518   1.527   3.743  16.126  1.3459  0.9767  2.2701
 8629SOL     OW37519   1.794   0.500   5.090 -0.4974  0.4190 -0.6617
 8629SOL    HW137520   1.759   0.424   5.136 -0.5481  0.5236 -0.5284
 8629SOL    HW237521   1.889   0.498   5.080 -0.6229  1.3455 -2.0525
 8630SOL     OW37522   3.719   1.658   7.519 -0.9244 -0.0044  0.4639
 8630SOL    HW137523   3.663   1.608   7.578 -0.5298  0.3175  1.1183
 8630SOL    HW237524   3.705   1.746   7.555  1.8433  0.8431 -0.4666
 8631SOL     OW37525   2.790   1.875   7.970  0.0391 -0.1885 -0.3440
 8631SOL    HW137526   2.725   1.854   8.037 -0.8273 -1.1277 -1.4872
 8631SOL    HW237527   2.753   1.821   7.900 -1.2860  1.1645 -0.6760
 8632SOL     OW37528   4.458   4.691   8.023 -0.0172 -0.0527 -0.3366
 8632SOL    HW137529   4.450   0.051   8.024  0.2033 -0.0152 -1.4221
 8632SOL    HW237530   4.426   4.671   7.935 -0.5566  1.7407 -0.5531
 8633SOL     OW37531   4.117   3.458   9.797 -0.6532 -0.3960  0.1534
 8633SOL    HW137532   4.106   3.547   9.830  1.7675 -0.2720  0.5995
 8633SOL    HW237533   4.198   3.443   9.846 -1.7312 -0.6543  1.8793
 8634SOL     OW37534   2.839   0.807   6.748 -0.2484 -0.8848 -0.1136
 8634SOL    HW137535   2.903   0.873   6.776  0.3578 -1.1040 -0.9804
 8634SOL    HW237536   2.795   0.784   6.830  0.1887  0.0237  0.3807
 8635SOL     OW37537   1.958   3.282   1.419 -0.4865  0.2822 -0.3824
 8635SOL    HW137538   1.983   3.247   1.505 -1.4661  1.9508  0.5794
 8635SOL    HW237539   1.986   3.203   1.373  1.3581  1.3322 -1.0560
 8636SOL     OW37540   3.931   0.353   6.952 -0.0851 -0.5511 -0.2933
 8636SOL    HW137541   3.848   0.313   6.928  0.0100 -0.4161 -0.8334
 8636SOL    HW237542   3.939   0.335   7.046 -2.3484  0.3071  0.0683
 8637SOL     OW37543   3.926   1.806   7.147  0.4782  0.0861 -0.1427
 8637SOL    HW137544   3.994   1.846   7.093  2.1330 -0.3992  1.5952
 8637SOL    HW237545   3.905   1.877   7.208 -0.4258  0.7910 -1.2786
 8638SOL     OW37546   0.819   4.286   2.206  0.0565 -0.3157  0.3052
 8638SOL    HW137547   0.898   4.237   2.182 -1.0779 -0.9589 -2.0757
 8638SOL    HW237548   0.761   4.216   2.235 -0.3457 -0.6074 -1.2208
 8639SOL     OW37549   3.224   0.853   0.035  0.0773  0.1528 -0.3769
 8639SOL    HW137550   3.286   0.883  17.711  0.4348  0.9350  0.3163
 8639SOL    HW237551   3.174   0.789  17.726  1.9137 -0.8362 -0.9334
 8640SOL     OW37552   3.928   2.926   2.844  0.3890 -0.1401  0.5774
 8640SOL    HW137553   3.964   2.998   2.895 -1.9761 -0.0071  2.0352
 8640SOL    HW237554   3.890   2.980   2.775  1.7538 -0.7836 -0.6923
 8641SOL     OW37555   4.210   4.106   6.372  0.1769 -0.2709 -0.2698
 8641SOL    HW137556   4.148   4.037   6.352 -1.5335  0.6638  1.8304
 8641SOL    HW237557   4.154   4.166   6.422 -0.8211 -0.9539 -0.5748
 8642SOL     OW37558   1.867   2.213   6.379  0.1686 -0.2671 -0.8240
 8642SOL    HW137559   1.916   2.252   6.452  0.8059 -3.5225  0.5097
 8642SOL    HW237560   1.941   2.176   6.331  0.5481  2.4504 -2.3167
 8643SOL     OW37561   3.277   2.214  10.739 -0.0204  0.2161 -0.2129
 8643SOL    HW137562   3.257   2.171  10.822  1.3448 -3.5627 -1.8151
 8643SOL    HW237563   3.193   2.259  10.727 -1.0810 -1.2649  1.6932
 8644SOL     OW37564   3.931   4.485  10.330  0.0217  0.6628 -0.1778
 8644SOL    HW137565   3.898   4.396  10.319 -1.1691  1.2350 -1.2373
 8644SOL    HW237566   4.016   4.468  10.371  0.5463  0.5463 -1.3174
 8645SOL     OW37567   3.922   2.876  14.286  0.4761  0.0388 -0.4201
 8645SOL    HW137568   4.014   2.849  14.282  0.6744  0.5059  0.7995
 8645SOL    HW237569   3.905   2.866  14.380 -1.7980 -2.2451 -1.0710
 8646SOL     OW37570   0.021   2.881   7.986 -0.3893  0.3336  0.9602
 8646SOL    HW137571   4.661   2.884   7.991 -0.5270  0.8387 -2.1468
 8646SOL    HW237572   0.042   2.792   8.012 -1.1370 -0.2762 -0.5205
 8647SOL     OW37573   4.479   1.338   8.601  0.3305 -0.3033 -0.3317
 8647SOL    HW137574   4.489   1.300   8.513 -0.9157  0.0137 -0.6218
 8647SOL    HW237575   4.395   1.305   8.633  1.2089 -0.9405  1.2840
 8648SOL     OW37576   2.032   2.925   2.159 -0.0420  0.0093 -0.2100
 8648SOL    HW137577   2.045   2.845   2.209 -1.1808  0.2680  0.4893
 8648SOL    HW237578   1.956   2.895   2.108 -0.0776  2.5113 -1.6657
 8649SOL     OW37579   1.575   0.089   3.029  0.6629  0.0920 -0.3844
 8649SOL    HW137580   1.479   0.085   3.036  0.6926 -1.5925 -0.9754
 8649SOL    HW237581   1.582   0.069   2.935 -2.9433  1.0396 -0.8888
 8650SOL     OW37582   1.507   3.721   1.736  0.2995 -0.2954 -0.4563
 8650SOL    HW137583   1.535   3.671   1.659 -1.4442  0.7923 -1.7874
 8650SOL    HW237584   1.419   3.745   1.707  0.3008 -1.0638 -1.0721
 8651SOL     OW37585   2.744   0.680   3.892  0.1162 -0.1307 -0.4732
 8651SOL    HW137586   2.716   0.596   3.926 -0.7988  0.0058 -0.8852
 8651SOL    HW237587   2.770   0.664   3.801  0.4616  1.9883 -0.7563
 8652SOL     OW37588   2.516   0.439  10.386  0.7743 -0.7571  0.0151
 8652SOL    HW137589   2.522   0.350  10.352 -1.7493 -0.9843  0.1417
 8652SOL    HW237590   2.605   0.463  10.411  1.2484 -2.3842 -0.0943
 8653SOL     OW37591   3.523   0.520   7.573  0.2977 -0.3039  0.2618
 8653SOL    HW137592   3.582   0.592   7.595  0.2447  0.2903 -1.5062
 8653SOL    HW237593   3.536   0.457   7.644  0.5695 -0.0182  0.4675
 8654SOL     OW37594   3.528   2.192   2.222 -0.0522 -0.5452 -0.0016
 8654SOL    HW137595   3.595   2.167   2.158  0.2196  3.7862 -1.4218
 8654SOL    HW237596   3.450   2.158   2.178  0.4364 -3.0898  1.1229
 8655SOL     OW37597   1.455   0.194   1.715 -0.3804 -0.4836 -0.0109
 8655SOL    HW137598   1.419   0.130   1.776 -1.8325 -0.6877 -1.0721
 8655SOL    HW237599   1.549   0.201   1.732 -0.3645 -2.7519  0.7636
 8656SOL     OW37600   3.209   1.468   8.154  0.7900 -0.3364  0.7833
 8656SOL    HW137601   3.271   1.410   8.108  1.2149  0.0679  0.8446
 8656SOL    HW237602   3.246   1.551   8.124 -0.2265 -0.1019  0.1933
 8657SOL     OW37603   0.422   4.380   3.357 -0.1032  0.0249 -0.4598
 8657SOL    HW137604   0.390   4.363   3.268 -0.9543 -3.4568  0.5220
 8657SOL    HW237605   0.502   4.328   3.354  1.4660  2.4655 -1.3543
 8658SOL     OW37606   3.515   0.861   1.778  0.1903 -0.0425 -0.2503
 8658SOL    HW137607   3.571   0.936   1.796 -0.6731  0.5320  0.0426
 8658SOL    HW237608   3.522   0.822   1.865 -1.5417 -1.6634 -0.8203
 8659SOL     OW37609   2.299   0.527   9.702  0.3697 -0.0707  0.1729
 8659SOL    HW137610   2.374   0.494   9.653 -0.0593 -0.0837 -0.4874
 8659SOL    HW237611   2.308   0.464   9.774 -0.6481  0.1723  0.5115
 8660SOL     OW37612   2.687   4.019  12.992  0.3496  0.2773 -0.1246
 8660SOL    HW137613   2.602   3.975  12.996  0.2238  0.3671 -1.5755
 8660SOL    HW237614   2.749   3.946  12.985  0.0575  0.0030  0.1374
 8661SOL     OW37615   0.507   3.856   6.338  0.4478 -0.0880  0.7299
 8661SOL    HW137616   0.455   3.916   6.285 -1.2301 -2.4702 -0.3066
 8661SOL    HW237617   0.522   3.783   6.279  2.4357 -0.4157  1.6365
 8662SOL     OW37618   4.722   0.482   6.905  0.0051  0.4024 -0.1796
 8662SOL    HW137619   0.033   0.469   6.988  0.6251 -2.0398 -0.9187
 8662SOL    HW237620   4.703   0.393   6.876 -2.2451  0.8441 -0.0484
 8663SOL     OW37621   3.110   0.809   5.475  0.5907  0.2305 -0.4214
 8663SOL    HW137622   3.077   0.894   5.504 -1.0295 -0.0886 -1.2832
 8663SOL    HW237623   3.202   0.831   5.461  0.8607 -0.2054  0.6798
 8664SOL     OW37624   0.682   3.319   4.917  0.3337 -0.5275  0.3486
 8664SOL    HW137625   0.697   3.390   4.979 -1.9978 -1.2392  1.7075
 8664SOL    HW237626   0.721   3.352   4.836  1.9059  1.2726  1.8538
 8665SOL     OW37627   4.026   3.613   3.873 -0.0911  0.1111 -0.7847
 8665SOL    HW137628   3.954   3.656   3.825  0.9706  2.7801 -0.0232
 8665SOL    HW237629   3.981   3.571   3.946  2.4102  1.2547  1.4161
 8666SOL     OW37630   2.600   0.037  15.713 -0.1499  0.0991  0.2702
 8666SOL    HW137631   2.691   0.057  15.732 -0.3229  1.2045 -0.0594
 8666SOL    HW237632   2.565   0.094  15.781 -0.9395 -0.1114  0.0398
 8667SOL     OW37633   3.176   4.237  11.217  0.6974  0.2071  0.1508
 8667SOL    HW137634   3.144   4.148  11.229 -1.0637  1.0114  1.4975
 8667SOL    HW237635   3.107   4.270  11.159  0.4134  2.0747  1.5504
 8668SOL     OW37636   1.160   3.329   7.988  0.0297  0.3033  0.4824
 8668SOL    HW137637   1.090   3.311   8.050  1.1282 -1.7122  1.1461
 8668SOL    HW237638   1.224   3.368   8.048 -0.4577 -0.1970  1.3381
 8669SOL     OW37639   3.241   4.419  15.496  0.0601  0.2539 -0.0477
 8669SOL    HW137640   3.181   4.493  15.500  0.8363  0.9308 -0.7734
 8669SOL    HW237641   3.244   4.411  15.401 -0.6083 -2.5486  0.1861
 8670SOL     OW37642   2.008   4.333   5.112  0.4732  0.5479 -0.4375
 8670SOL    HW137643   2.060   4.408   5.082  0.0044  2.4237  3.4900
 8670SOL    HW237644   1.942   4.369   5.170  0.2028  3.2314 -2.4107
 8671SOL     OW37645   2.324   3.755   4.426 -0.6146  0.7816 -0.3081
 8671SOL    HW137646   2.266   3.711   4.364 -0.1471  2.6408 -2.0642
 8671SOL    HW237647   2.393   3.691   4.442 -0.0642  1.0089 -1.7573
 8672SOL     OW37648   0.265   1.324   6.407 -0.3366 -0.2449 -0.1262
 8672SOL    HW137649   0.183   1.283   6.379 -0.2557  0.3835 -1.2755
 8672SOL    HW237650   0.237   1.415   6.423  0.6608  0.0573 -0.1186
 8673SOL     OW37651   1.834   2.051   7.563 -0.3869  0.3077  0.3120
 8673SOL    HW137652   1.748   2.059   7.603 -0.4401  0.2287  0.2101
 8673SOL    HW237653   1.868   1.994   7.632 -1.1380 -1.0311 -0.4419
 8674SOL     OW37654   0.366   2.693  13.488  0.3998  0.6679 -0.3671
 8674SOL    HW137655   0.371   2.728  13.577  1.4725  1.6906 -0.8418
 8674SOL    HW237656   0.438   2.735  13.443 -0.2208  2.0409 -0.0813
 8675SOL     OW37657   1.843   4.001  11.624 -0.8163 -0.6440 -1.0094
 8675SOL    HW137658   1.818   3.942  11.553 -0.3432 -0.7926 -1.0527
 8675SOL    HW237659   1.843   4.089  11.587  1.3362  1.3774  3.8915
 8676SOL     OW37660   3.632   3.062   4.239 -0.3390  0.5379 -0.5724
 8676SOL    HW137661   3.571   3.005   4.191 -0.0771  0.5123 -0.8719
 8676SOL    HW237662   3.715   3.035   4.200 -0.8367 -0.9399 -0.6193
 8677SOL     OW37663   0.107   0.332  13.606 -0.3635  0.2298  0.1802
 8677SOL    HW137664   0.039   0.396  13.628 -0.6131 -0.4351  1.3316
 8677SOL    HW237665   0.059   0.251  13.624  1.4464 -0.6709  0.9584
 8678SOL     OW37666   4.480   0.914   8.208 -0.2610  0.1742 -0.2953
 8678SOL    HW137667   4.417   0.875   8.268  1.2856 -0.7379  0.7018
 8678SOL    HW237668   4.425   0.925   8.130 -0.4047  1.4654 -0.0199
 8679SOL     OW37669   1.389   1.606   1.760 -0.2358 -0.3441  0.0838
 8679SOL    HW137670   1.300   1.574   1.775 -0.1845 -1.3617 -1.8926
 8679SOL    HW237671   1.426   1.577   1.844 -0.8381 -0.9239  0.1517
 8680SOL     OW37672   0.931   2.645   2.395 -0.0745 -0.0842 -0.2337
 8680SOL    HW137673   0.994   2.583   2.431  0.1254 -0.3082 -0.9654
 8680SOL    HW237674   0.957   2.733   2.420  1.1708 -0.3922 -0.4514
 8681SOL     OW37675   0.987   0.861   2.985  0.3896 -0.4743 -0.1390
 8681SOL    HW137676   0.904   0.814   2.989 -0.1588  0.4909 -0.0780
 8681SOL    HW237677   1.026   0.841   3.070 -1.3552 -0.9821  0.5306
 8682SOL     OW37678   0.376   3.742   9.554  0.7662 -0.2677  0.0669
 8682SOL    HW137679   0.439   3.715   9.487  0.4379  0.0414 -0.3647
 8682SOL    HW237680   0.298   3.759   9.502  2.0936  2.5140 -1.0079
 8683SOL     OW37681   1.960   4.213   9.652  0.2948 -0.7475 -0.7768
 8683SOL    HW137682   1.879   4.174   9.618 -0.1855 -1.9464  1.7396
 8683SOL    HW237683   1.990   4.258   9.573 -0.9750  2.0620  0.3482
 8684SOL     OW37684   0.709   0.772  12.699  0.2220  0.6543 -0.0945
 8684SOL    HW137685   0.780   0.836  12.693  1.2665 -0.6689 -1.6628
 8684SOL    HW237686   0.637   0.830  12.673 -0.0864  0.0676 -0.5597
 8685SOL     OW37687   3.253   0.521  12.052 -0.3839  0.5560  0.0610
 8685SOL    HW137688   3.220   0.432  12.064  1.8415 -0.2536  0.2215
 8685SOL    HW237689   3.289   0.514  11.963  0.7269  1.7685  0.4040
 8686SOL     OW37690   1.424   1.124   7.820  0.3518  0.0216 -0.9372
 8686SOL    HW137691   1.401   1.183   7.748 -0.4006  1.9956  0.9217
 8686SOL    HW237692   1.340   1.106   7.863  0.6168 -0.3271 -0.5746
 8687SOL     OW37693   2.018   4.245  12.528 -0.4187  0.0991  0.0851
 8687SOL    HW137694   2.087   4.311  12.515 -0.3546  0.1968  0.9443
 8687SOL    HW237695   1.934   4.291  12.525 -1.6943 -2.5029 -3.8113
 8688SOL     OW37696   0.639   4.297   0.027 -0.3418 -0.0512  0.5700
 8688SOL    HW137697   0.632   4.203   0.013  0.1174  0.0917 -0.6419
 8688SOL    HW237698   0.721   4.316   0.074 -0.2878  0.5123  0.2491
 8689SOL     OW37699   4.337   4.096  12.181  0.3128  0.3592 -0.3084
 8689SOL    HW137700   4.399   4.169  12.192  1.9863 -0.7400 -2.3289
 8689SOL    HW237701   4.261   4.112  12.235  0.4465 -1.7789  0.4860
 8690SOL     OW37702   0.764   4.503   7.831  0.1063 -0.5785  0.6392
 8690SOL    HW137703   0.798   4.443   7.764 -1.8765  0.2997 -1.1438
 8690SOL    HW237704   0.822   4.580   7.829  1.1565 -1.3644  0.6040
 8691SOL     OW37705   1.333   3.167   9.607  0.2990  0.0178 -0.6700
 8691SOL    HW137706   1.325   3.092   9.665 -0.4505  2.7326  2.7788
 8691SOL    HW237707   1.255   3.137   9.561 -1.1798  0.1939  1.6804
 8692SOL     OW37708   4.278   1.070   4.404  0.6236 -0.2026  0.4934
 8692SOL    HW137709   4.268   1.091   4.311  0.9272 -0.9227  0.2989
 8692SOL    HW237710   4.190   1.035   4.418  0.2695 -0.0428 -1.2962
 8693SOL     OW37711   2.180   1.725   3.847  0.2398  0.5213  0.1780
 8693SOL    HW137712   2.099   1.722   3.899 -1.3627 -1.4621 -2.4548
 8693SOL    HW237713   2.236   1.693   3.918  0.5013  1.4824  0.4069
 8694SOL     OW37714   2.344   2.030   5.200  0.4207 -0.4357 -0.0301
 8694SOL    HW137715   2.376   1.941   5.184  1.4903  0.6258 -3.6390
 8694SOL    HW237716   2.364   2.043   5.293  0.5258 -1.1843  0.0564
 8695SOL     OW37717   4.443   4.562  13.774  0.2259 -0.4052 -0.6271
 8695SOL    HW137718   4.482   4.529  13.855  2.7574 -0.3798 -1.8199
 8695SOL    HW237719   4.447   4.478  13.728  0.1008 -0.3058 -0.8164
 8696SOL     OW37720   0.072   1.037   3.279 -1.0411  0.1178 -0.1913
 8696SOL    HW137721   0.076   1.114   3.221 -0.0656  2.3354  2.8141
 8696SOL    HW237722   0.130   0.969   3.245  0.3901  0.6330  1.1926
 8697SOL     OW37723   2.819   2.546   4.812  0.2812 -0.1848 -0.2306
 8697SOL    HW137724   2.769   2.477   4.854 -2.8310  1.1386 -1.7635
 8697SOL    HW237725   2.786   2.625   4.856 -0.6568 -0.8250  0.2064
 8698SOL     OW37726   3.264   0.986   6.546  0.0894 -0.3980 -0.3223
 8698SOL    HW137727   3.240   1.071   6.583  0.8642 -0.2435 -0.1772
 8698SOL    HW237728   3.218   0.976   6.462 -2.7779  0.4702  1.1411
 8699SOL     OW37729   0.744   4.411   5.379  0.7684  0.3374  0.3339
 8699SOL    HW137730   0.820   4.390   5.325 -0.3776 -3.4685  0.2033
 8699SOL    HW237731   0.743   4.507   5.388  0.0027  0.2872  0.7728
 8700SOL     OW37732   2.763   2.786   4.916 -0.5010 -0.1358 -0.2404
 8700SOL    HW137733   2.709   2.862   4.892 -0.0520 -0.5447 -2.5738
 8700SOL    HW237734   2.823   2.824   4.979  1.1699 -0.4727 -1.6172
 8701SOL     OW37735   3.796   4.527   4.510  0.1184  0.1431  0.3595
 8701SOL    HW137736   3.789   4.550   4.418  2.6212 -0.1588  0.0939
 8701SOL    HW237737   3.809   4.608   4.560 -1.7743  0.4337  0.3891
 8702SOL     OW37738   1.201   1.359  12.883 -0.5135  0.4603  0.2823
 8702SOL    HW137739   1.294   1.350  12.866 -0.4112  0.6784  0.7353
 8702SOL    HW237740   1.198   1.455  12.890  1.7975  0.6747 -1.6525
 8703SOL     OW37741   2.033   1.863   0.077 -0.2027 -0.2566 -0.0128
 8703SOL    HW137742   2.119   1.901   0.089 -0.7129  1.0953 -0.6951
 8703SOL    HW237743   2.017   1.888  17.728 -0.2945  0.1063  0.1053
 8704SOL     OW37744   0.550   2.808   7.312  0.3105 -0.2325  0.0134
 8704SOL    HW137745   0.641   2.811   7.283  0.2770 -1.6821 -0.2191
 8704SOL    HW237746   0.542   2.898   7.344  1.0080  0.1394 -0.8699
 8705SOL     OW37747   2.588   2.301  10.026  0.3446 -0.2951 -0.4858
 8705SOL    HW137748   2.679   2.278  10.041 -0.3451 -0.9058  2.7498
 8705SOL    HW237749   2.558   2.313  10.116  0.3510 -0.0341 -0.5184
 8706SOL     OW37750   0.644   3.210   3.302 -0.4101  0.4104 -0.4901
 8706SOL    HW137751   0.615   3.290   3.258 -0.4040  0.1852 -0.9033
 8706SOL    HW237752   0.712   3.249   3.357 -0.2980 -0.4958  0.0034
 8707SOL     OW37753   1.394   3.420   9.666  0.7193  0.0519 -0.0639
 8707SOL    HW137754   1.469   3.392   9.717  0.0676 -0.2205  0.7422
 8707SOL    HW237755   1.353   3.337   9.644 -0.7782  0.9150 -0.6002
 8708SOL     OW37756   0.742   0.314   7.962  0.5275 -0.2048 -0.1546
 8708SOL    HW137757   0.751   0.243   7.898 -1.5410 -0.7157  0.1087
 8708SOL    HW237758   0.650   0.337   7.950 -0.0642 -2.0248  0.8337
 8709SOL     OW37759   2.606   1.659   2.121  0.2886  0.1169 -0.0775
 8709SOL    HW137760   2.633   1.675   2.031 -1.5901 -0.8775 -0.8199
 8709SOL    HW237761   2.510   1.661   2.119  0.2785 -0.9490 -0.8679
 8710SOL     OW37762   4.011   3.868   7.976 -0.0403  0.5713  0.1806
 8710SOL    HW137763   4.038   3.787   7.933 -4.5586 -0.1416 -1.3128
 8710SOL    HW237764   4.015   3.823   8.061 -2.8947  0.6901  0.3641
 8711SOL     OW37765   4.332   4.610   2.638 -0.6638 -0.3502  0.4216
 8711SOL    HW137766   4.318   4.539   2.700  0.2941  1.2647  2.4941
 8711SOL    HW237767   4.276   4.587   2.564  2.5351  1.4319 -2.5635
 8712SOL     OW37768   0.281   0.548   5.925 -0.7623  0.1766 -0.3125
 8712SOL    HW137769   0.196   0.559   5.967 -0.8117 -1.2853 -0.0270
 8712SOL    HW237770   0.314   0.471   5.970 -0.5857  0.7082  0.4547
 8713SOL     OW37771   3.217   2.436   4.711 -0.0862  0.1585 -0.1817
 8713SOL    HW137772   3.131   2.437   4.667 -0.3557  2.6790  0.4156
 8713SOL    HW237773   3.250   2.524   4.691  1.7523 -0.4377  0.2278
 8714SOL     OW37774   1.571   3.189   8.057 -0.0187  0.1229 -0.1564
 8714SOL    HW137775   1.582   3.198   7.962 -3.0771 -1.0411 -0.6325
 8714SOL    HW237776   1.500   3.251   8.073  0.6772  0.4347  1.7089
 8715SOL     OW37777   2.878   1.284   3.548 -0.0075  0.3931  0.2340
 8715SOL    HW137778   2.861   1.279   3.642 -0.3262  1.2403  0.2216
 8715SOL    HW237779   2.807   1.231   3.513 -1.2854  2.2246  0.0370
 8716SOL     OW37780   2.182   2.389   3.551 -0.0988  0.0995 -0.4313
 8716SOL    HW137781   2.152   2.310   3.506  2.4097 -1.2740  0.3326
 8716SOL    HW237782   2.208   2.449   3.481 -1.0575  0.3201 -0.6084
 8717SOL     OW37783   2.467   1.705  11.393  0.0286  0.1262  0.3289
 8717SOL    HW137784   2.530   1.727  11.324 -0.0533 -0.7431 -0.0251
 8717SOL    HW237785   2.522   1.638  11.433  0.6626  0.2931 -0.2556
 8718SOL     OW37786   1.647   0.606   7.307 -0.1314  0.1256  0.3054
 8718SOL    HW137787   1.613   0.582   7.221  2.5614 -1.0358 -0.4224
 8718SOL    HW237788   1.681   0.694   7.288 -1.4634  0.8898  1.4225
 8719SOL     OW37789   0.092   4.477   4.931 -0.7348 -0.1112  0.2378
 8719SOL    HW137790   0.042   4.481   4.850  0.1295  2.3649 -0.1851
 8719SOL    HW237791   0.057   4.399   4.974  0.7783  0.3592  2.3477
 8720SOL     OW37792   3.730   4.456   5.446  0.9074 -0.2678 -0.2861
 8720SOL    HW137793   3.796   4.400   5.489 -0.1081 -0.6974  0.7095
 8720SOL    HW237794   3.667   4.457   5.518 -0.9032  0.1235 -1.8807
 8721SOL     OW37795   3.051   3.774  10.428  0.1630 -0.0955 -0.1533
 8721SOL    HW137796   3.132   3.806  10.388  1.0061 -0.2826  1.3674
 8721SOL    HW237797   3.084   3.686  10.447 -0.9163 -0.6647 -0.9462
 8722SOL     OW37798   2.716   2.229   6.317 -0.4744 -0.1643 -0.5218
 8722SOL    HW137799   2.801   2.189   6.298 -0.6094 -0.8370  0.2930
 8722SOL    HW237800   2.733   2.317   6.350 -0.9099  0.3946 -1.7760
 8723SOL     OW37801   4.730   0.547  12.826 -0.4746  0.2539 -0.5481
 8723SOL    HW137802   0.081   0.508  12.835 -0.9648 -0.0844  2.9011
 8723SOL    HW237803   0.002   0.641  12.843 -1.3821  0.2984 -0.3706
 8724SOL     OW37804   3.038   3.009   5.264 -0.1644 -0.6338 -0.0323
 8724SOL    HW137805   3.059   3.081   5.324  0.3244 -0.4279 -0.4513
 8724SOL    HW237806   3.028   3.058   5.183 -0.3767  2.6852  1.9686
 8725SOL     OW37807   3.208   1.390   7.296  0.2534  0.2313  0.3184
 8725SOL    HW137808   3.220   1.389   7.201  0.1349 -0.5185  0.3082
 8725SOL    HW237809   3.243   1.305   7.324 -2.9786 -0.7156  1.4802
 8726SOL     OW37810   4.261   1.918   3.845  0.2340  0.4051  0.4980
 8726SOL    HW137811   4.343   1.869   3.845 -1.2081 -2.0326  0.2463
 8726SOL    HW237812   4.242   1.935   3.753  1.6355  0.9658  0.3178
 8727SOL     OW37813   0.160   2.395  16.622  0.3100  0.0935  0.5384
 8727SOL    HW137814   0.215   2.389  16.700  0.1726  1.5818  0.7510
 8727SOL    HW237815   0.170   2.488  16.600 -0.6218 -0.2787 -1.4580
 8728SOL     OW37816   4.502   1.330   6.513  0.3662  0.1171  0.6439
 8728SOL    HW137817   4.408   1.339   6.497  0.6832  2.0830 -0.1257
 8728SOL    HW237818   4.520   1.244   6.550  1.0904 -0.4913 -1.1429
 8729SOL     OW37819   3.576   3.502   6.311  0.0133 -0.3680 -0.2186
 8729SOL    HW137820   3.520   3.425   6.307 -1.0398  0.3600  0.4094
 8729SOL    HW237821   3.556   3.532   6.399  0.4267  0.9479 -0.5671
 8730SOL     OW37822   3.138   1.104   7.778  0.1858 -0.4597  0.3621
 8730SOL    HW137823   3.096   1.067   7.700  0.7467 -1.1620  0.3971
 8730SOL    HW237824   3.226   1.114   7.740 -1.4850 -0.3728 -3.4589
 8731SOL     OW37825   2.956   1.358   8.140  0.1413  0.1410 -0.0157
 8731SOL    HW137826   2.967   1.331   8.049  1.9777 -0.1170  0.2722
 8731SOL    HW237827   3.043   1.396   8.153 -0.6391  2.4633 -1.5524
 8732SOL     OW37828   2.619   4.531   1.057  0.7433 -0.2373  0.3357
 8732SOL    HW137829   2.563   4.599   1.092  0.9774  0.4885 -0.6946
 8732SOL    HW237830   2.561   4.455   1.048  1.0394 -0.5862  1.4151
 8733SOL     OW37831   1.086   0.789   8.759  0.3020 -0.2905 -0.0392
 8733SOL    HW137832   1.129   0.851   8.818 -1.0986  0.3540  0.3244
 8733SOL    HW237833   1.147   0.795   8.686 -0.8290  0.5069 -0.9234
 8734SOL     OW37834   2.504   0.139   5.050 -1.0508  0.0912  0.5246
 8734SOL    HW137835   2.561   0.206   5.087  1.2984 -0.7534 -1.6460
 8734SOL    HW237836   2.507   0.070   5.117 -1.4008 -1.0168 -0.6031
 8735SOL     OW37837   0.870   0.498   3.440 -0.0969  0.2463 -0.2027
 8735SOL    HW137838   0.775   0.502   3.445 -0.2571  0.9140 -3.9323
 8735SOL    HW237839   0.890   0.592   3.442  1.9725 -0.1652 -1.1349
 8736SOL     OW37840   2.484   4.311  11.285 -0.2593  0.0066  0.6145
 8736SOL    HW137841   2.455   4.268  11.204 -0.1853  0.5009  0.3244
 8736SOL    HW237842   2.414   4.375  11.296 -0.7513 -0.4194 -0.0460
 8737SOL     OW37843   3.419   3.262   6.631 -0.2019  0.3301  0.4240
 8737SOL    HW137844   3.399   3.355   6.644  0.1647  0.4678 -0.0241
 8737SOL    HW237845   3.440   3.264   6.538 -0.9350  0.9128  0.2710
 8738SOL     OW37846   4.618   3.682   2.009  0.0594  0.3837  0.4581
 8738SOL    HW137847   4.637   3.767   2.048  0.4834  1.4424 -2.0794
 8738SOL    HW237848   4.524   3.695   2.005  0.2966  0.7281 -4.0972
 8739SOL     OW37849   1.015   2.363   8.229  0.3339 -0.3517  0.1063
 8739SOL    HW137850   1.085   2.313   8.187  0.3787  0.2016 -0.4850
 8739SOL    HW237851   0.944   2.334   8.170  0.1473  2.3756 -1.0229
 8740SOL     OW37852   0.875   3.777   7.344  0.6254  0.0197  0.3756
 8740SOL    HW137853   0.801   3.783   7.283  1.4175 -0.0086 -0.5914
 8740SOL    HW237854   0.843   3.709   7.403 -1.5760  0.9711  0.2924
 8741SOL     OW37855   3.123   4.090   0.915 -0.7936 -0.1270 -0.0591
 8741SOL    HW137856   3.044   4.138   0.941  0.7597  1.4846  1.7526
 8741SOL    HW237857   3.094   4.065   0.828  1.1672  0.6620 -0.9535
 8742SOL     OW37858   3.421   3.272   8.964 -0.0892  0.3108 -0.6902
 8742SOL    HW137859   3.509   3.306   8.951  0.6037 -0.1235  2.8645
 8742SOL    HW237860   3.446   3.196   9.018  1.1938 -0.2704 -2.1071
 8743SOL     OW37861   0.009   3.454   5.219  0.5424 -0.0569 -0.1878
 8743SOL    HW137862   4.690   3.443   5.297  0.7412  2.3218  0.2735
 8743SOL    HW237863   0.096   3.475   5.251  0.7256 -0.5809 -0.3331
 8744SOL     OW37864   3.289   1.824   0.139  0.0852 -0.1858  0.0431
 8744SOL    HW137865   3.243   1.825   0.223  2.6357  1.0532  1.4258
 8744SOL    HW237866   3.341   1.904   0.149  1.2768 -0.9231 -0.4038
 8745SOL     OW37867   2.102   2.945  11.577 -0.1290 -0.5129  0.4533
 8745SOL    HW137868   2.156   3.024  11.576 -1.0817  0.1350  0.0157
 8745SOL    HW237869   2.153   2.892  11.516  2.1982 -0.0602  2.0163
 8746SOL     OW37870   2.175   0.410   5.448  0.0496 -0.5395  0.0475
 8746SOL    HW137871   2.147   0.382   5.360  2.2994  0.5377 -1.0049
 8746SOL    HW237872   2.232   0.338   5.475 -1.1548 -2.1560 -1.6731
 8747SOL     OW37873   4.098   3.623  10.291  0.1040 -0.2553  0.6818
 8747SOL    HW137874   4.128   3.633  10.382  1.3569 -2.2362  0.4747
 8747SOL    HW237875   4.151   3.687  10.244 -2.0741  0.2399 -1.1011
 8748SOL     OW37876   3.968   0.025   2.260 -0.1066  0.1745  0.4381
 8748SOL    HW137877   3.988   4.705   2.335  2.2240 -1.2578 -1.2362
 8748SOL    HW237878   4.053   0.059   2.233  0.8858 -0.4679  2.8528
 8749SOL     OW37879   0.725   4.077   9.103 -0.7779 -0.5267  0.1895
 8749SOL    HW137880   0.754   4.089   9.013  0.4959  0.5137  0.7479
 8749SOL    HW237881   0.713   3.982   9.103 -0.9270 -0.5140 -2.0751
 8750SOL     OW37882   2.414   0.484   8.638  0.1125 -0.0374  0.2143
 8750SOL    HW137883   2.419   0.550   8.708 -0.2596  1.9678 -1.6468
 8750SOL    HW237884   2.469   0.519   8.568 -0.5579 -0.3334 -0.4528
 8751SOL     OW37885   1.114   0.740   9.364 -0.4546 -0.3979 -0.0003
 8751SOL    HW137886   1.052   0.689   9.313  0.2494 -0.4997 -0.7627
 8751SOL    HW237887   1.185   0.765   9.305 -0.9789  1.6293  0.2506
 8752SOL     OW37888   1.474   0.467   9.729 -0.4640  0.1803  0.8724
 8752SOL    HW137889   1.438   0.477   9.817 -0.4086 -0.7660  1.0028
 8752SOL    HW237890   1.420   0.395   9.697  2.2705 -1.0349 -1.0588
 8753SOL     OW37891   1.249   1.283   4.273 -0.4473  0.3107 -0.2345
 8753SOL    HW137892   1.195   1.302   4.349 -0.0572  0.4668  0.0055
 8753SOL    HW237893   1.331   1.265   4.319  1.3539  2.3363 -2.6005
 8754SOL     OW37894   1.062   0.346  11.616 -0.2221  0.4657  0.4878
 8754SOL    HW137895   1.019   0.421  11.658  1.8632  1.6180  0.5553
 8754SOL    HW237896   1.014   0.336  11.534 -1.3289 -2.1167  1.4584
 8755SOL     OW37897   1.026   2.332   2.367  0.3179 -0.0846 -0.0813
 8755SOL    HW137898   1.010   2.266   2.434 -0.9976 -0.8053 -1.1122
 8755SOL    HW237899   1.108   2.298   2.332  0.2072 -1.2550  0.8171
 8756SOL     OW37900   4.335   0.211   0.123  0.5216  0.1815 -0.5811
 8756SOL    HW137901   4.328   0.126   0.079  0.2299  0.0597 -0.2897
 8756SOL    HW237902   4.332   0.274   0.051  0.5385 -2.0982 -2.6240
 8757SOL     OW37903   3.733   0.829   2.340  0.0513  0.1189 -0.5463
 8757SOL    HW137904   3.655   0.835   2.394  0.2094  0.2386 -0.3273
 8757SOL    HW237905   3.750   0.735   2.344  0.7881  0.1932 -1.6478
 8758SOL     OW37906   3.995   0.179   4.813  0.2503 -0.5336 -0.3365
 8758SOL    HW137907   3.989   0.275   4.814  2.9558 -0.3700  0.5649
 8758SOL    HW237908   4.000   0.161   4.907 -0.1585  1.2632  0.0296
 8759SOL     OW37909   1.295   2.866   7.917 -0.1712 -0.0781  0.1287
 8759SOL    HW137910   1.216   2.884   7.968 -0.4217 -2.3470  0.5390
 8759SOL    HW237911   1.321   2.947   7.873 -0.0153 -0.1641  0.0651
 8760SOL     OW37912   0.860   3.697   7.904  0.2918 -0.4314  0.2504
 8760SOL    HW137913   0.773   3.692   7.864  0.9381 -3.8517 -0.6741
 8760SOL    HW237914   0.901   3.622   7.861 -1.8007 -0.4139 -1.8018
 8761SOL     OW37915   1.442   0.135   2.670  0.2339 -0.0672  0.3094
 8761SOL    HW137916   1.396   0.153   2.752 -0.6695  1.6234 -0.5728
 8761SOL    HW237917   1.435   0.216   2.621 -0.7020 -0.0778  0.4362
 8762SOL     OW37918   0.017   4.303  13.827  0.5005  0.1900  0.3514
 8762SOL    HW137919   0.108   4.326  13.850  0.5947 -0.0977  0.2625
 8762SOL    HW237920   0.028   4.211  13.802 -1.2325  0.7428 -2.3919
 8763SOL     OW37921   1.683   4.139  15.649  0.0326  0.4186 -0.0426
 8763SOL    HW137922   1.731   4.100  15.576  0.6254  1.0553  0.0005
 8763SOL    HW237923   1.752   4.155  15.714  0.4099  0.3673 -0.4307
 8764SOL     OW37924   2.799   0.432  12.153  0.3619  0.0234 -0.3849
 8764SOL    HW137925   2.859   0.383  12.098  0.4403  0.4157 -0.6434
 8764SOL    HW237926   2.781   0.499  12.087  0.7274  1.4534  0.9552
 8765SOL     OW37927   4.234   1.706   4.038 -0.2026 -0.3182  0.3491
 8765SOL    HW137928   4.273   1.642   3.979  0.3711  1.8005 -1.5926
 8765SOL    HW237929   4.256   1.787   3.991  1.1677 -1.5043 -1.0827
 8766SOL     OW37930   0.422   0.995   6.829 -0.0386  0.5290 -0.5708
 8766SOL    HW137931   0.404   0.916   6.879  1.6389  0.7067  0.3254
 8766SOL    HW237932   0.340   1.009   6.781  0.1723  0.1648 -1.0400
 8767SOL     OW37933   1.815   2.791   6.212 -0.0263  0.2826 -0.0013
 8767SOL    HW137934   1.885   2.856   6.199 -2.0223  2.7646  1.6146
 8767SOL    HW237935   1.872   2.720   6.239  0.7359  0.5005 -1.0236
 8768SOL     OW37936   0.732   0.982   5.935  0.2314  0.0887 -0.5762
 8768SOL    HW137937   0.766   0.969   5.846  0.7088 -1.1427 -0.2073
 8768SOL    HW237938   0.776   0.915   5.988 -0.0292  0.7407  0.4457
 8769SOL     OW37939   2.857   3.909   3.142 -0.1565 -0.3953  0.0224
 8769SOL    HW137940   2.851   4.000   3.169  2.0617 -0.1475 -0.3820
 8769SOL    HW237941   2.842   3.856   3.220 -1.3535 -0.1387 -0.0386
 8770SOL     OW37942   4.383   3.295  14.303 -0.0959  0.2432 -0.3067
 8770SOL    HW137943   4.404   3.252  14.386  2.7708  0.4426 -0.9398
 8770SOL    HW237944   4.288   3.285  14.314  0.0213 -2.1713 -1.6539
 8771SOL     OW37945   3.698   1.860   8.721 -0.2887 -0.1688  0.2104
 8771SOL    HW137946   3.748   1.881   8.800 -0.0759 -0.7421  0.2310
 8771SOL    HW237947   3.670   1.945   8.689  0.8705  0.5235  1.0388
 8772SOL     OW37948   2.019   0.081   9.411  0.7187 -0.6348 -0.0930
 8772SOL    HW137949   2.062   0.060   9.493  1.2625  2.5012  0.4363
 8772SOL    HW237950   1.942   0.027   9.428  0.8134 -0.9821 -0.7484
 8773SOL     OW37951   2.501   2.027   6.791 -0.5817 -0.2379  0.2910
 8773SOL    HW137952   2.448   2.083   6.848 -0.1436  2.0655 -1.5435
 8773SOL    HW237953   2.509   2.080   6.711  0.3430  0.9622  1.1659
 8774SOL     OW37954   2.998   1.454   5.231  0.5862 -0.4726  0.0065
 8774SOL    HW137955   2.944   1.533   5.232  2.9056  1.0976  0.4420
 8774SOL    HW237956   3.080   1.495   5.203 -0.0032  0.5500 -0.2133
 8775SOL     OW37957   3.744   3.200   9.036 -0.1390 -0.1692  0.5286
 8775SOL    HW137958   3.780   3.123   8.991 -0.6145  1.0473 -1.9188
 8775SOL    HW237959   3.757   3.179   9.129  1.4142  0.6342  0.4880
 8776SOL     OW37960   0.795   2.944   0.616  0.1952  0.4518 -0.3984
 8776SOL    HW137961   0.743   2.928   0.695 -0.5825  0.6274 -0.8800
 8776SOL    HW237962   0.721   2.949   0.555 -0.9946  1.8111  1.1576
 8777SOL     OW37963   0.157   2.167   8.324  0.9171 -0.3999 -0.5849
 8777SOL    HW137964   0.124   2.144   8.411  2.5737 -0.9320 -0.1104
 8777SOL    HW237965   0.239   2.119   8.321  0.6028 -0.9548 -0.1789
 8778SOL     OW37966   0.776   3.300   2.537 -0.5131  0.8395 -0.3767
 8778SOL    HW137967   0.711   3.247   2.491 -0.8690 -0.4535  1.6145
 8778SOL    HW237968   0.735   3.386   2.540 -0.4128  0.7901  1.9230
 8779SOL     OW37969   2.002   4.541   8.121  0.2491 -0.3445 -0.4365
 8779SOL    HW137970   2.057   4.600   8.172 -2.4284  0.1238  1.8879
 8779SOL    HW237971   1.948   4.606   8.076 -0.1185 -1.2827 -1.3551
 8780SOL     OW37972   1.528   1.459   4.605 -0.0936  0.4574  0.4832
 8780SOL    HW137973   1.596   1.391   4.606 -1.0423 -0.5399 -2.7097
 8780SOL    HW237974   1.588   1.530   4.628 -0.0296 -0.0926  2.0102
 8781SOL     OW37975   1.170   4.554   5.883 -0.4284 -0.1717  0.0123
 8781SOL    HW137976   1.086   4.510   5.896  0.9497 -2.9309 -0.3875
 8781SOL    HW237977   1.148   4.639   5.845 -2.0268  0.3717  2.1872
 8782SOL     OW37978   0.315   0.236   5.789 -0.2903 -0.3642  0.0182
 8782SOL    HW137979   0.352   0.195   5.711 -0.4962  0.8785 -0.7282
 8782SOL    HW237980   0.398   0.252   5.834  0.4079 -1.4032 -0.8877
 8783SOL     OW37981   0.795   2.003   4.425  0.7266 -0.1038 -0.4844
 8783SOL    HW137982   0.789   1.915   4.461  1.0445  0.8869  2.0311
 8783SOL    HW237983   0.841   1.992   4.342  0.9230 -1.5749 -0.1729
 8784SOL     OW37984   3.662   2.466   6.419 -0.0655  0.5096  0.0860
 8784SOL    HW137985   3.673   2.408   6.343 -0.5508  1.7065 -0.8830
 8784SOL    HW237986   3.674   2.412   6.498  1.1305  0.6123 -0.0283
 8785SOL     OW37987   1.150   1.793   9.399  0.2498  0.0085 -0.1019
 8785SOL    HW137988   1.056   1.814   9.404 -0.1412 -1.9954  0.8697
 8785SOL    HW237989   1.161   1.753   9.313  0.7014  1.4860 -0.7259
 8786SOL     OW37990   4.710   3.377   5.769 -0.2426  0.5476 -0.1483
 8786SOL    HW137991   4.726   3.454   5.823  2.3364  0.8636 -1.3932
 8786SOL    HW237992   4.616   3.388   5.753  0.1408 -0.0124 -2.8299
 8787SOL     OW37993   1.295   2.744   5.352 -0.0446  0.4025 -0.4246
 8787SOL    HW137994   1.354   2.772   5.422  0.4595 -0.0357 -0.6763
 8787SOL    HW237995   1.262   2.824   5.312  0.5179  1.4362  1.1571
 8788SOL     OW37996   1.814   0.442  12.352  0.1101  0.3730  0.8081
 8788SOL    HW137997   1.719   0.456  12.343 -0.4312 -2.3219  2.2560
 8788SOL    HW237998   1.844   0.533  12.346 -0.2026  0.3844 -0.5628
 8789SOL     OW37999   0.992   1.505   9.918 -0.1115  0.6180  0.0332
 8789SOL    HW138000   1.057   1.556   9.868 -0.4335  0.7371 -0.2620
 8789SOL    HW238001   0.928   1.574   9.938 -0.7631  0.0592 -0.1458
 8790SOL     OW38002   1.490   1.892   7.986 -0.6557 -0.0194 -0.0060
 8790SOL    HW138003   1.479   1.879   8.080  0.3042 -2.0181 -0.1691
 8790SOL    HW238004   1.458   1.981   7.971  0.1741  0.3929  0.6361
 8791SOL     OW38005   3.394   3.025   0.663 -0.1161  0.2175  0.5427
 8791SOL    HW138006   3.467   3.018   0.725  0.0144  0.0341  0.3708
 8791SOL    HW238007   3.391   2.939   0.622 -1.1578  0.1787  0.7083
 8792SOL     OW38008   2.381   4.670  12.797  0.1469 -0.3756 -0.2976
 8792SOL    HW138009   2.290   4.659  12.825 -0.7890 -0.2429 -3.2514
 8792SOL    HW238010   2.387   4.593  12.742 -0.7111  0.0830 -1.0290
 8793SOL     OW38011   1.537   0.647   4.062  0.0179  0.4731  0.2462
 8793SOL    HW138012   1.455   0.675   4.103 -0.3822 -0.3825  0.0475
 8793SOL    HW238013   1.606   0.660   4.127  0.0023 -2.5317  0.8775
 8794SOL     OW38014   4.488   4.581   6.192  0.4128  0.1727 -0.5342
 8794SOL    HW138015   4.565   4.608   6.141  0.5393  0.2873 -0.2810
 8794SOL    HW238016   4.525   4.504   6.235 -1.9198  0.3853  1.8201
 8795SOL     OW38017   1.182   3.593  16.411  0.1604  0.7644 -0.2963
 8795SOL    HW138018   1.211   3.675  16.451 -1.2865  1.7904 -1.3585
 8795SOL    HW238019   1.089   3.598  16.432  0.3827 -1.8870  1.3247
 8796SOL     OW38020   3.843   2.924  10.635 -0.0534 -0.0433 -0.1230
 8796SOL    HW138021   3.779   2.884  10.694 -1.5117  0.4727 -1.3282
 8796SOL    HW238022   3.779   2.946  10.567 -3.8217 -0.4749  3.2331
 8797SOL     OW38023   3.856   2.664   3.718 -0.0165 -0.1260 -0.1296
 8797SOL    HW138024   3.839   2.590   3.776  2.3918 -1.8464 -1.6329
 8797SOL    HW238025   3.952   2.664   3.721 -0.0875  1.1796  2.1795
 8798SOL     OW38026   4.018   4.502   8.585 -0.7654  0.1214 -0.4544
 8798SOL    HW138027   4.112   4.504   8.604 -0.5957  1.8957 -1.4527
 8798SOL    HW238028   4.018   4.533   8.494  1.3398 -2.6345 -1.3916
 8799SOL     OW38029   4.489   4.616  15.257 -0.1281 -0.3487 -0.3108
 8799SOL    HW138030   4.515   4.589  15.168  1.1422  0.6863 -0.2579
 8799SOL    HW238031   4.425   4.684  15.240 -0.1011 -0.5317 -1.2003
 8800SOL     OW38032   1.040   4.141   2.140  0.3333  0.4812 -0.0262
 8800SOL    HW138033   1.094   4.218   2.118  0.7068  0.4282  0.7037
 8800SOL    HW238034   1.048   4.100   2.054  1.0170 -0.3333  0.4272
 8801SOL     OW38035   0.808   2.081   1.619 -0.2087 -0.6871  0.0596
 8801SOL    HW138036   0.796   2.088   1.525 -0.7118  0.2669  0.1970
 8801SOL    HW238037   0.772   1.993   1.625 -0.8876 -0.5622 -2.6101
 8802SOL     OW38038   3.073   3.085   8.386  0.1157  0.6366 -0.5678
 8802SOL    HW138039   3.059   3.040   8.303 -0.1189 -0.8444  0.2641
 8802SOL    HW238040   3.145   3.142   8.360  0.6843  1.2487  2.3574
 8803SOL     OW38041   3.177   1.085   8.324 -0.0463  0.2543 -0.2533
 8803SOL    HW138042   3.263   1.042   8.331 -0.3933 -0.0707  2.1034
 8803SOL    HW238043   3.188   1.150   8.255  0.5453  1.3012  0.8178
 8804SOL     OW38044   0.866   0.243   1.983 -0.0892  0.0242 -0.2288
 8804SOL    HW138045   0.877   0.190   2.062 -2.2849 -1.0750 -0.6775
 8804SOL    HW238046   0.771   0.248   1.984 -0.1780 -1.9239  0.8986
 8805SOL     OW38047   0.043   4.219  16.559 -0.0608  0.4581  0.3580
 8805SOL    HW138048   0.071   4.209  16.650  2.6996  0.1014 -0.5578
 8805SOL    HW238049   0.129   4.222  16.517  0.1846 -2.1795  0.6382
 8806SOL     OW38050   2.456   0.531   9.178 -0.1840  0.9867  0.5722
 8806SOL    HW138051   2.501   0.575   9.250 -1.2481  0.2174  1.7121
 8806SOL    HW238052   2.423   0.610   9.135 -1.7021  0.1176  0.1614
 8807SOL     OW38053   0.994   3.200   2.331  0.0357 -0.0934 -0.2145
 8807SOL    HW138054   0.996   3.114   2.371  0.7856  0.4240  0.8513
 8807SOL    HW238055   1.015   3.259   2.404 -0.3582 -1.9920  1.4173
 8808SOL     OW38056   1.603   3.477   9.840 -0.4942  0.0530  0.6547
 8808SOL    HW138057   1.575   3.544   9.902 -1.3877  1.0017 -0.7791
 8808SOL    HW238058   1.640   3.525   9.765  0.2222 -1.5747 -0.0255
 8809SOL     OW38059   3.733   3.560   9.813 -0.1513 -0.0199  0.2409
 8809SOL    HW138060   3.641   3.537   9.802  0.0343 -1.4240  1.6291
 8809SOL    HW238061   3.769   3.479   9.778  0.0313  0.8104 -1.4792
 8810SOL     OW38062   0.739   2.487   9.517 -0.2552 -0.2466 -0.3506
 8810SOL    HW138063   0.719   2.556   9.580 -5.4411  0.1280 -2.3868
 8810SOL    HW238064   0.672   2.490   9.448  0.3387 -1.2709 -0.9676
 8811SOL     OW38065   1.711   1.651   5.643 -0.1202 -0.3351  0.2171
 8811SOL    HW138066   1.754   1.625   5.725 -1.3743  0.0176  0.9881
 8811SOL    HW238067   1.690   1.744   5.654  0.2295  0.1097 -2.9828
 8812SOL     OW38068   1.206   4.628   6.136  1.0440 -0.1134  0.4026
 8812SOL    HW138069   1.202   4.600   6.044  0.5182 -1.2055  0.7620
 8812SOL    HW238070   1.147   4.704   6.132  0.9263 -0.2032  0.4225
 8813SOL     OW38071   0.281   2.928   3.553  0.2192 -0.2099  0.2425
 8813SOL    HW138072   0.356   2.972   3.514 -0.6248  0.7077 -0.3422
 8813SOL    HW238073   0.299   2.840   3.520 -0.2666 -0.1907 -0.0713
 8814SOL     OW38074   3.698   2.373   0.254 -0.3042 -0.2132  0.3643
 8814SOL    HW138075   3.723   2.437   0.321  0.8587 -0.5831  0.2905
 8814SOL    HW238076   3.660   2.427   0.185  0.5837 -0.8678 -0.6455
 8815SOL     OW38077   0.279   0.534   1.738  0.2323 -0.1274  0.9405
 8815SOL    HW138078   0.198   0.498   1.772 -0.4468 -0.5970 -1.1335
 8815SOL    HW238079   0.269   0.558   1.646 -1.6115 -1.0119  0.9196
 8816SOL     OW38080   0.972   3.846   9.810 -0.7420  0.4646 -0.2341
 8816SOL    HW138081   1.024   3.926   9.822 -0.6399  0.7462 -2.4905
 8816SOL    HW238082   1.040   3.779   9.803 -0.1343  1.4545 -4.2012
 8817SOL     OW38083   2.817   4.711   8.070  1.3134  0.6163 -0.1936
 8817SOL    HW138084   2.902   4.669   8.079  1.0994 -0.2274 -2.2352
 8817SOL    HW238085   2.763   4.636   8.093 -0.6995  2.4074  0.9815
 8818SOL     OW38086   1.191   2.254   8.440  0.1715  0.0926  0.2206
 8818SOL    HW138087   1.186   2.348   8.428  3.1659  0.2389  0.1607
 8818SOL    HW238088   1.265   2.250   8.501  1.0224 -2.0217 -0.9323
 8819SOL     OW38089   3.861   1.366  13.274 -0.1145  0.0792 -0.0047
 8819SOL    HW138090   3.848   1.303  13.203 -0.6818  1.8111 -1.4396
 8819SOL    HW238091   3.839   1.318  13.354  0.1726 -0.0060  0.0229
 8820SOL     OW38092   1.887   3.289   9.890  0.0354 -0.5345  0.4616
 8820SOL    HW138093   1.822   3.247   9.834  1.2125  0.2041 -1.4656
 8820SOL    HW238094   1.890   3.376   9.849 -2.4452 -1.4943 -1.7381
 8821SOL     OW38095   4.332   1.877   1.993 -0.3286  0.2238  0.0467
 8821SOL    HW138096   4.357   1.831   1.913  0.2671 -0.9094  0.8869
 8821SOL    HW238097   4.393   1.829   2.049  0.3939  0.3742 -0.5993
 8822SOL     OW38098   0.995   3.462   4.939 -0.2888  0.3959 -0.2419
 8822SOL    HW138099   1.007   3.405   5.015  0.4435  1.2010  0.2450
 8822SOL    HW238100   0.937   3.534   4.964 -2.9407 -1.6128 -0.5852
 8823SOL     OW38101   1.695   0.152   4.731 -0.0523 -0.1726 -0.0000
 8823SOL    HW138102   1.609   0.187   4.756  0.4957  0.5653  0.8562
 8823SOL    HW238103   1.748   0.137   4.809 -2.4497  1.0822  1.8659
 8824SOL     OW38104   1.638   2.415   2.359 -0.3465  0.0024  0.1771
 8824SOL    HW138105   1.712   2.463   2.322  0.1895 -0.8834  0.1172
 8824SOL    HW238106   1.562   2.469   2.336 -1.0445 -0.1922  2.0850
 8825SOL     OW38107   0.966   3.898   0.371 -0.2018 -0.5172 -0.5537
 8825SOL    HW138108   1.050   3.887   0.416  0.0947 -0.3819 -1.0724
 8825SOL    HW238109   0.961   3.994   0.370 -1.1013 -0.6149 -3.9283
 8826SOL     OW38110   4.101   3.205   9.196  1.1097  0.0914 -0.2371
 8826SOL    HW138111   4.136   3.181   9.282 -2.3709  0.3566  1.2378
 8826SOL    HW238112   4.138   3.134   9.143 -0.0680 -1.4738  1.0446
 8827SOL     OW38113   0.284   2.776  17.691 -0.4249  0.0453 -1.4131
 8827SOL    HW138114   0.357   2.738  17.739 -0.4138  0.6292 -0.9609
 8827SOL    HW238115   0.233   2.695  17.691 -0.5660  0.1391  1.4016
 8828SOL     OW38116   0.997   1.211   7.805  0.4036  0.5504  0.2417
 8828SOL    HW138117   0.939   1.276   7.765 -0.9533 -0.6185  0.3015
 8828SOL    HW238118   0.984   1.136   7.748  1.0418  1.2750 -0.8505
 8829SOL     OW38119   3.537   1.297   7.546  0.2186  0.7745  0.2317
 8829SOL    HW138120   3.622   1.300   7.589  0.8024 -2.5132 -0.6666
 8829SOL    HW238121   3.510   1.385   7.573 -0.0208  0.4184  1.1397
 8830SOL     OW38122   0.890   3.953   3.429 -0.2827  0.3133 -0.1517
 8830SOL    HW138123   0.847   3.869   3.410  1.8302 -0.8782  0.2235
 8830SOL    HW238124   0.932   3.973   3.345 -0.7220  0.3644 -0.3603
 8831SOL     OW38125   2.669   0.639  15.560  0.5443  0.6444 -0.7977
 8831SOL    HW138126   2.718   0.558  15.542  0.3953  1.0427 -3.0778
 8831SOL    HW238127   2.713   0.687  15.629 -3.4926  1.7313  1.0054
 8832SOL     OW38128   1.813   1.803   1.924 -0.4028 -0.4860  0.4589
 8832SOL    HW138129   1.829   1.720   1.878 -1.0013  0.1260 -0.8601
 8832SOL    HW238130   1.726   1.787   1.959  0.0463 -1.6630  1.0292
 8833SOL     OW38131   1.861   4.123  15.857 -0.3522 -0.2783  0.4489
 8833SOL    HW138132   1.802   4.072  15.912 -1.4423  0.5568  0.0655
 8833SOL    HW238133   1.913   4.165  15.926 -0.1807  0.4524 -0.1239
 8834SOL     OW38134   4.050   1.266  16.970 -0.5481  0.8094  0.1238
 8834SOL    HW138135   3.992   1.208  17.019 -1.1263  0.5137 -0.9132
 8834SOL    HW238136   4.125   1.206  16.963 -0.7132  0.3730  2.2814
 8835SOL     OW38137   1.955   3.407   8.827 -0.2939 -0.4823 -0.2465
 8835SOL    HW138138   2.020   3.473   8.803 -1.5756  1.3948  1.5122
 8835SOL    HW238139   1.988   3.369   8.909  0.3971  0.1145 -0.2490
 8836SOL     OW38140   0.140   3.147   5.333 -0.2819  0.0026 -0.2930
 8836SOL    HW138141   0.045   3.133   5.328 -0.1607 -1.3864  1.6380
 8836SOL    HW238142   0.148   3.219   5.395 -0.1938 -0.1190 -0.1645
 8837SOL     OW38143   2.496   1.136   8.641 -0.1679  0.6168 -0.2297
 8837SOL    HW138144   2.471   1.132   8.549 -0.4143 -2.8367 -0.0195
 8837SOL    HW238145   2.562   1.066   8.645  1.0144  1.7073 -0.5279
 8838SOL     OW38146   4.639   2.236   2.719 -0.4543 -0.5699  0.2716
 8838SOL    HW138147   4.680   2.163   2.673 -0.3528 -0.2017 -0.2179
 8838SOL    HW238148   4.720   2.270   2.757 -0.3741  2.2176 -2.4363
 8839SOL     OW38149   2.007   2.729   3.519 -0.2514  0.1967  0.5516
 8839SOL    HW138150   2.067   2.799   3.493  1.8412 -1.6761  0.2755
 8839SOL    HW238151   1.937   2.731   3.454 -0.9574  1.5793  1.3592
 8840SOL     OW38152   0.215   1.735   0.804  0.2772 -0.3521 -0.3139
 8840SOL    HW138153   0.185   1.754   0.893  4.9566  1.8850  0.7322
 8840SOL    HW238154   0.160   1.658   0.784 -0.9859  0.5587 -0.3572
 8841SOL     OW38155   1.446   1.406   5.769  0.1109 -0.0147  0.3242
 8841SOL    HW138156   1.418   1.445   5.686  3.4191  0.3698 -0.6289
 8841SOL    HW238157   1.483   1.482   5.814 -1.4487  0.0743  1.4320
 8842SOL     OW38158   2.217   2.305  14.190 -0.0170 -0.1807 -0.1143
 8842SOL    HW138159   2.274   2.253  14.132  0.7817  1.3144 -0.6768
 8842SOL    HW238160   2.251   2.277  14.275  1.6091 -0.2964 -0.7900
 8843SOL     OW38161   2.424   3.552   0.067 -0.4883 -0.3353 -0.5052
 8843SOL    HW138162   2.395   3.512   0.149 -0.9806 -1.8595 -1.4215
 8843SOL    HW238163   2.516   3.531   0.079 -0.5915 -0.5850 -0.1605
 8844SOL     OW38164   0.362   0.016   7.183 -0.1167 -0.5733  0.1646
 8844SOL    HW138165   0.323   4.672   7.148 -2.3822  1.6949 -2.3452
 8844SOL    HW238166   0.444   0.014   7.134  0.4090  1.1022  0.9818
 8845SOL     OW38167   4.355   3.761  11.550 -0.2931 -0.3430 -0.2559
 8845SOL    HW138168   4.372   3.840  11.498  0.5722 -0.5844 -0.3375
 8845SOL    HW238169   4.399   3.779  11.633 -1.8469 -0.6773  0.6397
 8846SOL     OW38170   1.693   4.160  14.371  0.4677 -0.0148 -0.5903
 8846SOL    HW138171   1.685   4.253  14.349 -0.0848 -0.4294 -2.1180
 8846SOL    HW238172   1.782   4.135  14.344  0.7217  0.4915 -0.2344
 8847SOL     OW38173   1.171   3.293  17.640 -0.1088 -0.3495 -0.1701
 8847SOL    HW138174   1.203   3.369  17.591  2.9682 -0.2679  1.9832
 8847SOL    HW238175   1.083   3.317  17.669 -0.1707 -0.0716 -0.5848
 8848SOL     OW38176   4.308   4.325   9.533 -0.3678  0.1481 -0.1451
 8848SOL    HW138177   4.395   4.285   9.530 -0.7597 -0.8896  1.7178
 8848SOL    HW238178   4.255   4.246   9.519 -0.8006  0.1592  1.3691
 8849SOL     OW38179   0.822   0.947   0.008 -0.1035  0.3033 -0.4488
 8849SOL    HW138180   0.862   0.874   0.055  2.8528  0.6347 -2.4888
 8849SOL    HW238181   0.730   0.929   0.027 -1.0685  2.6842 -2.7908
 8850SOL     OW38182   1.404   3.925   8.550 -0.2446 -0.1846  0.1560
 8850SOL    HW138183   1.474   3.933   8.614 -1.3522  1.3500  1.1776
 8850SOL    HW238184   1.332   3.891   8.604 -0.3103  0.5476  0.5210
 8851SOL     OW38185   0.728   3.671   9.644  0.3491  0.0331  0.3934
 8851SOL    HW138186   0.774   3.754   9.656 -1.5495  0.6878  3.0035
 8851SOL    HW238187   0.798   3.615   9.610 -0.4789  0.2639 -1.6894
 8852SOL     OW38188   2.577   4.583   9.623 -0.0190 -0.5765 -0.4731
 8852SOL    HW138189   2.593   4.601   9.716  0.6310 -0.0861 -0.6805
 8852SOL    HW238190   2.489   4.546   9.618 -0.2514 -0.4465  3.0051
 8853SOL     OW38191   4.255   3.018   3.404  0.0857  0.6181  0.4098
 8853SOL    HW138192   4.322   3.085   3.391 -1.3871  1.4192 -3.1408
 8853SOL    HW238193   4.298   2.946   3.450  0.7650  0.7129 -0.0704
 8854SOL     OW38194   2.694   2.128   9.371  0.2767  0.4357 -0.2041
 8854SOL    HW138195   2.695   2.172   9.286 -2.6994  3.0933  1.1302
 8854SOL    HW238196   2.635   2.054   9.353  1.8654 -0.7858 -0.4459
 8855SOL     OW38197   1.906   4.650   3.540 -0.4090 -0.0494 -0.5345
 8855SOL    HW138198   1.878   0.004   3.559  3.4876  1.1673 -0.6377
 8855SOL    HW238199   1.852   4.607   3.607  0.4124 -0.6546 -0.2555
 8856SOL     OW38200   1.986   3.567   0.809 -0.1357  0.0784  0.6263
 8856SOL    HW138201   2.012   3.575   0.900 -2.7394  4.2330  1.0008
 8856SOL    HW238202   1.893   3.566   0.831 -0.7169  0.1907 -1.7557
 8857SOL     OW38203   2.561   1.089   4.059 -0.1820  0.1378  0.1958
 8857SOL    HW138204   2.565   1.003   4.100  1.2755  1.4385  2.7870
 8857SOL    HW238205   2.598   1.064   3.975 -1.3531  5.7467 -2.0050
 8858SOL     OW38206   4.231   1.664   0.759  0.6137  0.2991  0.3505
 8858SOL    HW138207   4.227   1.571   0.737  1.9538  0.6204 -1.2738
 8858SOL    HW238208   4.157   1.693   0.705  0.9129 -0.1307 -0.2955
 8859SOL     OW38209   4.026   4.128  16.810 -0.1066  0.0454 -0.0053
 8859SOL    HW138210   4.034   4.177  16.728 -1.2428 -2.7191 -1.7474
 8859SOL    HW238211   3.981   4.046  16.790  0.3806 -0.2085 -0.0474
 8860SOL     OW38212   3.334   3.883   9.511 -0.6500  0.0498  0.7740
 8860SOL    HW138213   3.374   3.834   9.582  1.4494 -0.3614 -0.6979
 8860SOL    HW238214   3.310   3.820   9.444 -0.5180  0.7715  0.0466
 8861SOL     OW38215   1.801   1.881   4.701  0.6393 -0.1653  0.2306
 8861SOL    HW138216   1.879   1.873   4.756  1.4552  2.6983 -0.4872
 8861SOL    HW238217   1.838   1.901   4.615 -1.7955  1.9002 -0.3526
 8862SOL     OW38218   2.839   3.719   0.112 -0.5103 -0.4084 -0.2665
 8862SOL    HW138219   2.922   3.672   0.105 -1.0822 -1.7153  1.6361
 8862SOL    HW238220   2.782   3.647   0.137  0.5641 -0.4634  1.9630
 8863SOL     OW38221   1.619   3.679   8.328  0.1629  0.0305  0.0579
 8863SOL    HW138222   1.682   3.659   8.397 -0.6620  2.6688  1.5617
 8863SOL    HW238223   1.603   3.773   8.336 -2.6327 -0.1970 -2.9088
 8864SOL     OW38224   3.783   3.182   7.517 -0.1068 -0.1757  1.0142
 8864SOL    HW138225   3.706   3.184   7.460  0.1991  0.4783  0.6297
 8864SOL    HW238226   3.830   3.109   7.475 -1.0251  0.6974 -1.5309
 8865SOL     OW38227   1.329   3.671   8.291  0.4042 -0.4370  0.1534
 8865SOL    HW138228   1.422   3.690   8.306 -0.1050  0.9119  1.6579
 8865SOL    HW238229   1.307   3.749   8.241  1.0391 -0.2222  0.2048
 8866SOL     OW38230   4.304   3.900  15.353  1.0977 -0.4028  0.3401
 8866SOL    HW138231   4.365   3.972  15.373  0.0184  0.3383  0.9401
 8866SOL    HW238232   4.266   3.873  15.436 -0.1170 -1.0910 -0.4484
 8867SOL     OW38233   2.289   0.001   4.585  0.1310 -0.0650  0.2257
 8867SOL    HW138234   2.261   4.697   4.502 -2.8513 -0.6831  1.5483
 8867SOL    HW238235   2.383   4.717   4.577 -0.1236 -1.0705 -0.3407
 8868SOL     OW38236   1.102   1.307   7.165  0.2485 -0.2043  0.5380
 8868SOL    HW138237   1.123   1.230   7.217  1.5951 -0.3904 -0.2900
 8868SOL    HW238238   1.186   1.317   7.119 -0.3007  0.5871 -0.3034
 8869SOL     OW38239   3.676   0.124   2.050  0.6100  0.7429  0.3380
 8869SOL    HW138240   3.661   0.040   2.007 -0.3635  1.3500 -0.5029
 8869SOL    HW238241   3.748   0.150   1.992 -0.0384 -0.7521 -1.1303
 8870SOL     OW38242   1.702   1.925   5.668  0.4300  0.7469 -0.6016
 8870SOL    HW138243   1.656   1.975   5.735  2.7935 -0.0351  1.5903
 8870SOL    HW238244   1.742   2.000   5.624  2.7785 -0.1213  0.0550
 8871SOL     OW38245   3.838   3.953  10.345 -0.0896 -0.0119  0.1485
 8871SOL    HW138246   3.915   3.897  10.342 -0.4469 -0.5463  0.9185
 8871SOL    HW238247   3.774   3.899  10.299  0.2269  0.5844 -0.9911
 8872SOL     OW38248   0.013   4.287   5.100 -0.2624 -0.0881 -0.3223
 8872SOL    HW138249   4.667   4.252   5.066  0.2927 -1.0572 -0.6566
 8872SOL    HW238250   0.011   4.301   5.195 -0.4182 -1.3424 -0.1428
 8873SOL     OW38251   4.395   3.726   5.236  0.1178  0.3372 -0.0885
 8873SOL    HW138252   4.395   3.682   5.151  0.8877 -2.3058  1.2950
 8873SOL    HW238253   4.463   3.793   5.222  0.6274 -0.2290 -0.2969
 8874SOL     OW38254   0.439   1.109  12.117 -0.2493 -0.6108 -0.5392
 8874SOL    HW138255   0.387   1.142  12.190 -0.4768 -0.7314 -0.6481
 8874SOL    HW238256   0.431   1.175  12.049  0.1543 -0.6537 -0.6319
 8875SOL     OW38257   2.210   4.125   2.685 -0.0989  0.6048  0.3359
 8875SOL    HW138258   2.195   4.090   2.597 -2.5582  0.9683  0.6021
 8875SOL    HW238259   2.305   4.134   2.686  0.0204 -0.4139 -1.0128
 8876SOL     OW38260   1.307   4.445   7.021  0.3522 -0.1055 -0.7509
 8876SOL    HW138261   1.333   4.389   7.094  1.2174  0.6078 -0.5148
 8876SOL    HW238262   1.243   4.397   6.969  0.9907 -1.2936 -0.4263
 8877SOL     OW38263   2.336   3.159  16.290  0.2507  0.3724  0.6688
 8877SOL    HW138264   2.377   3.183  16.373 -0.6731  1.4205  0.8271
 8877SOL    HW238265   2.290   3.083  16.326  1.9315 -0.4785  1.0267
 8878SOL     OW38266   3.337   3.893  16.802  0.2531 -0.0385 -0.5995
 8878SOL    HW138267   3.364   3.884  16.893  1.1555  0.4167 -0.8145
 8878SOL    HW238268   3.268   3.958  16.814 -0.5453 -1.0241  0.0571
 8879SOL     OW38269   3.748   0.447   8.324  0.5300  0.2678  0.2051
 8879SOL    HW138270   3.735   0.469   8.232 -1.8118 -1.0180  0.2392
 8879SOL    HW238271   3.668   0.395   8.332  1.0168 -0.1391  2.5750
 8880SOL     OW38272   3.834   0.402   5.632 -0.0123 -0.5127  0.5650
 8880SOL    HW138273   3.774   0.328   5.632 -1.5194  0.7040  1.4225
 8880SOL    HW238274   3.920   0.365   5.652 -0.1676 -1.1902 -0.0444
 8881SOL     OW38275   1.894   0.741   4.447 -0.7044 -0.2382 -0.0250
 8881SOL    HW138276   1.926   0.724   4.536  0.5508  3.2539  0.2087
 8881SOL    HW238277   1.970   0.705   4.403  2.4756  2.1730  3.4629
 8882SOL     OW38278   0.257   4.132   7.574 -0.6743  0.5169 -0.1081
 8882SOL    HW138279   0.276   4.199   7.640 -0.0826 -0.5095  0.7613
 8882SOL    HW238280   0.235   4.066   7.640  0.4253 -2.3412 -2.5882
 8883SOL     OW38281   2.409   0.449   1.275  0.5192 -0.7706 -0.6582
 8883SOL    HW138282   2.491   0.497   1.278  0.9828 -1.7192  1.5811
 8883SOL    HW238283   2.374   0.468   1.362 -1.3171 -2.2269 -1.0618
 8884SOL     OW38284   3.059   2.292   7.638 -0.7688 -0.4269  0.1308
 8884SOL    HW138285   3.055   2.306   7.544  0.0850 -0.1403  0.1402
 8884SOL    HW238286   3.074   2.199   7.655 -4.3179 -1.2408 -1.0464
 8885SOL     OW38287   2.587   4.163   4.445  0.0301  0.3081 -0.3567
 8885SOL    HW138288   2.525   4.100   4.481 -2.7231  3.2241  0.0705
 8885SOL    HW238289   2.618   4.185   4.533  1.4798 -0.3324 -0.7147
 8886SOL     OW38290   3.739   2.250   5.137  0.0756 -0.0046 -0.3242
 8886SOL    HW138291   3.748   2.249   5.233  1.0594 -0.1514 -0.4121
 8886SOL    HW238292   3.828   2.270   5.109  0.3288  0.9341  1.1647
 8887SOL     OW38293   4.118   2.794   2.267 -0.7065 -0.2431 -0.7886
 8887SOL    HW138294   4.023   2.801   2.266 -0.5817  1.3378 -1.8767
 8887SOL    HW238295   4.122   2.721   2.329 -0.9501  0.0662 -0.4155
 8888SOL     OW38296   2.354   1.685   8.856  0.2389 -0.0062 -0.7006
 8888SOL    HW138297   2.429   1.724   8.811 -0.1125  1.7738  0.2441
 8888SOL    HW238298   2.298   1.700   8.780 -0.9712 -1.9352 -0.1785
 8889SOL     OW38299   0.381   1.153   2.834 -0.1134 -0.3726  0.2880
 8889SOL    HW138300   0.449   1.096   2.870  1.2639  0.7911 -0.4503
 8889SOL    HW238301   0.371   1.208   2.912 -0.6444  1.8262 -1.3340
 8890SOL     OW38302   1.331   2.410   2.125 -0.1550 -0.1074  0.4411
 8890SOL    HW138303   1.303   2.351   2.195  2.4135  1.2575  2.6385
 8890SOL    HW238304   1.411   2.383   2.081 -0.7086 -0.0076 -0.6190
 8891SOL     OW38305   4.158   1.098   7.086 -0.3016  0.5553 -0.0492
 8891SOL    HW138306   4.245   1.061   7.072 -2.3347 -3.2775 -2.4138
 8891SOL    HW238307   4.135   1.149   7.007 -1.0521  1.3551  0.6821
 8892SOL     OW38308   4.106   0.794   5.445  0.2080  0.1182 -0.1850
 8892SOL    HW138309   4.163   0.803   5.368 -0.4662  0.0676 -0.6920
 8892SOL    HW238310   4.022   0.809   5.402 -0.3860 -3.3608 -0.2562
 8893SOL     OW38311   3.255   2.485  10.863 -0.3402  0.2395  0.1020
 8893SOL    HW138312   3.237   2.511  10.953  1.3055 -0.7017  0.6973
 8893SOL    HW238313   3.174   2.440  10.839  1.3666 -1.2848 -2.7989
 8894SOL     OW38314   2.886   2.441  11.612  0.0587 -0.4329 -0.7116
 8894SOL    HW138315   2.801   2.446  11.656  0.8248 -0.3264  0.7580
 8894SOL    HW238316   2.957   2.472  11.667 -2.1089  1.0584  1.2567
 8895SOL     OW38317   2.323   1.728   3.603 -0.3133 -0.4523  0.4362
 8895SOL    HW138318   2.238   1.720   3.644  0.2362 -1.2856  1.4170
 8895SOL    HW238319   2.368   1.755   3.683  1.7593 -0.4740 -0.7009
 8896SOL     OW38320   2.275   2.701   7.927 -0.2057  0.1981  0.0468
 8896SOL    HW138321   2.294   2.736   8.014  0.9368 -2.1069  0.7271
 8896SOL    HW238322   2.188   2.672   7.951  0.2266 -1.7424 -0.7663
 8897SOL     OW38323   2.925   2.209   2.542  0.4046  0.8973 -0.3421
 8897SOL    HW138324   2.895   2.300   2.550  0.7734  0.9577  0.3861
 8897SOL    HW238325   2.923   2.198   2.447 -2.8178  0.2581 -0.2017
 8898SOL     OW38326   1.048   0.866   5.691 -0.1137  0.0923  0.0390
 8898SOL    HW138327   0.967   0.915   5.701  0.2498  0.3113  1.9262
 8898SOL    HW238328   1.011   0.782   5.719 -1.0143  0.4056 -0.2333
 8899SOL     OW38329   4.694   1.358   4.959  0.1789  0.1634 -0.4943
 8899SOL    HW138330   0.027   1.305   4.918  0.0026 -1.4956  1.3428
 8899SOL    HW238331   0.009   1.420   5.011  0.5657 -1.2558  0.8066
 8900SOL     OW38332   2.547   3.177   1.612  0.1725  0.3461  0.0286
 8900SOL    HW138333   2.628   3.160   1.563  0.0250  1.2409 -0.5286
 8900SOL    HW238334   2.514   3.088   1.628  0.7617  0.4730  1.9674
 8901SOL     OW38335   3.979   2.416  15.145 -0.1664 -0.1038 -0.1965
 8901SOL    HW138336   3.943   2.337  15.105  1.0274 -0.7919  0.1137
 8901SOL    HW238337   4.046   2.390  15.208  0.6469  0.2937 -0.8963
 8902SOL     OW38338   3.758   3.225   7.812 -0.6208  0.0827 -0.6571
 8902SOL    HW138339   3.696   3.296   7.826 -0.1841  0.0657  1.4107
 8902SOL    HW238340   3.738   3.203   7.721 -0.4333  1.9966 -1.1448
 8903SOL     OW38341   1.758   4.344   4.868 -0.4389 -0.5815 -0.1186
 8903SOL    HW138342   1.826   4.313   4.928  1.3169  0.2271 -1.7056
 8903SOL    HW238343   1.808   4.389   4.800  0.2187  1.6108  1.7792
 8904SOL     OW38344   0.267   4.032   8.759  0.4326 -0.2124 -0.4557
 8904SOL    HW138345   0.176   4.005   8.747  0.5351 -1.4454  1.5443
 8904SOL    HW238346   0.312   3.948   8.750  3.0641  1.0724  0.8465
 8905SOL     OW38347   4.643   3.500   8.873 -0.4915 -0.1123 -0.0473
 8905SOL    HW138348   4.699   3.499   8.951 -0.5088  0.5479 -0.0225
 8905SOL    HW238349   4.618   3.592   8.882  2.2962  0.6205  0.2562
 8906SOL     OW38350   4.108   1.460  12.142  0.6183 -0.1877 -0.2890
 8906SOL    HW138351   4.109   1.495  12.231  1.3531  1.4767 -0.9548
 8906SOL    HW238352   4.163   1.385  12.163  0.3875  0.4264  2.5323
 8907SOL     OW38353   4.315   1.807   6.228 -0.6680  0.4265 -0.1768
 8907SOL    HW138354   4.300   1.881   6.168 -0.9146  0.1614 -0.4455
 8907SOL    HW238355   4.232   1.795   6.274  0.0407 -0.5426  0.8253
 8908SOL     OW38356   0.865   4.690   5.822 -0.4667  0.4128 -0.5840
 8908SOL    HW138357   0.808   0.016   5.869 -1.9378  0.2329 -2.1218
 8908SOL    HW238358   0.849   4.610   5.872 -0.4972  0.9295  0.2400
 8909SOL     OW38359   4.075   3.161   9.912  0.1523 -0.2334 -0.1352
 8909SOL    HW138360   4.140   3.231   9.919  0.3925 -0.4062 -0.6125
 8909SOL    HW238361   4.118   3.132   9.831  0.3926  0.4631 -0.2563
 8910SOL     OW38362   3.728   4.185  11.318 -0.3087 -0.0556 -0.7508
 8910SOL    HW138363   3.688   4.203  11.403 -1.1658 -2.2164 -0.6746
 8910SOL    HW238364   3.763   4.098  11.337  0.5335  0.5314  0.4132
 8911SOL     OW38365   1.960   2.986   7.548 -0.2548 -0.0197 -0.1080
 8911SOL    HW138366   1.912   3.069   7.542 -0.6645 -0.4184 -2.4437
 8911SOL    HW238367   1.922   2.964   7.633  1.0104 -2.1277 -0.1024
 8912SOL     OW38368   2.772   1.746   5.545  0.5085  0.0328 -0.5252
 8912SOL    HW138369   2.794   1.666   5.497 -3.7139 -0.9549 -0.8622
 8912SOL    HW238370   2.773   1.805   5.470 -0.1337  0.3525 -0.2830
 8913SOL     OW38371   2.581   4.174  13.440 -0.0903 -0.1177  0.4498
 8913SOL    HW138372   2.673   4.160  13.419  0.1428  0.6131  0.9761
 8913SOL    HW238373   2.572   4.268  13.453 -3.0480 -0.5064  1.3126
 8914SOL     OW38374   2.418   1.106   8.909  0.2856 -0.6743  0.1952
 8914SOL    HW138375   2.493   1.055   8.939  1.1484 -0.3519 -1.4344
 8914SOL    HW238376   2.434   1.104   8.815 -0.0746  1.2025  0.0951
 8915SOL     OW38377   3.891   1.941   4.169  0.0514 -0.1457 -0.2766
 8915SOL    HW138378   3.969   1.979   4.130  1.5252  0.3088  3.1163
 8915SOL    HW238379   3.825   1.924   4.102 -1.1252  3.2194  0.0494
 8916SOL     OW38380   3.650   1.774   0.907 -0.6572  0.5213  0.9261
 8916SOL    HW138381   3.579   1.838   0.913 -1.5753 -0.2362 -1.5308
 8916SOL    HW238382   3.719   1.833   0.876  0.5303 -0.4177  1.7930
 8917SOL     OW38383   0.811   3.940   3.859 -0.1905  0.5298 -0.0769
 8917SOL    HW138384   0.855   3.993   3.792  2.5230 -1.0622  0.4212
 8917SOL    HW238385   0.881   3.945   3.925  1.4884  0.9187 -1.8673
 8918SOL     OW38386   1.105   4.537   4.388 -0.2588  0.0872 -0.1205
 8918SOL    HW138387   1.162   4.460   4.381  1.4102  1.3391 -0.1865
 8918SOL    HW238388   1.085   4.556   4.296  2.6073  1.5468 -0.4383
 8919SOL     OW38389   2.163   4.574   8.739  0.2684 -0.2971  0.0300
 8919SOL    HW138390   2.093   4.572   8.804  2.0243 -0.5392  1.9418
 8919SOL    HW238391   2.122   4.634   8.677 -0.2129 -2.0573 -1.3527
 8920SOL     OW38392   0.402   0.054   5.208  0.5211  0.1358  0.1783
 8920SOL    HW138393   0.446   0.113   5.146 -2.7241  0.0238 -2.2069
 8920SOL    HW238394   0.448   4.707   5.196  0.8963  0.4406 -0.5049
 8921SOL     OW38395   3.772   1.123   4.219 -0.1380 -0.8175  0.4313
 8921SOL    HW138396   3.768   1.177   4.140 -1.5997 -1.3607  0.1299
 8921SOL    HW238397   3.730   1.039   4.197 -0.5480 -0.6531  0.5814
 8922SOL     OW38398   4.189   4.361   2.628  0.2261 -0.4945 -0.1569
 8922SOL    HW138399   4.108   4.363   2.578  0.1573 -0.8221 -0.0570
 8922SOL    HW238400   4.246   4.339   2.554 -0.8699  3.2238 -2.0616
 8923SOL     OW38401   1.166   2.881   4.879 -0.4117 -0.4719  0.1061
 8923SOL    HW138402   1.220   2.824   4.823 -2.9207 -0.7917 -2.0088
 8923SOL    HW238403   1.141   2.933   4.802  1.4608 -0.4684 -0.5004
 8924SOL     OW38404   0.633   3.404   6.295  0.1743  0.0401 -0.0499
 8924SOL    HW138405   0.540   3.380   6.293  0.4863 -1.2016  0.6205
 8924SOL    HW238406   0.625   3.496   6.271  0.1239 -0.3866 -1.7231
 8925SOL     OW38407   3.549   2.705   7.947  0.4498  0.3206  0.7077
 8925SOL    HW138408   3.501   2.769   7.895  0.5478 -1.4256 -1.5421
 8925SOL    HW238409   3.478   2.641   7.956  0.5671  0.1244  0.2474
 8926SOL     OW38410   1.511   2.505   9.143  0.2627 -0.1428  0.2643
 8926SOL    HW138411   1.422   2.540   9.137  0.3034 -0.2133 -0.7632
 8926SOL    HW238412   1.491   2.414   9.122  0.7258  0.4416 -2.6614
 8927SOL     OW38413   3.785   1.334   7.136  0.2210  0.0283 -0.5299
 8927SOL    HW138414   3.778   1.373   7.049 -2.2124  2.7544  0.8825
 8927SOL    HW238415   3.830   1.399   7.190 -1.1995  1.8108 -1.4732
 8928SOL     OW38416   4.080   0.338  12.101  0.5822  0.6013 -0.3744
 8928SOL    HW138417   3.987   0.316  12.095  0.7307 -0.1972  0.2800
 8928SOL    HW238418   4.121   0.276  12.042 -1.0550 -1.0636  0.2386
 8929SOL     OW38419   0.922   0.324   4.228 -0.6602  0.0518  0.3389
 8929SOL    HW138420   0.849   0.301   4.284  1.5604  1.0987  3.6592
 8929SOL    HW238421   0.990   0.261   4.251 -1.3377 -0.5503  0.6951
 8930SOL     OW38422   3.600   2.101   0.235  0.4019  0.1608 -0.1864
 8930SOL    HW138423   3.625   2.191   0.213 -1.5572  1.1536  1.6968
 8930SOL    HW238424   3.626   2.056   0.154 -0.8206  0.8265 -0.9381
 8931SOL     OW38425   0.376   3.052   8.943 -0.1369 -0.3686 -0.1427
 8931SOL    HW138426   0.465   3.017   8.947  0.5543  1.5939  1.5704
 8931SOL    HW238427   0.357   3.019   8.855  0.0680  1.1109 -0.7354
 8932SOL     OW38428   1.963   1.339   9.950  0.1296  0.4054  0.4680
 8932SOL    HW138429   1.885   1.389   9.973 -0.1836 -0.3236  0.9827
 8932SOL    HW238430   1.936   1.312   9.862 -1.8461  0.9267  0.9171
 8933SOL     OW38431   3.038   1.714  17.637  0.3795 -0.1006  0.1016
 8933SOL    HW138432   2.980   1.789  17.648  0.4638 -0.1752  1.0438
 8933SOL    HW238433   3.120   1.742  17.595  0.1935  0.2823  0.0037
 8934SOL     OW38434   3.845   3.554   1.247  0.4838  0.2622  0.5190
 8934SOL    HW138435   3.826   3.487   1.181  0.1531  0.8884 -0.0234
 8934SOL    HW238436   3.760   3.594   1.266  0.0503  0.2440 -1.3805
 8935SOL     OW38437   2.311   2.894  16.400  0.0176  0.5060  0.1382
 8935SOL    HW138438   2.235   2.855  16.357 -0.2492  0.8058  0.3329
 8935SOL    HW238439   2.382   2.853  16.351  0.6651  1.2112  0.4830
 8936SOL     OW38440   2.131   4.509  13.644  0.1473  0.2270 -0.1362
 8936SOL    HW138441   2.208   4.532  13.695  0.7008 -1.3207 -0.2929
 8936SOL    HW238442   2.094   4.597  13.636  0.8215  0.9325  4.4369
 8937SOL     OW38443   1.704   3.694  13.851 -0.1349  0.1372  0.3847
 8937SOL    HW138444   1.634   3.641  13.889  1.5391 -2.2476  0.0886
 8937SOL    HW238445   1.667   3.783  13.855  1.3651  0.7599  0.4297
 8938SOL     OW38446   2.574   1.304   6.200 -0.4969  0.2199 -0.0586
 8938SOL    HW138447   2.515   1.245   6.248 -1.1125  2.0712  1.4434
 8938SOL    HW238448   2.537   1.298   6.112  4.6900 -0.7231 -2.1231
 8939SOL     OW38449   3.991   2.332   4.150  0.0590 -0.2692  0.6798
 8939SOL    HW138450   4.073   2.311   4.196  1.3727 -1.0338 -2.0325
 8939SOL    HW238451   3.949   2.391   4.212 -0.4663  0.6171 -0.5252
 8940SOL     OW38452   2.654   0.173  17.094  0.5137 -0.1943  0.1004
 8940SOL    HW138453   2.606   0.218  17.163 -2.0273 -0.4288 -1.5240
 8940SOL    HW238454   2.727   0.144  17.149  0.1403 -1.3151  0.0134
 8941SOL     OW38455   4.585   3.778   9.285  0.3376  0.0317  0.2639
 8941SOL    HW138456   4.520   3.707   9.286 -0.8564  1.1000 -1.0792
 8941SOL    HW238457   4.645   3.752   9.214  1.0395  3.4647 -0.3816
 8942SOL     OW38458   1.774   2.733   3.093  0.3466 -0.4033 -0.3885
 8942SOL    HW138459   1.717   2.807   3.073  1.7064  1.5345  2.8768
 8942SOL    HW238460   1.764   2.697   3.005  0.6956  2.3306 -1.5386
 8943SOL     OW38461   1.289   1.396   9.554  0.0518 -0.2021 -0.4363
 8943SOL    HW138462   1.235   1.371   9.630 -0.9182  2.4251 -0.2644
 8943SOL    HW238463   1.242   1.353   9.482  1.8683 -2.4576 -0.2710
 8944SOL     OW38464   3.270   3.803   7.697 -0.2810  0.7848  0.2220
 8944SOL    HW138465   3.212   3.859   7.646  0.4953 -0.0431 -1.5844
 8944SOL    HW238466   3.283   3.861   7.771  0.1402  1.0874 -0.0908
 8945SOL     OW38467   2.412   1.298   3.309  0.4877 -0.1753 -0.2565
 8945SOL    HW138468   2.366   1.225   3.267 -1.5823  0.3484  1.1051
 8945SOL    HW238469   2.401   1.364   3.241 -2.0997 -2.8242 -2.4047
 8946SOL     OW38470   0.784   1.986   7.208 -0.2819 -0.1952  0.0897
 8946SOL    HW138471   0.755   2.002   7.118 -0.0084  0.7161  0.1667
 8946SOL    HW238472   0.703   1.946   7.241 -2.2541  4.0910  0.5391
 8947SOL     OW38473   0.915   0.001   8.212 -0.0151 -0.7685  0.0661
 8947SOL    HW138474   0.992   0.053   8.233  0.8550 -1.9120 -0.2544
 8947SOL    HW238475   0.844   0.064   8.217  1.5327  0.8301  2.0987
 8948SOL     OW38476   0.604   4.175  16.736  0.5199 -0.2540  0.2813
 8948SOL    HW138477   0.522   4.159  16.783  0.5167 -0.9983  0.0167
 8948SOL    HW238478   0.623   4.084  16.715  0.1114 -0.1981 -0.3223
 8949SOL     OW38479   1.160   0.787   3.226  0.3609 -0.1787  0.5240
 8949SOL    HW138480   1.218   0.860   3.247  2.6039 -2.2893  1.7050
 8949SOL    HW238481   1.231   0.730   3.196  0.2191  0.8224 -1.7446
 8950SOL     OW38482   0.925   4.080   0.635 -0.2404 -0.4212 -0.3296
 8950SOL    HW138483   0.872   4.148   0.677  1.5733  0.5482  0.4036
 8950SOL    HW238484   0.888   4.093   0.548 -1.7425  1.4466  0.6207
 8951SOL     OW38485   1.838   0.235   9.249 -0.0825 -0.2543  0.0188
 8951SOL    HW138486   1.858   0.167   9.186  2.8081 -0.4267  1.1160
 8951SOL    HW238487   1.904   0.215   9.316 -1.5750 -3.1192  0.6562
 8952SOL     OW38488   2.897   0.467   7.452 -0.0463  0.0888 -0.1842
 8952SOL    HW138489   2.955   0.520   7.507  1.3617 -0.8301 -0.7868
 8952SOL    HW238490   2.952   0.389   7.450 -0.4173 -0.1072 -2.1898
 8953SOL     OW38491   3.049   0.724  17.549  0.1862 -0.2658  0.3507
 8953SOL    HW138492   3.001   0.804  17.570  2.6293  1.1980  0.3950
 8953SOL    HW238493   2.990   0.698  17.478 -0.1803  1.6069 -0.0446
 8954SOL     OW38494   3.625   0.416   1.838  0.7313 -0.4870 -0.1710
 8954SOL    HW138495   3.609   0.326   1.808 -1.0464 -0.1670 -0.1878
 8954SOL    HW238496   3.548   0.416   1.895 -0.4334 -2.2492 -1.7012
 8955SOL     OW38497   3.678   0.628   1.686  0.9159  0.6723  0.4513
 8955SOL    HW138498   3.703   0.694   1.750  0.3011  1.9235 -0.6015
 8955SOL    HW238499   3.656   0.557   1.748 -0.6078  0.2159 -0.6004
 8956SOL     OW38500   2.971   1.471   6.392  0.1494  0.0613 -0.1292
 8956SOL    HW138501   2.985   1.377   6.403 -0.5183  0.0891  0.9608
 8956SOL    HW238502   3.039   1.494   6.329 -0.8334  1.2255 -0.7423
 8957SOL     OW38503   2.357   0.235   9.624 -0.1216 -0.1668 -0.2059
 8957SOL    HW138504   2.436   0.257   9.673  0.4360 -0.4418 -0.9750
 8957SOL    HW238505   2.389   0.166   9.567 -1.3189 -1.7408  1.0254
 8958SOL     OW38506   1.654   2.629   2.658  0.2351 -0.6414  0.1737
 8958SOL    HW138507   1.560   2.640   2.641  0.6751  3.0120 -0.0604
 8958SOL    HW238508   1.698   2.710   2.631 -2.5789  0.5215 -0.9593
 8959SOL     OW38509   2.319   3.003   5.219 -0.5067  0.4564 -0.0797
 8959SOL    HW138510   2.405   2.984   5.182 -1.5677  0.0809 -2.3487
 8959SOL    HW238511   2.312   2.926   5.276  0.3807  1.3460  1.2446
 8960SOL     OW38512   0.401   3.354  12.153  0.0323 -0.3646 -0.0574
 8960SOL    HW138513   0.311   3.383  12.167  0.4778  1.4458 -1.0262
 8960SOL    HW238514   0.444   3.395  12.228 -1.4690 -0.3527  0.7988
 8961SOL     OW38515   4.413   1.554   5.278  0.1076  0.2465  0.2643
 8961SOL    HW138516   4.453   1.618   5.219  0.9319 -0.7164 -0.2188
 8961SOL    HW238517   4.377   1.495   5.212 -0.5211  0.9113  0.0035
 8962SOL     OW38518   2.144   2.224   8.652  0.3961 -0.0469 -0.2096
 8962SOL    HW138519   2.146   2.188   8.741  1.6351  0.0832 -0.1885
 8962SOL    HW238520   2.157   2.315   8.678 -1.5378 -0.2441  1.4911
 8963SOL     OW38521   1.205   1.310  10.051 -0.6728  0.2602  0.2963
 8963SOL    HW138522   1.125   1.357  10.072 -0.8605 -0.3147  0.8848
 8963SOL    HW238523   1.244   1.377   9.994 -0.0037 -0.0229  0.4241
 8964SOL     OW38524   3.132   1.481   7.646  0.2742 -0.3869 -0.6172
 8964SOL    HW138525   3.198   1.549   7.663 -0.9067 -0.1415  2.9080
 8964SOL    HW238526   3.091   1.523   7.571  1.3307  0.1913 -0.8774
 8965SOL     OW38527   3.580   3.303  13.122 -0.2262  0.2657  0.4731
 8965SOL    HW138528   3.551   3.359  13.050  0.5890  1.2044  0.8729
 8965SOL    HW238529   3.560   3.354  13.200  2.5093 -0.6198  1.7726
 8966SOL     OW38530   0.484   0.853   4.154  0.0230  0.0260  0.1454
 8966SOL    HW138531   0.523   0.896   4.078 -1.3477  0.3017 -0.4009
 8966SOL    HW238532   0.399   0.895   4.164 -0.0391 -0.0163 -0.2020
 8967SOL     OW38533   4.186   3.273   2.428 -0.6768  0.8480 -0.5136
 8967SOL    HW138534   4.147   3.288   2.342 -0.4809 -0.0090 -0.7444
 8967SOL    HW238535   4.279   3.283   2.407 -1.1958  1.0173 -2.7205
 8968SOL     OW38536   3.875   2.687   4.777  0.0604 -0.1761 -0.2392
 8968SOL    HW138537   3.864   2.709   4.684 -2.6018 -0.5566 -0.0251
 8968SOL    HW238538   3.783   2.662   4.785 -0.5458  1.6094 -1.7320
 8969SOL     OW38539   2.927   1.701   4.793  0.1444  0.1376  0.4401
 8969SOL    HW138540   3.022   1.685   4.788  0.4774  1.9047  1.4229
 8969SOL    HW238541   2.900   1.729   4.705 -0.3555  1.9531  1.1749
 8970SOL     OW38542   2.363   2.220   6.937 -0.0513  0.2282  0.0404
 8970SOL    HW138543   2.396   2.297   6.982  0.6781  0.1412 -0.3452
 8970SOL    HW238544   2.288   2.202   6.993  0.2756  2.0729  1.0649
 8971SOL     OW38545   4.283   1.651   3.301 -0.1450  0.5038 -0.1802
 8971SOL    HW138546   4.368   1.621   3.268  0.4366  3.1751 -1.1291
 8971SOL    HW238547   4.232   1.575   3.274 -0.3268  0.4726  0.2472
 8972SOL     OW38548   2.808   1.687   8.754 -0.5201 -0.3821  0.4309
 8972SOL    HW138549   2.817   1.670   8.848 -0.9163 -1.9172  0.1941
 8972SOL    HW238550   2.866   1.623   8.713 -0.2029 -0.9440  1.7567
 8973SOL     OW38551   0.756   2.744   5.935  0.3758 -0.0422 -0.0611
 8973SOL    HW138552   0.800   2.787   6.008 -2.9693  3.0423  0.1857
 8973SOL    HW238553   0.813   2.669   5.921  0.5246 -0.1039  0.8842
 8974SOL     OW38554   0.510   4.322   6.237  0.0460 -0.1484  0.3543
 8974SOL    HW138555   0.550   4.260   6.176  0.8754  0.0637  0.6835
 8974SOL    HW238556   0.591   4.369   6.256  1.7053 -1.5483 -3.1979
 8975SOL     OW38557   3.550   4.586   3.247  0.5008  0.2629 -0.7201
 8975SOL    HW138558   3.584   4.513   3.299 -3.0447 -0.8206  0.1060
 8975SOL    HW238559   3.471   4.604   3.298  1.8345  0.4379  1.3041
 8976SOL     OW38560   1.885   2.923  15.082 -0.2763  0.8069  0.3565
 8976SOL    HW138561   1.939   2.937  15.160  1.2984 -1.5719 -0.3039
 8976SOL    HW238562   1.818   2.866  15.119  0.5939  0.2627  1.1200
 8977SOL     OW38563   1.611   0.489   2.875 -0.1909  0.1552  0.5827
 8977SOL    HW138564   1.656   0.428   2.817 -0.1219  1.5727 -0.8636
 8977SOL    HW238565   1.634   0.449   2.959  3.4451  0.9150 -0.0354
 8978SOL     OW38566   2.945   3.049   2.733  0.8144 -0.0471  0.1772
 8978SOL    HW138567   2.901   3.131   2.708  1.6006  0.4541  0.4421
 8978SOL    HW238568   2.928   2.991   2.659 -3.5274 -0.7235  1.7090
 8979SOL     OW38569   0.480   3.189  11.194 -0.0996 -0.4180 -0.2692
 8979SOL    HW138570   0.406   3.177  11.254  0.4778 -1.5316  0.2315
 8979SOL    HW238571   0.423   3.175  11.118  0.9822  0.8625 -1.2948
 8980SOL     OW38572   3.015   1.751   1.520 -0.0741 -0.8593 -0.0052
 8980SOL    HW138573   3.105   1.772   1.497  0.2348  0.2251  2.2321
 8980SOL    HW238574   2.981   1.836   1.491 -1.2134 -0.7733  1.5541
 8981SOL     OW38575   4.299   3.481   8.975 -0.1494  0.0950 -0.4633
 8981SOL    HW138576   4.209   3.450   8.985 -0.4867  0.3215 -2.8552
 8981SOL    HW238577   4.295   3.568   9.014  0.0758 -0.5792  1.1011
 8982SOL     OW38578   1.072   1.224   3.785 -0.1763  0.4448 -0.1868
 8982SOL    HW138579   1.165   1.220   3.763  0.3983 -1.8791  2.6798
 8982SOL    HW238580   1.082   1.201   3.877  1.1882 -0.3097 -0.5154
 8983SOL     OW38581   4.510   1.433   2.035 -0.7693 -0.2651  0.3400
 8983SOL    HW138582   4.583   1.387   1.994  0.8093  0.9864  1.7396
 8983SOL    HW238583   4.519   1.392   2.122 -1.7470  2.4702  1.7140
 8984SOL     OW38584   3.450   0.989   0.505 -0.3412 -0.0669 -0.5310
 8984SOL    HW138585   3.387   0.926   0.470 -2.2679  1.9823 -0.6973
 8984SOL    HW238586   3.399   1.050   0.558  1.3321  2.0454 -1.3172
 8985SOL     OW38587   0.245   3.363   4.659  0.3305  0.8086  0.2526
 8985SOL    HW138588   0.329   3.389   4.698  0.3799  1.1055 -0.0500
 8985SOL    HW238589   0.208   3.330   4.740 -2.7539 -1.1455 -1.9618
 8986SOL     OW38590   4.554   1.463   3.246  0.3210 -0.0337  0.2322
 8986SOL    HW138591   4.596   1.406   3.310  1.7595 -0.7669 -1.3449
 8986SOL    HW238592   4.495   1.404   3.198 -0.2457  0.1976  0.6439
 8987SOL     OW38593   4.255   4.512   5.992 -0.1175  0.3394 -0.4066
 8987SOL    HW138594   4.221   4.429   6.026  1.1763 -0.1545 -0.3051
 8987SOL    HW238595   4.343   4.508   6.029  1.2575  0.2775 -3.6815
 8988SOL     OW38596   0.160   0.112   9.355  0.0241 -0.5595 -0.2329
 8988SOL    HW138597   0.107   0.181   9.397  0.0988 -0.3785 -0.4357
 8988SOL    HW238598   0.231   0.103   9.419  1.1776  1.3785 -1.2389
 8989SOL     OW38599   4.006   2.731  10.834  0.3440 -0.2718  0.2902
 8989SOL    HW138600   3.987   2.824  10.823 -3.0263 -0.8664  0.9040
 8989SOL    HW238601   3.923   2.713  10.879  1.3408 -0.1856  2.1740
 8990SOL     OW38602   3.927   4.507  12.375  0.8142 -0.2361  0.6703
 8990SOL    HW138603   3.862   4.541  12.436 -0.1298  0.8849 -0.9603
 8990SOL    HW238604   3.927   4.416  12.406  3.2142  0.1221  1.7507
 8991SOL     OW38605   3.129   3.336   7.277 -0.1024 -0.2383 -0.1779
 8991SOL    HW138606   3.117   3.305   7.187  1.6618  1.8974 -1.1363
 8991SOL    HW238607   3.072   3.266   7.309  1.5422 -1.6106 -0.3099
 8992SOL     OW38608   1.058   3.956   2.341 -0.0009  0.1580 -0.0022
 8992SOL    HW138609   1.034   4.024   2.278 -0.0097  0.8288  0.7164
 8992SOL    HW238610   1.023   3.879   2.297 -2.0430 -0.0025  1.9259
 8993SOL     OW38611   1.718   3.334   3.521  0.1267 -0.1150 -0.2477
 8993SOL    HW138612   1.679   3.248   3.504  0.4529 -0.0691 -1.2101
 8993SOL    HW238613   1.802   3.300   3.551  0.2837  1.3725  0.9929
 8994SOL     OW38614   1.274   3.885   5.930 -0.4640  0.1782  0.4907
 8994SOL    HW138615   1.351   3.878   5.987  0.0381 -0.2602 -0.2492
 8994SOL    HW238616   1.208   3.835   5.979 -1.4000  1.3465  0.4460
 8995SOL     OW38617   2.247   0.487   9.330 -0.5916 -0.0679  0.0231
 8995SOL    HW138618   2.181   0.481   9.261 -0.3794 -1.5466 -0.0539
 8995SOL    HW238619   2.327   0.493   9.276 -1.7823  0.6396 -1.6635
 8996SOL     OW38620   2.663   0.496   2.192  0.0274 -0.1155  0.0377
 8996SOL    HW138621   2.729   0.560   2.168 -1.7615  1.3495 -0.9284
 8996SOL    HW238622   2.670   0.493   2.287  2.8228 -1.9136 -0.2086
 8997SOL     OW38623   0.512   2.938   4.558  0.3497  0.5745 -1.0324
 8997SOL    HW138624   0.604   2.958   4.573  0.6281 -0.9528 -0.6438
 8997SOL    HW238625   0.513   2.910   4.467  0.6961  0.6004 -1.0367
 8998SOL     OW38626   4.613   0.683   3.121 -0.0233 -0.7510 -0.1557
 8998SOL    HW138627   4.645   0.634   3.196  0.9552 -0.7310 -0.5631
 8998SOL    HW238628   4.686   0.699   3.062 -1.7270 -0.3956 -2.1877
 8999SOL     OW38629   0.146   2.538   3.169 -0.1319  0.2548  0.1364
 8999SOL    HW138630   0.097   2.468   3.124 -0.1069  0.3418 -0.0254
 8999SOL    HW238631   0.216   2.490   3.212  1.1514  2.3414  0.3582
 9000SOL     OW38632   0.628   1.865  14.184  0.7738  0.4728 -0.5305
 9000SOL    HW138633   0.680   1.793  14.148 -2.2139 -2.4835  0.9889
 9000SOL    HW238634   0.588   1.899  14.104  0.0358  2.0621  0.5351
 9001SOL     OW38635   3.807   4.424   5.941 -0.5956 -0.2670 -0.3168
 9001SOL    HW138636   3.752   4.465   6.008 -0.5745 -1.4493  0.4200
 9001SOL    HW238637   3.824   4.337   5.976  0.4114 -0.0166 -0.1950
 9002SOL     OW38638   1.415   3.653   1.478 -0.0111 -0.4047 -0.4279
 9002SOL    HW138639   1.438   3.719   1.414  0.4698 -0.6373 -0.4976
 9002SOL    HW238640   1.474   3.580   1.457  0.5808 -0.3913  1.1963
 9003SOL     OW38641   1.855   3.970  13.104  0.2366  0.6061 -0.4413
 9003SOL    HW138642   1.773   4.020  13.104  0.1415  0.4530 -0.8043
 9003SOL    HW238643   1.883   3.991  13.015  0.5868  0.4109 -0.3757
 9004SOL     OW38644   1.207   1.284   2.884  0.3250 -0.4383  0.6575
 9004SOL    HW138645   1.189   1.339   2.960  0.6681 -1.7632  1.7110
 9004SOL    HW238646   1.119   1.258   2.859  0.4190 -0.9547  0.8518
 9005SOL     OW38647   3.874   3.328   9.730 -0.4893  0.4994  0.2249
 9005SOL    HW138648   3.953   3.356   9.777 -0.9072 -2.9709  3.0537
 9005SOL    HW238649   3.828   3.273   9.793  0.2438 -2.3071 -1.6558
 9006SOL     OW38650   0.255   0.476  13.814  0.0693  0.2558  0.0636
 9006SOL    HW138651   0.238   0.561  13.772 -0.5060  0.2208  0.2296
 9006SOL    HW238652   0.233   0.417  13.742 -2.1384  0.4686  0.5467
 9007SOL     OW38653   0.984   0.065  15.178  0.4258  0.4326  0.5995
 9007SOL    HW138654   0.921   4.733  15.154 -0.7587  1.9034 -0.4326
 9007SOL    HW238655   1.036   0.069  15.098  0.6415  1.9690  0.8175
 9008SOL     OW38656   1.882   2.483   4.006 -0.0138 -0.5871 -0.5011
 9008SOL    HW138657   1.964   2.521   3.976 -0.1632  1.3436  1.5108
 9008SOL    HW238658   1.860   2.433   3.927 -0.0352 -2.5747  0.7521
 9009SOL     OW38659   0.483   3.804  15.044  0.3165 -0.0136 -0.0975
 9009SOL    HW138660   0.449   3.752  14.972  0.7040  0.0532 -0.3224
 9009SOL    HW238661   0.555   3.747  15.068  1.2951  2.2049  2.2798
 9010SOL     OW38662   3.822   0.682  10.991 -0.4006  0.0406 -0.5595
 9010SOL    HW138663   3.805   0.613  11.056  0.3345  0.3303 -0.0714
 9010SOL    HW238664   3.739   0.729  10.992  0.3149  1.2282  3.5112
 9011SOL     OW38665   0.464   1.526   6.332  0.0447  0.2293  0.2776
 9011SOL    HW138666   0.433   1.446   6.375 -3.3464  0.3270 -1.9626
 9011SOL    HW238667   0.559   1.529   6.340  0.1343  0.5893 -0.8784
 9012SOL     OW38668   3.983   3.038   7.071  0.1595 -0.3246 -0.3549
 9012SOL    HW138669   3.898   3.080   7.080  1.0895  1.7860 -1.4461
 9012SOL    HW238670   4.010   3.067   6.984 -1.3399 -1.8976 -1.3439
 9013SOL     OW38671   1.034   0.627   1.819 -0.5517 -0.0963  0.0271
 9013SOL    HW138672   1.020   0.709   1.771 -0.2121  0.4930  0.9344
 9013SOL    HW238673   1.122   0.646   1.852  0.7934 -1.7150 -2.6840
 9014SOL     OW38674   0.643   3.967  10.275 -0.2614  0.1051  0.7307
 9014SOL    HW138675   0.704   3.899  10.305 -0.5388 -0.2558  0.4727
 9014SOL    HW238676   0.651   3.956  10.180  0.2161  3.5592  0.3682
 9015SOL     OW38677   0.711   1.558   3.270 -0.1815 -0.1092  0.3619
 9015SOL    HW138678   0.688   1.651   3.277 -0.3442 -0.1521  0.3883
 9015SOL    HW238679   0.628   1.510   3.273  0.4209 -1.1563  0.0266
 9016SOL     OW38680   3.559   1.842   7.219  0.1014 -0.4196 -0.1286
 9016SOL    HW138681   3.628   1.846   7.154  1.2201  1.9410  1.2034
 9016SOL    HW238682   3.540   1.748   7.218 -2.4679  0.0976 -1.0622
 9017SOL     OW38683   4.642   2.721   5.637 -1.2063 -0.1076 -1.2647
 9017SOL    HW138684   4.675   2.743   5.550  0.8983  2.1725  0.0925
 9017SOL    HW238685   4.710   2.763   5.691  0.1263 -1.3793 -1.9491
 9018SOL     OW38686   3.249   4.432   3.726  0.0848  0.3247 -0.0828
 9018SOL    HW138687   3.158   4.439   3.753  0.5219 -1.1209  1.7437
 9018SOL    HW238688   3.285   4.514   3.759 -1.3246  1.6318 -1.7879
 9019SOL     OW38689   3.717   4.161  14.028 -0.0599 -0.1199 -0.4591
 9019SOL    HW138690   3.790   4.148  14.088 -0.0750  0.8085 -0.2363
 9019SOL    HW238691   3.756   4.236  13.981 -0.6193  0.3058 -0.2457
 9020SOL     OW38692   2.903   3.332   2.385 -0.6981 -0.5341 -0.1942
 9020SOL    HW138693   2.825   3.372   2.347  0.2488  0.4736 -1.0733
 9020SOL    HW238694   2.934   3.278   2.312  0.0297  0.3830 -0.5553
 9021SOL     OW38695   1.632   3.532   8.698 -0.4502  0.0455  0.4392
 9021SOL    HW138696   1.704   3.578   8.740  1.6003 -1.9972 -0.8017
 9021SOL    HW238697   1.656   3.544   8.606 -2.3667  0.3875 -0.0170
 9022SOL     OW38698   1.343   1.148   9.795 -0.0085 -0.1334  0.2577
 9022SOL    HW138699   1.250   1.168   9.783  0.2939  1.8962  1.3525
 9022SOL    HW238700   1.330   1.053   9.807  1.0118 -0.2262  0.6625
 9023SOL     OW38701   1.664   0.008   2.482 -0.1578  0.0681 -0.5296
 9023SOL    HW138702   1.744   4.702   2.449  0.1777 -0.3045  0.7353
 9023SOL    HW238703   1.667   4.699   2.567 -0.1980  2.6195  0.8251
 9024SOL     OW38704   0.748   4.421  11.249  0.2620 -0.0155 -0.1772
 9024SOL    HW138705   0.706   4.360  11.309  0.8004 -0.2965 -0.0842
 9024SOL    HW238706   0.810   4.362  11.206  0.8563 -1.3346  2.4338
 9025SOL     OW38707   2.764   2.091   6.948 -0.0951  0.0113 -0.0791
 9025SOL    HW138708   2.775   2.000   6.924 -2.6006 -0.0982 -0.8372
 9025SOL    HW238709   2.668   2.096   6.942 -0.1473 -0.6899  0.1786
 9026SOL     OW38710   4.477   4.349   2.830 -0.2968 -0.9209  1.1861
 9026SOL    HW138711   4.412   4.329   2.763  1.9369 -1.8517 -0.7063
 9026SOL    HW238712   4.559   4.343   2.781 -0.3950  0.2449  0.8778
 9027SOL     OW38713   3.787   3.545  15.780  0.3318 -0.1957  0.5317
 9027SOL    HW138714   3.705   3.535  15.733  0.4416  0.7029  0.1585
 9027SOL    HW238715   3.764   3.532  15.872  0.6050 -0.6456  0.5347
 9028SOL     OW38716   3.933   2.391   1.464 -0.1706  0.0968 -0.1861
 9028SOL    HW138717   3.971   2.304   1.476  0.0517  0.2997  0.5450
 9028SOL    HW238718   3.838   2.387   1.460 -0.3512  3.8476  0.6942
 9029SOL     OW38719   0.565   3.699   3.173 -0.3702  0.3646 -0.3091
 9029SOL    HW138720   0.518   3.731   3.096 -0.1406  2.5771  0.4721
 9029SOL    HW238721   0.652   3.719   3.139 -0.6718 -0.0625 -1.3255
 9030SOL     OW38722   3.588   1.893   6.825 -0.2631  0.8031 -0.1291
 9030SOL    HW138723   3.667   1.852   6.861  0.0696  2.7406  1.3262
 9030SOL    HW238724   3.584   1.969   6.882 -2.2771  0.6839 -0.1151
 9031SOL     OW38725   0.204   0.136  10.253 -0.1985  0.0564  0.4306
 9031SOL    HW138726   0.182   0.049  10.284  0.8527 -0.5675 -0.5668
 9031SOL    HW238727   0.161   0.128  10.168  1.4896  1.3133 -0.5383
 9032SOL     OW38728   3.425   2.949   7.428  0.9473 -0.0524  0.3605
 9032SOL    HW138729   3.367   2.912   7.361  0.6929 -2.5147  1.9693
 9032SOL    HW238730   3.371   3.024   7.453  0.7523  0.3031 -1.0974
 9033SOL     OW38731   3.889   4.212   9.112 -0.4020  0.8959  0.1850
 9033SOL    HW138732   3.826   4.143   9.089 -0.1221  0.3970  0.9084
 9033SOL    HW238733   3.879   4.266   9.033 -0.0119  1.7352  0.7146
 9034SOL     OW38734   2.518   2.417   6.253  0.2430  0.4786  0.3241
 9034SOL    HW138735   2.537   2.420   6.159 -2.0463 -0.9382 -0.1825
 9034SOL    HW238736   2.539   2.329   6.285  2.9693  0.8518 -0.4160
 9035SOL     OW38737   0.707   2.633   6.244  0.2422  0.6741 -0.3514
 9035SOL    HW138738   0.664   2.686   6.310  0.1621  0.2377 -0.0576
 9035SOL    HW238739   0.635   2.581   6.210  0.8113  1.3687 -2.6439
 9036SOL     OW38740   4.599   1.415   3.892  0.9019 -0.0576 -0.1549
 9036SOL    HW138741   4.604   1.484   3.957  0.5273 -0.6799  0.5413
 9036SOL    HW238742   4.603   1.459   3.807  0.8306 -2.7759 -1.5698
 9037SOL     OW38743   2.313   1.630  14.187 -0.2772  0.1954 -0.5028
 9037SOL    HW138744   2.268   1.713  14.173  1.9519  1.6385  0.8062
 9037SOL    HW238745   2.366   1.631  14.108 -0.3355 -2.1879 -0.5779
 9038SOL     OW38746   2.644   1.093   7.665  0.1794 -0.0499  0.7640
 9038SOL    HW138747   2.721   1.149   7.668  0.1185  0.0546  0.3897
 9038SOL    HW238748   2.656   1.040   7.744 -1.3595  1.1377  1.7902
 9039SOL     OW38749   3.397   1.819   4.445 -0.4756 -0.5434 -0.3066
 9039SOL    HW138750   3.330   1.855   4.502 -0.2387 -2.3265  1.0800
 9039SOL    HW238751   3.464   1.887   4.437 -0.2164 -0.8535 -0.8041
 9040SOL     OW38752   4.500   1.912  12.971  0.2607  0.1696  0.4809
 9040SOL    HW138753   4.446   1.936  12.895  0.4528 -0.0940  0.2585
 9040SOL    HW238754   4.438   1.861  13.023 -0.1808  1.3268  1.0935
 9041SOL     OW38755   4.583   0.323   8.504 -0.8274  0.1745 -1.5306
 9041SOL    HW138756   4.501   0.275   8.513 -0.2395 -0.7321 -1.0177
 9041SOL    HW238757   4.562   0.393   8.565  1.8968 -0.0449 -0.3258
 9042SOL     OW38758   4.596   1.145   8.296  0.1956 -0.4219  0.4455
 9042SOL    HW138759   4.546   1.070   8.264  1.8619 -0.7465 -1.4402
 9042SOL    HW238760   4.660   1.102   8.352 -1.0672 -1.3073  1.1896
 9043SOL     OW38761   0.328   4.704   8.788 -0.3264  0.4734 -0.9749
 9043SOL    HW138762   0.283   4.658   8.860 -1.2368 -0.1624 -1.9464
 9043SOL    HW238763   0.394   4.636   8.775 -0.1823  0.3646  0.2751
 9044SOL     OW38764   4.208   2.210   7.472 -0.1128 -0.1402 -0.4394
 9044SOL    HW138765   4.209   2.118   7.443  0.5079 -0.3199  0.1560
 9044SOL    HW238766   4.196   2.190   7.565  0.2548 -0.2353 -0.4136
 9045SOL     OW38767   0.880   2.006   8.004  0.4843 -0.6629 -0.0633
 9045SOL    HW138768   0.851   2.028   7.916 -0.0235  0.0799  0.2878
 9045SOL    HW238769   0.847   2.084   8.049  1.9647 -0.1303  0.0930
 9046SOL     OW38770   3.084   2.842   0.745  0.3811  0.4491 -0.3396
 9046SOL    HW138771   3.172   2.848   0.708 -1.1590 -1.2707 -4.3087
 9046SOL    HW238772   3.048   2.773   0.690  1.4231  0.7760 -1.4276
 9047SOL     OW38773   3.771   3.655   5.192  0.2601  0.2458 -0.2436
 9047SOL    HW138774   3.812   3.686   5.111  0.6140 -0.6086 -0.3962
 9047SOL    HW238775   3.837   3.626   5.256  1.0796  3.8618  0.5327
 9048SOL     OW38776   0.703   2.383   2.535 -0.3085 -0.0066 -0.2635
 9048SOL    HW138777   0.623   2.332   2.544  0.0611 -0.2379  1.7885
 9048SOL    HW238778   0.732   2.367   2.445  1.3663  1.8337 -0.0486
 9049SOL     OW38779   0.055   0.060  10.004 -0.2686  0.7004 -0.0584
 9049SOL    HW138780   0.048   0.154  10.021  3.1873  0.7993  0.8711
 9049SOL    HW238781   4.700   0.033  10.016 -0.7773  2.4220 -0.0424
 9050SOL     OW38782   3.502   4.352   9.424 -0.4219 -0.3143 -0.1687
 9050SOL    HW138783   3.420   4.382   9.384 -0.6288 -1.0923 -0.3343
 9050SOL    HW238784   3.471   4.264   9.448  1.4543 -1.4207 -1.8105
 9051SOL     OW38785   1.941   2.684  12.651  0.1529  0.2330 -0.0126
 9051SOL    HW138786   1.894   2.612  12.693  2.6766 -1.7484 -0.5643
 9051SOL    HW238787   1.891   2.704  12.572 -3.2391 -1.0076  1.8503
 9052SOL     OW38788   0.557   4.595  11.194  0.5230 -0.0922  0.1617
 9052SOL    HW138789   0.622   4.662  11.217 -0.3963  0.7980  0.1858
 9052SOL    HW238790   0.609   4.515  11.194 -1.5444 -1.4043 -0.6546
 9053SOL     OW38791   0.334   3.718  14.516 -0.1948 -0.5290  0.3815
 9053SOL    HW138792   0.403   3.663  14.553 -1.7548 -3.8119 -1.6635
 9053SOL    HW238793   0.383   3.797  14.540  0.7758 -1.0703  0.2216
 9054SOL     OW38794   2.179   2.271   7.375 -1.0124  0.0284 -0.1708
 9054SOL    HW138795   2.187   2.364   7.356  1.7323 -0.4756 -1.5974
 9054SOL    HW238796   2.088   2.268   7.402 -0.9272 -2.2461 -0.1059
 9055SOL     OW38797   1.135   0.054   3.487 -0.4723 -0.3370 -0.8229
 9055SOL    HW138798   1.088   4.721   3.439 -1.6778 -0.9729  1.2605
 9055SOL    HW238799   1.088   0.134   3.464 -0.7009 -0.2969 -0.2083
 9056SOL     OW38800   0.219   3.274   6.792 -0.2522 -0.2599  0.2732
 9056SOL    HW138801   0.202   3.342   6.726 -0.6582 -0.8669 -0.2420
 9056SOL    HW238802   0.311   3.257   6.772  0.7236  1.5698  3.1947
 9057SOL     OW38803   1.406   1.294  15.049  0.3368 -0.6897 -0.2596
 9057SOL    HW138804   1.388   1.315  14.957 -0.7744  0.6959  0.2916
 9057SOL    HW238805   1.442   1.377  15.079 -0.6943 -0.2218 -0.3150
 9058SOL     OW38806   1.872   0.871   4.090 -0.1597 -0.3179  0.1527
 9058SOL    HW138807   1.931   0.840   4.159 -0.8224 -1.5622  0.1699
 9058SOL    HW238808   1.932   0.867   4.015 -1.8850  0.0789 -1.2441
 9059SOL     OW38809   3.454   1.563   7.645 -0.2280 -0.2095  0.1149
 9059SOL    HW138810   3.406   1.626   7.591 -0.2677 -0.4012 -0.0758
 9059SOL    HW238811   3.483   1.625   7.711  1.4287 -1.0819  0.2186
 9060SOL     OW38812   0.747   0.751   0.482 -0.5775  0.5295 -0.6930
 9060SOL    HW138813   0.705   0.744   0.396 -1.0768 -1.2191 -0.2895
 9060SOL    HW238814   0.780   0.841   0.473 -0.0820  0.6104  2.0970
 9061SOL     OW38815   2.276   4.530  11.822  0.3118  0.3885 -0.8473
 9061SOL    HW138816   2.298   4.546  11.913  1.3399 -0.3523 -0.9676
 9061SOL    HW238817   2.315   4.602  11.772  1.5524  0.2536 -0.0680
 9062SOL     OW38818   3.945   0.166  16.961 -0.4360 -0.0985  0.1866
 9062SOL    HW138819   3.885   0.100  16.996  1.7624 -2.9553 -1.4017
 9062SOL    HW238820   4.029   0.143  17.001  0.7508  3.7972 -0.0809
 9063SOL     OW38821   4.251   3.119   4.431 -0.3150  0.1443 -0.4195
 9063SOL    HW138822   4.305   3.058   4.481  1.5089  0.8070 -1.5909
 9063SOL    HW238823   4.166   3.082   4.455 -0.4231  1.8074  1.8053
 9064SOL     OW38824   3.969   4.569  14.749 -0.1214 -0.3138 -0.2474
 9064SOL    HW138825   3.968   4.475  14.726 -0.0210 -0.6959  1.3635
 9064SOL    HW238826   3.882   4.598  14.719  1.1959  1.8672 -1.9676
 9065SOL     OW38827   3.816   0.542  14.244  0.2789 -0.1898  0.3000
 9065SOL    HW138828   3.838   0.625  14.202 -1.8291  0.5207  0.6109
 9065SOL    HW238829   3.863   0.484  14.184  0.8421 -0.7735  1.3007
 9066SOL     OW38830   3.184   2.156  15.748 -0.3982  0.4778  0.0700
 9066SOL    HW138831   3.137   2.075  15.766  1.3137 -0.2132  1.4757
 9066SOL    HW238832   3.218   2.147  15.659  1.7607  2.9059  0.6300
 9067SOL     OW38833   0.282   2.525   4.088 -0.1140  0.2086 -0.1358
 9067SOL    HW138834   0.201   2.565   4.055 -0.3434  1.7074  2.3050
 9067SOL    HW238835   0.284   2.569   4.172 -1.0012  1.2676 -0.6700
 9068SOL     OW38836   3.415   4.666   0.856 -0.1021 -0.1448  0.0431
 9068SOL    HW138837   3.487   4.677   0.919 -0.8008 -2.1088  1.1684
 9068SOL    HW238838   3.422   0.010   0.803 -0.2544 -0.8589 -1.0398
 9069SOL     OW38839   0.375   0.355  10.158 -0.2158  0.5449 -0.2381
 9069SOL    HW138840   0.314   0.288  10.189  1.5487 -0.2292  1.5487
 9069SOL    HW238841   0.371   0.350  10.063  0.5421  0.0170 -0.2426
 9070SOL     OW38842   1.484   3.476  13.011 -0.5617 -0.0215 -0.3045
 9070SOL    HW138843   1.404   3.467  13.062  0.5091  1.4037  1.5973
 9070SOL    HW238844   1.547   3.482  13.082 -2.2855 -1.1033  1.3112
 9071SOL     OW38845   3.062   1.815   8.964  0.6409 -0.2565 -0.2402
 9071SOL    HW138846   2.967   1.803   8.971  0.8011 -1.8205 -0.8103
 9071SOL    HW238847   3.081   1.889   9.023  0.6933  0.6511 -1.4012
 9072SOL     OW38848   0.178   3.176   5.964  0.1995  0.1490 -0.1690
 9072SOL    HW138849   0.240   3.105   5.946  0.0597 -0.5027  1.8672
 9072SOL    HW238850   0.139   3.185   5.877  1.9802  0.7622 -0.8983
 9073SOL     OW38851   2.849   3.906   1.596  0.1180 -0.0914  0.1728
 9073SOL    HW138852   2.824   3.942   1.681 -1.7596  0.3768 -0.5558
 9073SOL    HW238853   2.811   3.969   1.535  0.5200  0.6110  0.6533
 9074SOL     OW38854   3.199   0.808   3.986 -0.2552 -0.1608  0.1458
 9074SOL    HW138855   3.183   0.839   3.897 -0.9332  0.2684  0.4178
 9074SOL    HW238856   3.231   0.718   3.978 -1.1063 -0.5498  1.0874
 9075SOL     OW38857   2.369   3.335   4.985  0.5402  0.2116  0.2954
 9075SOL    HW138858   2.284   3.346   5.027  0.7086 -1.6052  1.1004
 9075SOL    HW238859   2.422   3.390   5.044 -0.2505 -0.1297  1.3143
 9076SOL     OW38860   0.158   0.310   5.393  0.0924 -0.1702 -0.4442
 9076SOL    HW138861   0.097   0.339   5.326  0.4720 -2.3556 -1.7474
 9076SOL    HW238862   0.164   0.390   5.445  1.7950  0.7159 -2.0254
 9077SOL     OW38863   0.882   4.341   6.182  0.2796 -0.0689  0.4001
 9077SOL    HW138864   0.960   4.291   6.206  0.0776 -1.1695 -1.2500
 9077SOL    HW238865   0.821   4.324   6.254 -1.8817  1.5981 -1.0506
 9078SOL     OW38866   4.047   3.360   0.363  0.3678 -0.1278 -0.3801
 9078SOL    HW138867   4.028   3.453   0.373  0.1953 -0.2997  1.0064
 9078SOL    HW238868   4.050   3.328   0.453 -1.4299 -0.0071 -0.2667
 9079SOL     OW38869   4.196   3.642   8.646  0.2935  0.4452  0.0656
 9079SOL    HW138870   4.166   3.725   8.682 -1.0197 -0.5906  1.3389
 9079SOL    HW238871   4.289   3.649   8.624  0.7113  1.1545  2.0531
 9080SOL     OW38872   4.388   1.693  13.987 -0.4107 -0.3943 -0.5158
 9080SOL    HW138873   4.470   1.681  13.938 -0.0450 -1.3859  0.3518
 9080SOL    HW238874   4.407   1.647  14.069  0.8206 -0.8384 -1.0388
 9081SOL     OW38875   1.395   3.706   9.713  0.0428  0.0671 -0.3185
 9081SOL    HW138876   1.362   3.623   9.681 -2.0955  0.7462  0.1450
 9081SOL    HW238877   1.487   3.688   9.694 -0.3798 -1.0120 -1.2882
 9082SOL     OW38878   1.240   3.330   3.603  0.1563 -0.3337  0.1156
 9082SOL    HW138879   1.184   3.402   3.633  1.9977  0.5051  1.5482
 9082SOL    HW238880   1.249   3.356   3.511 -0.5707 -0.0682  0.1223
 9083SOL     OW38881   1.652   0.625   0.172  0.2983 -0.1917  0.3264
 9083SOL    HW138882   1.693   0.561   0.230 -0.0256  0.5589  1.3989
 9083SOL    HW238883   1.729   0.678   0.150 -0.5925  0.6497 -0.7911
 9084SOL     OW38884   4.315   3.371   9.969  0.6720  0.1287 -0.0999
 9084SOL    HW138885   4.375   3.334   9.904  1.1619 -0.8045  0.8725
 9084SOL    HW238886   4.379   3.431  10.007 -1.2608  2.5863 -0.7310
 9085SOL     OW38887   3.638   4.047   7.709  0.4325  0.2513  0.4267
 9085SOL    HW138888   3.619   3.990   7.634  0.2449  0.3805  0.3761
 9085SOL    HW238889   3.636   3.988   7.785  2.6103  0.7460  0.8768
 9086SOL     OW38890   1.981   3.805   1.589 -0.3397  0.1744 -0.5804
 9086SOL    HW138891   2.068   3.842   1.577 -1.9114  3.2519 -2.5217
 9086SOL    HW238892   1.984   3.735   1.524 -3.9679 -0.5070 -0.0308
 9087SOL     OW38893   0.340   0.918  14.357  0.7922 -0.2889 -0.7928
 9087SOL    HW138894   0.322   0.830  14.325 -0.7060 -0.5815  0.8782
 9087SOL    HW238895   0.392   0.906  14.435  1.5482  1.2617 -1.0511
 9088SOL     OW38896   0.674   2.550  15.602 -0.0326 -0.0375 -0.4795
 9088SOL    HW138897   0.652   2.625  15.547  1.1593  1.2950  0.8425
 9088SOL    HW238898   0.587   2.535  15.637 -1.3354  1.2117 -3.1757
 9089SOL     OW38899   3.623   1.943  10.371  0.3184 -0.0743 -0.4469
 9089SOL    HW138900   3.547   1.958  10.427 -0.5091  1.1264 -1.8979
 9089SOL    HW238901   3.656   1.856  10.395  2.5906  1.1934  1.0330
 9090SOL     OW38902   2.000   1.063   7.964  0.0369 -0.4271  0.2122
 9090SOL    HW138903   2.023   0.989   7.908 -4.2171  0.1574 -2.3180
 9090SOL    HW238904   1.924   1.027   8.009 -0.9129  0.3808 -0.7311
 9091SOL     OW38905   1.971   1.797  11.791  0.2218  0.3827  0.0122
 9091SOL    HW138906   1.903   1.735  11.764  0.6797 -0.1339  0.0465
 9091SOL    HW238907   1.972   1.789  11.887  1.5822 -0.7013 -0.0940
 9092SOL     OW38908   3.983   2.082   3.716 -0.8337  0.0635 -0.0446
 9092SOL    HW138909   3.916   2.090   3.648 -0.5388  0.3913 -0.2980
 9092SOL    HW238910   3.959   2.158   3.769  1.1387 -0.0684  1.0574
 9093SOL     OW38911   0.442   1.810   3.765 -0.2031 -0.2384  0.0095
 9093SOL    HW138912   0.388   1.827   3.841  0.2719  1.8708 -0.1194
 9093SOL    HW238913   0.481   1.727   3.792  0.1811  0.6635  2.1673
 9094SOL     OW38914   1.933   1.091   3.434 -0.0579 -0.7539 -0.8079
 9094SOL    HW138915   2.015   1.139   3.419 -0.9494  0.1483 -2.7492
 9094SOL    HW238916   1.882   1.154   3.484  0.0901 -2.4879  1.5001
 9095SOL     OW38917   3.381   4.005   8.873 -0.4987 -0.4461 -0.2817
 9095SOL    HW138918   3.324   3.946   8.824 -0.6421 -0.3073 -0.2840
 9095SOL    HW238919   3.330   4.048   8.942 -0.1042 -0.5390  0.0660
 9096SOL     OW38920   0.147   0.712   0.768 -0.3499 -0.5778 -0.1210
 9096SOL    HW138921   0.199   0.776   0.719 -0.2745 -0.6263 -0.1049
 9096SOL    HW238922   0.109   0.665   0.694 -1.2684 -0.5237  0.3237
 9097SOL     OW38923   3.694   2.495  13.658  0.7639  0.7426  0.3977
 9097SOL    HW138924   3.788   2.477  13.647  0.3207 -2.2708  1.5223
 9097SOL    HW238925   3.703   2.580  13.700  0.5955  1.5494 -1.2066
 9098SOL     OW38926   3.456   4.290  15.582 -0.0841 -0.2743 -0.0196
 9098SOL    HW138927   3.394   4.353  15.546 -0.3280  0.7465  2.1894
 9098SOL    HW238928   3.410   4.260  15.660 -1.0113 -3.4291 -1.7545
 9099SOL     OW38929   0.782   1.803   1.667 -0.4688 -0.4545  0.2541
 9099SOL    HW138930   0.784   1.708   1.669  1.6602 -0.3352  3.1424
 9099SOL    HW238931   0.875   1.822   1.673 -0.4475  0.0482 -1.8948
 9100SOL     OW38932   2.964   0.141   6.418 -0.2540 -0.3642  0.0830
 9100SOL    HW138933   2.887   0.196   6.432  2.1751  2.4300  2.3977
 9100SOL    HW238934   3.010   0.196   6.354  0.7569  0.2212  1.3149
 9101SOL     OW38935   3.328   3.674   6.059 -1.0405 -0.3604 -0.5784
 9101SOL    HW138936   3.304   3.766   6.070  0.8389 -0.1712  1.9306
 9101SOL    HW238937   3.402   3.662   6.119 -0.6220  2.0474 -0.6342
 9102SOL     OW38938   0.706   0.201   2.353  0.4222 -0.2000 -0.3488
 9102SOL    HW138939   0.701   0.251   2.435 -1.7984 -2.2840  0.7843
 9102SOL    HW238940   0.613   0.187   2.334  0.2577 -0.3757  0.6133
 9103SOL     OW38941   1.892   2.249  15.021  0.5493  0.4316  0.5483
 9103SOL    HW138942   1.980   2.277  15.046  0.5029 -0.7522  2.0456
 9103SOL    HW238943   1.876   2.175  15.079  2.0080 -2.2722 -2.4794
 9104SOL     OW38944   0.392   0.600  16.065 -0.2387  0.1199 -0.1220
 9104SOL    HW138945   0.306   0.611  16.024 -0.5235  0.0292  0.4562
 9104SOL    HW238946   0.373   0.545  16.140 -0.0640 -0.6316 -0.6358
 9105SOL     OW38947   3.067   4.366   4.958  0.0852 -0.0774 -0.4243
 9105SOL    HW138948   3.058   4.286   5.010  3.9260 -0.6756 -0.6858
 9105SOL    HW238949   2.989   4.353   4.904 -0.6014 -0.5800  0.6936
 9106SOL     OW38950   3.341   3.955   5.798 -0.2708 -0.3733  0.3894
 9106SOL    HW138951   3.316   4.022   5.734  4.0904 -0.4543 -1.4008
 9106SOL    HW238952   3.272   3.970   5.862  0.7385  2.1890  0.8621
 9107SOL     OW38953   1.761   3.584   2.510 -0.5392 -0.1023  0.3097
 9107SOL    HW138954   1.839   3.559   2.559  0.8878  3.4526 -0.0915
 9107SOL    HW238955   1.774   3.531   2.431  1.1536 -1.7975  1.7264
 9108SOL     OW38956   4.464   3.393   1.984 -0.3052 -0.2342  0.1950
 9108SOL    HW138957   4.376   3.430   1.993  0.0055  0.9596 -1.7134
 9108SOL    HW238958   4.507   3.371   2.067  0.0183 -1.3668 -0.2632
 9109SOL     OW38959   0.659   1.816   9.194  0.5576  0.8094 -0.3704
 9109SOL    HW138960   0.575   1.770   9.192  1.1933 -0.4221  1.6924
 9109SOL    HW238961   0.664   1.829   9.099  1.1570  0.2233 -0.4262
 9110SOL     OW38962   3.830   3.666   4.401 -0.6560  0.8382  0.4328
 9110SOL    HW138963   3.779   3.705   4.330  0.5712 -0.6548 -1.2556
 9110SOL    HW238964   3.821   3.574   4.379 -0.8706  1.1037 -0.6046
 9111SOL     OW38965   0.720   3.488   0.139 -0.2116 -0.2006  0.4178
 9111SOL    HW138966   0.749   3.561   0.194 -0.6541  0.3684 -0.1176
 9111SOL    HW238967   0.703   3.543   0.063  0.1888 -0.4247  0.1669
 9112SOL     OW38968   0.994   0.383  17.161 -0.1535  0.0643 -0.2708
 9112SOL    HW138969   1.025   0.339  17.240 -3.0746 -1.5846 -0.0840
 9112SOL    HW238970   1.012   0.472  17.192 -2.5738  0.7636 -0.9105
 9113SOL     OW38971   4.413   0.032   8.447  0.1818 -0.2609  0.0614
 9113SOL    HW138972   4.361   0.069   8.376  0.7601  3.0545  1.3473
 9113SOL    HW238973   4.339   0.009   8.503  1.5013  0.6129  2.1786
 9114SOL     OW38974   3.251   3.063   3.174  0.3714  0.0001  0.0815
 9114SOL    HW138975   3.192   3.136   3.192 -1.0196 -0.5722 -2.1866
 9114SOL    HW238976   3.307   3.097   3.104  0.7165 -0.5467  0.0916
 9115SOL     OW38977   3.778   2.720   4.516  0.0171 -0.2751  0.3310
 9115SOL    HW138978   3.715   2.786   4.545  0.0490  0.7592 -1.9894
 9115SOL    HW238979   3.711   2.666   4.475 -0.4707 -0.3625  1.2377
 9116SOL     OW38980   0.766   1.690   4.478  0.4867  0.3148 -0.0763
 9116SOL    HW138981   0.803   1.693   4.390  1.1127 -1.0658  0.1473
 9116SOL    HW238982   0.836   1.644   4.524 -0.9558  1.0822  2.8577
 9117SOL     OW38983   1.758   2.899   2.743 -0.1090 -0.1206 -0.9701
 9117SOL    HW138984   1.739   2.993   2.744 -0.2935 -0.1690  0.4313
 9117SOL    HW238985   1.694   2.869   2.808  0.8189 -1.5983 -0.7399
 9118SOL     OW38986   4.196   0.396  15.648  0.1240 -0.2175 -0.4558
 9118SOL    HW138987   4.224   0.450  15.574 -0.0170 -1.0558 -1.1215
 9118SOL    HW238988   4.127   0.454  15.679  1.6829  1.2985  0.1666
 9119SOL     OW38989   0.993   3.532  10.217 -0.2457 -0.2931  0.3023
 9119SOL    HW138990   0.931   3.605  10.225  0.9136  0.6260  0.9453
 9119SOL    HW238991   1.058   3.564  10.154  2.0415  0.0184  2.8302
 9120SOL     OW38992   4.668   3.503   7.903 -0.2005  0.0117  0.1854
 9120SOL    HW138993   4.700   3.460   7.983 -3.8209  1.4281  2.3894
 9120SOL    HW238994   4.635   3.424   7.860 -0.7172 -0.4218  1.3720
 9121SOL     OW38995   2.937   0.713   2.702  0.4058 -0.0870 -0.1661
 9121SOL    HW138996   3.026   0.716   2.668 -0.5935 -0.5290 -2.8302
 9121SOL    HW238997   2.947   0.654   2.777  0.0613 -0.7221 -0.6234
 9122SOL     OW38998   4.677   3.484   2.664  0.7415  0.1949 -0.7389
 9122SOL    HW138999   0.016   3.516   2.614  1.2371  2.5151  1.5329
 9122SOL    HW239000   4.606   3.535   2.624 -0.5891 -1.6621 -0.7405
 9123SOL     OW39001   3.272   3.082   1.011 -0.4407  0.1335 -0.0994
 9123SOL    HW139002   3.329   3.112   1.082 -0.9222  0.0761  0.3122
 9123SOL    HW239003   3.321   3.008   0.976  1.7156  0.9428  1.1639
 9124SOL     OW39004   3.277   3.139   0.413  0.1569 -0.2327  0.3122
 9124SOL    HW139005   3.314   3.104   0.494  1.5342  0.0344 -0.2033
 9124SOL    HW239006   3.286   3.232   0.435  0.7093  0.0286 -1.0193
 9125SOL     OW39007   1.098   3.560   4.323  0.1569  0.7151 -0.1802
 9125SOL    HW139008   1.040   3.518   4.259 -0.9954  4.1718 -1.3636
 9125SOL    HW239009   1.035   3.588   4.389 -0.6728  1.2289 -1.1931
 9126SOL     OW39010   2.037   4.059   9.873  0.2718 -0.3392  0.5763
 9126SOL    HW139011   1.967   4.075   9.937 -0.7492  2.0806 -1.1558
 9126SOL    HW239012   1.998   4.095   9.793 -0.6574 -1.7115  0.4065
 9127SOL     OW39013   0.551   1.960   4.271  0.0214  0.3396 -0.1133
 9127SOL    HW139014   0.524   1.954   4.363  0.5423  1.2613  0.1017
 9127SOL    HW239015   0.578   2.051   4.280 -3.0569  0.9054  3.5023
 9128SOL     OW39016   1.589   0.037   5.337  0.0796  0.3932 -0.6076
 9128SOL    HW139017   1.553   4.689   5.366  0.5163  0.2403 -0.5153
 9128SOL    HW239018   1.554   0.098   5.403  4.6434 -0.5844  2.7102
 9129SOL     OW39019   1.088   0.086  14.908 -0.1226  0.2136  0.6150
 9129SOL    HW139020   1.060   0.004  14.869 -0.2219  0.6011 -0.1323
 9129SOL    HW239021   1.007   0.137  14.904 -0.4246 -0.2654  0.6223
 9130SOL     OW39022   4.578   2.497  10.555 -0.1650 -1.2701 -0.1419
 9130SOL    HW139023   4.498   2.515  10.505 -1.0531 -1.0276  1.3503
 9130SOL    HW239024   4.546   2.447  10.631 -0.5192 -3.6326 -1.8433
 9131SOL     OW39025   1.358   3.243   1.937 -0.3595 -0.1716  0.2405
 9131SOL    HW139026   1.433   3.244   1.995  1.1876  3.0177 -1.8210
 9131SOL    HW239027   1.286   3.261   1.998 -0.7036  0.0754 -0.2375
 9132SOL     OW39028   0.730   0.823   8.098  0.1699  0.1554  0.2221
 9132SOL    HW139029   0.644   0.782   8.110  0.1220  0.3266  0.4642
 9132SOL    HW239030   0.739   0.795   8.007 -2.2178 -1.6463  0.5410
 9133SOL     OW39031   0.423   0.597  14.577 -0.2749 -0.1666  0.1741
 9133SOL    HW139032   0.431   0.691  14.590  2.0645 -0.6040  2.0726
 9133SOL    HW239033   0.346   0.573  14.628 -0.6628 -0.5502 -0.5904
 9134SOL     OW39034   3.377   0.849   4.595  0.2960 -0.1314  0.0995
 9134SOL    HW139035   3.376   0.862   4.500  1.3224 -0.7272  0.0069
 9134SOL    HW239036   3.455   0.800   4.618  0.6551  0.2875 -0.2183
 9135SOL     OW39037   3.316   0.109  12.123 -0.1487 -0.0870  0.1009
 9135SOL    HW139038   3.279   0.052  12.056 -0.7773 -0.4140  0.7235
 9135SOL    HW239039   3.254   0.182  12.124 -0.0727 -0.0037 -1.4728
 9136SOL     OW39040   3.500   3.240  10.069 -0.8882 -0.1054 -0.3745
 9136SOL    HW139041   3.564   3.307  10.095  2.2248 -2.9987 -0.6432
 9136SOL    HW239042   3.552   3.170  10.030 -1.1856  0.9910 -2.8007
 9137SOL     OW39043   0.332   2.289   9.202 -0.5984  0.7201 -0.4320
 9137SOL    HW139044   0.410   2.264   9.152  0.7417 -1.2824  2.6455
 9137SOL    HW239045   0.258   2.255   9.152  1.3054 -0.3891 -2.5036
 9138SOL     OW39046   1.461   0.326   6.644 -0.0814 -0.1241  0.2804
 9138SOL    HW139047   1.460   0.415   6.682 -1.4020 -0.3184  0.7141
 9138SOL    HW239048   1.474   0.277   6.726 -1.7486 -2.1506 -0.6950
 9139SOL     OW39049   2.794   0.377   6.457 -0.2566  0.2316  0.1507
 9139SOL    HW139050   2.825   0.429   6.531  1.8634 -1.6856  0.6323
 9139SOL    HW239051   2.757   0.443   6.398 -0.1162  1.3624  1.3211
 9140SOL     OW39052   0.249   0.301   2.190 -0.3155 -0.3454 -0.0741
 9140SOL    HW139053   0.195   0.376   2.216  1.1311  0.4784  0.5916
 9140SOL    HW239054   0.193   0.260   2.125 -0.8212  1.1239 -0.5514
 9141SOL     OW39055   1.807   3.512   3.070  0.0654  0.4544 -0.3091
 9141SOL    HW139056   1.822   3.420   3.046  1.7253  0.5209  0.4340
 9141SOL    HW239057   1.812   3.513   3.165 -1.0675 -1.9239 -0.2111
 9142SOL     OW39058   1.922   4.615   6.223 -0.7398 -0.1928 -0.7945
 9142SOL    HW139059   1.948   4.707   6.228 -2.7865  0.2758  1.4668
 9142SOL    HW239060   1.866   4.599   6.299  2.1009  0.7014  1.4806
 9143SOL     OW39061   1.434   0.592   6.742 -0.4375  0.3636 -0.2276
 9143SOL    HW139062   1.349   0.633   6.726  0.7120  2.3171 -1.2563
 9143SOL    HW239063   1.494   0.666   6.740  0.9260 -0.7354 -0.0481
 9144SOL     OW39064   1.494   0.694   9.479 -0.1508  0.3290  0.0005
 9144SOL    HW139065   1.585   0.672   9.457  0.3975  2.3540  0.2688
 9144SOL    HW239066   1.439   0.616   9.488 -1.3436  0.9622 -1.7957
 9145SOL     OW39067   0.236   3.738  16.322 -0.5756  0.0135  0.1864
 9145SOL    HW139068   0.274   3.717  16.406 -0.8012  1.2732  0.6035
 9145SOL    HW239069   0.291   3.805  16.282 -1.2035  1.4121  1.6914
 9146SOL     OW39070   0.610   0.946   3.416 -0.0569 -0.4992  0.0904
 9146SOL    HW139071   0.660   0.963   3.337  0.9959  1.6030  1.2050
 9146SOL    HW239072   0.667   0.977   3.487 -0.5543  2.3640 -0.7673
 9147SOL     OW39073   4.558   3.509  14.608  0.4029  0.0878 -0.4826
 9147SOL    HW139074   4.650   3.491  14.589  0.5583  0.4347 -0.0565
 9147SOL    HW239075   4.522   3.422  14.627  1.2179 -0.1317  0.0791
 9148SOL     OW39076   2.423   3.629   1.934 -0.1480 -0.5117  0.6952
 9148SOL    HW139077   2.370   3.577   1.995 -0.1615 -0.7393  0.4885
 9148SOL    HW239078   2.488   3.662   1.996 -0.0664 -1.1718  0.9574
 9149SOL     OW39079   2.263   1.493   4.194 -0.1521  0.4359 -0.8681
 9149SOL    HW139080   2.278   1.429   4.125  3.4492 -0.0173  0.3462
 9149SOL    HW239081   2.282   1.443   4.273  0.3852 -0.8110 -1.7879
 9150SOL     OW39082   3.381   3.772  11.473  0.2189  0.0933  0.4931
 9150SOL    HW139083   3.383   3.730  11.387  0.5306 -0.5162  0.8009
 9150SOL    HW239084   3.456   3.830  11.461  0.4523 -0.7244 -2.0115
 9151SOL     OW39085   4.488   0.533   0.216  0.3744 -0.0759  0.8576
 9151SOL    HW139086   4.513   0.600   0.153 -1.6891 -2.5298 -2.5515
 9151SOL    HW239087   4.511   0.451   0.174  1.9140 -0.1986  1.9276
 9152SOL     OW39088   1.134   1.474   2.462  0.0798 -0.1142 -0.0203
 9152SOL    HW139089   1.131   1.390   2.507 -0.3233  0.4749  1.0506
 9152SOL    HW239090   1.215   1.460   2.414  0.9272  2.1140  0.7452
 9153SOL     OW39091   1.524   4.342   0.404  0.5129  0.3472  0.0142
 9153SOL    HW139092   1.606   4.297   0.423 -1.1781 -2.4226  0.7505
 9153SOL    HW239093   1.534   4.381   0.317 -0.1997 -0.2512 -0.3458
 9154SOL     OW39094   2.540   4.725   6.041 -0.7257 -0.1894 -0.1605
 9154SOL    HW139095   2.491   0.048   5.984  0.5133  2.5177  1.5192
 9154SOL    HW239096   2.617   0.045   6.054 -1.2038  0.2671  0.7055
 9155SOL     OW39097   1.693   1.516   6.148  0.1845 -0.2326  0.5125
 9155SOL    HW139098   1.598   1.513   6.134  0.2452 -0.6808  0.2096
 9155SOL    HW239099   1.696   1.450   6.217 -3.1557 -1.1330 -0.2431
 9156SOL     OW39100   2.968   3.869   0.437  0.3633 -0.6422 -0.0325
 9156SOL    HW139101   2.908   3.795   0.439  0.1253 -0.4542 -0.1441
 9156SOL    HW239102   2.922   3.917   0.367  0.3576 -0.7652 -0.1121
 9157SOL     OW39103   0.165   3.383   6.510  0.0780 -0.3311 -0.3214
 9157SOL    HW139104   0.136   3.449   6.574 -1.0245 -0.1898 -0.9556
 9157SOL    HW239105   0.085   3.331   6.510  1.6447 -2.6979  0.3164
 9158SOL     OW39106   1.358   0.042   7.702  0.0903  0.6027 -0.1641
 9158SOL    HW139107   1.353   4.683   7.717  0.7988  0.1979 -2.5030
 9158SOL    HW239108   1.427   0.048   7.636  0.3895 -1.0854 -0.0082
 9159SOL     OW39109   0.063   3.269   7.363  0.5551 -0.1351  0.6811
 9159SOL    HW139110   0.038   3.194   7.309 -0.5412 -0.0538  1.0791
 9159SOL    HW239111   4.728   3.330   7.341 -1.2762 -2.4559  0.1554
 9160SOL     OW39112   0.883   1.873   1.327  0.7135  0.4424 -0.4615
 9160SOL    HW139113   0.839   1.790   1.342  1.1397  0.2771 -0.1399
 9160SOL    HW239114   0.809   1.934   1.325  1.1170  0.9396 -0.3912
 9161SOL     OW39115   2.965   4.384  11.469  0.1230 -0.5320  0.4205
 9161SOL    HW139116   2.890   4.328  11.487  0.9883 -2.5375 -2.2128
 9161SOL    HW239117   2.913   4.454  11.429 -0.3866 -1.7430 -1.0414
 9162SOL     OW39118   3.471   3.654   4.183  0.4680  0.3945 -0.4974
 9162SOL    HW139119   3.435   3.575   4.142 -0.8189  1.2394 -0.9867
 9162SOL    HW239120   3.400   3.677   4.243  1.4110  1.3783  0.2371
 9163SOL     OW39121   4.681   0.068  13.974  0.0767 -0.3607 -0.2179
 9163SOL    HW139122   4.654   0.080  13.883  0.0976  0.4514 -0.1149
 9163SOL    HW239123   4.733   0.146  13.994  2.5467 -2.4178  1.2772
 9164SOL     OW39124   1.099   4.381   3.242 -0.2635  0.4484  0.3655
 9164SOL    HW139125   1.134   4.297   3.272 -0.7506  0.6891  1.6148
 9164SOL    HW239126   1.015   4.366   3.286  0.6790 -1.1764  1.6390
 9165SOL     OW39127   1.104   4.412   1.982  0.0006 -0.3829  0.3141
 9165SOL    HW139128   1.191   4.402   1.944  0.0928  0.7220  0.2214
 9165SOL    HW239129   1.137   4.461   2.057 -0.8753 -1.7458  1.5767
 9166SOL     OW39130   0.279   0.865   2.085 -0.1494  0.3266  0.0099
 9166SOL    HW139131   0.324   0.798   2.034  1.8196  1.7874 -0.1699
 9166SOL    HW239132   0.356   0.894   2.133 -1.3416 -0.2476  2.2510
 9167SOL     OW39133   4.125   3.342  16.549  0.3311  0.1811 -0.0710
 9167SOL    HW139134   4.203   3.373  16.504  1.6597 -2.5673  0.3048
 9167SOL    HW239135   4.137   3.248  16.536  0.4303  0.3376 -1.1197
 9168SOL     OW39136   2.284   3.919   9.294 -0.0153 -0.0318  0.3871
 9168SOL    HW139137   2.364   3.867   9.291  0.2835  0.4367  0.0992
 9168SOL    HW239138   2.268   3.939   9.387  2.6070 -1.7029  1.1878
 9169SOL     OW39139   0.890   3.873  17.107  0.1849  0.4309 -0.1832
 9169SOL    HW139140   0.958   3.859  17.173 -1.2760 -1.8868  0.8548
 9169SOL    HW239141   0.816   3.868  17.168 -0.7059  1.2957 -1.2024
 9170SOL     OW39142   3.021   0.520   4.710 -0.6654  0.2385  0.0763
 9170SOL    HW139143   3.094   0.544   4.653  0.7684 -3.8362  0.1877
 9170SOL    HW239144   2.951   0.571   4.671 -0.1950  1.5193  0.9197
 9171SOL     OW39145   4.461   3.233   6.707 -0.1452 -0.4039 -0.1015
 9171SOL    HW139146   4.481   3.326   6.718  0.5706 -0.3111 -2.1968
 9171SOL    HW239147   4.376   3.247   6.665 -0.1885  1.7876  0.7159
 9172SOL     OW39148   2.301   2.542   2.517  0.0049 -0.1921 -0.0673
 9172SOL    HW139149   2.377   2.505   2.472 -0.4726  0.0673 -1.0790
 9172SOL    HW239150   2.322   2.531   2.610  1.1011  2.4267  0.0055
 9173SOL     OW39151   0.205   1.778   4.493 -0.5989  0.1752 -0.6221
 9173SOL    HW139152   0.162   1.850   4.539 -0.3416  0.0135 -0.1270
 9173SOL    HW239153   0.287   1.787   4.543 -1.6630 -1.1564  1.3443
 9174SOL     OW39154   1.908   4.018   1.754  0.2712  0.4630  0.5991
 9174SOL    HW139155   1.876   4.060   1.674 -0.7425  0.5922  1.0652
 9174SOL    HW239156   1.947   3.940   1.715 -1.7483 -0.1531 -0.2068
 9175SOL     OW39157   2.493   2.364   5.989  0.5427 -0.4914 -0.8076
 9175SOL    HW139158   2.526   2.274   5.984  0.6814 -0.4859  0.1491
 9175SOL    HW239159   2.561   2.407   5.937 -0.6965 -1.0133 -2.8702
 9176SOL     OW39160   2.380   1.416  15.077  0.4967 -0.2565 -0.4172
 9176SOL    HW139161   2.441   1.484  15.050  0.4992 -0.4898 -1.0178
 9176SOL    HW239162   2.377   1.360  14.999 -1.0182 -1.5670  0.5760
 9177SOL     OW39163   0.866   2.874   9.654 -0.3575 -0.7060  0.5463
 9177SOL    HW139164   0.825   2.788   9.658  0.2624 -1.0996 -1.7490
 9177SOL    HW239165   0.794   2.932   9.678 -0.9444 -1.6960  1.1495
 9178SOL     OW39166   0.788   0.973   3.202  0.3476 -0.2235  0.1919
 9178SOL    HW139167   0.806   0.945   3.112  0.2085 -0.7304  0.3228
 9178SOL    HW239168   0.847   1.047   3.211  0.0294  0.1787 -1.0942
 9179SOL     OW39169   0.003   0.148   2.658  0.1899  0.3798 -0.3958
 9179SOL    HW139170   0.056   0.216   2.701 -0.1813 -0.1920  0.9703
 9179SOL    HW239171   4.674   0.201   2.611 -0.4863  1.1476  1.3961
 9180SOL     OW39172   1.230   1.688   4.564  0.3017  0.4447  0.3078
 9180SOL    HW139173   1.142   1.713   4.594  1.2980  1.9590  2.0441
 9180SOL    HW239174   1.263   1.660   4.650 -0.3698 -0.1256  0.3819
 9181SOL     OW39175   1.041   3.364   5.176 -0.1077 -0.0014 -0.0056
 9181SOL    HW139176   1.060   3.277   5.142 -0.0201  0.1140 -0.2489
 9181SOL    HW239177   1.091   3.368   5.257 -0.0460  0.1004 -0.0484
 9182SOL     OW39178   2.477   4.569  10.428  0.9891  0.1395  0.3624
 9182SOL    HW139179   2.388   4.556  10.396  0.3789  0.8504  1.7984
 9182SOL    HW239180   2.489   4.506  10.499  0.2563  0.1476  0.4901
 9183SOL     OW39181   3.829   1.158   5.253 -0.2117  0.2957 -0.5778
 9183SOL    HW139182   3.823   1.174   5.158  0.2412  0.8119 -0.5192
 9183SOL    HW239183   3.895   1.088   5.254 -0.3310  0.1401 -2.4472
 9184SOL     OW39184   2.208   4.659   6.482 -0.3593  0.0286  0.0656
 9184SOL    HW139185   2.293   4.649   6.524 -0.9802 -0.8543  1.0974
 9184SOL    HW239186   2.237   4.701   6.401  0.1236 -1.5202 -0.5696
 9185SOL     OW39187   1.718   0.457  10.534 -0.2810  0.0871  0.2742
 9185SOL    HW139188   1.700   0.479  10.442 -0.8408  2.0099  0.8373
 9185SOL    HW239189   1.806   0.424  10.513 -0.0190 -0.8090  2.8705
 9186SOL     OW39190   2.938   0.261   0.309 -0.5452  0.3413  0.3824
 9186SOL    HW139191   2.855   0.216   0.302  0.3770 -1.0395 -1.6836
 9186SOL    HW239192   2.993   0.198   0.355  1.7305  2.2032  0.2870
 9187SOL     OW39193   2.496   1.156   3.025 -0.4472 -0.1511  0.6060
 9187SOL    HW139194   2.420   1.210   3.000 -0.2904  1.4746  3.5406
 9187SOL    HW239195   2.552   1.137   2.950 -0.0168 -0.7346  1.0775
 9188SOL     OW39196   4.364   0.185   0.548  0.6391  0.2527 -1.0419
 9188SOL    HW139197   4.424   0.207   0.477 -0.0761 -1.0848 -2.0594
 9188SOL    HW239198   4.427   0.159   0.615 -0.4355  0.5413  0.0942
 9189SOL     OW39199   1.201   2.333   6.070  0.0500 -0.1670 -0.0285
 9189SOL    HW139200   1.260   2.281   6.125 -0.2260  3.4188  3.6833
 9189SOL    HW239201   1.189   2.271   5.998 -2.1033  0.4335 -0.1769
 9190SOL     OW39202   3.509   1.980   6.416 -0.2793  0.3577  0.4194
 9190SOL    HW139203   3.595   1.972   6.375 -0.0022  2.4068  0.6366
 9190SOL    HW239204   3.453   2.002   6.342  0.4644 -0.7794 -0.4846
 9191SOL     OW39205   2.227   1.273   4.709  0.1389  0.2529 -0.0621
 9191SOL    HW139206   2.277   1.195   4.684  0.6255  0.5827 -0.1265
 9191SOL    HW239207   2.297   1.306   4.765 -0.3687 -2.4968  2.1835
 9192SOL     OW39208   2.002   0.053  13.677  0.1908 -0.5312 -0.0210
 9192SOL    HW139209   1.955   0.085  13.600  1.2563 -2.6179 -1.5317
 9192SOL    HW239210   2.061   0.127  13.688  1.1343 -1.2285 -0.3294
 9193SOL     OW39211   4.526   2.912   7.717 -0.0372 -0.4814  0.0981
 9193SOL    HW139212   4.470   2.939   7.645 -0.0356  0.2519  0.3723
 9193SOL    HW239213   4.575   2.844   7.670  0.6530 -0.0692  0.2291
 9194SOL     OW39214   2.312   3.727   8.747 -0.3556  0.5149  0.1663
 9194SOL    HW139215   2.224   3.727   8.786  0.2929 -1.0682  1.6696
 9194SOL    HW239216   2.288   3.745   8.657  0.2299 -1.2056 -0.3401
 9195SOL     OW39217   3.147   2.910   7.777  0.5026 -0.0794 -0.4947
 9195SOL    HW139218   3.097   2.972   7.830  0.8153 -0.4380  0.2174
 9195SOL    HW239219   3.082   2.872   7.718  1.4281 -2.2337 -0.1122
 9196SOL     OW39220   2.217   4.458   3.736  0.2751 -0.1396  0.3383
 9196SOL    HW139221   2.273   4.499   3.671  2.7863 -1.6757  1.5450
 9196SOL    HW239222   2.154   4.423   3.673 -2.5827  0.3282  2.9010
 9197SOL     OW39223   1.717   2.947  13.315  0.1911 -0.0328 -0.0903
 9197SOL    HW139224   1.726   2.914  13.404  1.1764  0.8220  0.1174
 9197SOL    HW239225   1.696   3.038  13.335 -0.1076 -0.7566  2.9376
 9198SOL     OW39226   3.398   2.281   8.428  0.0024  0.2814 -0.1030
 9198SOL    HW139227   3.316   2.240   8.401  1.7435 -2.2206 -1.5306
 9198SOL    HW239228   3.371   2.321   8.511  0.5415 -0.7854  0.5810
 9199SOL     OW39229   0.057   1.604   4.742 -0.0998  0.3784  0.3222
 9199SOL    HW139230   0.003   1.556   4.679 -1.3228 -0.6722  2.1704
 9199SOL    HW239231   0.041   1.553   4.821 -0.8250 -0.6844 -0.5002
 9200SOL     OW39232   1.685   0.913  14.832  0.1278 -0.0993 -0.9747
 9200SOL    HW139233   1.763   0.861  14.811  0.7292 -0.0235  1.0926
 9200SOL    HW239234   1.697   0.922  14.926  0.1439 -0.5777 -0.9326
 9201SOL     OW39235   1.543   3.521  10.815  1.1056 -0.1100  0.1832
 9201SOL    HW139236   1.472   3.562  10.865  0.3053  0.6349 -1.5823
 9201SOL    HW239237   1.536   3.567  10.732  1.4199  2.1533  1.4171
 9202SOL     OW39238   0.236   1.992   7.645  0.0470  0.0804 -0.1538
 9202SOL    HW139239   0.298   2.054   7.683 -1.3063  1.7826 -0.6799
 9202SOL    HW239240   0.231   1.929   7.716  0.9370  0.1490 -0.0354
 9203SOL     OW39241   4.037   3.071   1.689  0.1607 -0.2689 -0.3059
 9203SOL    HW139242   4.071   2.990   1.727  0.9531 -0.5180 -1.5373
 9203SOL    HW239243   4.120   3.109   1.660 -1.4206  1.2732 -2.8375
 9204SOL     OW39244   0.451   0.337   3.769 -0.3303 -0.7495  0.2427
 9204SOL    HW139245   0.470   0.250   3.803 -0.3889 -0.8289  0.0698
 9204SOL    HW239246   0.356   0.339   3.780 -0.1889 -1.0880  1.5150
 9205SOL     OW39247   3.248   0.318   4.642  0.2232 -0.4694 -0.2422
 9205SOL    HW139248   3.169   0.306   4.589 -1.2710 -0.0263  1.8812
 9205SOL    HW239249   3.226   0.394   4.696  0.8912 -0.0014 -0.6344
 9206SOL     OW39250   0.755   0.583   9.065 -0.1628  0.3969  0.2829
 9206SOL    HW139251   0.724   0.604   8.976 -0.3295 -1.5232 -0.1073
 9206SOL    HW239252   0.717   0.647   9.125 -1.9107  0.9105 -1.3537
 9207SOL     OW39253   1.764   3.307   8.215  0.3328 -0.2504  0.7132
 9207SOL    HW139254   1.701   3.259   8.161  1.4893 -1.2911  0.3001
 9207SOL    HW239255   1.722   3.275   8.295  0.3231  0.6365  1.0663
 9208SOL     OW39256   0.223   1.721   3.010 -0.4595 -0.5062  0.4429
 9208SOL    HW139257   0.237   1.729   3.104  1.1919  2.0134 -0.0177
 9208SOL    HW239258   0.315   1.698   2.994 -1.4708 -4.9807  1.0900
 9209SOL     OW39259   4.446   3.252   9.069  0.2746 -0.3209 -0.1950
 9209SOL    HW139260   4.374   3.197   9.038 -0.7346  1.2381 -0.6060
 9209SOL    HW239261   4.410   3.337   9.044  2.8755  1.3255  1.6352
 9210SOL     OW39262   3.663   1.286   9.167 -0.1967 -0.4549 -0.8042
 9210SOL    HW139263   3.574   1.259   9.145 -0.0535 -0.6608 -1.1300
 9210SOL    HW239264   3.670   1.377   9.138  1.2945 -0.5674 -0.8007
 9211SOL     OW39265   2.179   3.086  16.926  0.1240 -0.2311 -0.0896
 9211SOL    HW139266   2.136   3.171  16.926 -2.5934 -1.6068 -2.1774
 9211SOL    HW239267   2.231   3.096  16.846  1.2391  1.0888  0.7871
 9212SOL     OW39268   3.928   3.126   4.676 -0.1469 -0.0329 -0.2078
 9212SOL    HW139269   3.876   3.126   4.596  1.8618  0.5706 -1.5055
 9212SOL    HW239270   3.988   3.198   4.659 -0.0251 -0.6096 -2.2754
 9213SOL     OW39271   0.631   1.320   6.998  0.2146  0.1353 -0.4556
 9213SOL    HW139272   0.705   1.353   7.048 -1.3902  1.1703  1.2430
 9213SOL    HW239273   0.570   1.393   7.009  1.0496  0.5365  1.3539
 9214SOL     OW39274   1.204   1.512  11.402  0.4089 -0.0302 -0.0160
 9214SOL    HW139275   1.199   1.598  11.361  0.2909 -0.2334 -0.4224
 9214SOL    HW239276   1.168   1.460  11.331 -3.0663  1.5312  0.6304
 9215SOL     OW39277   1.839   2.129  15.390  0.7750 -0.4024  0.4628
 9215SOL    HW139278   1.838   2.225  15.395  0.9455 -0.2769 -2.0903
 9215SOL    HW239279   1.785   2.111  15.314  1.0775 -0.2201  0.2055
 9216SOL     OW39280   4.671   4.226   8.724  0.2564 -0.2088  0.3249
 9216SOL    HW139281   4.713   4.273   8.652 -0.4992 -1.7577 -1.1119
 9216SOL    HW239282   4.646   4.143   8.685 -0.0496 -0.0514  0.1826
 9217SOL     OW39283   0.655   3.298   2.061  0.5265  0.0907  0.9855
 9217SOL    HW139284   0.578   3.255   2.024  0.4173  0.1957  1.0950
 9217SOL    HW239285   0.706   3.324   1.984  1.8646  0.9826  2.1828
 9218SOL     OW39286   3.467   0.943  12.718 -0.0584  0.5178 -0.0282
 9218SOL    HW139287   3.436   0.882  12.785  1.4839  0.7062  0.8570
 9218SOL    HW239288   3.464   1.028  12.761  0.9616  0.9769 -0.8672
 9219SOL     OW39289   4.012   1.202   7.910 -0.0562  0.2573 -0.1354
 9219SOL    HW139290   4.037   1.140   7.842  3.7074  0.3335  1.1358
 9219SOL    HW239291   4.027   1.278   7.854 -0.6870  0.7391  0.3604
 9220SOL     OW39292   2.790   1.309  11.537  0.0189  0.1603  0.2003
 9220SOL    HW139293   2.881   1.338  11.528 -0.0471 -0.0586 -1.2453
 9220SOL    HW239294   2.763   1.313  11.445 -0.8045  1.2601  0.4986
 9221SOL     OW39295   2.570   2.266  14.886 -0.0244 -0.2660  0.4972
 9221SOL    HW139296   2.509   2.243  14.956 -0.2423 -1.3542 -0.0557
 9221SOL    HW239297   2.599   2.352  14.918  0.7542  0.2105 -1.4898
 9222SOL     OW39298   0.674   3.905   4.073 -0.2114 -0.0215 -0.4166
 9222SOL    HW139299   0.597   3.961   4.067  0.0980  0.6103  1.5136
 9222SOL    HW239300   0.703   3.911   3.982  1.1601  1.5179  0.1181
 9223SOL     OW39301   1.491   3.347   7.806  0.7963 -0.5363 -0.4276
 9223SOL    HW139302   1.423   3.391   7.754 -0.1063 -1.3053  0.0889
 9223SOL    HW239303   1.536   3.426   7.836 -0.5302 -0.4349  1.3205
 9224SOL     OW39304   0.094   2.279   1.303 -0.5772 -0.0735 -0.0602
 9224SOL    HW139305   0.075   2.351   1.243  0.8570  0.3442 -0.0029
 9224SOL    HW239306   0.009   2.280   1.348  0.2889  0.6378  1.5707
 9225SOL     OW39307   1.357   0.714   3.486  1.0169  0.0445  0.1040
 9225SOL    HW139308   1.303   0.640   3.458 -2.2887  1.8909  1.5509
 9225SOL    HW239309   1.296   0.771   3.534  3.1835  2.1939  0.3372
 9226SOL     OW39310   4.297   3.050   8.944  0.0236 -0.0043  0.9459
 9226SOL    HW139311   4.210   3.023   8.915 -0.1367  0.2197  1.2080
 9226SOL    HW239312   4.325   3.086   8.861  2.8190 -1.6443  1.1837
 9227SOL     OW39313   3.333   2.614   5.234  0.1326  0.1777 -0.0188
 9227SOL    HW139314   3.359   2.570   5.315 -0.0174  0.8450  0.3925
 9227SOL    HW239315   3.247   2.579   5.211 -0.5545 -0.6374  3.7585
 9228SOL     OW39316   2.452   0.794   7.584 -0.5487  0.0200 -0.3648
 9228SOL    HW139317   2.523   0.843   7.541  0.6880 -1.8326 -0.4234
 9228SOL    HW239318   2.385   0.821   7.521  0.3222 -1.0509 -1.7464
 9229SOL     OW39319   0.492   0.418   7.765 -0.0159  0.6776 -0.2724
 9229SOL    HW139320   0.449   0.399   7.849 -0.9800  0.4306 -0.8183
 9229SOL    HW239321   0.542   0.340   7.740  0.1028  0.4180  0.7484
 9230SOL     OW39322   3.727   1.753   7.958  0.3104 -0.5005  0.4114
 9230SOL    HW139323   3.638   1.761   7.924  1.2617 -1.9893 -2.3844
 9230SOL    HW239324   3.714   1.668   8.000 -0.3921 -0.4111  0.3738
 9231SOL     OW39325   2.508   4.366   8.849 -0.6729 -0.2699 -0.4868
 9231SOL    HW139326   2.570   4.429   8.888 -1.0306 -0.7548  0.8793
 9231SOL    HW239327   2.494   4.308   8.924 -0.7646  2.7364  1.8319
 9232SOL     OW39328   2.268   3.109   7.762 -0.1849 -0.1292 -0.3283
 9232SOL    HW139329   2.196   3.101   7.825  2.8145  1.3007  3.2320
 9232SOL    HW239330   2.241   3.188   7.714 -1.2148 -0.3861 -0.1669
 9233SOL     OW39331   1.819   0.108  16.133  0.2083  0.2335 -0.2482
 9233SOL    HW139332   1.860   0.036  16.086 -0.9498 -0.8563  0.3922
 9233SOL    HW239333   1.727   0.097  16.109 -0.0380 -2.7384  2.1007
 9234SOL     OW39334   3.406   3.586  10.515  0.2170 -0.6287  0.0524
 9234SOL    HW139335   3.430   3.583  10.607  0.9013 -0.7767 -0.1286
 9234SOL    HW239336   3.316   3.555  10.524  0.4618 -1.4819 -0.3896
 9235SOL     OW39337   1.386   4.578   5.287  0.3631  0.0550 -0.3656
 9235SOL    HW139338   1.425   4.548   5.370  1.6022 -1.7565 -1.5866
 9235SOL    HW239339   1.294   4.598   5.301  0.2659 -0.5599 -0.1157
 9236SOL     OW39340   0.911   1.375   6.191 -0.4101 -0.1372  0.0804
 9236SOL    HW139341   0.842   1.309   6.196 -0.3383 -0.3539 -1.7235
 9236SOL    HW239342   0.899   1.417   6.106  1.2283  0.7531  0.2835
 9237SOL     OW39343   1.437   0.655   4.954  0.4583  0.3147 -0.5854
 9237SOL    HW139344   1.525   0.626   4.929 -0.2943 -1.7696 -0.7707
 9237SOL    HW239345   1.447   0.634   5.047  0.8551 -1.1459 -0.9667
 9238SOL     OW39346   1.745   2.923   9.278 -0.1505  0.0537 -0.7780
 9238SOL    HW139347   1.721   3.005   9.321  0.5752 -1.1848  2.0492
 9238SOL    HW239348   1.680   2.867   9.322  1.5350  0.6305  2.4130
 9239SOL     OW39349   4.531   0.110   4.871 -0.3710 -0.2767 -0.0356
 9239SOL    HW139350   4.603   0.142   4.818 -0.6197 -0.2141 -0.3357
 9239SOL    HW239351   4.492   0.196   4.882  0.0817 -0.4299  2.8142
 9240SOL     OW39352   2.179   1.544   9.785 -0.5716  0.7016  0.5695
 9240SOL    HW139353   2.175   1.614   9.850  0.9137  1.4672 -0.1732
 9240SOL    HW239354   2.136   1.471   9.831 -1.7724  1.2130  0.2528
 9241SOL     OW39355   3.269   1.557   1.425  0.2031  0.1141 -0.1989
 9241SOL    HW139356   3.283   1.554   1.331  0.7872  1.2888 -0.1432
 9241SOL    HW239357   3.209   1.482   1.434  0.7658 -0.3741 -0.5460
 9242SOL     OW39358   0.719   2.369   3.421  0.2086  0.4913 -0.3099
 9242SOL    HW139359   0.790   2.387   3.483  1.0190 -0.0311 -1.0898
 9242SOL    HW239360   0.642   2.402   3.468 -0.0708  0.9748 -1.1222
 9243SOL     OW39361   3.991   2.410   8.276  0.1094  0.1174  0.3250
 9243SOL    HW139362   4.066   2.364   8.313 -1.2003 -0.2976  2.4294
 9243SOL    HW239363   3.954   2.455   8.352  1.2801  0.6950  0.5672
 9244SOL     OW39364   3.949   3.314  15.899  0.3912 -0.1421  0.3393
 9244SOL    HW139365   4.042   3.332  15.890 -0.1878  2.7681  0.1159
 9244SOL    HW239366   3.916   3.335  15.811  1.3967 -1.8114 -0.4324
 9245SOL     OW39367   3.498   1.995   7.428  0.3242  0.0487  0.3908
 9245SOL    HW139368   3.429   2.056   7.402  0.2275  0.5100  1.7636
 9245SOL    HW239369   3.510   1.944   7.348  1.6646 -0.7141  1.0717
 9246SOL     OW39370   1.864   1.437  17.470  0.7192 -0.2196  0.0479
 9246SOL    HW139371   1.873   1.505  17.537  0.6558  0.4110 -0.5865
 9246SOL    HW239372   1.934   1.375  17.492 -0.0042 -1.7097 -1.8385
 9247SOL     OW39373   4.732   2.362   4.992 -0.5306 -0.0483 -0.4429
 9247SOL    HW139374   4.703   2.334   5.079 -1.0899  1.0868 -0.2669
 9247SOL    HW239375   0.071   2.419   5.011 -3.0917  2.6259  1.6397
 9248SOL     OW39376   1.996   1.540   4.222 -0.0113 -0.3988  0.8403
 9248SOL    HW139377   2.089   1.534   4.244  0.5528  0.2041 -1.4524
 9248SOL    HW239378   1.999   1.475   4.151  1.3232 -0.7209  1.1888
 9249SOL     OW39379   4.260   4.698   3.600  0.2184  0.2915  0.1015
 9249SOL    HW139380   4.202   4.672   3.528 -0.2735  1.9447 -0.1129
 9249SOL    HW239381   4.335   4.727   3.548  1.2908 -2.3098  0.1930
 9250SOL     OW39382   0.029   1.255  14.595  0.5930 -0.2220  0.2688
 9250SOL    HW139383   0.080   1.210  14.527  1.0541  0.1921  0.3395
 9250SOL    HW239384   4.691   1.195  14.585  1.7389 -1.4375 -0.7923
 9251SOL     OW39385   0.549   1.201  12.953  0.0996 -0.2405  0.2067
 9251SOL    HW139386   0.459   1.169  12.962  0.8826 -1.2176  4.4478
 9251SOL    HW239387   0.555   1.240  12.866 -1.4979 -0.3260  0.0612
 9252SOL     OW39388   4.492   4.215   7.337 -0.1811 -0.1845 -0.2060
 9252SOL    HW139389   4.412   4.231   7.287  0.3873 -0.3684 -1.1782
 9252SOL    HW239390   4.491   4.119   7.332  1.9290 -0.3782  2.8782
 9253SOL     OW39391   0.785   4.191  12.041 -0.0792 -0.1249 -0.0580
 9253SOL    HW139392   0.852   4.124  12.052  0.6377  0.5948 -0.0962
 9253SOL    HW239393   0.828   4.271  12.011 -0.6698  0.1399 -0.2010
 9254SOL     OW39394   3.599   3.284   8.081  0.1132  0.0914 -0.0888
 9254SOL    HW139395   3.682   3.324   8.107 -0.1190  0.6512 -0.1985
 9254SOL    HW239396   3.563   3.249   8.163 -2.3760  2.4147 -0.1733
 9255SOL     OW39397   0.983   0.595  11.724 -0.4148  0.0397 -0.2084
 9255SOL    HW139398   0.912   0.601  11.659 -0.7009  1.6708  0.2375
 9255SOL    HW239399   0.954   0.658  11.790  0.2669  0.3207 -0.1846
 9256SOL     OW39400   4.064   2.893   1.918 -0.2567  0.0365 -0.4650
 9256SOL    HW139401   4.013   2.842   1.980  1.2326 -0.1747  0.6027
 9256SOL    HW239402   4.085   2.973   1.966 -0.1861  0.0781 -0.5647
 9257SOL     OW39403   4.297   1.806   2.739  0.2169 -0.1935  0.4983
 9257SOL    HW139404   4.297   1.785   2.832 -0.1382 -2.2788  0.0251
 9257SOL    HW239405   4.325   1.897   2.745  1.2189 -0.6169  2.0989
 9258SOL     OW39406   0.551   3.421   3.189  0.0117 -0.5445 -0.2740
 9258SOL    HW139407   0.546   3.513   3.166  0.1108 -0.3470  0.4870
 9258SOL    HW239408   0.489   3.423   3.262  0.8554 -0.3618  0.4415
 9259SOL     OW39409   4.316   4.523  14.479 -0.6336 -0.1820  0.4173
 9259SOL    HW139410   4.243   4.548  14.536 -0.2335  0.1493  0.7775
 9259SOL    HW239411   4.260   4.472  14.420  0.2465  0.0457 -0.6074
 9260SOL     OW39412   1.853   1.479  13.630  0.2938  0.0780  0.6015
 9260SOL    HW139413   1.803   1.398  13.634 -0.9650  0.9103  1.5305
 9260SOL    HW239414   1.938   1.438  13.647  0.0665 -1.0241 -0.9700
 9261SOL     OW39415   4.406   1.179   0.073  0.0333 -0.3412  0.2799
 9261SOL    HW139416   4.498   1.201   0.057 -0.5611  1.4568 -0.6472
 9261SOL    HW239417   4.410   1.084   0.071  0.4256 -0.3218  0.0794
 9262SOL     OW39418   0.685   0.599   7.487 -0.4214 -0.1723  0.5586
 9262SOL    HW139419   0.754   0.616   7.423 -1.1977 -0.3234 -0.3078
 9262SOL    HW239420   0.673   0.505   7.473  2.2263 -0.3928 -0.2778
 9263SOL     OW39421   3.115   1.322   1.459  0.4490 -0.5358  0.3369
 9263SOL    HW139422   3.024   1.351   1.467  0.7763  1.5391 -3.5003
 9263SOL    HW239423   3.102   1.229   1.441  2.2252 -1.1195  2.0987
 9264SOL     OW39424   3.952   4.616   4.040 -0.0322  0.6970  0.0848
 9264SOL    HW139425   3.879   4.612   3.978  0.9550  2.0436 -1.1924
 9264SOL    HW239426   4.020   4.606   3.973  0.7625 -0.8209  1.1365
 9265SOL     OW39427   2.197   0.985   1.660 -0.3931  0.0170  0.2579
 9265SOL    HW139428   2.107   0.964   1.637  0.2121 -0.5826 -1.5557
 9265SOL    HW239429   2.244   0.991   1.577 -0.1345 -1.8805  0.2565
 9266SOL     OW39430   0.381   0.404   4.603  0.2858 -0.3568 -0.0291
 9266SOL    HW139431   0.456   0.463   4.615  0.5983 -0.7712  0.0431
 9266SOL    HW239432   0.410   0.318   4.633 -1.1603 -0.8544 -0.0768
 9267SOL     OW39433   2.308   1.715   2.886  0.4666 -0.7499 -0.2703
 9267SOL    HW139434   2.277   1.706   2.977  1.3051 -0.3668  0.0474
 9267SOL    HW239435   2.308   1.809   2.867 -2.7266 -0.6780 -0.0286
 9268SOL     OW39436   1.815   4.573  13.351  0.1622  0.1037  0.0731
 9268SOL    HW139437   1.781   4.565  13.441 -2.1221 -0.0415 -0.7988
 9268SOL    HW239438   1.840   4.483  13.331 -0.0376  0.2741 -0.9245
 9269SOL     OW39439   1.606   1.900   9.350  0.3472 -0.4900  0.2548
 9269SOL    HW139440   1.521   1.916   9.391 -0.3725  1.5605 -2.0956
 9269SOL    HW239441   1.673   1.918   9.417  0.1429  0.9957  0.0401
 9270SOL     OW39442   3.690   3.891   6.110 -0.6301  0.0376 -0.2974
 9270SOL    HW139443   3.693   3.800   6.139 -0.6479 -0.4484 -1.8219
 9270SOL    HW239444   3.697   3.870   6.017 -2.2164  2.0404 -0.8678
 9271SOL     OW39445   3.830   2.118  10.399 -0.1792 -0.4072  0.4472
 9271SOL    HW139446   3.807   2.192  10.343  1.1251 -0.7325 -0.5223
 9271SOL    HW239447   3.754   2.059  10.395  0.4516 -1.1927 -0.0591
 9272SOL     OW39448   0.932   4.645   4.562  0.6449  0.2123 -0.4375
 9272SOL    HW139449   0.994   4.598   4.506  0.8005  0.7154 -0.6852
 9272SOL    HW239450   0.971   4.640   4.649  1.6052  2.4716 -0.7399
 9273SOL     OW39451   3.052   4.083   7.258  0.1215  0.6120  0.1681
 9273SOL    HW139452   3.118   4.150   7.280  1.2609 -0.1693 -0.8830
 9273SOL    HW239453   3.110   4.013   7.230 -3.3269 -1.9703 -0.4704
 9274SOL     OW39454   1.366   1.972   7.600 -0.1925  0.4787 -0.2418
 9274SOL    HW139455   1.286   2.005   7.559  0.0191 -0.0234 -1.0537
 9274SOL    HW239456   1.374   1.883   7.567 -1.1828  0.4306 -0.3527
 9275SOL     OW39457   2.979   0.269   5.688 -0.6610  0.1512  0.4003
 9275SOL    HW139458   2.943   0.357   5.692 -0.3838  0.2679  0.2922
 9275SOL    HW239459   2.899   0.233   5.649  0.8242 -2.2798 -0.4463
 9276SOL     OW39460   1.243   1.789  11.287 -0.8307  0.5268 -0.4769
 9276SOL    HW139461   1.261   1.761  11.197  0.6303 -1.3190  0.3880
 9276SOL    HW239462   1.326   1.792  11.334 -1.9003  1.4346  1.3621
 9277SOL     OW39463   1.447   0.346  15.782  0.5150 -0.0512  0.4933
 9277SOL    HW139464   1.427   0.252  15.786 -3.0243  0.5952 -1.3214
 9277SOL    HW239465   1.372   0.375  15.729  1.0556 -0.5920 -0.5761
 9278SOL     OW39466   2.723   1.780   6.127 -0.2165 -0.4356 -0.0078
 9278SOL    HW139467   2.783   1.707   6.142  0.4705  0.2583  0.5654
 9278SOL    HW239468   2.758   1.851   6.180 -2.9194  1.8653 -1.2626
 9279SOL     OW39469   3.296   3.520   6.674  0.0071 -0.0749  0.1692
 9279SOL    HW139470   3.227   3.540   6.611 -2.3177 -1.2180  2.3709
 9279SOL    HW239471   3.266   3.539   6.762  0.3947 -0.3306  0.3574
 9280SOL     OW39472   2.946   2.655   8.802  0.2952  0.3144  0.4157
 9280SOL    HW139473   2.933   2.748   8.821 -1.2723  0.1346  0.1831
 9280SOL    HW239474   2.863   2.630   8.762  1.3898 -3.7645  0.6663
 9281SOL     OW39475   3.934   2.195   8.061  0.2898 -0.3617 -0.1181
 9281SOL    HW139476   3.865   2.131   8.080  0.4037 -0.2296  0.7343
 9281SOL    HW239477   3.902   2.274   8.104 -2.3078 -1.7208  0.4322
 9282SOL     OW39478   0.173   4.539   8.953 -0.5482  0.4051 -0.5483
 9282SOL    HW139479   0.083   4.536   8.986 -0.1945 -1.0465  0.2747
 9282SOL    HW239480   0.202   4.447   8.954 -2.7336 -0.2947 -0.7999
 9283SOL     OW39481   3.943   0.703  14.007  0.6032  0.0079  0.2782
 9283SOL    HW139482   4.034   0.675  14.010 -0.4545 -3.1389  2.6326
 9283SOL    HW239483   3.919   0.676  13.918  0.1814  2.9050 -0.4962
 9284SOL     OW39484   1.738   4.207   9.157  0.1087  0.6611  0.5446
 9284SOL    HW139485   1.706   4.140   9.218 -1.9954  0.5071 -0.7612
 9284SOL    HW239486   1.817   4.156   9.142  0.2262  1.0410 -0.1032
 9285SOL     OW39487   4.117   1.201   2.068 -0.4356 -0.2764  0.1044
 9285SOL    HW139488   4.141   1.253   2.144 -0.8668 -1.9832  1.3960
 9285SOL    HW239489   4.114   1.109   2.095 -0.2451 -0.2686  0.1547
 9286SOL     OW39490   1.905   0.617   6.057  0.1055 -0.3537 -0.3093
 9286SOL    HW139491   1.858   0.700   6.055  2.0310  0.6498 -2.3366
 9286SOL    HW239492   1.839   0.556   6.091 -0.2592  0.6328  0.7682
 9287SOL     OW39493   3.295   0.442   7.386  0.3549  0.0353 -0.4171
 9287SOL    HW139494   3.355   0.401   7.324  1.5585  1.2230 -0.0233
 9287SOL    HW239495   3.341   0.525   7.400  2.5167 -0.9418 -1.7641
 9288SOL     OW39496   0.064   0.431   2.804 -0.2458  0.6973  0.0806
 9288SOL    HW139497   0.097   0.408   2.891 -0.9335 -0.2700  0.0911
 9288SOL    HW239498   0.054   0.521   2.837  2.0470  0.8015  0.4989
 9289SOL     OW39499   3.843   2.241  14.727  0.1385 -0.0348 -0.1371
 9289SOL    HW139500   3.891   2.250  14.645  2.9577 -3.9029  1.0883
 9289SOL    HW239501   3.807   2.329  14.738 -0.5280 -0.1829 -1.1343
 9290SOL     OW39502   0.934   1.402  12.023 -0.1691 -0.1988 -0.0310
 9290SOL    HW139503   0.838   1.402  12.030 -0.2293  4.1403 -0.5092
 9290SOL    HW239504   0.944   1.376  12.115 -0.3050  1.4528  0.4465
 9291SOL     OW39505   2.584   0.138   4.329 -0.6240 -0.0493 -0.4696
 9291SOL    HW139506   2.597   0.079   4.404 -1.2711 -0.7914 -0.9391
 9291SOL    HW239507   2.606   0.221   4.372  0.3982 -0.1543 -0.8035
 9292SOL     OW39508   1.985   0.147   2.881 -0.1394 -0.0062  0.6943
 9292SOL    HW139509   2.063   0.094   2.900 -0.4528 -1.7609 -2.8974
 9292SOL    HW239510   2.017   0.233   2.908  1.9298 -0.5922  0.1469
 9293SOL     OW39511   4.564   4.552   2.548  0.1528  0.2425  0.3907
 9293SOL    HW139512   4.568   4.582   2.457 -1.6490 -1.1275 -0.1560
 9293SOL    HW239513   4.477   4.579   2.578 -0.7706 -1.6791 -0.4966
 9294SOL     OW39514   1.915   2.811   0.006 -0.4688  0.4502  0.4891
 9294SOL    HW139515   1.988   2.821  17.687 -0.5232  0.6818  0.4625
 9294SOL    HW239516   1.840   2.850  17.705 -0.4873  0.1035  0.2077
 9295SOL     OW39517   0.092   3.622  13.409 -0.1917  0.6453 -0.6765
 9295SOL    HW139518   0.082   3.568  13.488  0.5896  2.5593  0.7402
 9295SOL    HW239519   0.027   3.692  13.417 -1.7852 -0.8782 -0.2093
 9296SOL     OW39520   1.293   2.749   6.059  0.6333  0.0353  0.2454
 9296SOL    HW139521   1.312   2.747   5.965  1.9166 -0.9408  0.5382
 9296SOL    HW239522   1.198   2.739   6.064  0.4330  2.1038  0.7272
 9297SOL     OW39523   1.623   2.687   6.423  0.1748 -0.7990 -0.2326
 9297SOL    HW139524   1.534   2.721   6.421  0.7387  0.6676 -0.6447
 9297SOL    HW239525   1.655   2.725   6.341 -2.3055 -1.6079 -1.5854
 9298SOL     OW39526   1.739   4.657   1.807  0.1575  0.3461 -0.1537
 9298SOL    HW139527   1.702   4.650   1.718  1.0272  1.0313 -0.5616
 9298SOL    HW239528   1.775   0.010   1.806  3.0900 -0.8557  0.2044
 9299SOL     OW39529   3.553   3.675  16.375  0.2224 -0.6345  0.4476
 9299SOL    HW139530   3.577   3.610  16.441  0.1980 -0.1297  0.9545
 9299SOL    HW239531   3.461   3.653  16.360 -0.5936  3.8513 -1.0027
 9300SOL     OW39532   1.341   3.120   2.338 -0.5055 -0.3438 -0.2233
 9300SOL    HW139533   1.319   3.158   2.423  1.4279  0.2953 -0.0232
 9300SOL    HW239534   1.332   3.199   2.285 -2.2928  0.7900  1.7818
 9301SOL     OW39535   3.783   1.713   6.926 -0.0797  0.1126 -0.3914
 9301SOL    HW139536   3.767   1.619   6.921  0.8747  0.1721 -4.3465
 9301SOL    HW239537   3.856   1.720   6.987  0.0639  3.8898 -0.9494
 9302SOL     OW39538   1.269   4.120   8.977 -0.2027 -0.2213 -0.2872
 9302SOL    HW139539   1.302   4.159   9.058  2.1991 -0.5789 -1.0921
 9302SOL    HW239540   1.328   4.046   8.961  0.2196  0.1299 -0.3527
 9303SOL     OW39541   3.349   3.771   2.869  1.3903 -0.0830 -0.1523
 9303SOL    HW139542   3.291   3.753   2.795  0.4324 -0.5885  0.7384
 9303SOL    HW239543   3.415   3.703   2.854 -1.0056 -2.6044  0.7856
 9304SOL     OW39544   4.710   1.054   5.904  0.3894 -0.0500 -0.3038
 9304SOL    HW139545   4.669   0.982   5.855  1.6619 -1.8652  1.3085
 9304SOL    HW239546   4.693   1.127   5.844  0.9676  0.6372  0.3725
 9305SOL     OW39547   3.723   2.626   2.795 -0.2107 -0.4611  0.1605
 9305SOL    HW139548   3.659   2.651   2.861 -1.9416  1.0694 -2.0754
 9305SOL    HW239549   3.801   2.679   2.813  0.8634 -1.9414 -0.0670
 9306SOL     OW39550   1.831   3.717   1.910  0.6361 -0.2360 -0.2239
 9306SOL    HW139551   1.827   3.806   1.875 -0.0256 -1.1535 -2.4602
 9306SOL    HW239552   1.925   3.698   1.904  1.7633  5.1484 -0.2728
 9307SOL     OW39553   1.263   2.508   7.961  0.2022  0.3348  0.1483
 9307SOL    HW139554   1.222   2.553   7.888 -0.5320  0.6466  0.7497
 9307SOL    HW239555   1.347   2.493   7.917 -0.2391 -0.4579 -0.4114
 9308SOL     OW39556   3.224   3.841   5.203 -0.1658 -0.2188 -0.7443
 9308SOL    HW139557   3.257   3.807   5.120 -0.3281 -1.5881 -0.2454
 9308SOL    HW239558   3.305   3.881   5.235 -0.7494 -0.7612  1.3982
 9309SOL     OW39559   0.198   3.383  10.356 -0.3155 -0.1422  0.4155
 9309SOL    HW139560   0.287   3.373  10.323  0.2214  1.9860  1.2196
 9309SOL    HW239561   0.196   3.348  10.446 -0.5262  0.9087  0.8162
 9310SOL     OW39562   4.230   0.651   2.380 -0.0476 -0.3182 -0.3549
 9310SOL    HW139563   4.277   0.692   2.453  0.0200  2.6758 -2.0908
 9310SOL    HW239564   4.151   0.704   2.369  0.2877  0.1506 -0.4635
 9311SOL     OW39565   3.524   0.813   2.546 -0.6251  0.7486 -0.2289
 9311SOL    HW139566   3.491   0.837   2.632 -1.4438  0.7320 -0.5382
 9311SOL    HW239567   3.549   0.725   2.571  1.8494  1.1462 -1.3175
 9312SOL     OW39568   3.113   1.595   6.854  0.2537  0.0636  0.2037
 9312SOL    HW139569   3.088   1.631   6.769 -0.1621  0.7648  0.6222
 9312SOL    HW239570   3.028   1.576   6.895 -0.4159  0.9401 -0.7708
 9313SOL     OW39571   2.446   0.938   3.417 -0.0554 -0.0582  0.0073
 9313SOL    HW139572   2.414   0.853   3.450  0.6908 -0.0177  0.8225
 9313SOL    HW239573   2.475   0.908   3.331  1.8953 -0.9078  0.9864
 9314SOL     OW39574   1.469   4.504   6.103 -0.1102  0.5516  0.4443
 9314SOL    HW139575   1.535   4.561   6.064  0.1086  0.1881  0.2933
 9314SOL    HW239576   1.388   4.555   6.107 -0.5653 -0.2470  1.3847
 9315SOL     OW39577   4.140   3.573   5.001  0.4260  0.0841 -0.3726
 9315SOL    HW139578   4.117   3.480   5.001 -0.1862  0.2279  0.8324
 9315SOL    HW239579   4.174   3.591   5.089  1.7534 -1.0752 -0.6427
 9316SOL     OW39580   0.222   3.936   6.089 -0.0821 -0.0584 -0.2636
 9316SOL    HW139581   0.167   4.008   6.059  0.6409  0.0365 -1.3504
 9316SOL    HW239582   0.169   3.883   6.149  1.3587 -0.5958  0.5322
 9317SOL     OW39583   3.374   0.042   5.573 -0.0084 -0.2788  0.8712
 9317SOL    HW139584   3.433   0.105   5.532 -0.6691 -1.7944 -2.4221
 9317SOL    HW239585   3.414   4.695   5.546  1.3368  1.4303 -2.4277
 9318SOL     OW39586   3.315   0.923   0.870  0.4147 -0.0816 -0.7549
 9318SOL    HW139587   3.273   0.896   0.952  0.6515  0.7941 -0.3529
 9318SOL    HW239588   3.410   0.920   0.886  0.2676 -0.8097  0.0330
 9319SOL     OW39589   2.584   3.010   8.065  0.2325  0.3672  0.6330
 9319SOL    HW139590   2.548   2.975   7.984 -0.8233  1.1078  0.7911
 9319SOL    HW239591   2.552   2.947   8.129 -1.8430 -0.8069 -1.5500
 9320SOL     OW39592   3.834   0.907   6.986 -0.3518 -0.4094  0.4561
 9320SOL    HW139593   3.878   0.822   6.995  1.3273  0.5919  1.7316
 9320SOL    HW239594   3.832   0.936   7.077  3.6439 -0.2200  0.4612
 9321SOL     OW39595   3.304   0.799  11.209  0.5823  0.6418 -0.0321
 9321SOL    HW139596   3.259   0.723  11.170  0.3344 -0.1497  1.7890
 9321SOL    HW239597   3.249   0.819  11.285  0.8730 -1.8503  0.8484
 9322SOL     OW39598   3.724   3.423   6.877  0.1379  0.0445 -0.7067
 9322SOL    HW139599   3.694   3.358   6.940 -0.1155  0.4906 -0.3707
 9322SOL    HW239600   3.656   3.490   6.880  1.8472  1.8393 -1.6741
 9323SOL     OW39601   3.185   1.507   0.277 -0.5741 -0.3518 -0.2456
 9323SOL    HW139602   3.108   1.556   0.248  0.2790  1.0565 -0.1080
 9323SOL    HW239603   3.249   1.519   0.207  0.8602  0.6588  1.2587
 9324SOL     OW39604   2.856   4.549   9.609 -0.4767 -0.0332 -0.2865
 9324SOL    HW139605   2.856   4.472   9.665 -1.2847 -1.2370 -1.9628
 9324SOL    HW239606   2.766   4.550   9.576 -0.1569  1.2697 -1.1375
 9325SOL     OW39607   1.849   3.782   1.232  0.6489  0.1250  0.0450
 9325SOL    HW139608   1.908   3.796   1.157 -0.8832 -2.2897 -1.6192
 9325SOL    HW239609   1.856   3.689   1.253 -1.7220  0.3309  1.7338
 9326SOL     OW39610   0.993   4.072   6.140  0.1097  0.0355 -0.1160
 9326SOL    HW139611   1.010   4.101   6.230 -0.3649 -0.1903  0.0414
 9326SOL    HW239612   0.936   3.996   6.144  1.6429 -1.0486  1.1901
 9327SOL     OW39613   4.187   0.837   0.988 -0.1075  0.6588 -0.6134
 9327SOL    HW139614   4.229   0.773   0.930  1.1747  0.2941  0.7290
 9327SOL    HW239615   4.141   0.894   0.926  1.3637  2.8771  0.3303
 9328SOL     OW39616   0.099   2.811  16.799  0.6679  0.2689 -0.3377
 9328SOL    HW139617   0.144   2.749  16.742  1.4324 -1.0881  1.7341
 9328SOL    HW239618   0.013   2.820  16.757  0.6217  1.1629 -0.0365
 9329SOL     OW39619   0.118   0.412   5.123 -0.2984 -0.0354  0.0817
 9329SOL    HW139620   0.040   0.462   5.098  0.9833  0.5665 -2.7452
 9329SOL    HW239621   0.110   0.331   5.071 -2.0897 -0.7999  1.5499
 9330SOL     OW39622   2.775   0.197  14.617 -0.0617  0.2650 -0.4093
 9330SOL    HW139623   2.799   0.170  14.529 -1.6400  1.8039 -1.3308
 9330SOL    HW239624   2.705   0.259  14.597 -0.8590 -0.4700  0.1158
 9331SOL     OW39625   3.105   0.530  11.467  0.2459  0.2584  0.2828
 9331SOL    HW139626   3.085   0.503  11.557 -2.0399  0.5762 -0.1354
 9331SOL    HW239627   3.118   0.624  11.465  1.7209  0.0475 -0.2471
 9332SOL     OW39628   0.074   0.629  14.394 -0.2372  0.0200  0.6539
 9332SOL    HW139629   0.159   0.645  14.352 -0.0829  0.3848  1.1020
 9332SOL    HW239630   0.017   0.682  14.338  1.8754  0.4981 -1.0615
 9333SOL     OW39631   0.642   3.761   0.032  0.1404 -0.0002  0.0919
 9333SOL    HW139632   0.709   3.829   0.023  1.7630 -1.8911 -2.2948
 9333SOL    HW239633   0.587   3.790   0.104 -0.3187  1.9099 -1.0355
 9334SOL     OW39634   0.350   3.411   6.314  0.7010  0.4035  0.0715
 9334SOL    HW139635   0.304   3.457   6.245 -0.4612  0.2822  0.7610
 9334SOL    HW239636   0.280   3.414   6.380 -0.0761  1.6231 -0.8233
 9335SOL     OW39637   2.361   3.553   5.905 -0.2167 -1.0250 -0.4528
 9335SOL    HW139638   2.405   3.482   5.952 -1.5917 -0.5809  1.5594
 9335SOL    HW239639   2.304   3.598   5.968  0.8425  0.4085 -0.5128
 9336SOL     OW39640   3.511   1.658   6.355  0.4842 -0.1384  0.2544
 9336SOL    HW139641   3.522   1.707   6.437  1.4524  0.4755 -0.2410
 9336SOL    HW239642   3.417   1.647   6.366  0.6943 -0.3558  1.9442
 9337SOL     OW39643   2.235   3.735   0.009 -0.5844  0.1103 -0.6534
 9337SOL    HW139644   2.265   3.800   0.073  0.5729 -1.2108  0.1462
 9337SOL    HW239645   2.291   3.661   0.033 -0.3611  0.1253 -1.1383
 9338SOL     OW39646   3.278   1.976  10.244  0.2871  0.1353  0.4365
 9338SOL    HW139647   3.309   1.975  10.335  1.3381  0.4748  0.0796
 9338SOL    HW239648   3.294   2.069  10.229  2.0554 -0.3078 -0.3974
 9339SOL     OW39649   2.499   4.288   5.207 -0.3417 -0.5858 -0.2053
 9339SOL    HW139650   2.587   4.307   5.241 -0.5518 -0.5403  0.3012
 9339SOL    HW239651   2.515   4.312   5.116  0.2465  0.0175  0.0558
 9340SOL     OW39652   0.077   4.406   6.687  0.0503  0.3208  0.0187
 9340SOL    HW139653   0.063   4.497   6.660 -1.3452  0.4913  1.2624
 9340SOL    HW239654   0.166   4.389   6.657 -0.2850  2.7221 -2.3127
 9341SOL     OW39655   0.183   4.015   3.015 -0.2754 -0.3742 -0.2175
 9341SOL    HW139656   0.214   4.074   2.947 -0.5179 -0.0808 -0.0743
 9341SOL    HW239657   0.101   4.064   3.026 -1.4567 -3.1431  3.4216
 9342SOL     OW39658   0.226   0.159   6.434  0.2991 -0.1295 -0.0608
 9342SOL    HW139659   0.297   0.159   6.370 -0.4852 -2.6819 -0.8958
 9342SOL    HW239660   0.261   0.215   6.504 -1.1174  1.6538 -0.7972
 9343SOL     OW39661   1.094   2.423   6.589  0.0593  0.2322  0.1597
 9343SOL    HW139662   1.050   2.460   6.512  2.1895 -2.0103 -2.1247
 9343SOL    HW239663   1.113   2.335   6.559 -1.5391  0.2355 -0.8791
 9344SOL     OW39664   2.430   3.035   1.196  0.0078 -0.2589  0.3087
 9344SOL    HW139665   2.461   2.945   1.196 -0.5798 -0.4648 -0.5790
 9344SOL    HW239666   2.405   3.053   1.287  0.3244  0.5499  0.2383
 9345SOL     OW39667   3.849   0.883  11.670 -0.3924 -0.2397 -0.0679
 9345SOL    HW139668   3.808   0.963  11.703 -2.6551 -0.7531 -1.6236
 9345SOL    HW239669   3.816   0.872  11.581 -1.3444 -1.2822  0.3967
 9346SOL     OW39670   0.377   3.778   8.776 -1.0243 -0.6914  0.1330
 9346SOL    HW139671   0.423   3.778   8.692 -0.3201 -0.1889  0.5156
 9346SOL    HW239672   0.447   3.741   8.829 -2.0485 -2.5057  0.1981
 9347SOL     OW39673   1.828   1.721  10.553  0.1489  0.2294 -0.1775
 9347SOL    HW139674   1.759   1.691  10.612  0.1781  0.7726  0.1368
 9347SOL    HW239675   1.874   1.778  10.615 -0.4712 -0.5400  0.9939
 9348SOL     OW39676   1.650   3.361   1.143 -0.5638  0.1207  0.3000
 9348SOL    HW139677   1.577   3.329   1.195 -1.3895  2.0529  0.3439
 9348SOL    HW239678   1.707   3.399   1.211 -0.6032  2.0787 -0.7578
 9349SOL     OW39679   2.151   2.091   9.177 -0.0398  0.2342  0.3017
 9349SOL    HW139680   2.094   2.104   9.252 -1.2745  1.1527 -0.7959
 9349SOL    HW239681   2.168   1.997   9.185  2.0002  0.5782  0.1108
 9350SOL     OW39682   3.868   2.123   5.543  0.7670 -0.0934  0.3678
 9350SOL    HW139683   3.872   2.028   5.555 -0.1003 -0.0456  1.0707
 9350SOL    HW239684   3.895   2.136   5.452 -0.0752  1.5797  0.3399
 9351SOL     OW39685   4.551   0.023   3.512  0.2206  0.5286 -0.3808
 9351SOL    HW139686   4.582   0.010   3.601  1.7749  0.3731 -0.9585
 9351SOL    HW239687   4.632   0.047   3.468  0.9863 -0.2022  0.6520
 9352SOL     OW39688   3.945   3.641  16.480  0.1942  0.2883 -0.2882
 9352SOL    HW139689   4.020   3.696  16.500 -1.1382  2.4014 -1.0468
 9352SOL    HW239690   3.939   3.657  16.386 -0.6350 -1.3213 -0.5167
 9353SOL     OW39691   1.906   3.128   6.406 -0.1953 -0.0244 -0.7152
 9353SOL    HW139692   1.961   3.051   6.402  0.6319  0.4900  0.6672
 9353SOL    HW239693   1.947   3.166   6.484 -0.8847 -0.2962 -0.2143
 9354SOL     OW39694   4.626   4.699   5.971 -0.0605 -0.1689  0.3055
 9354SOL    HW139695   4.599   0.038   5.919 -1.6972 -1.6656 -0.9929
 9354SOL    HW239696   4.717   4.687   5.943 -0.1641 -0.8703  0.2682
 9355SOL     OW39697   3.695   2.604   3.481  0.3176 -0.1565  0.0877
 9355SOL    HW139698   3.744   2.680   3.449  0.4916 -0.5970 -0.6912
 9355SOL    HW239699   3.727   2.603   3.571  0.4264 -3.1524  0.0140
 9356SOL     OW39700   0.731   1.391   5.227 -0.2779 -0.4909 -0.4514
 9356SOL    HW139701   0.657   1.397   5.287 -0.5847 -3.0552 -0.5948
 9356SOL    HW239702   0.693   1.421   5.144  1.1656 -1.5050 -1.4955
 9357SOL     OW39703   2.051   3.200   7.909  0.6306  0.2726 -0.1834
 9357SOL    HW139704   2.048   3.295   7.904  2.8149  0.2177 -2.4058
 9357SOL    HW239705   1.970   3.185   7.860  1.3979 -1.6298 -0.8750
 9358SOL     OW39706   0.090   1.229   3.673  0.4769  0.3312  0.1820
 9358SOL    HW139707   0.057   1.223   3.763  0.8753 -2.4202  0.1160
 9358SOL    HW239708   0.151   1.301   3.692  2.6332 -1.3603 -0.4227
 9359SOL     OW39709   3.246   4.000   3.198 -0.3111  0.5287  0.0405
 9359SOL    HW139710   3.173   3.938   3.206 -0.6023  0.7320 -0.9627
 9359SOL    HW239711   3.241   4.040   3.284  0.3848  1.3151 -0.2908
 9360SOL     OW39712   4.434   0.090   9.319 -0.1966 -0.4282 -0.3070
 9360SOL    HW139713   4.411   0.026   9.252 -3.5303 -0.5602  0.9312
 9360SOL    HW239714   4.349   0.098   9.363  0.0267  0.2498 -0.0029
 9361SOL     OW39715   0.447   3.322  13.366 -0.3685  0.2981 -0.0048
 9361SOL    HW139716   0.434   3.311  13.461 -0.0920 -0.3992 -0.0440
 9361SOL    HW239717   0.483   3.233  13.363 -1.1522 -0.0295  0.2730
 9362SOL     OW39718   0.262   1.734   6.262 -0.2822  0.1988 -0.1515
 9362SOL    HW139719   0.177   1.751   6.303  0.7534  0.4679  1.8651
 9362SOL    HW239720   0.303   1.665   6.315  1.3663  1.2346 -0.0936
 9363SOL     OW39721   0.060   3.870   9.472 -0.2400  0.3644  0.4958
 9363SOL    HW139722   0.017   3.883   9.556 -1.5879 -1.5221  0.0871
 9363SOL    HW239723   0.000   3.808   9.431 -0.1212  1.2482 -1.0543
 9364SOL     OW39724   0.127   0.401   8.681  0.0014 -0.4839  0.3306
 9364SOL    HW139725   0.168   0.349   8.750 -1.6043  0.1020  1.7333
 9364SOL    HW239726   0.092   0.335   8.620 -1.6774 -0.3503  1.1374
 9365SOL     OW39727   0.303   4.209   4.215  1.2735 -0.3881  0.9904
 9365SOL    HW139728   0.246   4.133   4.213 -1.8352  1.9450 -0.5340
 9365SOL    HW239729   0.377   4.193   4.157  0.9687 -0.0980  0.5172
 9366SOL     OW39730   2.411   0.222   3.867 -0.0144 -0.3814 -0.2584
 9366SOL    HW139731   2.352   0.186   3.801 -0.7969  0.2439  0.0863
 9366SOL    HW239732   2.410   0.155   3.935 -1.6208  0.3950  0.4899
 9367SOL     OW39733   4.216   1.001   9.726  0.2274  0.3031  0.5021
 9367SOL    HW139734   4.123   1.020   9.737 -0.0790 -1.6586  1.4263
 9367SOL    HW239735   4.218   0.908   9.751  0.9987 -0.6192 -2.9876
 9368SOL     OW39736   3.411   0.245  14.354  0.1674  0.4988  0.0591
 9368SOL    HW139737   3.360   0.212  14.428 -0.9751 -1.1201 -1.4303
 9368SOL    HW239738   3.344   0.273  14.292  0.3464 -0.9983 -0.8183
 9369SOL     OW39739   2.336   1.660   2.114  0.1418 -0.0412  0.0744
 9369SOL    HW139740   2.285   1.703   2.183  1.0091 -0.6526  1.0955
 9369SOL    HW239741   2.274   1.658   2.041  1.3067  0.5828 -0.9384
 9370SOL     OW39742   3.760   1.096   6.434 -0.5040  0.4878  0.1824
 9370SOL    HW139743   3.833   1.042   6.465 -0.0906  1.0640  0.1949
 9370SOL    HW239744   3.770   1.117   6.341 -3.5782  1.4147  0.0631
 9371SOL     OW39745   0.823   0.235   7.010 -0.3877  0.1859 -0.0024
 9371SOL    HW139746   0.892   0.246   6.945 -0.1814 -1.5427 -0.0801
 9371SOL    HW239747   0.863   0.275   7.086  0.5666  1.7415 -1.3274
 9372SOL     OW39748   3.138   2.239   4.188  0.3786  0.5953 -0.1362
 9372SOL    HW139749   3.086   2.213   4.112  0.0998  1.2082 -0.1534
 9372SOL    HW239750   3.084   2.312   4.218  0.2065  1.3637 -2.2987
 9373SOL     OW39751   3.009   1.654   6.136 -0.0551  0.0110 -0.2213
 9373SOL    HW139752   3.048   1.739   6.115 -1.5310  0.4990 -0.9307
 9373SOL    HW239753   3.091   1.604   6.134  0.2096  0.3903  0.8272
 9374SOL     OW39754   1.841   3.793   7.736  0.6939  0.6932  0.2058
 9374SOL    HW139755   1.800   3.708   7.754 -0.6460  0.7488 -2.6629
 9374SOL    HW239756   1.797   3.849   7.800 -1.4810 -1.0829  0.2721
 9375SOL     OW39757   0.544   3.558   3.577  0.2858  0.5557  0.2390
 9375SOL    HW139758   0.599   3.589   3.649  0.3401  1.0909 -0.0287
 9375SOL    HW239759   0.573   3.627   3.518 -1.0647  0.9891  0.0721
 9376SOL     OW39760   3.862   4.473   2.916 -0.7171  0.1097  0.5716
 9376SOL    HW139761   3.931   4.537   2.934  0.1577 -0.3064 -1.3818
 9376SOL    HW239762   3.917   4.398   2.893 -1.4842 -0.0499 -0.6775
 9377SOL     OW39763   0.299   3.594   8.332 -0.8970  0.4162  0.1449
 9377SOL    HW139764   0.247   3.530   8.381  0.8417 -0.7219  0.4880
 9377SOL    HW239765   0.386   3.556   8.330 -0.8506  0.5184  0.2501
 9378SOL     OW39766   0.718   4.571  10.884  0.7849  0.5119 -0.4781
 9378SOL    HW139767   0.787   4.565  10.951  0.0798 -0.2034  0.1751
 9378SOL    HW239768   0.759   4.522  10.812  2.0217 -2.4307  2.2194
 9379SOL     OW39769   2.784   3.269   5.971  0.3444 -0.0776  0.3599
 9379SOL    HW139770   2.804   3.177   5.991  3.6978  0.9460  1.5528
 9379SOL    HW239771   2.857   3.287   5.912 -0.0827  0.4829  0.0042
 9380SOL     OW39772   1.195   4.233   4.355  0.0596 -0.1806  0.4647
 9380SOL    HW139773   1.211   4.153   4.305  1.0890 -0.0989  0.6731
 9380SOL    HW239774   1.284   4.268   4.363 -0.2284  1.1863 -2.6467
 9381SOL     OW39775   1.524   1.595  16.982  0.7274  0.6457  0.0003
 9381SOL    HW139776   1.561   1.526  16.927  2.6400  0.7395  1.1775
 9381SOL    HW239777   1.432   1.567  16.982  0.0374  2.9779  0.5078
 9382SOL     OW39778   0.354   1.479   4.961  0.0129  0.1766 -0.0953
 9382SOL    HW139779   0.309   1.562   4.950 -0.6397 -0.1954 -0.2158
 9382SOL    HW239780   0.340   1.462   5.054 -2.4997 -1.0265 -0.7051
 9383SOL     OW39781   4.385   2.062   6.958 -0.1170  0.5811 -0.1216
 9383SOL    HW139782   4.478   2.048   6.942  0.1657  1.1094  1.0214
 9383SOL    HW239783   4.393   2.061   7.054  0.6851  1.4910 -0.1824
 9384SOL     OW39784   2.061   3.079   5.292 -0.2710 -0.1146 -0.0034
 9384SOL    HW139785   2.041   3.002   5.345 -0.7172  0.0910  0.1290
 9384SOL    HW239786   2.153   3.064   5.270 -0.2932 -3.2130  2.0141
 9385SOL     OW39787   3.493   3.799   8.090  0.5544 -0.5313 -0.3752
 9385SOL    HW139788   3.429   3.805   8.160  1.4947 -0.3227  0.4689
 9385SOL    HW239789   3.547   3.878   8.086  0.3117 -0.3888 -0.8348
 9386SOL     OW39790   3.144   1.926   3.622  0.3599  0.1479 -1.2502
 9386SOL    HW139791   3.065   1.964   3.662  0.1972 -1.2387 -0.2721
 9386SOL    HW239792   3.208   1.970   3.679 -0.4640  0.5103 -0.5964
 9387SOL     OW39793   3.548   2.200   6.585 -1.4334 -0.6226 -0.3831
 9387SOL    HW139794   3.462   2.197   6.627 -1.2236 -0.9688  0.0135
 9387SOL    HW239795   3.548   2.115   6.540  0.1091 -0.1492 -1.2911
 9388SOL     OW39796   1.127   4.291   3.869  0.7255 -0.3364 -0.0260
 9388SOL    HW139797   1.155   4.382   3.872  2.1018 -0.7045 -1.7207
 9388SOL    HW239798   1.074   4.285   3.948  0.6277  0.3894 -0.0376
 9389SOL     OW39799   2.373   4.152   7.981  0.0568  0.1360  0.3496
 9389SOL    HW139800   2.300   4.211   7.963  0.0112  0.3611  1.2805
 9389SOL    HW239801   2.326   4.074   8.010  0.4447 -0.5810 -0.9455
 9390SOL     OW39802   2.492   0.592   1.653  0.6797 -0.2973 -0.2359
 9390SOL    HW139803   2.563   0.640   1.697 -0.3664  1.0383 -0.0046
 9390SOL    HW239804   2.500   0.637   1.569 -2.7020 -1.5955 -1.2343
 9391SOL     OW39805   4.251   1.434   0.041  0.4250 -0.1273  0.2350
 9391SOL    HW139806   4.301   1.509   0.074 -0.9615  2.0494 -2.5545
 9391SOL    HW239807   4.314   1.362   0.044  0.1161 -0.4896 -1.6309
 9392SOL     OW39808   0.862   3.077   3.193 -0.1297  0.5616 -0.7246
 9392SOL    HW139809   0.788   3.098   3.250  0.9618  1.5589  0.3425
 9392SOL    HW239810   0.824   3.075   3.105 -1.7301 -0.3033 -0.0082
 9393SOL     OW39811   2.172   2.044   8.856  0.1761  1.2548  0.0016
 9393SOL    HW139812   2.204   2.006   8.939  1.6902  1.8924 -0.2956
 9393SOL    HW239813   2.176   1.966   8.800 -0.6498  1.0801  0.1885
 9394SOL     OW39814   3.826   2.136   7.194  0.0190 -0.4501  0.6426
 9394SOL    HW139815   3.803   2.227   7.213  0.9062  0.5959 -3.1872
 9394SOL    HW239816   3.752   2.099   7.145 -0.5900  0.4602  0.8676
 9395SOL     OW39817   0.481   3.056   8.647  0.2577 -0.5239 -0.1141
 9395SOL    HW139818   0.576   3.045   8.645  0.4294  1.4289 -3.0726
 9395SOL    HW239819   0.451   2.975   8.687 -0.1752 -0.2532  0.1132
 9396SOL     OW39820   2.494   4.544   1.383 -0.4493  0.0799 -0.5449
 9396SOL    HW139821   2.494   4.569   1.475  1.1890  1.1049 -0.8246
 9396SOL    HW239822   2.417   4.591   1.351 -1.9732 -0.5532  2.2327
 9397SOL     OW39823   4.675   0.215   8.238  0.4756  0.4427  0.3311
 9397SOL    HW139824   4.722   0.143   8.280 -1.8552 -1.3015 -0.0549
 9397SOL    HW239825   4.670   0.276   8.312  4.1523  0.7855  0.3237
 9398SOL     OW39826   1.192   1.885   4.070  0.0659 -0.0629  0.9163
 9398SOL    HW139827   1.186   1.890   4.165 -0.9397 -0.9902  0.9065
 9398SOL    HW239828   1.267   1.945   4.065 -0.5501  0.6303 -0.0317
 9399SOL     OW39829   4.485   1.920   5.534 -0.1901  0.4144  0.0138
 9399SOL    HW139830   4.538   1.854   5.577  0.6230  1.8052  1.1511
 9399SOL    HW239831   4.500   1.905   5.440 -2.1148  1.1886 -0.4241
 9400SOL     OW39832   4.535   1.829   4.027  0.3116  0.0168  0.2767
 9400SOL    HW139833   4.537   1.735   4.048  2.2944  0.2267  1.0342
 9400SOL    HW239834   4.608   1.849   4.086 -1.0843 -2.2229  2.7942
 9401SOL     OW39835   2.701   3.336  12.533 -0.0734 -0.2056  0.8192
 9401SOL    HW139836   2.761   3.264  12.514  2.4337  1.7265  1.4129
 9401SOL    HW239837   2.625   3.291  12.570 -0.4620  1.2886  1.8149
 9402SOL     OW39838   3.090   2.542   7.707  0.2882 -0.4910 -0.1208
 9402SOL    HW139839   3.063   2.452   7.689 -0.9917  0.0530 -0.8232
 9402SOL    HW239840   3.185   2.525   7.712  0.1720 -0.9205  0.7803
 9403SOL     OW39841   1.821   0.647  16.670  0.6178 -0.8015 -0.0107
 9403SOL    HW139842   1.896   0.666  16.727  1.2668 -1.5075 -0.6348
 9403SOL    HW239843   1.851   0.578  16.612 -0.5090  0.4841 -2.1532
 9404SOL     OW39844   3.744   3.926  12.963 -0.2142  0.5443 -0.5554
 9404SOL    HW139845   3.732   3.831  12.964  0.0961  0.5032 -0.6366
 9404SOL    HW239846   3.744   3.954  13.055 -1.6750 -1.0922 -0.0641
 9405SOL     OW39847   3.906   2.021   5.935 -0.2826  0.4788 -0.1341
 9405SOL    HW139848   3.897   2.086   5.866 -0.1883  0.0434 -0.5586
 9405SOL    HW239849   3.966   1.960   5.892 -0.4709 -0.5832  1.1166
 9406SOL     OW39850   1.961   0.683  15.071 -0.0682  0.6498 -0.4061
 9406SOL    HW139851   2.003   0.720  15.149  0.6289  2.0641 -1.4481
 9406SOL    HW239852   1.989   0.593  15.087  0.9524  1.0987  0.3480
 9407SOL     OW39853   3.430   2.573   3.584 -0.0738 -0.2880  0.1737
 9407SOL    HW139854   3.514   2.570   3.539 -0.3819 -0.8303 -0.3718
 9407SOL    HW239855   3.451   2.552   3.675 -0.9776 -1.1055  0.1954
 9408SOL     OW39856   2.680   3.237   3.990 -0.4852 -0.1096 -0.6182
 9408SOL    HW139857   2.676   3.331   3.972 -2.9161 -0.8044 -3.6278
 9408SOL    HW239858   2.775   3.232   4.001 -0.5322 -3.3973 -1.7214
 9409SOL     OW39859   0.699   1.439   2.942 -0.2166  0.1363  0.3190
 9409SOL    HW139860   0.768   1.382   2.907  0.4107 -1.1119  3.6036
 9409SOL    HW239861   0.675   1.390   3.020  0.5891  1.1087  1.1822
 9410SOL     OW39862   3.017   2.943  15.574  0.0386  0.6337  0.0595
 9410SOL    HW139863   3.016   2.898  15.658  0.1579  0.2411 -0.1524
 9410SOL    HW239864   3.081   3.012  15.593 -0.3656  0.4987  1.8869
 9411SOL     OW39865   2.658   4.170   7.366  0.0521 -0.6121 -0.5095
 9411SOL    HW139866   2.715   4.137   7.435 -2.4828 -0.8487  1.4569
 9411SOL    HW239867   2.705   4.250   7.343 -0.2232  0.0007  1.0722
 9412SOL     OW39868   2.103   3.144   1.618  0.3815  0.6350  0.2273
 9412SOL    HW139869   2.116   3.079   1.687 -0.4659  0.3827  0.1451
 9412SOL    HW239870   2.187   3.132   1.574  1.8844  0.3312  3.1768
 9413SOL     OW39871   2.179   0.724   8.061  0.6607 -0.4680 -0.1468
 9413SOL    HW139872   2.165   0.802   8.116 -0.0980  1.5994 -3.2593
 9413SOL    HW239873   2.220   0.770   7.988 -0.9988 -1.4745 -1.7058
 9414SOL     OW39874   0.249   0.675   7.555  0.3264  0.0902  0.0141
 9414SOL    HW139875   0.208   0.731   7.620  2.2837  0.3646  1.0051
 9414SOL    HW239876   0.325   0.639   7.600 -0.4105 -1.5646 -0.0966
 9415SOL     OW39877   2.769   1.800  17.584 -0.5647  0.0394  0.2775
 9415SOL    HW139878   2.727   1.733  17.638 -2.6778  0.6190 -0.6490
 9415SOL    HW239879   2.717   1.797  17.504 -0.2144  1.1816  0.0018
 9416SOL     OW39880   2.796   0.063   6.838  0.2853 -0.4724  0.1973
 9416SOL    HW139881   2.790   0.158   6.829  1.1794 -0.3673  0.7486
 9416SOL    HW239882   2.813   0.055   6.931  0.2971  0.2227  0.2591
 9417SOL     OW39883   3.675   2.906   8.105  0.1917 -0.4753 -0.0914
 9417SOL    HW139884   3.594   2.955   8.113  1.5540  1.8555 -0.6647
 9417SOL    HW239885   3.633   2.824   8.079 -1.1235 -0.3342  1.5970
 9418SOL     OW39886   0.187   4.605   5.876  0.0511 -0.4295  0.5229
 9418SOL    HW139887   0.206   4.637   5.788 -0.3021  0.6679  0.8536
 9418SOL    HW239888   0.149   4.519   5.856  1.4351 -1.1500  1.0368
 9419SOL     OW39889   1.071   1.570  17.513 -0.1122  0.0237 -0.9375
 9419SOL    HW139890   1.073   1.662  17.487  0.9084  1.5534  4.7689
 9419SOL    HW239891   1.147   1.577  17.569 -1.4663  1.2647  0.7523
 9420SOL     OW39892   0.968   2.543   8.617 -0.4284 -0.0788  0.3497
 9420SOL    HW139893   1.039   2.542   8.553 -1.4911 -0.3404 -0.8335
 9420SOL    HW239894   0.898   2.500   8.568  0.0469  0.1636 -0.5432
 9421SOL     OW39895   2.026   1.413   6.338 -0.3897 -0.1924  0.0336
 9421SOL    HW139896   2.069   1.424   6.423 -3.1445  0.0890  1.3761
 9421SOL    HW239897   2.095   1.442   6.278  0.3923 -2.3437 -0.1241
 9422SOL     OW39898   2.369   1.970   0.868  0.1469 -0.0337  0.2862
 9422SOL    HW139899   2.394   1.933   0.953 -1.9103  1.4868  1.5476
 9422SOL    HW239900   2.405   1.895   0.821  0.1525 -0.4975  1.0339
 9423SOL     OW39901   3.686   1.805   5.752  0.3314 -0.0087  0.6479
 9423SOL    HW139902   3.626   1.854   5.809  1.8020 -0.1297  2.2944
 9423SOL    HW239903   3.761   1.791   5.811  0.9219  2.5650  0.5145
 9424SOL     OW39904   3.604   2.853   9.070  0.1697 -0.2635  0.6310
 9424SOL    HW139905   3.697   2.875   9.080  0.4758 -0.6583 -1.3496
 9424SOL    HW239906   3.606   2.762   9.040 -0.2373 -0.1881  0.3876
 9425SOL     OW39907   3.157   3.713   0.314  0.0913 -0.5183 -1.0542
 9425SOL    HW139908   3.241   3.750   0.342 -0.2824  1.2791 -2.2598
 9425SOL    HW239909   3.091   3.761   0.365  2.9668  2.5567 -0.2132
 9426SOL     OW39910   3.958   1.644  14.163  0.2311  0.3874 -0.3172
 9426SOL    HW139911   3.970   1.721  14.218  0.6155  0.5409 -0.6102
 9426SOL    HW239912   4.003   1.575  14.213 -2.2916 -1.1492 -0.1791
 9427SOL     OW39913   2.424   0.028  16.512 -0.2454  0.3238  0.4520
 9427SOL    HW139914   2.367   4.687  16.509 -1.3199  1.1751 -0.9426
 9427SOL    HW239915   2.375   0.099  16.556 -0.0489 -0.1965  1.5250
 9428SOL     OW39916   0.394   3.328   8.597  0.3138  0.9933  0.3249
 9428SOL    HW139917   0.483   3.352   8.572  0.2405 -1.8041 -2.6194
 9428SOL    HW239918   0.411   3.239   8.629 -2.3804 -0.2385 -1.6731
 9429SOL     OW39919   4.027   0.112   5.074  0.4290 -0.0005  0.2401
 9429SOL    HW139920   4.096   0.047   5.088 -1.4834 -1.5440  2.6506
 9429SOL    HW239921   3.979   0.123   5.157 -0.2159  3.8220 -0.6686
 9430SOL     OW39922   4.392   4.194   4.093  0.8389 -0.2517 -0.0690
 9430SOL    HW139923   4.439   4.276   4.111 -0.7401  0.5449  0.4133
 9430SOL    HW239924   4.451   4.149   4.032  1.8966  2.1748 -0.8408
 9431SOL     OW39925   2.774   3.904   6.204  0.1635 -0.2023 -0.1971
 9431SOL    HW139926   2.726   3.821   6.207 -1.6090  0.9554  3.1035
 9431SOL    HW239927   2.864   3.874   6.220  0.0303 -2.2091 -3.2345
 9432SOL     OW39928   3.786   2.635   7.673 -0.0642 -0.2287  0.2661
 9432SOL    HW139929   3.753   2.624   7.762 -1.2450 -1.7912 -0.3476
 9432SOL    HW239930   3.717   2.686   7.632 -0.3614  0.7086  1.9703
 9433SOL     OW39931   0.955   4.036   3.153 -0.2539  0.1371 -0.2147
 9433SOL    HW139932   0.996   4.030   3.067  0.8258 -0.9531  0.3770
 9433SOL    HW239933   1.018   4.079   3.211 -0.0757 -0.8183  0.3151
 9434SOL     OW39934   2.196   1.996   6.498 -0.0500 -0.0736  0.4491
 9434SOL    HW139935   2.148   2.054   6.438 -2.4934 -1.4262  1.1151
 9434SOL    HW239936   2.191   2.047   6.579  1.6060 -1.9460  1.7321
 9435SOL     OW39937   0.242   2.914   0.237  0.1892 -0.1637  0.6105
 9435SOL    HW139938   0.164   2.967   0.221  0.8411  1.4028  2.6444
 9435SOL    HW239939   0.209   2.824   0.242  0.8241 -0.3676  1.2144
 9436SOL     OW39940   2.539   3.816   8.167 -0.4968  0.4592 -0.3250
 9436SOL    HW139941   2.600   3.879   8.206  2.2648 -1.1970 -1.9881
 9436SOL    HW239942   2.580   3.790   8.084 -0.0391  1.7672 -0.5245
 9437SOL     OW39943   2.227   3.237   5.940  0.1409  0.2531  0.2834
 9437SOL    HW139944   2.303   3.272   5.987  1.6723 -0.8147 -1.3815
 9437SOL    HW239945   2.164   3.248   6.011 -0.9496 -2.2043 -0.2898
 9438SOL     OW39946   1.223   0.211   5.438  0.2678  0.4467 -0.0589
 9438SOL    HW139947   1.191   0.288   5.392  0.1719  1.0836  1.0780
 9438SOL    HW239948   1.184   0.136   5.393 -0.4709  0.5576  0.4059
 9439SOL     OW39949   0.269   0.060   5.433 -0.0269 -0.3984 -0.1978
 9439SOL    HW139950   0.301   0.043   5.344 -0.9566 -2.6988 -0.1080
 9439SOL    HW239951   0.213   0.136   5.423 -1.2781 -1.1480  1.1469
 9440SOL     OW39952   1.858   2.753   5.803  0.2148  0.1796  0.2900
 9440SOL    HW139953   1.857   2.740   5.898  0.0358  2.2170  0.5794
 9440SOL    HW239954   1.849   2.848   5.814  0.0414  0.0764  1.0393
 9441SOL     OW39955   1.057   0.048   7.476  0.1556 -0.3652  0.5130
 9441SOL    HW139956   1.108   4.731   7.415 -0.0450 -0.0599  0.0807
 9441SOL    HW239957   1.051   4.716   7.543 -0.9983  0.1013  0.8842
 9442SOL     OW39958   0.162   0.533  17.040 -0.2945  0.3849 -0.8852
 9442SOL    HW139959   0.130   0.573  17.121  3.9788 -0.2223  1.1550
 9442SOL    HW239960   0.186   0.609  16.987 -0.6074  0.1437 -1.3727
 9443SOL     OW39961   4.605   0.501   7.719  0.7108  0.0759  0.0696
 9443SOL    HW139962   4.518   0.517   7.757  0.1397 -0.8298 -0.8736
 9443SOL    HW239963   4.642   0.589   7.731 -1.1855  1.2628 -2.8487
 9444SOL     OW39964   4.459   3.659   8.533  0.3843  0.5693 -0.6484
 9444SOL    HW139965   4.465   3.565   8.517  2.8413  0.4778  0.7949
 9444SOL    HW239966   4.505   3.696   8.459 -0.8510  0.5687 -1.4146
 9445SOL     OW39967   3.278   4.242   6.093 -0.1787  0.0758 -0.0578
 9445SOL    HW139968   3.210   4.222   6.029 -0.4099 -1.8160  0.7978
 9445SOL    HW239969   3.232   4.257   6.176  1.6626 -1.2466  1.1878
 9446SOL     OW39970   3.685   2.934   6.341 -0.0180 -0.0655 -0.5093
 9446SOL    HW139971   3.766   2.931   6.291  0.2408  0.3115 -0.1052
 9446SOL    HW239972   3.694   2.871   6.412 -2.9498 -1.5392 -1.4341
 9447SOL     OW39973   1.323   2.766  14.746  0.0754 -0.0952 -0.5583
 9447SOL    HW139974   1.417   2.775  14.731 -0.4912  1.6243 -3.0773
 9447SOL    HW239975   1.319   2.695  14.810  0.7793  1.7454  1.5412
 9448SOL     OW39976   3.890   0.859   3.874 -0.2326 -0.1932 -0.2742
 9448SOL    HW139977   3.825   0.885   3.810  0.5329  0.4211 -0.8056
 9448SOL    HW239978   3.974   0.873   3.829  0.1859 -1.0527  0.2234
 9449SOL     OW39979   1.262   1.995   7.282  0.1153 -0.0877  0.2137
 9449SOL    HW139980   1.249   1.916   7.230  0.4822 -0.3355  0.5067
 9449SOL    HW239981   1.172   2.028   7.286  0.3449  0.5711  0.0531
 9450SOL     OW39982   0.393   4.313   0.412 -0.6099 -0.0872 -0.4722
 9450SOL    HW139983   0.409   4.219   0.406  0.8088  0.0879  0.6008
 9450SOL    HW239984   0.477   4.348   0.441 -0.6264 -0.0029 -0.5269
 9451SOL     OW39985   2.229   0.351   7.896  0.8961 -0.8431  0.1088
 9451SOL    HW139986   2.250   0.405   7.972 -0.8807 -1.3953  1.0176
 9451SOL    HW239987   2.272   0.268   7.918  2.0339  0.7454  3.8239
 9452SOL     OW39988   2.866   4.000   9.389 -0.2064 -0.3852  0.0604
 9452SOL    HW139989   2.921   4.053   9.332 -0.3284 -0.0052  0.2962
 9452SOL    HW239990   2.939   3.975   9.445  0.4273 -4.5229 -2.6626
 9453SOL     OW39991   2.218   2.946  14.426 -0.2808 -0.4798  0.5397
 9453SOL    HW139992   2.176   2.938  14.511  1.7607 -0.9838  1.4877
 9453SOL    HW239993   2.225   3.042  14.424 -1.2110 -0.4565 -2.3565
 9454SOL     OW39994   0.335   2.574   8.459 -0.8609  0.0524 -0.3223
 9454SOL    HW139995   0.262   2.576   8.520  1.0109  0.0939  1.8947
 9454SOL    HW239996   0.293   2.547   8.377  0.5263  1.4647 -1.5241
 9455SOL     OW39997   2.371   0.206   8.602  0.4897 -0.5349  0.4300
 9455SOL    HW139998   2.383   0.301   8.596  0.9499 -0.5226  1.4978
 9455SOL    HW239999   2.292   0.201   8.549  0.7756 -1.3067  0.0769
 9456SOL     OW40000   2.908   3.492  16.846 -0.0722  0.7828 -0.9473
 9456SOL    HW140001   2.877   3.521  16.760 -2.3186  0.3774 -0.2938
 9456SOL    HW240002   2.977   3.559  16.848  2.9276 -2.3533 -0.2671
 9457SOL     OW40003   0.514   0.653   7.678 -0.3681 -0.4944 -0.0709
 9457SOL    HW140004   0.506   0.569   7.722 -0.5280 -0.1504  0.5710
 9457SOL    HW240005   0.564   0.634   7.599  1.0968  2.3288  0.1759
 9458SOL     OW40006   2.701   1.143   5.212 -0.1897  0.1346  0.0436
 9458SOL    HW140007   2.707   1.192   5.294  0.4434 -0.0968  0.1340
 9458SOL    HW240008   2.789   1.153   5.175  0.6257  0.1309  2.0120
 9459SOL     OW40009   2.272   0.045   1.823  0.0618 -0.1860  0.4744
 9459SOL    HW140010   2.206   0.110   1.848  0.8609  1.0804 -0.7243
 9459SOL    HW240011   2.244   0.035   1.732  0.6134  0.2709  0.2580
 9460SOL     OW40012   0.185   0.611   8.493  0.2753  0.0242 -0.2412
 9460SOL    HW140013   0.128   0.555   8.546  0.0077 -0.0352 -0.5882
 9460SOL    HW240014   0.140   0.696   8.494  0.3827  0.0819 -0.5961
 9461SOL     OW40015   2.806   3.821   6.505 -0.3821  0.0758 -0.5953
 9461SOL    HW140016   2.863   3.897   6.496  0.0137 -0.0252  1.0377
 9461SOL    HW240017   2.773   3.839   6.593  2.1269  1.3573  0.0918
 9462SOL     OW40018   4.234   2.070   5.266 -0.5512  0.3360 -0.2709
 9462SOL    HW140019   4.247   2.016   5.188  1.8609 -0.1636  0.5000
 9462SOL    HW240020   4.311   2.126   5.258  0.1220 -0.5481  0.0966
 9463SOL     OW40021   1.595   0.329   4.418 -0.1426 -0.5539  0.6428
 9463SOL    HW140022   1.570   0.414   4.455 -0.4457  0.1409 -1.1380
 9463SOL    HW240023   1.599   0.269   4.492  0.5965  0.4826  1.4388
 9464SOL     OW40024   2.096   1.810  14.218 -0.6153 -0.9848  0.4125
 9464SOL    HW140025   2.056   1.729  14.248  0.1515 -0.9973  1.4272
 9464SOL    HW240026   2.050   1.870  14.277 -3.2200 -1.4599 -1.1149
 9465SOL     OW40027   3.829   1.697  10.191 -0.0862  0.1333  0.2020
 9465SOL    HW140028   3.907   1.663  10.147 -0.1742 -0.9641  0.9012
 9465SOL    HW240029   3.856   1.789  10.196  0.7969 -0.1340  0.2628
 9466SOL     OW40030   2.879   2.743   1.634  0.0219  0.2262  0.0353
 9466SOL    HW140031   2.903   2.767   1.723  0.7339 -0.5547  0.0592
 9466SOL    HW240032   2.916   2.815   1.583 -1.7798  1.9868  1.2202
 9467SOL     OW40033   0.554   3.492   8.320 -0.8177  0.2888 -0.3453
 9467SOL    HW140034   0.622   3.559   8.328 -0.9752  0.3186  0.7469
 9467SOL    HW240035   0.591   3.422   8.374 -0.2755 -0.3316 -1.5136
 9468SOL     OW40036   4.301   1.617  16.033  0.0724  0.0076 -0.1279
 9468SOL    HW140037   4.211   1.639  16.058 -0.1080  1.7671 -2.3545
 9468SOL    HW240038   4.343   1.610  16.119 -0.8334 -1.5995  0.1946
 9469SOL     OW40039   0.421   2.707   3.129  0.0081 -0.7178  0.0779
 9469SOL    HW140040   0.336   2.667   3.108  0.0514 -1.3086  1.0196
 9469SOL    HW240041   0.446   2.634   3.186 -0.9409 -0.9129  0.2511
 9470SOL     OW40042   0.019   4.559  10.255  0.7182  0.0462  0.4541
 9470SOL    HW140043   0.097   4.549  10.202 -0.1076 -0.4087 -0.6718
 9470SOL    HW240044   4.710   4.475  10.251  1.3398 -0.1887 -1.2608
 9471SOL     OW40045   3.763   0.167   1.570 -0.4649 -0.0477  0.2256
 9471SOL    HW140046   3.701   0.237   1.547  0.6485  0.5621 -0.9521
 9471SOL    HW240047   3.741   0.100   1.506  2.2687 -1.0555  0.3276
 9472SOL     OW40048   0.402   1.255   3.082  0.8033  0.1949  0.2135
 9472SOL    HW140049   0.353   1.273   3.162 -0.4633  0.9507 -0.7427
 9472SOL    HW240050   0.492   1.266   3.112  0.6790 -0.7512  0.9465
 9473SOL     OW40051   1.815   2.232   3.189  0.1273  0.0514  0.3346
 9473SOL    HW140052   1.772   2.258   3.271 -2.1888 -1.6284 -0.3235
 9473SOL    HW240053   1.887   2.175   3.218  0.4257 -0.3220 -1.1694
 9474SOL     OW40054   0.764   0.227  11.121 -0.4189 -0.0045 -0.5063
 9474SOL    HW140055   0.734   0.202  11.033 -1.0476  1.9239 -0.8252
 9474SOL    HW240056   0.826   0.296  11.099 -1.1732  1.4022  1.7705
 9475SOL     OW40057   1.963   3.854   9.504 -0.3124 -0.0355 -0.4245
 9475SOL    HW140058   1.937   3.851   9.597  1.3263  0.6034  0.0480
 9475SOL    HW240059   2.056   3.835   9.509 -0.0694  1.8259  2.2291
 9476SOL     OW40060   0.946   3.643  15.641  0.3046 -0.3069 -0.1876
 9476SOL    HW140061   0.927   3.665  15.550 -2.5756 -0.5484  0.3688
 9476SOL    HW240062   0.956   3.731  15.678  0.5488 -0.1726 -0.5789
 9477SOL     OW40063   4.043   1.406  14.738 -0.5019 -0.1677 -0.0317
 9477SOL    HW140064   4.000   1.464  14.801  1.1032  0.6600  0.3129
 9477SOL    HW240065   4.073   1.338  14.798  0.1534  1.9136  2.0261
 9478SOL     OW40066   4.483   3.910   0.683 -0.4203 -0.3377  0.2659
 9478SOL    HW140067   4.554   3.964   0.649 -0.6356  1.6976  3.0057
 9478SOL    HW240068   4.423   3.974   0.720  0.0767 -0.3253  1.0488
 9479SOL     OW40069   2.981   3.699  11.609  0.0003 -0.4187 -0.8787
 9479SOL    HW140070   3.051   3.663  11.663 -1.3163 -1.1919  0.3061
 9479SOL    HW240071   3.024   3.774  11.567 -0.6264  1.2752  1.4837
 9480SOL     OW40072   1.697   0.878   7.279 -0.4914 -0.4399  0.5974
 9480SOL    HW140073   1.734   0.958   7.318 -1.0983  0.8191 -1.3782
 9480SOL    HW240074   1.711   0.907   7.188 -0.0191  0.0605  0.8261
 9481SOL     OW40075   3.548   1.066   3.404  0.7580  0.3237 -0.2711
 9481SOL    HW140076   3.616   1.132   3.394  2.2478 -0.8845  1.7805
 9481SOL    HW240077   3.483   1.111   3.350  1.9700  1.2016 -0.9782
 9482SOL     OW40078   4.153   4.460   5.325 -0.5481  0.2037 -0.1071
 9482SOL    HW140079   4.203   4.402   5.382  1.1258  2.1576  0.4342
 9482SOL    HW240080   4.121   4.389   5.270  0.3829 -0.9241  0.8338
 9483SOL     OW40081   0.498   4.537   4.448  0.2611 -0.3213 -0.1971
 9483SOL    HW140082   0.590   4.525   4.424  0.4184  2.3139 -0.8915
 9483SOL    HW240083   0.478   4.621   4.407  0.1250  0.1892  0.9196
 9484SOL     OW40084   0.246   3.330   7.064  0.2268 -0.4554  0.1288
 9484SOL    HW140085   0.232   3.312   6.971 -2.4629  3.6554 -0.2672
 9484SOL    HW240086   0.206   3.416   7.078  0.2068  0.3887 -4.7559
 9485SOL     OW40087   3.830   3.720  11.592 -0.1701 -0.4992 -0.1703
 9485SOL    HW140088   3.890   3.782  11.634 -0.7793 -0.0971  0.1005
 9485SOL    HW240089   3.749   3.765  11.615 -0.4209 -1.3013  0.5181
 9486SOL     OW40090   2.973   4.185  15.887 -0.2458 -0.1372  0.1392
 9486SOL    HW140091   2.948   4.219  15.973  0.7174  0.0608  0.3388
 9486SOL    HW240092   3.047   4.243  15.867 -0.4661  0.3004  0.5688
 9487SOL     OW40093   3.882   1.959   1.643  0.7033  0.2349 -0.4497
 9487SOL    HW140094   3.954   1.990   1.697  0.9761  0.8448 -1.1706
 9487SOL    HW240095   3.900   2.015   1.568  1.4445  0.7250  0.0985
 9488SOL     OW40096   4.467   2.113   7.815 -0.4430 -0.1187  0.3190
 9488SOL    HW140097   4.480   2.193   7.765  5.5806 -0.7473  0.8663
 9488SOL    HW240098   4.430   2.051   7.752 -1.1255  2.8362 -2.2082
 9489SOL     OW40099   3.964   1.680  12.732 -0.5601 -0.2758  0.1480
 9489SOL    HW140100   3.884   1.696  12.782 -0.0184  0.1417  0.8764
 9489SOL    HW240101   3.929   1.617  12.668 -0.0584 -0.8487  0.4375
 9490SOL     OW40102   0.564   0.299  12.844 -0.5216 -0.1664 -0.3774
 9490SOL    HW140103   0.528   0.372  12.896  0.0162  2.7278 -4.0914
 9490SOL    HW240104   0.602   0.235  12.904  3.6238  2.1904 -0.5065
 9491SOL     OW40105   1.716   0.885   6.246  0.4510  0.4970 -0.1470
 9491SOL    HW140106   1.663   0.962   6.268 -0.6420  0.4766 -2.6872
 9491SOL    HW240107   1.692   0.828   6.319  0.3747  0.9543  0.1911
 9492SOL     OW40108   2.374   0.070   2.285  0.0705 -0.1403  0.0636
 9492SOL    HW140109   2.430   0.042   2.357 -0.5146  0.7340  0.8510
 9492SOL    HW240110   2.434   0.133   2.244 -1.1439  0.4808 -0.7711
 9493SOL     OW40111   3.776   1.209   2.288 -0.5173  0.4155 -0.4945
 9493SOL    HW140112   3.818   1.266   2.223  0.1570 -0.5346 -0.8936
 9493SOL    HW240113   3.690   1.250   2.296 -1.8271 -2.8125  1.9585
 9494SOL     OW40114   3.650   3.809  12.021  0.4105 -0.2188  0.3532
 9494SOL    HW140115   3.596   3.797  11.943  2.2660 -2.2601 -0.5968
 9494SOL    HW240116   3.710   3.735  12.015  1.7952  0.8659  0.7937
 9495SOL     OW40117   0.869   1.365   8.837  0.1143 -0.1976 -0.5479
 9495SOL    HW140118   0.849   1.304   8.766 -0.8381 -1.2783  0.6535
 9495SOL    HW240119   0.798   1.351   8.899  1.2903  0.8834  1.0308
 9496SOL     OW40120   3.422   2.601   4.167 -0.1419 -0.1428 -0.9554
 9496SOL    HW140121   3.413   2.645   4.083 -0.7073 -1.3952 -1.5470
 9496SOL    HW240122   3.383   2.516   4.149  1.8450 -1.1273 -0.5597
 9497SOL     OW40123   3.925   3.349   9.332  0.3649  0.0830 -0.1143
 9497SOL    HW140124   3.877   3.389   9.260  0.5624 -0.5474 -0.5955
 9497SOL    HW240125   3.994   3.298   9.289  2.4526  1.5950  1.4990
 9498SOL     OW40126   1.979   2.888   9.108 -0.8291 -0.0030  0.0613
 9498SOL    HW140127   1.929   2.884   9.189  1.3839  2.0517  1.5682
 9498SOL    HW240128   2.043   2.956   9.131  0.4084 -1.5959  1.2886
 9499SOL     OW40129   3.556   0.302  10.773 -0.3328  0.0581 -0.6086
 9499SOL    HW140130   3.552   0.283  10.867  0.2319 -1.2408 -0.8494
 9499SOL    HW240131   3.638   0.351  10.768 -0.5433  0.2689 -1.8091
 9500SOL     OW40132   0.485   3.871   7.476 -0.9334  0.1463  0.0081
 9500SOL    HW140133   0.537   3.794   7.455  0.8506  2.5078 -4.3066
 9500SOL    HW240134   0.509   3.898   7.564  3.3604 -1.3812 -0.7303
 9501SOL     OW40135   2.775   3.613  15.903  0.3382  0.2677  0.4003
 9501SOL    HW140136   2.778   3.704  15.873 -0.5524 -0.3922 -1.6453
 9501SOL    HW240137   2.867   3.589  15.900  0.2013 -0.0946 -0.5987
 9502SOL     OW40138   4.294   0.142   2.407 -0.1837  0.2658 -0.6332
 9502SOL    HW140139   4.335   0.083   2.344 -0.4112 -0.7535  0.1576
 9502SOL    HW240140   4.286   0.223   2.357  2.1598  0.5412 -0.5709
 9503SOL     OW40141   3.215   3.194   8.779  0.0277 -0.1806 -0.0266
 9503SOL    HW140142   3.274   3.232   8.843  1.0808  1.6460 -2.0719
 9503SOL    HW240143   3.198   3.110   8.822  3.0622 -0.5781  0.4167
 9504SOL     OW40144   0.670   4.634   2.463 -0.1310 -0.5160  0.0470
 9504SOL    HW140145   0.695   4.720   2.498 -2.8394  0.5546 -0.7035
 9504SOL    HW240146   0.583   4.638   2.425 -0.2471 -2.5918  0.0998
 9505SOL     OW40147   0.038   0.872   2.232  0.1303 -0.4307 -0.4561
 9505SOL    HW140148   0.077   0.932   2.295 -1.1624 -1.5265  1.4067
 9505SOL    HW240149   0.117   0.859   2.180  1.1933  0.5363  0.9248
 9506SOL     OW40150   4.066   2.338  16.012  0.2550 -0.6968  0.2616
 9506SOL    HW140151   4.097   2.361  16.099  0.7012 -1.6980  0.3705
 9506SOL    HW240152   4.118   2.266  15.975 -2.8877 -1.9376 -1.8149
 9507SOL     OW40153   4.241   3.670  14.318 -0.2569  0.0069  0.5884
 9507SOL    HW140154   4.168   3.608  14.316 -2.1380  2.2009  1.6270
 9507SOL    HW240155   4.264   3.653  14.227  0.3372 -1.0373  0.9230
 9508SOL     OW40156   1.309   3.951  11.941 -0.5138 -0.1254 -0.0136
 9508SOL    HW140157   1.364   3.968  12.018  0.2086 -0.7340 -0.3932
 9508SOL    HW240158   1.278   3.864  11.968  0.1375  0.0166  1.2325
 9509SOL     OW40159   4.513   3.376   4.625  0.3434 -0.1737  0.1503
 9509SOL    HW140160   4.589   3.389   4.569  0.8675  1.1674  1.1794
 9509SOL    HW240161   4.442   3.395   4.563 -1.1599 -1.3387  1.4887
 9510SOL     OW40162   2.010   1.022   9.748  0.4109 -0.1190  0.6893
 9510SOL    HW140163   1.938   0.970   9.714  0.8832 -0.1189 -0.2962
 9510SOL    HW240164   2.029   0.988   9.836  1.0187  1.1132  1.0415
 9511SOL     OW40165   1.737   2.128   2.116  0.2043 -0.3204 -0.3151
 9511SOL    HW140166   1.813   2.079   2.147 -0.3877 -0.0651  1.5204
 9511SOL    HW240167   1.674   2.097   2.181 -0.1378 -0.3929 -0.6770
 9512SOL     OW40168   3.139   3.447   0.664 -0.5205  0.0246 -0.1352
 9512SOL    HW140169   3.179   3.451   0.577 -0.0414  2.5041  0.2149
 9512SOL    HW240170   3.156   3.359   0.699  3.1446 -0.2081 -2.4636
 9513SOL     OW40171   2.721   0.032   2.630  0.1068 -0.4630  0.0696
 9513SOL    HW140172   2.789   4.723   2.680 -1.2296 -1.1297  1.3050
 9513SOL    HW240173   2.645   0.007   2.683  0.6617 -2.9424 -0.2959
 9514SOL     OW40174   2.186   2.048   6.764 -0.1250 -0.6596  0.3228
 9514SOL    HW140175   2.214   2.096   6.841  0.0756  2.6579 -1.8422
 9514SOL    HW240176   2.195   1.961   6.803 -0.6724 -0.9118 -0.1011
 9515SOL     OW40177   0.368   3.399   5.698  0.3864 -0.5408  0.3732
 9515SOL    HW140178   0.394   3.325   5.643  1.2441 -1.0858  1.5022
 9515SOL    HW240179   0.281   3.365   5.718 -0.8630  2.5118  0.0289
 9516SOL     OW40180   2.296   2.801   5.816 -0.4613 -0.1622 -0.4651
 9516SOL    HW140181   2.264   2.882   5.853 -0.3178 -0.1759 -0.3135
 9516SOL    HW240182   2.315   2.747   5.892  2.2685 -0.4467 -1.3202
 9517SOL     OW40183   3.929   4.624   9.817 -0.2668 -0.5161 -0.1015
 9517SOL    HW140184   3.996   4.558   9.801  2.6418  2.1726  0.9572
 9517SOL    HW240185   3.877   4.629   9.737  0.3836  0.1865 -0.4844
 9518SOL     OW40186   2.983   0.587  13.253  0.1768  0.2738 -0.0410
 9518SOL    HW140187   3.055   0.565  13.313  2.5867  2.2884 -2.2043
 9518SOL    HW240188   3.011   0.676  13.231  1.1114 -0.2790 -1.1161
 9519SOL     OW40189   0.901   0.709  13.591  0.0305  0.1909  0.9383
 9519SOL    HW140190   0.965   0.660  13.643  1.1556 -1.1689 -1.7330
 9519SOL    HW240191   0.950   0.789  13.571  0.4545 -0.1674  0.5261
 9520SOL     OW40192   0.849   2.848   5.222 -0.2434 -0.4237  0.5220
 9520SOL    HW140193   0.910   2.816   5.289  0.3930 -0.6067 -0.1440
 9520SOL    HW240194   0.888   2.809   5.144 -1.2820  1.1296 -0.7668
 9521SOL     OW40195   1.470   2.187   1.245 -0.2014  0.1140 -0.0461
 9521SOL    HW140196   1.406   2.257   1.253  0.1224  0.1798  1.9975
 9521SOL    HW240197   1.432   2.126   1.308 -0.6955  2.2696  1.7342
 9522SOL     OW40198   4.304   0.370  17.630  0.0866  0.1205 -0.3879
 9522SOL    HW140199   4.274   0.352  17.541  0.0084 -1.1076 -0.1258
 9522SOL    HW240200   4.329   0.460  17.612  3.4579 -1.0968 -1.6280
 9523SOL     OW40201   1.294   0.292  11.464 -0.5040  0.5165 -0.0920
 9523SOL    HW140202   1.205   0.311  11.494 -0.1457  0.5026  0.9901
 9523SOL    HW240203   1.325   0.238  11.537  1.3457  1.2643 -0.3062
 9524SOL     OW40204   0.560   3.830  11.114 -0.0239  0.2383  0.2917
 9524SOL    HW140205   0.548   3.801  11.204 -1.5849  1.1106  0.3685
 9524SOL    HW240206   0.592   3.750  11.073  0.8092  1.5623 -1.6286
 9525SOL     OW40207   3.556   1.647   3.527  0.3601  0.7464 -0.2333
 9525SOL    HW140208   3.504   1.572   3.553 -0.4032  0.4885 -2.4805
 9525SOL    HW240209   3.502   1.682   3.456  0.0132  0.1980 -0.2369
 9526SOL     OW40210   3.761   0.482   1.265  0.2230 -0.0500  0.0378
 9526SOL    HW140211   3.722   0.566   1.289  0.0908  0.2260 -1.1260
 9526SOL    HW240212   3.683   0.427   1.259 -1.1188  1.6354  1.8700
 9527SOL     OW40213   1.119   1.625   6.900 -0.5655 -0.0079  0.2287
 9527SOL    HW140214   1.109   1.697   6.837  1.8712 -1.8498 -2.2332
 9527SOL    HW240215   1.210   1.602   6.881 -0.2090  0.9651  0.7520
 9528SOL     OW40216   0.017   1.527   2.959  0.5779  0.1071  1.0972
 9528SOL    HW140217   0.070   1.580   3.018  0.9079  0.1742  0.7428
 9528SOL    HW240218   0.071   1.511   2.881  0.0573 -0.4032  0.8477
 9529SOL     OW40219   3.997   3.478   3.007  0.0776 -0.1589 -0.5662
 9529SOL    HW140220   4.080   3.518   3.033  0.1170 -1.8735  1.8887
 9529SOL    HW240221   3.952   3.562   2.998  0.6064  0.2743  0.8734
 9530SOL     OW40222   1.568   3.623   6.039  0.5400  0.0400  0.5166
 9530SOL    HW140223   1.522   3.675   6.105 -0.0726 -0.5431  0.5411
 9530SOL    HW240224   1.539   3.667   5.959 -0.5000 -1.3200  0.1539
 9531SOL     OW40225   0.376   0.931   3.857  0.1026  0.3977 -0.0859
 9531SOL    HW140226   0.460   0.893   3.831  0.6638 -1.0218  3.8182
 9531SOL    HW240227   0.350   1.000   3.796 -0.2177  1.5986  1.4245
 9532SOL     OW40228   3.026   2.083   6.225 -0.5714 -0.2265 -0.0615
 9532SOL    HW140229   3.061   2.012   6.171  1.5496  2.3121 -2.0346
 9532SOL    HW240230   2.944   2.037   6.243  0.8110 -2.0096  1.6683
 9533SOL     OW40231   1.143   0.692   5.473 -0.4368 -0.0766 -0.5050
 9533SOL    HW140232   1.107   0.618   5.522  2.0441  0.6800  2.4520
 9533SOL    HW240233   1.109   0.759   5.533 -1.4074 -0.1688 -0.9480
 9534SOL     OW40234   3.137   1.689   2.399  0.0883  0.2095 -0.4081
 9534SOL    HW140235   3.100   1.759   2.453 -1.7140 -1.3210  0.3370
 9534SOL    HW240236   3.061   1.632   2.404 -0.3601  0.6989 -1.5784
 9535SOL     OW40237   4.424   1.325   4.894  0.3027 -0.4423  0.1200
 9535SOL    HW140238   4.422   1.229   4.897  0.6095 -0.3841  1.9807
 9535SOL    HW240239   4.516   1.344   4.913  0.4238  0.0861 -1.0245
 9536SOL     OW40240   2.001   0.329   2.572  0.2812  0.2425 -0.4390
 9536SOL    HW140241   2.073   0.272   2.545  0.9282  1.4770 -1.3142
 9536SOL    HW240242   2.004   0.390   2.498  2.2690 -0.5165 -0.9917
 9537SOL     OW40243   3.078   3.148   2.935  0.1997  0.5006  0.0692
 9537SOL    HW140244   3.105   3.082   3.000 -0.5302  1.3001  1.1910
 9537SOL    HW240245   3.034   3.092   2.871  2.9999  0.3859 -1.7220
 9538SOL     OW40246   3.270   1.994   2.534  0.1257  0.8302 -0.6694
 9538SOL    HW140247   3.301   2.070   2.582  0.5979 -1.2066  2.2796
 9538SOL    HW240248   3.354   1.984   2.489  1.0037  3.0499  0.4672
 9539SOL     OW40249   1.249   3.019   9.226 -0.8650  0.0175 -0.3363
 9539SOL    HW140250   1.306   3.051   9.296 -0.4110 -1.7635  0.0883
 9539SOL    HW240251   1.174   3.075   9.249 -0.5554 -0.3648  1.5632
 9540SOL     OW40252   4.290   4.235  14.631  0.2097  0.3024  0.1420
 9540SOL    HW140253   4.338   4.153  14.638 -2.1420 -1.1580 -0.6570
 9540SOL    HW240254   4.358   4.302  14.631 -1.2834  1.8309  0.4297
 9541SOL     OW40255   2.191   2.564   9.696 -0.4956 -0.0049  0.6013
 9541SOL    HW140256   2.190   2.632   9.628 -0.4059 -1.3185 -0.7316
 9541SOL    HW240257   2.116   2.516   9.660 -0.3576 -0.1373  0.4912
 9542SOL     OW40258   3.043   1.170  15.412 -0.6607 -0.2641 -0.5466
 9542SOL    HW140259   3.052   1.114  15.335  1.1530 -0.1986 -0.3909
 9542SOL    HW240260   2.955   1.157  15.447  0.1179 -1.9877  0.7804
 9543SOL     OW40261   4.340   2.907   4.772 -0.0341 -0.1364  0.8374
 9543SOL    HW140262   4.367   2.816   4.760  0.6445  0.1504  0.1968
 9543SOL    HW240263   4.359   2.942   4.685 -1.2771 -0.5349  0.3908
 9544SOL     OW40264   3.757   3.456   9.099 -0.2494  0.3186  0.4948
 9544SOL    HW140265   3.687   3.486   9.041 -1.1016 -2.8497 -0.1159
 9544SOL    HW240266   3.748   3.366   9.070 -1.8010  0.3176  1.0062
 9545SOL     OW40267   3.136   3.346  16.292 -0.2211  0.3507 -0.1105
 9545SOL    HW140268   3.173   3.265  16.326 -1.2618 -0.0490  0.0855
 9545SOL    HW240269   3.103   3.317  16.206 -0.2634  2.6439 -0.8676
 9546SOL     OW40270   1.761   3.364  16.214 -0.1081  0.7805 -0.0191
 9546SOL    HW140271   1.755   3.431  16.282  2.8748  0.3510  0.6883
 9546SOL    HW240272   1.671   3.356  16.183  0.2156  2.0737 -1.2600
 9547SOL     OW40273   0.812   4.122   3.627  0.4061 -0.5513 -0.5765
 9547SOL    HW140274   0.879   4.190   3.631 -0.8263  0.6157  0.3448
 9547SOL    HW240275   0.849   4.074   3.553 -1.1405 -2.9591  0.2134
 9548SOL     OW40276   4.425   3.573   9.449 -0.0395  0.2085 -0.5005
 9548SOL    HW140277   4.367   3.498   9.462  1.4526 -1.1166 -1.3546
 9548SOL    HW240278   4.511   3.532   9.458  0.7859  1.9534 -0.3755
 9549SOL     OW40279   2.157   2.156   8.138 -0.0530 -0.3768 -0.0624
 9549SOL    HW140280   2.158   2.208   8.218 -0.1963  2.1871 -1.7560
 9549SOL    HW240281   2.247   2.167   8.107 -0.3210 -0.7689 -0.9674
 9550SOL     OW40282   1.818   0.156   4.945 -0.1534  0.4449  0.2743
 9550SOL    HW140283   1.798   0.108   5.025 -0.8201 -1.0493 -0.8030
 9550SOL    HW240284   1.866   0.229   4.985 -2.0199  0.0381  3.2303
 9551SOL     OW40285   4.459   3.638   3.866 -0.2834 -0.1102  0.5396
 9551SOL    HW140286   4.382   3.676   3.908 -0.5447 -0.8999  0.7872
 9551SOL    HW240287   4.466   3.699   3.792 -0.4764  0.2355  0.8060
 9552SOL     OW40288   0.015   3.321   8.101 -0.6312  0.8031  1.2964
 9552SOL    HW140289   4.699   3.240   8.111 -1.1674  0.8004 -1.6889
 9552SOL    HW240290   0.098   3.278   8.084 -1.6951 -0.8628  0.3179
 9553SOL     OW40291   3.411   1.296   2.627 -0.5267 -0.5385  0.4501
 9553SOL    HW140292   3.489   1.248   2.601  1.5449  1.7052  2.4313
 9553SOL    HW240293   3.436   1.382   2.662 -1.7631 -0.4329  1.0840
 9554SOL     OW40294   3.919   3.962   8.692 -0.5819 -0.2970  0.1020
 9554SOL    HW140295   3.824   3.952   8.698 -0.6077  0.2268  0.6049
 9554SOL    HW240296   3.930   4.047   8.651  2.2033 -0.1059  1.2266
 9555SOL     OW40297   3.685   0.641   5.286 -0.4163 -0.0726  0.3879
 9555SOL    HW140298   3.714   0.557   5.250 -0.3815  1.3549 -2.9546
 9555SOL    HW240299   3.673   0.633   5.380  2.1247  1.7205  0.8743
 9556SOL     OW40300   0.663   3.292   9.862  0.0225  0.0589 -0.0214
 9556SOL    HW140301   0.635   3.340   9.784  0.3671  1.9515  1.0193
 9556SOL    HW240302   0.701   3.360   9.918 -0.0015  0.4241 -0.4468
 9557SOL     OW40303   4.077   1.177  14.884 -0.0345 -0.5161  0.6965
 9557SOL    HW140304   4.007   1.171  14.949 -1.1301 -1.0420 -0.5372
 9557SOL    HW240305   4.069   1.103  14.824  1.7676 -1.5677  1.7522
 9558SOL     OW40306   2.723   0.614  11.654  0.2301  0.1736  0.3533
 9558SOL    HW140307   2.687   0.535  11.615  0.8371 -0.0812  0.3023
 9558SOL    HW240308   2.769   0.645  11.575 -0.6762  0.7767  0.0572
 9559SOL     OW40309   4.442   4.730   7.496 -0.4740 -0.0033 -0.2652
 9559SOL    HW140310   4.454   0.062   7.430 -1.4625  0.1301 -0.3078
 9559SOL    HW240311   4.346   4.726   7.489 -0.4386 -0.5283 -0.5125
 9560SOL     OW40312   0.006   0.710   7.033 -0.1449  0.0135 -0.7804
 9560SOL    HW140313   0.022   0.777   6.966  0.4113 -0.6523 -1.3180
 9560SOL    HW240314   0.019   0.637   6.973  1.8693 -1.6892  1.7208
 9561SOL     OW40315   3.457   1.307   2.281 -0.2461  0.2673 -0.0131
 9561SOL    HW140316   3.398   1.269   2.215 -0.0998  0.3433 -0.1867
 9561SOL    HW240317   3.476   1.232   2.338  0.0758  0.9579  0.7729
 9562SOL     OW40318   2.305   1.333   9.508  0.2217 -0.1471  0.9355
 9562SOL    HW140319   2.216   1.305   9.526  0.4362 -0.6669  1.2072
 9562SOL    HW240320   2.353   1.267   9.559 -1.6670 -2.6507 -0.5836
 9563SOL     OW40321   4.501   4.338   9.176  0.0226 -0.4077 -0.5364
 9563SOL    HW140322   4.455   4.416   9.208  1.4154 -0.1168  0.7711
 9563SOL    HW240323   4.589   4.378   9.174 -1.0541  1.9957 -0.0349
 9564SOL     OW40324   0.529   3.049   3.473  1.1758 -0.6523 -0.2863
 9564SOL    HW140325   0.541   3.122   3.533 -2.7812  1.3148 -1.8630
 9564SOL    HW240326   0.586   3.084   3.405 -0.8340  0.0051 -1.6244
 9565SOL     OW40327   3.665   1.271  13.999 -0.3738 -0.1060  0.0072
 9565SOL    HW140328   3.595   1.209  14.020  0.2105 -0.6427  0.3548
 9565SOL    HW240329   3.737   1.212  13.977 -0.8155 -0.9823  0.9394
 9566SOL     OW40330   2.394   4.047   1.918  0.4812 -0.4361 -0.2281
 9566SOL    HW140331   2.468   4.009   1.964 -1.8325 -2.6467  1.6461
 9566SOL    HW240332   2.338   3.969   1.919 -0.9442  0.5702 -1.6027
 9567SOL     OW40333   3.145   2.164  12.547 -0.3367  0.1132 -0.1804
 9567SOL    HW140334   3.071   2.160  12.607 -1.1182 -1.2098 -1.2521
 9567SOL    HW240335   3.096   2.210  12.479 -3.4072  0.1062  2.0426
 9568SOL     OW40336   2.881   3.585   8.075  0.0236  0.0688 -0.4648
 9568SOL    HW140337   2.819   3.512   8.080 -0.6062  0.6592  0.2724
 9568SOL    HW240338   2.901   3.598   8.167  0.8412 -3.1251 -0.1834
 9569SOL     OW40339   0.755   2.423   7.519  0.0810 -0.5003 -0.4094
 9569SOL    HW140340   0.762   2.376   7.602  1.1921  0.4835  0.0562
 9569SOL    HW240341   0.678   2.386   7.476  1.1468 -2.1683 -0.8717
 9570SOL     OW40342   1.452   0.516   7.973  0.3495 -0.1627  0.3015
 9570SOL    HW140343   1.489   0.479   8.053 -2.1297 -1.4910  0.8456
 9570SOL    HW240344   1.413   0.441   7.927 -0.1579  0.0706  0.3425
 9571SOL     OW40345   0.352   1.602  13.510  0.4580  0.3441 -0.2116
 9571SOL    HW140346   0.424   1.627  13.567  1.4041 -1.9917 -0.3860
 9571SOL    HW240347   0.397   1.618  13.426  0.7006  0.0003 -0.1480
   4.73576   4.73576  17.74170
